<event>
 5    1  0.1020718E-008  0.3705362E+03  0.7957747E-01  0.3493430E+00
         13   -1    0    0    0    0  0.00000000000E+00  0.00000000000E+00  0.14999999963E+04  0.15000000000E+04  0.10566000000E+00 0. -1.
        994   -1    0    0    0    0 -0.00000000000E+00 -0.00000000000E+00  0.11368683772E-12  0.17120000000E+03  0.17120000000E+03 0.  0.
         13    1    1    2    0    0 -0.45580217912E+02 -0.38619068517E+02  0.16416699039E+03  0.17469917176E+03  0.10566000000E+00 0. -1.
        994    1    1    2    0    0  0.72827688529E+01  0.28400414871E+02  0.14239396571E+02  0.17427513506E+03  0.17120000000E+03 0.  0.
        998    1    1    2    0    0  0.38297449059E+02  0.10218653646E+02  0.13215936093E+04  0.13222256932E+04  0.10000000000E+02 0. -1.
</event>
<event>
 5    1  0.1020718E-008  0.3852472E+03  0.7957747E-01  0.3428624E+00
         13   -1    0    0    0    0  0.00000000000E+00  0.00000000000E+00  0.14999999963E+04  0.15000000000E+04  0.10566000000E+00 0. -1.
        994   -1    0    0    0    0 -0.00000000000E+00 -0.00000000000E+00  0.11368683772E-12  0.17120000000E+03  0.17120000000E+03 0.  0.
         13    1    1    2    0    0  0.11760131968E+02 -0.32531435020E+01  0.58238385889E+02  0.59502978090E+02  0.10566000000E+00 0. -1.
        994    1    1    2    0    0  0.17260381425E+02 -0.24593201221E+01  0.25069335304E+01  0.17210372959E+03  0.17120000000E+03 0.  0.
        998    1    1    2    0    0 -0.29020513392E+02  0.57124636241E+01  0.14392546769E+04  0.14395932923E+04  0.10000000000E+02 0. -1.
</event>
<event>
 5    1  0.1020718E-008  0.3847981E+03  0.7957747E-01  0.3430529E+00
         13   -1    0    0    0    0  0.00000000000E+00  0.00000000000E+00  0.14999999963E+04  0.15000000000E+04  0.10566000000E+00 0.  1.
        994   -1    0    0    0    0 -0.00000000000E+00 -0.00000000000E+00  0.11368683772E-12  0.17120000000E+03  0.17120000000E+03 0.  0.
         13    1    1    2    0    0  0.19510044283E+02  0.11576544505E+02  0.13392167146E+03  0.13582961188E+03  0.10566000000E+00 0.  1.
        994    1    1    2    0    0 -0.26136591227E+02 -0.69514725051E+01  0.41411499263E+01  0.17337252808E+03  0.17120000000E+03 0.  0.
        998    1    1    2    0    0  0.66265469442E+01 -0.46250720002E+01  0.13619371749E+04  0.13619978600E+04  0.10000000000E+02 0.  1.
</event>
<event>
 5    1  0.1020718E-008  0.3822206E+03  0.7957747E-01  0.3441546E+00
         13   -1    0    0    0    0  0.00000000000E+00  0.00000000000E+00  0.14999999963E+04  0.15000000000E+04  0.10566000000E+00 0. -1.
        994   -1    0    0    0    0 -0.00000000000E+00 -0.00000000000E+00  0.11368683772E-12  0.17120000000E+03  0.17120000000E+03 0.  0.
         13    1    1    2    0    0 -0.15470798914E+02  0.93082870252E+01  0.57726972089E+02  0.60484744332E+02  0.10566000000E+00 0. -1.
        994    1    1    2    0    0 -0.80770314221E+00  0.11496788758E+02  0.34573204553E+01  0.17162232256E+03  0.17120000000E+03 0.  0.
        998    1    1    2    0    0  0.16278502056E+02 -0.20805075783E+02  0.14388157037E+04  0.14390929331E+04  0.10000000000E+02 0. -1.
</event>
<event>
 5    1  0.1020718E-008  0.3818698E+03  0.7957747E-01  0.3443057E+00
         13   -1    0    0    0    0  0.00000000000E+00  0.00000000000E+00  0.14999999963E+04  0.15000000000E+04  0.10566000000E+00 0. -1.
        994   -1    0    0    0    0 -0.00000000000E+00 -0.00000000000E+00  0.11368683772E-12  0.17120000000E+03  0.17120000000E+03 0.  0.
         13    1    1    2    0    0  0.13250652740E+02  0.23349291487E+02  0.10518518636E+03  0.10855737564E+03  0.10566000000E+00 0. -1.
        994    1    1    2    0    0 -0.17208874169E+02 -0.21127402728E+02  0.56630580797E+01  0.17344746387E+03  0.17120000000E+03 0.  0.
        998    1    1    2    0    0  0.39582214290E+01 -0.22218887595E+01  0.13891517518E+04  0.13891951605E+04  0.10000000000E+02 0. -1.
</event>
<event>
 5    1  0.1020718E-008  0.3700194E+03  0.7957747E-01  0.3495802E+00
         13   -1    0    0    0    0  0.00000000000E+00  0.00000000000E+00  0.14999999963E+04  0.15000000000E+04  0.10566000000E+00 0. -1.
        994   -1    0    0    0    0 -0.00000000000E+00 -0.00000000000E+00  0.11368683772E-12  0.17120000000E+03  0.17120000000E+03 0.  0.
         13    1    1    2    0    0 -0.31560126402E+02 -0.16999035555E+02  0.53351157773E+02  0.64275702937E+02  0.10566000000E+00 0. -1.
        994    1    1    2    0    0  0.28304867222E+02  0.14737528755E+02  0.14517813694E+02  0.17475287459E+03  0.17120000000E+03 0.  0.
        998    1    1    2    0    0  0.32552591800E+01  0.22615067998E+01  0.14321310248E+04  0.14321714225E+04  0.10000000000E+02 0. -1.
</event>
<event>
 5    1  0.1020718E-008  0.3832580E+03  0.7957747E-01  0.3437094E+00
         13   -1    0    0    0    0  0.00000000000E+00  0.00000000000E+00  0.14999999963E+04  0.15000000000E+04  0.10566000000E+00 0.  1.
        994   -1    0    0    0    0 -0.00000000000E+00 -0.00000000000E+00  0.11368683772E-12  0.17120000000E+03  0.17120000000E+03 0.  0.
         13    1    1    2    0    0 -0.50790016620E+01  0.10876709059E+02  0.28084367916E+02  0.30542461314E+02  0.10566000000E+00 0.  1.
        994    1    1    2    0    0  0.88533024884E+01 -0.42444557297E+01  0.28163686190E+01  0.17150442648E+03  0.17120000000E+03 0.  0.
        998    1    1    2    0    0 -0.37743008265E+01 -0.66322533292E+01  0.14690992597E+04  0.14691531122E+04  0.10000000000E+02 0.  1.
</event>
<event>
 5    1  0.1020718E-008  0.3838205E+03  0.7957747E-01  0.3434690E+00
         13   -1    0    0    0    0  0.00000000000E+00  0.00000000000E+00  0.14999999963E+04  0.15000000000E+04  0.10566000000E+00 0.  1.
        994   -1    0    0    0    0 -0.00000000000E+00 -0.00000000000E+00  0.11368683772E-12  0.17120000000E+03  0.17120000000E+03 0.  0.
         13    1    1    2    0    0 -0.20885340779E+02  0.12053190947E+02  0.13273248713E+03  0.13490515622E+03  0.10566000000E+00 0.  1.
        994    1    1    2    0    0  0.16209688068E+02  0.23407879431E+01  0.31028600901E+01  0.17200959571E+03  0.17120000000E+03 0.  0.
        998    1    1    2    0    0  0.46756527112E+01 -0.14393978890E+02  0.13641646491E+04  0.13642852481E+04  0.10000000000E+02 0.  1.
</event>
<event>
 5    1  0.1020718E-008  0.3811336E+03  0.7957747E-01  0.3446237E+00
         13   -1    0    0    0    0  0.00000000000E+00  0.00000000000E+00  0.14999999963E+04  0.15000000000E+04  0.10566000000E+00 0.  1.
        994   -1    0    0    0    0 -0.00000000000E+00 -0.00000000000E+00  0.11368683772E-12  0.17120000000E+03  0.17120000000E+03 0.  0.
         13    1    1    2    0    0  0.26824077630E+02 -0.12356726469E+02  0.12578778841E+03  0.12920835386E+03  0.10566000000E+00 0.  1.
        994    1    1    2    0    0 -0.86231178156E+01  0.94724114294E+01  0.41086850388E+01  0.17172770898E+03  0.17120000000E+03 0.  0.
        998    1    1    2    0    0 -0.18200959815E+02  0.28843150396E+01  0.13701035228E+04  0.13702639372E+04  0.10000000000E+02 0.  1.
</event>
<event>
 5    1  0.1020718E-008  0.3841696E+03  0.7957747E-01  0.3433202E+00
         13   -1    0    0    0    0  0.00000000000E+00  0.00000000000E+00  0.14999999963E+04  0.15000000000E+04  0.10566000000E+00 0.  1.
        994   -1    0    0    0    0 -0.00000000000E+00 -0.00000000000E+00  0.11368683772E-12  0.17120000000E+03  0.17120000000E+03 0.  0.
         13    1    1    2    0    0 -0.26187383186E+02 -0.33296331519E+02  0.41104882786E+02  0.59025818789E+02  0.10566000000E+00 0.  1.
        994    1    1    2    0    0  0.24469847626E+02  0.20626654482E+02  0.22414720696E+02  0.17560208433E+03  0.17120000000E+03 0.  0.
        998    1    1    2    0    0  0.17175355598E+01  0.12669677037E+02  0.14364803928E+04  0.14365720969E+04  0.10000000000E+02 0.  1.
</event>
<event>
 5    1  0.1020718E-008  0.3814469E+03  0.7957747E-01  0.3444882E+00
         13   -1    0    0    0    0  0.00000000000E+00  0.00000000000E+00  0.14999999963E+04  0.15000000000E+04  0.10566000000E+00 0.  1.
        994   -1    0    0    0    0 -0.00000000000E+00 -0.00000000000E+00  0.11368683772E-12  0.17120000000E+03  0.17120000000E+03 0.  0.
         13    1    1    2    0    0 -0.19781108659E+02 -0.18070756572E+02  0.11385432875E+03  0.11696436997E+03  0.10566000000E+00 0.  1.
        994    1    1    2    0    0 -0.21082727015E+01  0.50401837459E+01  0.35038326372E+01  0.17132298477E+03  0.17120000000E+03 0.  0.
        998    1    1    2    0    0  0.21889381360E+02  0.13030572826E+02  0.13826418349E+04  0.13829126453E+04  0.10000000000E+02 0.  1.
</event>
<event>
 5    1  0.1020718E-008  0.3813487E+03  0.7957747E-01  0.3445307E+00
         13   -1    0    0    0    0  0.00000000000E+00  0.00000000000E+00  0.14999999963E+04  0.15000000000E+04  0.10566000000E+00 0. -1.
        994   -1    0    0    0    0 -0.00000000000E+00 -0.00000000000E+00  0.11368683772E-12  0.17120000000E+03  0.17120000000E+03 0.  0.
         13    1    1    2    0    0  0.10121273731E+02  0.33646307558E+00  0.13379749718E+02  0.16780412864E+02  0.10566000000E+00 0. -1.
        994    1    1    2    0    0 -0.71126312121E+01 -0.47046457548E+01  0.36959638332E+01  0.17145210224E+03  0.17120000000E+03 0.  0.
        998    1    1    2    0    0 -0.30086425193E+01  0.43681826792E+01  0.14829242827E+04  0.14829674849E+04  0.10000000000E+02 0. -1.
</event>
<event>
 5    1  0.1020718E-008  0.3779276E+03  0.7957747E-01  0.3460232E+00
         13   -1    0    0    0    0  0.00000000000E+00  0.00000000000E+00  0.14999999963E+04  0.15000000000E+04  0.10566000000E+00 0. -1.
        994   -1    0    0    0    0 -0.00000000000E+00 -0.00000000000E+00  0.11368683772E-12  0.17120000000E+03  0.17120000000E+03 0.  0.
         13    1    1    2    0    0  0.11108249515E+02 -0.31571903122E+01  0.10452843042E+02  0.15576718192E+02  0.10566000000E+00 0. -1.
        994    1    1    2    0    0 -0.13210169274E+02 -0.10886732728E+01  0.57745597113E+01  0.17180942734E+03  0.17120000000E+03 0.  0.
        998    1    1    2    0    0  0.21019197597E+01  0.42458635850E+01  0.14837725935E+04  0.14838138545E+04  0.10000000000E+02 0. -1.
</event>
<event>
 5    1  0.1020718E-008  0.3759155E+03  0.7957747E-01  0.3469138E+00
         13   -1    0    0    0    0  0.00000000000E+00  0.00000000000E+00  0.14999999963E+04  0.15000000000E+04  0.10566000000E+00 0.  1.
        994   -1    0    0    0    0 -0.00000000000E+00 -0.00000000000E+00  0.11368683772E-12  0.17120000000E+03  0.17120000000E+03 0.  0.
         13    1    1    2    0    0  0.56125940597E+02  0.92118224460E+02  0.37100694635E+03  0.38637035846E+03  0.10566000000E+00 0.  1.
        994    1    1    2    0    0 -0.27995703970E+02 -0.75029155035E+02  0.37368062309E+02  0.19266277696E+03  0.17120000000E+03 0.  0.
        998    1    1    2    0    0 -0.28130236627E+02 -0.17089069425E+02  0.10916249876E+04  0.10921668646E+04  0.10000000000E+02 0.  1.
</event>
<event>
 5    1  0.1020718E-008  0.3697976E+03  0.7957747E-01  0.3496822E+00
         13   -1    0    0    0    0  0.00000000000E+00  0.00000000000E+00  0.14999999963E+04  0.15000000000E+04  0.10566000000E+00 0.  1.
        994   -1    0    0    0    0 -0.00000000000E+00 -0.00000000000E+00  0.11368683772E-12  0.17120000000E+03  0.17120000000E+03 0.  0.
         13    1    1    2    0    0  0.20808838541E+01  0.16644692929E+02  0.86019670086E+01  0.18851548498E+02  0.10566000000E+00 0.  1.
        994    1    1    2    0    0 -0.35595953825E+01  0.10551032225E+02  0.11265115669E+02  0.17193120087E+03  0.17120000000E+03 0.  0.
        998    1    1    2    0    0  0.14787115285E+01 -0.27195725154E+02  0.14801329136E+04  0.14804172506E+04  0.10000000000E+02 0.  1.
</event>
<event>
 5    1  0.1020718E-008  0.3847309E+03  0.7957747E-01  0.3430814E+00
         13   -1    0    0    0    0  0.00000000000E+00  0.00000000000E+00  0.14999999963E+04  0.15000000000E+04  0.10566000000E+00 0.  1.
        994   -1    0    0    0    0 -0.00000000000E+00 -0.00000000000E+00  0.11368683772E-12  0.17120000000E+03  0.17120000000E+03 0.  0.
         13    1    1    2    0    0 -0.93099879125E+01  0.12948739180E+02  0.71808622798E+02  0.73558379492E+02  0.10566000000E+00 0.  1.
        994    1    1    2    0    0  0.10952310994E+01 -0.12584759018E+02  0.22892075357E+01  0.17168068081E+03  0.17120000000E+03 0.  0.
        998    1    1    2    0    0  0.82147568131E+01 -0.36398016204E+00  0.14259021659E+04  0.14259609397E+04  0.10000000000E+02 0.  1.
</event>
<event>
 5    1  0.1020718E-008  0.3800848E+03  0.7957747E-01  0.3450789E+00
         13   -1    0    0    0    0  0.00000000000E+00  0.00000000000E+00  0.14999999963E+04  0.15000000000E+04  0.10566000000E+00 0. -1.
        994   -1    0    0    0    0 -0.00000000000E+00 -0.00000000000E+00  0.11368683772E-12  0.17120000000E+03  0.17120000000E+03 0.  0.
         13    1    1    2    0    0 -0.62697997079E+02  0.23220102165E+02  0.11131919292E+03  0.12985447955E+03  0.10566000000E+00 0. -1.
        994    1    1    2    0    0  0.84564641022E+02 -0.36687108310E+02  0.47861559864E+02  0.20024308063E+03  0.17120000000E+03 0.  0.
        998    1    1    2    0    0 -0.21866643943E+02  0.13467006144E+02  0.13408192435E+04  0.13411024398E+04  0.10000000000E+02 0. -1.
</event>
<event>
 5    1  0.1020718E-008  0.3829142E+03  0.7957747E-01  0.3438567E+00
         13   -1    0    0    0    0  0.00000000000E+00  0.00000000000E+00  0.14999999963E+04  0.15000000000E+04  0.10566000000E+00 0.  1.
        994   -1    0    0    0    0 -0.00000000000E+00 -0.00000000000E+00  0.11368683772E-12  0.17120000000E+03  0.17120000000E+03 0.  0.
         13    1    1    2    0    0  0.10147689246E+02  0.14983798926E+02  0.58848484391E+02  0.61568215066E+02  0.10566000000E+00 0.  1.
        994    1    1    2    0    0 -0.74000433557E+01 -0.16352128240E+02  0.37366349851E+01  0.17217884650E+03  0.17120000000E+03 0.  0.
        998    1    1    2    0    0 -0.27476458904E+01  0.13683293143E+01  0.14374148769E+04  0.14374529384E+04  0.10000000000E+02 0.  1.
</event>
<event>
 5    1  0.1020718E-008  0.3797812E+03  0.7957747E-01  0.3452112E+00
         13   -1    0    0    0    0  0.00000000000E+00  0.00000000000E+00  0.14999999963E+04  0.15000000000E+04  0.10566000000E+00 0. -1.
        994   -1    0    0    0    0 -0.00000000000E+00 -0.00000000000E+00  0.11368683772E-12  0.17120000000E+03  0.17120000000E+03 0.  0.
         13    1    1    2    0    0 -0.10776778336E+02 -0.26575804175E-01  0.11864965611E+02  0.16028980958E+02  0.10566000000E+00 0. -1.
        994    1    1    2    0    0  0.62732906379E+01 -0.20595970314E+01  0.43895102005E+01  0.17138349954E+03  0.17120000000E+03 0.  0.
        998    1    1    2    0    0  0.45034876977E+01  0.20861728356E+01  0.14837455205E+04  0.14837875195E+04  0.10000000000E+02 0. -1.
</event>
<event>
 5    1  0.1020718E-008  0.3831917E+03  0.7957747E-01  0.3437378E+00
         13   -1    0    0    0    0  0.00000000000E+00  0.00000000000E+00  0.14999999963E+04  0.15000000000E+04  0.10566000000E+00 0. -1.
        994   -1    0    0    0    0 -0.00000000000E+00 -0.00000000000E+00  0.11368683772E-12  0.17120000000E+03  0.17120000000E+03 0.  0.
         13    1    1    2    0    0 -0.87171199764E+01 -0.15645464124E+02  0.60469178699E+02  0.63065850227E+02  0.10566000000E+00 0. -1.
        994    1    1    2    0    0  0.16890415763E+02  0.12175496446E+02  0.39660535059E+01  0.17250709678E+03  0.17120000000E+03 0.  0.
        998    1    1    2    0    0 -0.81732957868E+01  0.34699676785E+01  0.14355647641E+04  0.14356270530E+04  0.10000000000E+02 0. -1.
</event>
<event>
 5    1  0.1020718E-008  0.3832730E+03  0.7957747E-01  0.3437030E+00
         13   -1    0    0    0    0  0.00000000000E+00  0.00000000000E+00  0.14999999963E+04  0.15000000000E+04  0.10566000000E+00 0.  1.
        994   -1    0    0    0    0 -0.00000000000E+00 -0.00000000000E+00  0.11368683772E-12  0.17120000000E+03  0.17120000000E+03 0.  0.
         13    1    1    2    0    0 -0.58801672653E+01  0.21846735333E+02  0.12905108800E+03  0.13101927602E+03  0.10566000000E+00 0.  1.
        994    1    1    2    0    0 -0.23370883099E+01  0.16445472538E+02  0.34030079018E+01  0.17203760057E+03  0.17120000000E+03 0.  0.
        998    1    1    2    0    0  0.82172555751E+01 -0.38292207871E+02  0.13675459004E+04  0.13681431234E+04  0.10000000000E+02 0.  1.
</event>
<event>
 5    1  0.1020718E-008  0.3737429E+03  0.7957747E-01  0.3478864E+00
         13   -1    0    0    0    0  0.00000000000E+00  0.00000000000E+00  0.14999999963E+04  0.15000000000E+04  0.10566000000E+00 0.  1.
        994   -1    0    0    0    0 -0.00000000000E+00 -0.00000000000E+00  0.11368683772E-12  0.17120000000E+03  0.17120000000E+03 0.  0.
         13    1    1    2    0    0  0.10752754068E+02  0.43753477486E+01  0.59536414864E+01  0.13046930633E+02  0.10566000000E+00 0.  1.
        994    1    1    2    0    0  0.25264666039E+01 -0.70489003722E+01  0.75171064888E+01  0.17152847262E+03  0.17120000000E+03 0.  0.
        998    1    1    2    0    0 -0.13279220672E+02  0.26735526236E+01  0.14865292483E+04  0.14866245967E+04  0.10000000000E+02 0.  1.
</event>
<event>
 5    1  0.1289275E-008  0.3856813E+03  0.7957747E-01  0.3426788E+00
         13   -1    0    0    0    0  0.00000000000E+00  0.00000000000E+00  0.14999999963E+04  0.15000000000E+04  0.10566000000E+00 0. -1.
        994   -1    0    0    0    0 -0.00000000000E+00 -0.00000000000E+00  0.11368683772E-12  0.17120000000E+03  0.17120000000E+03 0.  0.
         13    1    1    2    0    0 -0.39561459302E+01  0.10715483581E+02  0.51557051868E+02  0.52807323738E+02  0.10566000000E+00 0. -1.
        994    1    1    2    0    0 -0.15024595666E+00 -0.58406237183E+01  0.14042801181E+01  0.17130542158E+03  0.17120000000E+03 0.  0.
        998    1    1    2    0    0  0.41063918868E+01 -0.48748598623E+01  0.14470386643E+04  0.14470872547E+04  0.10000000000E+02 0. -1.
</event>
<event>
 5    1  0.1020718E-008  0.3767319E+03  0.7957747E-01  0.3465513E+00
         13   -1    0    0    0    0  0.00000000000E+00  0.00000000000E+00  0.14999999963E+04  0.15000000000E+04  0.10566000000E+00 0.  1.
        994   -1    0    0    0    0 -0.00000000000E+00 -0.00000000000E+00  0.11368683772E-12  0.17120000000E+03  0.17120000000E+03 0.  0.
         13    1    1    2    0    0 -0.26284251172E+02  0.23062967329E+01  0.56430117311E+02  0.62294062061E+02  0.10566000000E+00 0.  1.
        994    1    1    2    0    0  0.23987470497E+02 -0.55596991728E+01  0.78437517130E+01  0.17313946239E+03  0.17120000000E+03 0.  0.
        998    1    1    2    0    0  0.22967806748E+01  0.32534024399E+01  0.14357261273E+04  0.14357664755E+04  0.10000000000E+02 0.  1.
</event>
<event>
 5    1  0.1020718E-008  0.3813677E+03  0.7957747E-01  0.3445225E+00
         13   -1    0    0    0    0  0.00000000000E+00  0.00000000000E+00  0.14999999963E+04  0.15000000000E+04  0.10566000000E+00 0. -1.
        994   -1    0    0    0    0 -0.00000000000E+00 -0.00000000000E+00  0.11368683772E-12  0.17120000000E+03  0.17120000000E+03 0.  0.
         13    1    1    2    0    0 -0.11429220677E+02  0.24736220169E+02  0.11975741165E+03  0.12281838821E+03  0.10566000000E+00 0. -1.
        994    1    1    2    0    0 -0.53646970179E+01 -0.13410105794E+00  0.35401667611E+01  0.17132066641E+03  0.17120000000E+03 0.  0.
        998    1    1    2    0    0  0.16793917695E+02 -0.24602119111E+02  0.13767024179E+04  0.13770609454E+04  0.10000000000E+02 0. -1.
</event>
<event>
 5    1  0.1020718E-008  0.3815737E+03  0.7957747E-01  0.3444335E+00
         13   -1    0    0    0    0  0.00000000000E+00  0.00000000000E+00  0.14999999963E+04  0.15000000000E+04  0.10566000000E+00 0. -1.
        994   -1    0    0    0    0 -0.00000000000E+00 -0.00000000000E+00  0.11368683772E-12  0.17120000000E+03  0.17120000000E+03 0.  0.
         13    1    1    2    0    0  0.28732347167E+02 -0.38986742669E+01  0.12540078753E+03  0.12870942511E+03  0.10566000000E+00 0. -1.
        994    1    1    2    0    0 -0.17381585825E+02 -0.45938257951E+01  0.44165046470E+01  0.17219804957E+03  0.17120000000E+03 0.  0.
        998    1    1    2    0    0 -0.11350761343E+02  0.84925000620E+01  0.13701827041E+04  0.13702925253E+04  0.10000000000E+02 0. -1.
</event>
<event>
 5    1  0.1020718E-008  0.3841917E+03  0.7957747E-01  0.3433108E+00
         13   -1    0    0    0    0  0.00000000000E+00  0.00000000000E+00  0.14999999963E+04  0.15000000000E+04  0.10566000000E+00 0. -1.
        994   -1    0    0    0    0 -0.00000000000E+00 -0.00000000000E+00  0.11368683772E-12  0.17120000000E+03  0.17120000000E+03 0.  0.
         13    1    1    2    0    0 -0.12735708293E+02 -0.75257393187E+00  0.39618263986E+02  0.41621900948E+02  0.10566000000E+00 0. -1.
        994    1    1    2    0    0  0.86368707633E+01 -0.23806495811E+01  0.22966880730E+01  0.17144963635E+03  0.17120000000E+03 0.  0.
        998    1    1    2    0    0  0.40988375302E+01  0.31332235129E+01  0.14580850442E+04  0.14581284627E+04  0.10000000000E+02 0. -1.
</event>
<event>
 5    1  0.1020718E-008  0.3810769E+03  0.7957747E-01  0.3446483E+00
         13   -1    0    0    0    0  0.00000000000E+00  0.00000000000E+00  0.14999999963E+04  0.15000000000E+04  0.10566000000E+00 0. -1.
        994   -1    0    0    0    0 -0.00000000000E+00 -0.00000000000E+00  0.11368683772E-12  0.17120000000E+03  0.17120000000E+03 0.  0.
         13    1    1    2    0    0  0.13663099491E+02 -0.69713813206E+01  0.31879650913E+02  0.35378012262E+02  0.10566000000E+00 0. -1.
        994    1    1    2    0    0 -0.53245249204E+01  0.21577280689E+01  0.37004869584E+01  0.17133633578E+03  0.17120000000E+03 0.  0.
        998    1    1    2    0    0 -0.83385745705E+01  0.48136532517E+01  0.14644198584E+04  0.14644856520E+04  0.10000000000E+02 0. -1.
</event>
<event>
 5    1  0.1020718E-008  0.3835470E+03  0.7957747E-01  0.3435858E+00
         13   -1    0    0    0    0  0.00000000000E+00  0.00000000000E+00  0.14999999963E+04  0.15000000000E+04  0.10566000000E+00 0. -1.
        994   -1    0    0    0    0 -0.00000000000E+00 -0.00000000000E+00  0.11368683772E-12  0.17120000000E+03  0.17120000000E+03 0.  0.
         13    1    1    2    0    0 -0.91746129357E+01 -0.23360320330E+02  0.10341391811E+03  0.10641582454E+03  0.10566000000E+00 0. -1.
        994    1    1    2    0    0  0.14979746325E+02  0.52796900935E+02  0.12369561098E+02  0.18020641384E+03  0.17120000000E+03 0.  0.
        998    1    1    2    0    0 -0.58051333891E+01 -0.29436580605E+02  0.13842165171E+04  0.13845777616E+04  0.10000000000E+02 0. -1.
</event>
<event>
 5    1  0.1020718E-008  0.3821815E+03  0.7957747E-01  0.3441714E+00
         13   -1    0    0    0    0  0.00000000000E+00  0.00000000000E+00  0.14999999963E+04  0.15000000000E+04  0.10566000000E+00 0. -1.
        994   -1    0    0    0    0 -0.00000000000E+00 -0.00000000000E+00  0.11368683772E-12  0.17120000000E+03  0.17120000000E+03 0.  0.
         13    1    1    2    0    0 -0.69805724238E+01 -0.21134193886E+02  0.84957417638E+02  0.87824578100E+02  0.10566000000E+00 0. -1.
        994    1    1    2    0    0  0.40957781841E+01  0.32787326191E+01  0.31273299483E+01  0.17130891885E+03  0.17120000000E+03 0.  0.
        998    1    1    2    0    0  0.28847942397E+01  0.17855461267E+02  0.14119152487E+04  0.14120665030E+04  0.10000000000E+02 0. -1.
</event>
<event>
 5    1  0.1020718E-008  0.3832509E+03  0.7957747E-01  0.3437124E+00
         13   -1    0    0    0    0  0.00000000000E+00  0.00000000000E+00  0.14999999963E+04  0.15000000000E+04  0.10566000000E+00 0.  1.
        994   -1    0    0    0    0 -0.00000000000E+00 -0.00000000000E+00  0.11368683772E-12  0.17120000000E+03  0.17120000000E+03 0.  0.
         13    1    1    2    0    0 -0.10188015159E+01 -0.20783790849E+02  0.81634765955E+02  0.84245178469E+02  0.10566000000E+00 0.  1.
        994    1    1    2    0    0 -0.60899272149E+01  0.22331278928E+02  0.42750396447E+01  0.17281055869E+03  0.17120000000E+03 0.  0.
        998    1    1    2    0    0  0.71087287308E+01 -0.15474880794E+01  0.14140901907E+04  0.14141442628E+04  0.10000000000E+02 0. -1.
</event>
<event>
 5    1  0.1020718E-008  0.3834973E+03  0.7957747E-01  0.3436070E+00
         13   -1    0    0    0    0  0.00000000000E+00  0.00000000000E+00  0.14999999963E+04  0.15000000000E+04  0.10566000000E+00 0. -1.
        994   -1    0    0    0    0 -0.00000000000E+00 -0.00000000000E+00  0.11368683772E-12  0.17120000000E+03  0.17120000000E+03 0.  0.
         13    1    1    2    0    0 -0.19516649218E+02 -0.17688677722E+02  0.15546684141E+03  0.15768239870E+03  0.10566000000E+00 0. -1.
        994    1    1    2    0    0  0.19950002645E+02 -0.93832387396E+01  0.39859504410E+01  0.17265971034E+03  0.17120000000E+03 0.  0.
        998    1    1    2    0    0 -0.43335342664E+00  0.27071916461E+02  0.13405472044E+04  0.13408578910E+04  0.10000000000E+02 0. -1.
</event>
<event>
 5    1  0.1020718E-008  0.3833467E+03  0.7957747E-01  0.3436715E+00
         13   -1    0    0    0    0  0.00000000000E+00  0.00000000000E+00  0.14999999963E+04  0.15000000000E+04  0.10566000000E+00 0.  1.
        994   -1    0    0    0    0 -0.00000000000E+00 -0.00000000000E+00  0.11368683772E-12  0.17120000000E+03  0.17120000000E+03 0.  0.
         13    1    1    2    0    0  0.22511298848E+02  0.47149870226E+01  0.10971746395E+03  0.11210228695E+03  0.10566000000E+00 0.  1.
        994    1    1    2    0    0 -0.97628453671E+01 -0.59656108113E+01  0.28861418588E+01  0.17160615221E+03  0.17120000000E+03 0.  0.
        998    1    1    2    0    0 -0.12748453480E+02  0.12506237887E+01  0.13873963905E+04  0.13874915608E+04  0.10000000000E+02 0.  1.
</event>
<event>
 5    1  0.1020718E-008  0.3821575E+03  0.7957747E-01  0.3441818E+00
         13   -1    0    0    0    0  0.00000000000E+00  0.00000000000E+00  0.14999999963E+04  0.15000000000E+04  0.10566000000E+00 0. -1.
        994   -1    0    0    0    0 -0.00000000000E+00 -0.00000000000E+00  0.11368683772E-12  0.17120000000E+03  0.17120000000E+03 0.  0.
         13    1    1    2    0    0  0.25077448908E+02  0.14251267486E+02  0.16805214941E+03  0.17050956910E+03  0.10566000000E+00 0. -1.
        994    1    1    2    0    0 -0.40953230297E+00  0.19276292177E+02  0.42829023778E+01  0.17233550537E+03  0.17120000000E+03 0.  0.
        998    1    1    2    0    0 -0.24667916605E+02 -0.33527559663E+02  0.13276649445E+04  0.13283549255E+04  0.10000000000E+02 0.  1.
</event>
<event>
 5    1  0.1020718E-008  0.3935461E+03  0.7957747E-01  0.3394217E+00
         13   -1    0    0    0    0  0.00000000000E+00  0.00000000000E+00  0.14999999963E+04  0.15000000000E+04  0.10566000000E+00 0. -1.
        994   -1    0    0    0    0 -0.00000000000E+00 -0.00000000000E+00  0.11368683772E-12  0.17120000000E+03  0.17120000000E+03 0.  0.
         13    1    1    2    0    0 -0.21384263392E+02  0.16712686410E+02  0.47073648458E+01  0.27545799238E+02  0.10566000000E+00 0. -1.
        994    1    1    2    0    0  0.23023646330E+02 -0.34477616434E+02  0.30560982778E+02  0.17877977512E+03  0.17120000000E+03 0.  0.
        998    1    1    2    0    0 -0.16393829380E+01  0.17764930024E+02  0.14647316487E+04  0.14648744256E+04  0.10000000000E+02 0. -1.
</event>
<event>
 5    1  0.1020718E-008  0.3808875E+03  0.7957747E-01  0.3447303E+00
         13   -1    0    0    0    0  0.00000000000E+00  0.00000000000E+00  0.14999999963E+04  0.15000000000E+04  0.10566000000E+00 0. -1.
        994   -1    0    0    0    0 -0.00000000000E+00 -0.00000000000E+00  0.11368683772E-12  0.17120000000E+03  0.17120000000E+03 0.  0.
         13    1    1    2    0    0  0.26545557665E+02 -0.20819876641E+02  0.16247647941E+03  0.16594201223E+03  0.10566000000E+00 0. -1.
        994    1    1    2    0    0 -0.16790569088E+02 -0.26205659185E+01  0.46489915076E+01  0.17210416525E+03  0.17120000000E+03 0.  0.
        998    1    1    2    0    0 -0.97549885768E+01  0.23440442560E+02  0.13328745254E+04  0.13331538225E+04  0.10000000000E+02 0. -1.
</event>
<event>
 5    1  0.1020718E-008  0.3788141E+03  0.7957747E-01  0.3456338E+00
         13   -1    0    0    0    0  0.00000000000E+00  0.00000000000E+00  0.14999999963E+04  0.15000000000E+04  0.10566000000E+00 0. -1.
        994   -1    0    0    0    0 -0.00000000000E+00 -0.00000000000E+00  0.11368683772E-12  0.17120000000E+03  0.17120000000E+03 0.  0.
         13    1    1    2    0    0 -0.89079256560E+01 -0.59433415596E+01  0.10067997713E+02  0.14698645869E+02  0.10566000000E+00 0. -1.
        994    1    1    2    0    0 -0.26600955854E+01  0.12531973941E+02  0.52839755763E+01  0.17175996879E+03  0.17120000000E+03 0.  0.
        998    1    1    2    0    0  0.11568021241E+02 -0.65886323810E+01  0.14846480230E+04  0.14847413853E+04  0.10000000000E+02 0. -1.
</event>
<event>
 5    1  0.1020718E-008  0.3703583E+03  0.7957747E-01  0.3494246E+00
         13   -1    0    0    0    0  0.00000000000E+00  0.00000000000E+00  0.14999999963E+04  0.15000000000E+04  0.10566000000E+00 0.  1.
        994   -1    0    0    0    0 -0.00000000000E+00 -0.00000000000E+00  0.11368683772E-12  0.17120000000E+03  0.17120000000E+03 0.  0.
         13    1    1    2    0    0 -0.10714896849E+03  0.21999452491E+02  0.50369429328E+03  0.51543460264E+03  0.10566000000E+00 0.  1.
        994    1    1    2    0    0  0.90914187818E+02 -0.17765595654E+02  0.39327333274E+02  0.19858772640E+03  0.17120000000E+03 0.  0.
        998    1    1    2    0    0  0.16234780669E+02 -0.42338568375E+01  0.95697836973E+03  0.95717767095E+03  0.10000000000E+02 0.  1.
</event>
<event>
 5    1  0.1020718E-008  0.3893299E+03  0.7957747E-01  0.3411514E+00
         13   -1    0    0    0    0  0.00000000000E+00  0.00000000000E+00  0.14999999963E+04  0.15000000000E+04  0.10566000000E+00 0.  1.
        994   -1    0    0    0    0 -0.00000000000E+00 -0.00000000000E+00  0.11368683772E-12  0.17120000000E+03  0.17120000000E+03 0.  0.
         13    1    1    2    0    0 -0.60523308971E+02 -0.92791931812E+01  0.78571803592E+02  0.99612819650E+02  0.10566000000E+00 0.  1.
        994    1    1    2    0    0  0.49269568469E+02  0.22764962034E+01  0.30734889139E+02  0.18079476271E+03  0.17120000000E+03 0.  0.
        998    1    1    2    0    0  0.11253740502E+02  0.70026969778E+01  0.13906933035E+04  0.13907924176E+04  0.10000000000E+02 0.  1.
</event>
<event>
 5    1  0.1020718E-008  0.3859494E+03  0.7957747E-01  0.3425656E+00
         13   -1    0    0    0    0  0.00000000000E+00  0.00000000000E+00  0.14999999963E+04  0.15000000000E+04  0.10566000000E+00 0. -1.
        994   -1    0    0    0    0 -0.00000000000E+00 -0.00000000000E+00  0.11368683772E-12  0.17120000000E+03  0.17120000000E+03 0.  0.
         13    1    1    2    0    0  0.10133504724E+02 -0.31361473673E+01  0.46950061703E+02  0.48133593220E+02  0.10566000000E+00 0. -1.
        994    1    1    2    0    0 -0.11722335703E+02  0.98567705004E+01  0.19289469184E+01  0.17189453137E+03  0.17120000000E+03 0.  0.
        998    1    1    2    0    0  0.15888309793E+01 -0.67206231331E+01  0.14511209877E+04  0.14511718754E+04  0.10000000000E+02 0. -1.
</event>
<event>
 5    1  0.1020718E-008  0.3848334E+03  0.7957747E-01  0.3430379E+00
         13   -1    0    0    0    0  0.00000000000E+00  0.00000000000E+00  0.14999999963E+04  0.15000000000E+04  0.10566000000E+00 0.  1.
        994   -1    0    0    0    0 -0.00000000000E+00 -0.00000000000E+00  0.11368683772E-12  0.17120000000E+03  0.17120000000E+03 0.  0.
         13    1    1    2    0    0 -0.15597462383E+02 -0.14551261763E+01  0.83410775116E+02  0.84869115669E+02  0.10566000000E+00 0.  1.
        994    1    1    2    0    0 -0.70878747922E+00 -0.57812839344E+02  0.12790620787E+02  0.18115150221E+03  0.17120000000E+03 0.  0.
        998    1    1    2    0    0  0.16306249862E+02  0.59267965521E+02  0.14037986004E+04  0.14051793821E+04  0.10000000000E+02 0.  1.
</event>
<event>
 5    1  0.1020718E-008  0.3703902E+03  0.7957747E-01  0.3494099E+00
         13   -1    0    0    0    0  0.00000000000E+00  0.00000000000E+00  0.14999999963E+04  0.15000000000E+04  0.10566000000E+00 0.  1.
        994   -1    0    0    0    0 -0.00000000000E+00 -0.00000000000E+00  0.11368683772E-12  0.17120000000E+03  0.17120000000E+03 0.  0.
         13    1    1    2    0    0 -0.31509120516E+01 -0.19155869175E+02  0.16858406201E+02  0.25711720951E+02  0.10566000000E+00 0.  1.
        994    1    1    2    0    0  0.34650405266E+01  0.13796597824E+02  0.97642616072E+01  0.17206723518E+03  0.17120000000E+03 0.  0.
        998    1    1    2    0    0 -0.31412847500E+00  0.53592713514E+01  0.14733773285E+04  0.14734210439E+04  0.10000000000E+02 0.  1.
</event>
<event>
 5    1  0.1020718E-008  0.3809777E+03  0.7957747E-01  0.3446912E+00
         13   -1    0    0    0    0  0.00000000000E+00  0.00000000000E+00  0.14999999963E+04  0.15000000000E+04  0.10566000000E+00 0. -1.
        994   -1    0    0    0    0 -0.00000000000E+00 -0.00000000000E+00  0.11368683772E-12  0.17120000000E+03  0.17120000000E+03 0.  0.
         13    1    1    2    0    0  0.85124614669E+01  0.22505320022E+02  0.89834341131E+02  0.93000921716E+02  0.10566000000E+00 0. -1.
        994    1    1    2    0    0  0.30050875891E+02 -0.10353053038E+00  0.66553940654E+01  0.17394481921E+03  0.17120000000E+03 0.  0.
        998    1    1    2    0    0 -0.38563337358E+02 -0.22401789491E+02  0.14035102611E+04  0.14042542591E+04  0.10000000000E+02 0. -1.
</event>
<event>
 5    1  0.1020718E-008  0.3721872E+03  0.7957747E-01  0.3485899E+00
         13   -1    0    0    0    0  0.00000000000E+00  0.00000000000E+00  0.14999999963E+04  0.15000000000E+04  0.10566000000E+00 0.  1.
        994   -1    0    0    0    0 -0.00000000000E+00 -0.00000000000E+00  0.11368683772E-12  0.17120000000E+03  0.17120000000E+03 0.  0.
         13    1    1    2    0    0  0.67351655005E+02  0.58939731675E+02  0.35999584484E+03  0.37095438650E+03  0.10566000000E+00 0.  1.
        994    1    1    2    0    0 -0.68151430664E+02 -0.62626104448E+02  0.38127839889E+02  0.19831746931E+03  0.17120000000E+03 0.  0.
        998    1    1    2    0    0  0.79977565942E+00  0.36863727724E+01  0.11018763116E+04  0.11019281442E+04  0.10000000000E+02 0.  0.
</event>
<event>
 5    1  0.1020718E-008  0.3693752E+03  0.7957747E-01  0.3498767E+00
         13   -1    0    0    0    0  0.00000000000E+00  0.00000000000E+00  0.14999999963E+04  0.15000000000E+04  0.10566000000E+00 0.  1.
        994   -1    0    0    0    0 -0.00000000000E+00 -0.00000000000E+00  0.11368683772E-12  0.17120000000E+03  0.17120000000E+03 0.  0.
         13    1    1    2    0    0 -0.42059991497E+02 -0.12410617333E+03  0.67838206551E+03  0.69092229890E+03  0.10566000000E+00 0.  1.
        994    1    1    2    0    0  0.80009268952E+02  0.86937197147E+02  0.59651067423E+02  0.21639604712E+03  0.17120000000E+03 0.  0.
        998    1    1    2    0    0 -0.37949277455E+02  0.37168976182E+02  0.76196686335E+03  0.76388165398E+03  0.10000000000E+02 0.  1.
</event>
<event>
 5    1  0.1020718E-008  0.3833574E+03  0.7957747E-01  0.3436669E+00
         13   -1    0    0    0    0  0.00000000000E+00  0.00000000000E+00  0.14999999963E+04  0.15000000000E+04  0.10566000000E+00 0.  1.
        994   -1    0    0    0    0 -0.00000000000E+00 -0.00000000000E+00  0.11368683772E-12  0.17120000000E+03  0.17120000000E+03 0.  0.
         13    1    1    2    0    0 -0.15574790213E+02  0.58450296677E+01  0.56113760986E+02  0.58527803633E+02  0.10566000000E+00 0.  1.
        994    1    1    2    0    0  0.89174965791E+01 -0.46446663716E+01  0.27821757257E+01  0.17151756520E+03  0.17120000000E+03 0.  0.
        998    1    1    2    0    0  0.66572936342E+01 -0.12003632961E+01  0.14411040596E+04  0.14411546312E+04  0.10000000000E+02 0.  1.
</event>
<event>
 5    1  0.1020718E-008  0.3832609E+03  0.7957747E-01  0.3437082E+00
         13   -1    0    0    0    0  0.00000000000E+00  0.00000000000E+00  0.14999999963E+04  0.15000000000E+04  0.10566000000E+00 0.  1.
        994   -1    0    0    0    0 -0.00000000000E+00 -0.00000000000E+00  0.11368683772E-12  0.17120000000E+03  0.17120000000E+03 0.  0.
         13    1    1    2    0    0  0.15747746432E+02  0.23634627529E+02  0.15751928742E+03  0.16005912723E+03  0.10566000000E+00 0.  1.
        994    1    1    2    0    0 -0.16875669676E+02 -0.12295802458E+02  0.39392611070E+01  0.17251357269E+03  0.17120000000E+03 0.  0.
        998    1    1    2    0    0  0.11279232435E+01 -0.11338825071E+02  0.13385414478E+04  0.13386273001E+04  0.10000000000E+02 0.  1.
</event>
<event>
 5    1  0.1020718E-008  0.3819391E+03  0.7957747E-01  0.3442758E+00
         13   -1    0    0    0    0  0.00000000000E+00  0.00000000000E+00  0.14999999963E+04  0.15000000000E+04  0.10566000000E+00 0. -1.
        994   -1    0    0    0    0 -0.00000000000E+00 -0.00000000000E+00  0.11368683772E-12  0.17120000000E+03  0.17120000000E+03 0.  0.
         13    1    1    2    0    0 -0.21812355817E+02  0.14794282027E+02  0.11312641955E+03  0.11615613463E+03  0.10566000000E+00 0. -1.
        994    1    1    2    0    0  0.93378879189E+01 -0.40663394643E+01  0.35021288731E+01  0.17153843935E+03  0.17120000000E+03 0.  0.
        998    1    1    2    0    0  0.12474467898E+02 -0.10727942563E+02  0.13833714479E+04  0.13835054260E+04  0.10000000000E+02 0. -1.
</event>
<event>
 5    1  0.1020718E-008  0.3736926E+03  0.7957747E-01  0.3479091E+00
         13   -1    0    0    0    0  0.00000000000E+00  0.00000000000E+00  0.14999999963E+04  0.15000000000E+04  0.10566000000E+00 0.  1.
        994   -1    0    0    0    0 -0.00000000000E+00 -0.00000000000E+00  0.11368683772E-12  0.17120000000E+03  0.17120000000E+03 0.  0.
         13    1    1    2    0    0  0.76960547518E+01 -0.88464078870E+01  0.60934927499E+01  0.13214764817E+02  0.10566000000E+00 0.  1.
        994    1    1    2    0    0  0.81260056464E+01  0.79995564927E+01  0.77957086126E+01  0.17175633306E+03  0.17120000000E+03 0.  0.
        998    1    1    2    0    0 -0.15822060398E+02  0.84685139429E+00  0.14861107949E+04  0.14862289021E+04  0.10000000000E+02 0.  1.
</event>
<event>
 5    1  0.1020718E-008  0.3791959E+03  0.7957747E-01  0.3454667E+00
         13   -1    0    0    0    0  0.00000000000E+00  0.00000000000E+00  0.14999999963E+04  0.15000000000E+04  0.10566000000E+00 0. -1.
        994   -1    0    0    0    0 -0.00000000000E+00 -0.00000000000E+00  0.11368683772E-12  0.17120000000E+03  0.17120000000E+03 0.  0.
         13    1    1    2    0    0 -0.38728886622E+02 -0.71317047353E+01  0.15502881604E+03  0.15995228301E+03  0.10566000000E+00 0. -1.
        994    1    1    2    0    0  0.35882926349E+02  0.12060405601E+02  0.93578986331E+01  0.17558487422E+03  0.17120000000E+03 0.  0.
        998    1    1    2    0    0  0.28459602724E+01 -0.49287008658E+01  0.13356132816E+04  0.13356628428E+04  0.10000000000E+02 0. -1.
</event>
<event>
 5    1  0.1020718E-008  0.3804630E+03  0.7957747E-01  0.3449145E+00
         13   -1    0    0    0    0  0.00000000000E+00  0.00000000000E+00  0.14999999963E+04  0.15000000000E+04  0.10566000000E+00 0. -1.
        994   -1    0    0    0    0 -0.00000000000E+00 -0.00000000000E+00  0.11368683772E-12  0.17120000000E+03  0.17120000000E+03 0.  0.
         13    1    1    2    0    0  0.21501247059E+02  0.61301710832E+01  0.53752269195E+02  0.58216838030E+02  0.10566000000E+00 0. -1.
        994    1    1    2    0    0 -0.58475598729E+02  0.99306882560E+01  0.15732639358E+02  0.18186525275E+03  0.17120000000E+03 0.  0.
        998    1    1    2    0    0  0.36974351670E+02 -0.16060859339E+02  0.14305150877E+04  0.14311179092E+04  0.10000000000E+02 0. -1.
</event>
<event>
 5    1  0.1020718E-008  0.3853031E+03  0.7957747E-01  0.3428388E+00
         13   -1    0    0    0    0  0.00000000000E+00  0.00000000000E+00  0.14999999963E+04  0.15000000000E+04  0.10566000000E+00 0. -1.
        994   -1    0    0    0    0 -0.00000000000E+00 -0.00000000000E+00  0.11368683772E-12  0.17120000000E+03  0.17120000000E+03 0.  0.
         13    1    1    2    0    0  0.66766023738E+00 -0.12170668954E+02  0.48452817087E+02  0.49962561991E+02  0.10566000000E+00 0. -1.
        994    1    1    2    0    0 -0.15195885329E+01  0.14676207819E+02  0.21953081634E+01  0.17184865319E+03  0.17120000000E+03 0.  0.
        998    1    1    2    0    0  0.85192829550E+00 -0.25055388654E+01  0.14493518710E+04  0.14493887848E+04  0.10000000000E+02 0. -1.
</event>
<event>
 5    1  0.1020718E-008  0.4121507E+03  0.7957747E-01  0.3322099E+00
         13   -1    0    0    0    0  0.00000000000E+00  0.00000000000E+00  0.14999999963E+04  0.15000000000E+04  0.10566000000E+00 0. -1.
        994   -1    0    0    0    0 -0.00000000000E+00 -0.00000000000E+00  0.11368683772E-12  0.17120000000E+03  0.17120000000E+03 0.  0.
         13    1    1    2    0    0 -0.40888006199E+02 -0.83210407321E+01  0.92385992780E+01  0.42736771643E+02  0.10566000000E+00 0. -1.
        994    1    1    2    0    0  0.65623867211E+02  0.31241201057E+02  0.57364177001E+02  0.19463451234E+03  0.17120000000E+03 0.  0.
        998    1    1    2    0    0 -0.24735861012E+02 -0.22920160325E+02  0.14333972200E+04  0.14338287160E+04  0.10000000000E+02 0. -1.
</event>
<event>
 5    1  0.1020718E-008  0.3861613E+03  0.7957747E-01  0.3424762E+00
         13   -1    0    0    0    0  0.00000000000E+00  0.00000000000E+00  0.14999999963E+04  0.15000000000E+04  0.10566000000E+00 0. -1.
        994   -1    0    0    0    0 -0.00000000000E+00 -0.00000000000E+00  0.11368683772E-12  0.17120000000E+03  0.17120000000E+03 0.  0.
         13    1    1    2    0    0  0.50633084836E+00 -0.10052002686E+02  0.46706887999E+02  0.47779113423E+02  0.10566000000E+00 0. -1.
        994    1    1    2    0    0 -0.23625226113E+01  0.13122656220E+02  0.16373536610E+01  0.17172625468E+03  0.17120000000E+03 0.  0.
        998    1    1    2    0    0  0.18561917630E+01 -0.30706535339E+01  0.14516557546E+04  0.14516946319E+04  0.10000000000E+02 0. -1.
</event>
<event>
 5    1  0.1020718E-008  0.3855495E+03  0.7957747E-01  0.3427345E+00
         13   -1    0    0    0    0  0.00000000000E+00  0.00000000000E+00  0.14999999963E+04  0.15000000000E+04  0.10566000000E+00 0. -1.
        994   -1    0    0    0    0 -0.00000000000E+00 -0.00000000000E+00  0.11368683772E-12  0.17120000000E+03  0.17120000000E+03 0.  0.
         13    1    1    2    0    0  0.11078346871E+02 -0.14115251684E+01  0.44831850409E+02  0.46202036187E+02  0.10566000000E+00 0. -1.
        994    1    1    2    0    0 -0.12007922863E+02  0.52294296389E+01  0.19208981064E+01  0.17171099847E+03  0.17120000000E+03 0.  0.
        998    1    1    2    0    0  0.92957599155E+00 -0.38179044706E+01  0.14532472478E+04  0.14532869653E+04  0.10000000000E+02 0. -1.
</event>
<event>
 5    1  0.1020718E-008  0.3828056E+03  0.7957747E-01  0.3439033E+00
         13   -1    0    0    0    0  0.00000000000E+00  0.00000000000E+00  0.14999999963E+04  0.15000000000E+04  0.10566000000E+00 0.  1.
        994   -1    0    0    0    0 -0.00000000000E+00 -0.00000000000E+00  0.11368683772E-12  0.17120000000E+03  0.17120000000E+03 0.  0.
         13    1    1    2    0    0 -0.12474084180E+02 -0.11810840219E+01  0.27566375038E+02  0.30280586724E+02  0.10566000000E+00 0.  1.
        994    1    1    2    0    0  0.11072797676E+02  0.73755501201E+01  0.33100457723E+01  0.17174807711E+03  0.17120000000E+03 0.  0.
        998    1    1    2    0    0  0.14012865037E+01 -0.61944660982E+01  0.14691235755E+04  0.14691713362E+04  0.10000000000E+02 0.  1.
</event>
<event>
 5    1  0.1020718E-008  0.3821304E+03  0.7957747E-01  0.3441934E+00
         13   -1    0    0    0    0  0.00000000000E+00  0.00000000000E+00  0.14999999963E+04  0.15000000000E+04  0.10566000000E+00 0.  1.
        994   -1    0    0    0    0 -0.00000000000E+00 -0.00000000000E+00  0.11368683772E-12  0.17120000000E+03  0.17120000000E+03 0.  0.
         13    1    1    2    0    0  0.15665101991E+02 -0.10012761637E+02  0.54886066485E+02  0.57949480362E+02  0.10566000000E+00 0.  1.
        994    1    1    2    0    0 -0.14120811081E+02  0.45762737626E+01  0.37933535903E+01  0.17188417355E+03  0.17120000000E+03 0.  0.
        998    1    1    2    0    0 -0.15442909097E+01  0.54364878739E+01  0.14413205762E+04  0.14413663461E+04  0.10000000000E+02 0.  1.
</event>
<event>
 5    1  0.1020718E-008  0.3795273E+03  0.7957747E-01  0.3453219E+00
         13   -1    0    0    0    0  0.00000000000E+00  0.00000000000E+00  0.14999999963E+04  0.15000000000E+04  0.10566000000E+00 0.  1.
        994   -1    0    0    0    0 -0.00000000000E+00 -0.00000000000E+00  0.11368683772E-12  0.17120000000E+03  0.17120000000E+03 0.  0.
         13    1    1    2    0    0 -0.35057600588E+02 -0.29874410939E+00  0.13049318519E+03  0.13512071326E+03  0.10566000000E+00 0.  1.
        994    1    1    2    0    0  0.32316870939E+02 -0.14655673084E+02  0.85993398873E+01  0.17505015723E+03  0.17120000000E+03 0.  0.
        998    1    1    2    0    0  0.27407296494E+01  0.14954417194E+02  0.13609074712E+04  0.13610291295E+04  0.10000000000E+02 0.  1.
</event>
<event>
 5    1  0.1020718E-008  0.3838459E+03  0.7957747E-01  0.3434582E+00
         13   -1    0    0    0    0  0.00000000000E+00  0.00000000000E+00  0.14999999963E+04  0.15000000000E+04  0.10566000000E+00 0.  1.
        994   -1    0    0    0    0 -0.00000000000E+00 -0.00000000000E+00  0.11368683772E-12  0.17120000000E+03  0.17120000000E+03 0.  0.
         13    1    1    2    0    0 -0.67550518216E+00 -0.17414334922E+02  0.65851330063E+02  0.68118457140E+02  0.10566000000E+00 0.  1.
        994    1    1    2    0    0  0.51077303972E+01  0.18048023859E+02  0.33664188199E+01  0.17225734484E+03  0.17120000000E+03 0.  0.
        998    1    1    2    0    0 -0.44322252150E+01 -0.63368893643E+00  0.14307822474E+04  0.14308241980E+04  0.10000000000E+02 0.  1.
</event>
<event>
 5    1  0.1020718E-008  0.3799740E+03  0.7957747E-01  0.3451272E+00
         13   -1    0    0    0    0  0.00000000000E+00  0.00000000000E+00  0.14999999963E+04  0.15000000000E+04  0.10566000000E+00 0.  1.
        994   -1    0    0    0    0 -0.00000000000E+00 -0.00000000000E+00  0.11368683772E-12  0.17120000000E+03  0.17120000000E+03 0.  0.
         13    1    1    2    0    0 -0.26909619221E+02 -0.15638895821E+02  0.12931842395E+03  0.13301115970E+03  0.10566000000E+00 0.  1.
        994    1    1    2    0    0 -0.44815537842E+01  0.67717889933E+01  0.43667370778E+01  0.17144809665E+03  0.17120000000E+03 0.  0.
        998    1    1    2    0    0  0.31391173005E+02  0.88671068276E+01  0.13663148353E+04  0.13667407437E+04  0.10000000000E+02 0.  1.
</event>
<event>
 5    1  0.1020718E-008  0.3805132E+03  0.7957747E-01  0.3448927E+00
         13   -1    0    0    0    0  0.00000000000E+00  0.00000000000E+00  0.14999999963E+04  0.15000000000E+04  0.10566000000E+00 0. -1.
        994   -1    0    0    0    0 -0.00000000000E+00 -0.00000000000E+00  0.11368683772E-12  0.17120000000E+03  0.17120000000E+03 0.  0.
         13    1    1    2    0    0  0.24574279833E+02  0.29826936053E+02  0.16810308681E+03  0.17248826135E+03  0.10566000000E+00 0. -1.
        994    1    1    2    0    0 -0.27995041520E+02 -0.30936134369E+02  0.97056555597E+01  0.17647777908E+03  0.17120000000E+03 0.  0.
        998    1    1    2    0    0  0.34207616871E+01  0.11091983160E+01  0.13221912539E+04  0.13222339596E+04  0.10000000000E+02 0.  0.
</event>
<event>
 5    1  0.1020718E-008  0.3714081E+03  0.7957747E-01  0.3489444E+00
         13   -1    0    0    0    0  0.00000000000E+00  0.00000000000E+00  0.14999999963E+04  0.15000000000E+04  0.10566000000E+00 0. -1.
        994   -1    0    0    0    0 -0.00000000000E+00 -0.00000000000E+00  0.11368683772E-12  0.17120000000E+03  0.17120000000E+03 0.  0.
         13    1    1    2    0    0  0.10617142891E+03 -0.12443557187E+03  0.78310370162E+03  0.80000500156E+03  0.10566000000E+00 0. -1.
        994    1    1    2    0    0 -0.98147734075E+02  0.11737046320E+03  0.93959035090E+02  0.24808575858E+03  0.17120000000E+03 0.  0.
        998    1    1    2    0    0 -0.80236948379E+01  0.70651086641E+01  0.62293725957E+03  0.62310923986E+03  0.10000000000E+02 0. -1.
</event>
<event>
 5    1  0.1020718E-008  0.3818967E+03  0.7957747E-01  0.3442941E+00
         13   -1    0    0    0    0  0.00000000000E+00  0.00000000000E+00  0.14999999963E+04  0.15000000000E+04  0.10566000000E+00 0. -1.
        994   -1    0    0    0    0 -0.00000000000E+00 -0.00000000000E+00  0.11368683772E-12  0.17120000000E+03  0.17120000000E+03 0.  0.
         13    1    1    2    0    0 -0.99278686045E+01  0.18891427832E+02  0.74455406620E+02  0.77453646522E+02  0.10566000000E+00 0. -1.
        994    1    1    2    0    0 -0.38977912197E+01 -0.54156821794E+01  0.33267013598E+01  0.17136227511E+03  0.17120000000E+03 0.  0.
        998    1    1    2    0    0  0.13825659824E+02 -0.13475745652E+02  0.14222178883E+04  0.14223840784E+04  0.10000000000E+02 0. -1.
</event>
<event>
 5    1  0.1020718E-008  0.3860236E+03  0.7957747E-01  0.3425343E+00
         13   -1    0    0    0    0  0.00000000000E+00  0.00000000000E+00  0.14999999963E+04  0.15000000000E+04  0.10566000000E+00 0. -1.
        994   -1    0    0    0    0 -0.00000000000E+00 -0.00000000000E+00  0.11368683772E-12  0.17120000000E+03  0.17120000000E+03 0.  0.
         13    1    1    2    0    0  0.67066489134E+01 -0.11238559571E+02  0.75301102368E+02  0.76430043457E+02  0.10566000000E+00 0. -1.
        994    1    1    2    0    0 -0.11240910372E+02  0.69465405408E+01  0.16953484956E+01  0.17171757830E+03  0.17120000000E+03 0.  0.
        998    1    1    2    0    0  0.45342614591E+01  0.42920190299E+01  0.14230035454E+04  0.14230523782E+04  0.10000000000E+02 0. -1.
</event>
<event>
 5    1  0.1020718E-008  0.3834785E+03  0.7957747E-01  0.3436151E+00
         13   -1    0    0    0    0  0.00000000000E+00  0.00000000000E+00  0.14999999963E+04  0.15000000000E+04  0.10566000000E+00 0.  1.
        994   -1    0    0    0    0 -0.00000000000E+00 -0.00000000000E+00  0.11368683772E-12  0.17120000000E+03  0.17120000000E+03 0.  0.
         13    1    1    2    0    0  0.24561044650E+01 -0.18527890060E+02  0.69625543747E+02  0.72090517167E+02  0.10566000000E+00 0.  1.
        994    1    1    2    0    0 -0.84823430451E+01  0.18628497000E+02  0.37733210759E+01  0.17246057229E+03  0.17120000000E+03 0.  0.
        998    1    1    2    0    0  0.60262385801E+01 -0.10060694090E+00  0.14266011315E+04  0.14266489105E+04  0.10000000000E+02 0.  1.
</event>
<event>
 5    1  0.1020718E-008  0.3781937E+03  0.7957747E-01  0.3459061E+00
         13   -1    0    0    0    0  0.00000000000E+00  0.00000000000E+00  0.14999999963E+04  0.15000000000E+04  0.10566000000E+00 0. -1.
        994   -1    0    0    0    0 -0.00000000000E+00 -0.00000000000E+00  0.11368683772E-12  0.17120000000E+03  0.17120000000E+03 0.  0.
         13    1    1    2    0    0  0.19746478132E+03  0.61423694078E+01  0.10296505039E+04  0.10484322772E+04  0.10566000000E+00 0. -1.
        994    1    1    2    0    0 -0.19230210752E+03 -0.11314287047E+02  0.14212141887E+03  0.29430605048E+03  0.17120000000E+03 0.  0.
        998    1    1    2    0    0 -0.51626738013E+01  0.51719176391E+01  0.32822807354E+03  0.32846167233E+03  0.10000000000E+02 0.  0.
</event>
<event>
 5    1  0.1020718E-008  0.3784264E+03  0.7957747E-01  0.3458039E+00
         13   -1    0    0    0    0  0.00000000000E+00  0.00000000000E+00  0.14999999963E+04  0.15000000000E+04  0.10566000000E+00 0. -1.
        994   -1    0    0    0    0 -0.00000000000E+00 -0.00000000000E+00  0.11368683772E-12  0.17120000000E+03  0.17120000000E+03 0.  0.
         13    1    1    2    0    0  0.72933031657E+02  0.25610812766E+02  0.37536107659E+03  0.38323764144E+03  0.10566000000E+00 0. -1.
        994    1    1    2    0    0 -0.96489689898E+02 -0.15821610760E+02  0.37760140497E+02  0.20073826699E+03  0.17120000000E+03 0.  0.
        998    1    1    2    0    0  0.23556658241E+02 -0.97892020059E+01  0.10868787792E+04  0.10872240916E+04  0.10000000000E+02 0. -1.
</event>
<event>
 5    1  0.1020718E-008  0.3810975E+03  0.7957747E-01  0.3446394E+00
         13   -1    0    0    0    0  0.00000000000E+00  0.00000000000E+00  0.14999999963E+04  0.15000000000E+04  0.10566000000E+00 0. -1.
        994   -1    0    0    0    0 -0.00000000000E+00 -0.00000000000E+00  0.11368683772E-12  0.17120000000E+03  0.17120000000E+03 0.  0.
         13    1    1    2    0    0 -0.13763179618E+02 -0.51332260415E+02  0.73545198752E+02  0.90737718155E+02  0.10566000000E+00 0. -1.
        994    1    1    2    0    0  0.18294044430E+02  0.51953646175E+02  0.28052948963E+02  0.18201720072E+03  0.17120000000E+03 0.  0.
        998    1    1    2    0    0 -0.45308648118E+01 -0.62138576041E+00  0.13984018486E+04  0.13984450811E+04  0.10000000000E+02 0. -1.
</event>
<event>
 5    1  0.1020718E-008  0.3809081E+03  0.7957747E-01  0.3447214E+00
         13   -1    0    0    0    0  0.00000000000E+00  0.00000000000E+00  0.14999999963E+04  0.15000000000E+04  0.10566000000E+00 0. -1.
        994   -1    0    0    0    0 -0.00000000000E+00 -0.00000000000E+00  0.11368683772E-12  0.17120000000E+03  0.17120000000E+03 0.  0.
         13    1    1    2    0    0  0.33286062444E+02  0.12936750233E+01  0.13169109424E+03  0.13583884207E+03  0.10566000000E+00 0. -1.
        994    1    1    2    0    0 -0.40620123826E+02 -0.42152000897E+01  0.92539903677E+01  0.17624652822E+03  0.17120000000E+03 0.  0.
        998    1    1    2    0    0  0.73340613816E+01  0.29215250664E+01  0.13590549117E+04  0.13591146297E+04  0.10000000000E+02 0. -1.
</event>
<event>
 5    1  0.1020718E-008  0.3729352E+03  0.7957747E-01  0.3482509E+00
         13   -1    0    0    0    0  0.00000000000E+00  0.00000000000E+00  0.14999999963E+04  0.15000000000E+04  0.10566000000E+00 0. -1.
        994   -1    0    0    0    0 -0.00000000000E+00 -0.00000000000E+00  0.11368683772E-12  0.17120000000E+03  0.17120000000E+03 0.  0.
         13    1    1    2    0    0 -0.41523451166E+01  0.10935972965E+02  0.52592840631E+01  0.12826094789E+02  0.10566000000E+00 0. -1.
        994    1    1    2    0    0  0.87338834773E+01 -0.71158820017E+01  0.81774438637E+01  0.17176503453E+03  0.17120000000E+03 0.  0.
        998    1    1    2    0    0 -0.45815383607E+01 -0.38200909628E+01  0.14865632684E+04  0.14866088707E+04  0.10000000000E+02 0. -1.
</event>
<event>
 5    1  0.1020718E-008  0.3813081E+03  0.7957747E-01  0.3445482E+00
         13   -1    0    0    0    0  0.00000000000E+00  0.00000000000E+00  0.14999999963E+04  0.15000000000E+04  0.10566000000E+00 0. -1.
        994   -1    0    0    0    0 -0.00000000000E+00 -0.00000000000E+00  0.11368683772E-12  0.17120000000E+03  0.17120000000E+03 0.  0.
         13    1    1    2    0    0 -0.91982246259E+02 -0.42630145989E+02  0.26461988866E+03  0.28337565106E+03  0.10566000000E+00 0. -1.
        994    1    1    2    0    0  0.71103507366E+02  0.47797160582E+02  0.44289420152E+02  0.19649750649E+03  0.17120000000E+03 0.  0.
        998    1    1    2    0    0  0.20878738894E+02 -0.51670145929E+01  0.11910906875E+04  0.11913268424E+04  0.10000000000E+02 0. -1.
</event>
<event>
 5    1  0.1020718E-008  0.3835055E+03  0.7957747E-01  0.3436035E+00
         13   -1    0    0    0    0  0.00000000000E+00  0.00000000000E+00  0.14999999963E+04  0.15000000000E+04  0.10566000000E+00 0.  1.
        994   -1    0    0    0    0 -0.00000000000E+00 -0.00000000000E+00  0.11368683772E-12  0.17120000000E+03  0.17120000000E+03 0.  0.
         13    1    1    2    0    0  0.25626569937E+01  0.16065239562E+02  0.55098028421E+02  0.57449656509E+02  0.10566000000E+00 0.  1.
        994    1    1    2    0    0  0.11341107548E+01 -0.11092489028E+02  0.27849363810E+01  0.17158532977E+03  0.17120000000E+03 0.  0.
        998    1    1    2    0    0 -0.36967677484E+01 -0.49727505346E+01  0.14421170315E+04  0.14421650137E+04  0.10000000000E+02 0.  1.
</event>
<event>
 5    1  0.1020718E-008  0.3838931E+03  0.7957747E-01  0.3434380E+00
         13   -1    0    0    0    0  0.00000000000E+00  0.00000000000E+00  0.14999999963E+04  0.15000000000E+04  0.10566000000E+00 0.  1.
        994   -1    0    0    0    0 -0.00000000000E+00 -0.00000000000E+00  0.11368683772E-12  0.17120000000E+03  0.17120000000E+03 0.  0.
         13    1    1    2    0    0  0.13269217288E+02  0.13540882211E+02  0.77870616830E+02  0.80145316444E+02  0.10566000000E+00 0.  1.
        994    1    1    2    0    0 -0.59926696828E+01 -0.23242144275E+02  0.40844252536E+01  0.17292261821E+03  0.17120000000E+03 0.  0.
        998    1    1    2    0    0 -0.72765476052E+01  0.97012620647E+01  0.14180449542E+04  0.14181320653E+04  0.10000000000E+02 0.  1.
</event>
<event>
 5    1  0.1020718E-008  0.4008883E+03  0.7957747E-01  0.3364962E+00
         13   -1    0    0    0    0  0.00000000000E+00  0.00000000000E+00  0.14999999963E+04  0.15000000000E+04  0.10566000000E+00 0. -1.
        994   -1    0    0    0    0 -0.00000000000E+00 -0.00000000000E+00  0.11368683772E-12  0.17120000000E+03  0.17120000000E+03 0.  0.
         13    1    1    2    0    0 -0.44912492717E+01 -0.73873159797E+02  0.84108127679E+02  0.11203393845E+03  0.10566000000E+00 0. -1.
        994    1    1    2    0    0  0.93096550836E+00  0.69749431040E+02  0.47691397586E+02  0.19091820037E+03  0.17120000000E+03 0.  0.
        998    1    1    2    0    0  0.35602837633E+01  0.41237287564E+01  0.13682004710E+04  0.13682478612E+04  0.10000000000E+02 0. -1.
</event>
<event>
 5    1  0.1020718E-008  0.3951785E+03  0.7957747E-01  0.3387619E+00
         13   -1    0    0    0    0  0.00000000000E+00  0.00000000000E+00  0.14999999963E+04  0.15000000000E+04  0.10566000000E+00 0.  1.
        994   -1    0    0    0    0 -0.00000000000E+00 -0.00000000000E+00  0.11368683772E-12  0.17120000000E+03  0.17120000000E+03 0.  0.
         13    1    1    2    0    0  0.26994775521E+02  0.26531655825E+02  0.16985108242E+02  0.41486765749E+02  0.10566000000E+00 0.  1.
        994    1    1    2    0    0 -0.19543981799E+02 -0.69272369288E+02  0.45104605956E+02  0.19111382433E+03  0.17120000000E+03 0.  0.
        998    1    1    2    0    0 -0.74507937216E+01  0.42740713462E+02  0.14379102821E+04  0.14385994099E+04  0.10000000000E+02 0.  1.
</event>
<event>
 5    1  0.1020718E-008  0.3775180E+03  0.7957747E-01  0.3462037E+00
         13   -1    0    0    0    0  0.00000000000E+00  0.00000000000E+00  0.14999999963E+04  0.15000000000E+04  0.10566000000E+00 0. -1.
        994   -1    0    0    0    0 -0.00000000000E+00 -0.00000000000E+00  0.11368683772E-12  0.17120000000E+03  0.17120000000E+03 0.  0.
         13    1    1    2    0    0  0.54751219880E+02  0.90252822960E+01  0.24576816743E+03  0.25195466871E+03  0.10566000000E+00 0. -1.
        994    1    1    2    0    0 -0.50351360148E+02 -0.12189654645E+02  0.14491420557E+02  0.17945274704E+03  0.17120000000E+03 0.  0.
        998    1    1    2    0    0 -0.43998597316E+01  0.31643723487E+01  0.12397404083E+04  0.12397925843E+04  0.10000000000E+02 0. -1.
</event>
<event>
 5    1  0.1020718E-008  0.3801396E+03  0.7957747E-01  0.3450551E+00
         13   -1    0    0    0    0  0.00000000000E+00  0.00000000000E+00  0.14999999963E+04  0.15000000000E+04  0.10566000000E+00 0. -1.
        994   -1    0    0    0    0 -0.00000000000E+00 -0.00000000000E+00  0.11368683772E-12  0.17120000000E+03  0.17120000000E+03 0.  0.
         13    1    1    2    0    0 -0.12169088874E+02 -0.54509916367E+01  0.20017662416E+02  0.24052401262E+02  0.10566000000E+00 0. -1.
        994    1    1    2    0    0  0.11822046818E+02  0.44093625675E+01  0.45948487084E+01  0.17172581607E+03  0.17120000000E+03 0.  0.
        998    1    1    2    0    0  0.34704205582E+00  0.10416290692E+01  0.14753874852E+04  0.14754217827E+04  0.10000000000E+02 0. -1.
</event>
<event>
 5    1  0.1020718E-008  0.3784568E+03  0.7957747E-01  0.3457906E+00
         13   -1    0    0    0    0  0.00000000000E+00  0.00000000000E+00  0.14999999963E+04  0.15000000000E+04  0.10566000000E+00 0. -1.
        994   -1    0    0    0    0 -0.00000000000E+00 -0.00000000000E+00  0.11368683772E-12  0.17120000000E+03  0.17120000000E+03 0.  0.
         13    1    1    2    0    0 -0.58836179318E+01  0.15536980590E+02  0.25497892596E+02  0.30433015242E+02  0.10566000000E+00 0. -1.
        994    1    1    2    0    0  0.43791380052E+01 -0.18944029457E+02  0.61854754412E+01  0.17241158084E+03  0.17120000000E+03 0.  0.
        998    1    1    2    0    0  0.15044799266E+01  0.34070488669E+01  0.14683166282E+04  0.14683554039E+04  0.10000000000E+02 0. -1.
</event>
<event>
 5    1  0.1020718E-008  0.4246090E+03  0.7957747E-01  0.3277298E+00
         13   -1    0    0    0    0  0.00000000000E+00  0.00000000000E+00  0.14999999963E+04  0.15000000000E+04  0.10566000000E+00 0. -1.
        994   -1    0    0    0    0 -0.00000000000E+00 -0.00000000000E+00  0.11368683772E-12  0.17120000000E+03  0.17120000000E+03 0.  0.
         13    1    1    2    0    0 -0.39002910271E+02  0.22682029982E+02  0.76069751469E+01  0.45755641496E+02  0.10566000000E+00 0. -1.
        994    1    1    2    0    0  0.16859562002E+02 -0.22845763100E+02  0.46923290803E+02  0.17977043400E+03  0.17120000000E+03 0.  0.
        998    1    1    2    0    0  0.22143348269E+02  0.16373311771E+00  0.14454697303E+04  0.14456739245E+04  0.10000000000E+02 0. -1.
</event>
<event>
 5    1  0.1391159E-008  0.3853890E+03  0.7957747E-01  0.3428024E+00
         13   -1    0    0    0    0  0.00000000000E+00  0.00000000000E+00  0.14999999963E+04  0.15000000000E+04  0.10566000000E+00 0.  1.
        994   -1    0    0    0    0 -0.00000000000E+00 -0.00000000000E+00  0.11368683772E-12  0.17120000000E+03  0.17120000000E+03 0.  0.
         13    1    1    2    0    0 -0.96805126401E+01  0.39131179853E+01  0.38165713824E+02  0.39568392601E+02  0.10566000000E+00 0.  1.
        994    1    1    2    0    0  0.58761868373E+01 -0.16489903158E+01  0.15594761096E+01  0.17131585072E+03  0.17120000000E+03 0.  0.
        998    1    1    2    0    0  0.38043258028E+01 -0.22641276695E+01  0.14602748063E+04  0.14603157567E+04  0.10000000000E+02 0.  1.
</event>
<event>
 5    1  0.1020718E-008  0.3688744E+03  0.7957747E-01  0.3501080E+00
         13   -1    0    0    0    0  0.00000000000E+00  0.00000000000E+00  0.14999999963E+04  0.15000000000E+04  0.10566000000E+00 0. -1.
        994   -1    0    0    0    0 -0.00000000000E+00 -0.00000000000E+00  0.11368683772E-12  0.17120000000E+03  0.17120000000E+03 0.  0.
         13    1    1    2    0    0  0.27073164390E+01 -0.21943352148E+02  0.19140003067E+02  0.29243651400E+02  0.10566000000E+00 0. -1.
        994    1    1    2    0    0 -0.69819357214E-01  0.17812133874E+02  0.11450423031E+02  0.17250457726E+03  0.17120000000E+03 0.  0.
        998    1    1    2    0    0 -0.26374970818E+01  0.41312182744E+01  0.14694095702E+04  0.14694517713E+04  0.10000000000E+02 0. -1.
</event>
<event>
 5    1  0.1020718E-008  0.3832424E+03  0.7957747E-01  0.3437161E+00
         13   -1    0    0    0    0  0.00000000000E+00  0.00000000000E+00  0.14999999963E+04  0.15000000000E+04  0.10566000000E+00 0.  1.
        994   -1    0    0    0    0 -0.00000000000E+00 -0.00000000000E+00  0.11368683772E-12  0.17120000000E+03  0.17120000000E+03 0.  0.
         13    1    1    2    0    0 -0.10748238764E+02  0.95846631825E+01  0.40035387027E+02  0.42546842225E+02  0.10566000000E+00 0.  1.
        994    1    1    2    0    0  0.77926822833E+01 -0.11144336565E+02  0.31171176586E+01  0.17176751310E+03  0.17120000000E+03 0.  0.
        998    1    1    2    0    0  0.29555564809E+01  0.15596733823E+01  0.14568474916E+04  0.14568856447E+04  0.10000000000E+02 0.  1.
</event>
<event>
 5    1  0.1020718E-008  0.3858477E+03  0.7957747E-01  0.3426085E+00
         13   -1    0    0    0    0  0.00000000000E+00  0.00000000000E+00  0.14999999963E+04  0.15000000000E+04  0.10566000000E+00 0. -1.
        994   -1    0    0    0    0 -0.00000000000E+00 -0.00000000000E+00  0.11368683772E-12  0.17120000000E+03  0.17120000000E+03 0.  0.
         13    1    1    2    0    0  0.76433502409E+01 -0.74154388638E+01  0.47510318332E+02  0.48689331978E+02  0.10566000000E+00 0. -1.
        994    1    1    2    0    0 -0.82482320243E+01  0.80362030926E+00  0.14351286824E+01  0.17140647226E+03  0.17120000000E+03 0.  0.
        998    1    1    2    0    0  0.60488178347E+00  0.66118185545E+01  0.14510545493E+04  0.14511041958E+04  0.10000000000E+02 0. -1.
</event>
<event>
 5    1  0.1020718E-008  0.3749796E+03  0.7957747E-01  0.3473314E+00
         13   -1    0    0    0    0  0.00000000000E+00  0.00000000000E+00  0.14999999963E+04  0.15000000000E+04  0.10566000000E+00 0.  1.
        994   -1    0    0    0    0 -0.00000000000E+00 -0.00000000000E+00  0.11368683772E-12  0.17120000000E+03  0.17120000000E+03 0.  0.
         13    1    1    2    0    0 -0.37506063206E+02  0.56710600788E+02  0.29565900819E+03  0.30337609877E+03  0.10566000000E+00 0.  1.
        994    1    1    2    0    0  0.27916571885E+02 -0.52642621006E+02  0.18856463452E+02  0.18225143826E+03  0.17120000000E+03 0.  0.
        998    1    1    2    0    0  0.95894913202E+01 -0.40679797820E+01  0.11854845246E+04  0.11855724630E+04  0.10000000000E+02 0.  1.
</event>
<event>
 5    1  0.1020718E-008  0.3843109E+03  0.7957747E-01  0.3432600E+00
         13   -1    0    0    0    0  0.00000000000E+00  0.00000000000E+00  0.14999999963E+04  0.15000000000E+04  0.10566000000E+00 0.  1.
        994   -1    0    0    0    0 -0.00000000000E+00 -0.00000000000E+00  0.11368683772E-12  0.17120000000E+03  0.17120000000E+03 0.  0.
         13    1    1    2    0    0 -0.10765461400E+02  0.15077581179E+02  0.86235207546E+02  0.88202895632E+02  0.10566000000E+00 0.  1.
        994    1    1    2    0    0  0.14669269849E+01 -0.14583470339E+02  0.26810321294E+01  0.17184719205E+03  0.17120000000E+03 0.  0.
        998    1    1    2    0    0  0.92985344152E+01 -0.49411083998E+00  0.14110837566E+04  0.14111499123E+04  0.10000000000E+02 0.  1.
</event>
<event>
 5    1  0.1020718E-008  0.3829258E+03  0.7957747E-01  0.3438517E+00
         13   -1    0    0    0    0  0.00000000000E+00  0.00000000000E+00  0.14999999963E+04  0.15000000000E+04  0.10566000000E+00 0. -1.
        994   -1    0    0    0    0 -0.00000000000E+00 -0.00000000000E+00  0.11368683772E-12  0.17120000000E+03  0.17120000000E+03 0.  0.
         13    1    1    2    0    0 -0.16994053041E+02 -0.13139491972E+02  0.83326041261E+02  0.86050475910E+02  0.10566000000E+00 0. -1.
        994    1    1    2    0    0  0.26749581715E+02 -0.33255685573E+01  0.50728917254E+01  0.17338331453E+03  0.17120000000E+03 0.  0.
        998    1    1    2    0    0 -0.97555286734E+01  0.16465060529E+02  0.14116010633E+04  0.14117662096E+04  0.10000000000E+02 0. -1.
</event>
<event>
 5    1  0.1020718E-008  0.3849182E+03  0.7957747E-01  0.3430019E+00
         13   -1    0    0    0    0  0.00000000000E+00  0.00000000000E+00  0.14999999963E+04  0.15000000000E+04  0.10566000000E+00 0.  1.
        994   -1    0    0    0    0 -0.00000000000E+00 -0.00000000000E+00  0.11368683772E-12  0.17120000000E+03  0.17120000000E+03 0.  0.
         13    1    1    2    0    0 -0.13662339173E+02 -0.43290757501E+01  0.57054956813E+02  0.58827541759E+02  0.10566000000E+00 0.  1.
        994    1    1    2    0    0  0.15331861541E+02  0.26540186953E+02  0.47672104359E+01  0.17398739551E+03  0.17120000000E+03 0.  0.
        998    1    1    2    0    0 -0.16695223684E+01 -0.22211111203E+02  0.14381778290E+04  0.14383850627E+04  0.10000000000E+02 0.  1.
</event>
<event>
 5    1  0.1020718E-008  0.3736343E+03  0.7957747E-01  0.3479353E+00
         13   -1    0    0    0    0  0.00000000000E+00  0.00000000000E+00  0.14999999963E+04  0.15000000000E+04  0.10566000000E+00 0.  1.
        994   -1    0    0    0    0 -0.00000000000E+00 -0.00000000000E+00  0.11368683772E-12  0.17120000000E+03  0.17120000000E+03 0.  0.
         13    1    1    2    0    0  0.11811777345E+01 -0.18809497782E+02  0.19710783461E+02  0.27271203427E+02  0.10566000000E+00 0.  1.
        994    1    1    2    0    0  0.27586585636E+01  0.37493064617E+02  0.12223491063E+02  0.17570484861E+03  0.17120000000E+03 0.  0.
        998    1    1    2    0    0 -0.39398362981E+01 -0.18683566836E+02  0.14680657218E+04  0.14682239480E+04  0.10000000000E+02 0.  1.
</event>
<event>
 5    1  0.1020718E-008  0.3849689E+03  0.7957747E-01  0.3429804E+00
         13   -1    0    0    0    0  0.00000000000E+00  0.00000000000E+00  0.14999999963E+04  0.15000000000E+04  0.10566000000E+00 0. -1.
        994   -1    0    0    0    0 -0.00000000000E+00 -0.00000000000E+00  0.11368683772E-12  0.17120000000E+03  0.17120000000E+03 0.  0.
         13    1    1    2    0    0  0.10127934253E+02  0.11292344977E+02  0.69928189394E+02  0.71554559206E+02  0.10566000000E+00 0. -1.
        994    1    1    2    0    0 -0.66576614847E+01 -0.73785085503E+01  0.19704889568E+01  0.17149953257E+03  0.17120000000E+03 0.  0.
        998    1    1    2    0    0 -0.34702727679E+01 -0.39138364267E+01  0.14281013179E+04  0.14281459082E+04  0.10000000000E+02 0. -1.
</event>
<event>
 5    1  0.1020718E-008  0.3818054E+03  0.7957747E-01  0.3443335E+00
         13   -1    0    0    0    0  0.00000000000E+00  0.00000000000E+00  0.14999999963E+04  0.15000000000E+04  0.10566000000E+00 0.  1.
        994   -1    0    0    0    0 -0.00000000000E+00 -0.00000000000E+00  0.11368683772E-12  0.17120000000E+03  0.17120000000E+03 0.  0.
         13    1    1    2    0    0 -0.16551871702E+02 -0.54004116560E+00  0.40565902420E+02  0.43816203675E+02  0.10566000000E+00 0.  1.
        994    1    1    2    0    0  0.16535436537E+02 -0.66180206913E+01  0.42794166735E+01  0.17217715373E+03  0.17120000000E+03 0.  0.
        998    1    1    2    0    0  0.16435164880E-01  0.71580618569E+01  0.14551546772E+04  0.14552066426E+04  0.10000000000E+02 0.  1.
</event>
<event>
 5    1  0.1020718E-008  0.3803238E+03  0.7957747E-01  0.3449750E+00
         13   -1    0    0    0    0  0.00000000000E+00  0.00000000000E+00  0.14999999963E+04  0.15000000000E+04  0.10566000000E+00 0.  1.
        994   -1    0    0    0    0 -0.00000000000E+00 -0.00000000000E+00  0.11368683772E-12  0.17120000000E+03  0.17120000000E+03 0.  0.
         13    1    1    2    0    0  0.18293647452E+02 -0.52443377250E+02  0.32543562568E+03  0.33014136818E+03  0.10566000000E+00 0.  1.
        994    1    1    2    0    0 -0.14057390727E+02  0.47481047258E+02  0.12201846536E+02  0.17863478144E+03  0.17120000000E+03 0.  0.
        998    1    1    2    0    0 -0.42362567248E+01  0.49623299924E+01  0.11623625241E+04  0.11624238504E+04  0.10000000000E+02 0.  1.
</event>
<event>
 5    1  0.1020718E-008  0.3856760E+03  0.7957747E-01  0.3426810E+00
         13   -1    0    0    0    0  0.00000000000E+00  0.00000000000E+00  0.14999999963E+04  0.15000000000E+04  0.10566000000E+00 0. -1.
        994   -1    0    0    0    0 -0.00000000000E+00 -0.00000000000E+00  0.11368683772E-12  0.17120000000E+03  0.17120000000E+03 0.  0.
         13    1    1    2    0    0  0.11671594898E+02 -0.69492540578E+00  0.53142254158E+02  0.54413411856E+02  0.10566000000E+00 0. -1.
        994    1    1    2    0    0 -0.74938442549E+01  0.75910024164E+01  0.16683375877E+01  0.17154009552E+03  0.17120000000E+03 0.  0.
        998    1    1    2    0    0 -0.41777506433E+01 -0.68960770106E+01  0.14451894045E+04  0.14452464926E+04  0.10000000000E+02 0. -1.
</event>
<event>
 5    1  0.1020718E-008  0.3733121E+03  0.7957747E-01  0.3480806E+00
         13   -1    0    0    0    0  0.00000000000E+00  0.00000000000E+00  0.14999999963E+04  0.15000000000E+04  0.10566000000E+00 0.  1.
        994   -1    0    0    0    0 -0.00000000000E+00 -0.00000000000E+00  0.11368683772E-12  0.17120000000E+03  0.17120000000E+03 0.  0.
         13    1    1    2    0    0  0.82355037302E+02  0.76413005223E+02  0.35511659871E+03  0.37246356786E+03  0.10566000000E+00 0.  1.
        994    1    1    2    0    0 -0.70336550238E+02 -0.97522294085E+02  0.65766742375E+02  0.21930009700E+03  0.17120000000E+03 0.  0.
        998    1    1    2    0    0 -0.12018487065E+02  0.21109288862E+02  0.10791166552E+04  0.10794363351E+04  0.10000000000E+02 0.  1.
</event>
<event>
 5    1  0.1020718E-008  0.3792360E+03  0.7957747E-01  0.3454492E+00
         13   -1    0    0    0    0  0.00000000000E+00  0.00000000000E+00  0.14999999963E+04  0.15000000000E+04  0.10566000000E+00 0. -1.
        994   -1    0    0    0    0 -0.00000000000E+00 -0.00000000000E+00  0.11368683772E-12  0.17120000000E+03  0.17120000000E+03 0.  0.
         13    1    1    2    0    0  0.39701264015E+01 -0.18114085067E+02  0.35956840058E+02  0.40457230410E+02  0.10566000000E+00 0. -1.
        994    1    1    2    0    0 -0.54254312710E+01  0.14329431338E+02  0.53064765022E+01  0.17196617865E+03  0.17120000000E+03 0.  0.
        998    1    1    2    0    0  0.14553048695E+01  0.37846537282E+01  0.14587366797E+04  0.14587765909E+04  0.10000000000E+02 0. -1.
</event>
<event>
 5    1  0.1020718E-008  0.3833935E+03  0.7957747E-01  0.3436514E+00
         13   -1    0    0    0    0  0.00000000000E+00  0.00000000000E+00  0.14999999963E+04  0.15000000000E+04  0.10566000000E+00 0.  1.
        994   -1    0    0    0    0 -0.00000000000E+00 -0.00000000000E+00  0.11368683772E-12  0.17120000000E+03  0.17120000000E+03 0.  0.
         13    1    1    2    0    0  0.78896516934E+01  0.25095625400E+02  0.15540522093E+03  0.15761608698E+03  0.10566000000E+00 0.  1.
        994    1    1    2    0    0  0.32442396417E+01 -0.60978977990E+01  0.25875754095E+01  0.17135881943E+03  0.17120000000E+03 0.  0.
        998    1    1    2    0    0 -0.11133891335E+02 -0.18997727601E+02  0.13420071999E+04  0.13422250936E+04  0.10000000000E+02 0.  1.
</event>
<event>
 5    1  0.1020718E-008  0.3819893E+03  0.7957747E-01  0.3442542E+00
         13   -1    0    0    0    0  0.00000000000E+00  0.00000000000E+00  0.14999999963E+04  0.15000000000E+04  0.10566000000E+00 0.  1.
        994   -1    0    0    0    0 -0.00000000000E+00 -0.00000000000E+00  0.11368683772E-12  0.17120000000E+03  0.17120000000E+03 0.  0.
         13    1    1    2    0    0 -0.86003598915E+01  0.10105538013E+02  0.26713490342E+02  0.29828003941E+02  0.10566000000E+00 0.  1.
        994    1    1    2    0    0  0.16088463030E+02 -0.15371543707E+01  0.40002884425E+01  0.17200768528E+03  0.17120000000E+03 0.  0.
        998    1    1    2    0    0 -0.74881031385E+01 -0.85683836425E+01  0.14692862175E+04  0.14693643108E+04  0.10000000000E+02 0.  1.
</event>
<event>
 5    1  0.1020718E-008  0.3819814E+03  0.7957747E-01  0.3442576E+00
         13   -1    0    0    0    0  0.00000000000E+00  0.00000000000E+00  0.14999999963E+04  0.15000000000E+04  0.10566000000E+00 0.  1.
        994   -1    0    0    0    0 -0.00000000000E+00 -0.00000000000E+00  0.11368683772E-12  0.17120000000E+03  0.17120000000E+03 0.  0.
         13    1    1    2    0    0  0.36051911846E+01  0.14263517312E+02  0.32058876316E+02  0.35273616830E+02  0.10566000000E+00 0.  1.
        994    1    1    2    0    0 -0.38750302855E+01 -0.21163248547E+02  0.46751514089E+01  0.17260995333E+03  0.17120000000E+03 0.  0.
        998    1    1    2    0    0  0.26983910086E+00  0.68997312341E+01  0.14632659686E+04  0.14633164298E+04  0.10000000000E+02 0.  1.
</event>
<event>
 5    1  0.1020718E-008  0.3845828E+03  0.7957747E-01  0.3431443E+00
         13   -1    0    0    0    0  0.00000000000E+00  0.00000000000E+00  0.14999999963E+04  0.15000000000E+04  0.10566000000E+00 0.  1.
        994   -1    0    0    0    0 -0.00000000000E+00 -0.00000000000E+00  0.11368683772E-12  0.17120000000E+03  0.17120000000E+03 0.  0.
         13    1    1    2    0    0 -0.11025565000E+02 -0.71531718934E+01  0.46782825698E+02  0.48593980039E+02  0.10566000000E+00 0.  1.
        994    1    1    2    0    0  0.11751278902E+02 -0.21650589567E+01  0.23077206046E+01  0.17163200637E+03  0.17120000000E+03 0.  0.
        998    1    1    2    0    0 -0.72571390163E+00  0.93182308500E+01  0.14509094500E+04  0.14509740136E+04  0.10000000000E+02 0.  1.
</event>
<event>
 5    1  0.1140874E-008  0.3863313E+03  0.7957747E-01  0.3424046E+00
         13   -1    0    0    0    0  0.00000000000E+00  0.00000000000E+00  0.14999999963E+04  0.15000000000E+04  0.10566000000E+00 0.  1.
        994   -1    0    0    0    0 -0.00000000000E+00 -0.00000000000E+00  0.11368683772E-12  0.17120000000E+03  0.17120000000E+03 0.  0.
         13    1    1    2    0    0  0.62768445655E+01  0.79612255002E+01  0.52093335551E+02  0.53070770317E+02  0.10566000000E+00 0.  1.
        994    1    1    2    0    0 -0.10761627254E+02 -0.62767358853E+01  0.14790053834E+01  0.17165907343E+03  0.17120000000E+03 0.  0.
        998    1    1    2    0    0  0.44847826889E+01 -0.16844896149E+01  0.14464276553E+04  0.14464701563E+04  0.10000000000E+02 0.  1.
</event>
<event>
 5    1  0.1020718E-008  0.3821607E+03  0.7957747E-01  0.3441804E+00
         13   -1    0    0    0    0  0.00000000000E+00  0.00000000000E+00  0.14999999963E+04  0.15000000000E+04  0.10566000000E+00 0. -1.
        994   -1    0    0    0    0 -0.00000000000E+00 -0.00000000000E+00  0.11368683772E-12  0.17120000000E+03  0.17120000000E+03 0.  0.
         13    1    1    2    0    0  0.34129367944E+02 -0.17716530113E+02  0.23110582901E+03  0.23428317174E+03  0.10566000000E+00 0. -1.
        994    1    1    2    0    0 -0.18800609970E+02  0.23094113143E+02  0.59954532713E+01  0.17387405343E+03  0.17120000000E+03 0.  0.
        998    1    1    2    0    0 -0.15328757974E+02 -0.53775830301E+01  0.12628987140E+04  0.12630427748E+04  0.10000000000E+02 0. -1.
</event>
<event>
 5    1  0.1020718E-008  0.3829049E+03  0.7957747E-01  0.3438607E+00
         13   -1    0    0    0    0  0.00000000000E+00  0.00000000000E+00  0.14999999963E+04  0.15000000000E+04  0.10566000000E+00 0. -1.
        994   -1    0    0    0    0 -0.00000000000E+00 -0.00000000000E+00  0.11368683772E-12  0.17120000000E+03  0.17120000000E+03 0.  0.
         13    1    1    2    0    0 -0.24870040988E+01 -0.12729465574E+02  0.30133211840E+02  0.32806190010E+02  0.10566000000E+00 0. -1.
        994    1    1    2    0    0  0.96919325667E+00  0.12675699642E+02  0.32091958154E+01  0.17170134430E+03  0.17120000000E+03 0.  0.
        998    1    1    2    0    0  0.15178108421E+01  0.53765932555E-01  0.14666575886E+04  0.14666924657E+04  0.10000000000E+02 0. -1.
</event>
<event>
 5    1  0.1020718E-008  0.3804379E+03  0.7957747E-01  0.3449254E+00
         13   -1    0    0    0    0  0.00000000000E+00  0.00000000000E+00  0.14999999963E+04  0.15000000000E+04  0.10566000000E+00 0. -1.
        994   -1    0    0    0    0 -0.00000000000E+00 -0.00000000000E+00  0.11368683772E-12  0.17120000000E+03  0.17120000000E+03 0.  0.
         13    1    1    2    0    0 -0.22909335823E+02 -0.15718967375E+00  0.68233781827E+02  0.71977236144E+02  0.10566000000E+00 0. -1.
        994    1    1    2    0    0  0.60638860494E+01 -0.11109803051E+02  0.44471719756E+01  0.17172482574E+03  0.17120000000E+03 0.  0.
        998    1    1    2    0    0  0.16845449774E+02  0.11266992724E+02  0.14273190425E+04  0.14274979381E+04  0.10000000000E+02 0. -1.
</event>
<event>
 5    1  0.1467270E-008  0.3860837E+03  0.7957747E-01  0.3425089E+00
         13   -1    0    0    0    0  0.00000000000E+00  0.00000000000E+00  0.14999999963E+04  0.15000000000E+04  0.10566000000E+00 0.  1.
        994   -1    0    0    0    0 -0.00000000000E+00 -0.00000000000E+00  0.11368683772E-12  0.17120000000E+03  0.17120000000E+03 0.  0.
         13    1    1    2    0    0 -0.79711426165E+01  0.81212744439E+01  0.64565738042E+02  0.65560963280E+02  0.10566000000E+00 0.  1.
        994    1    1    2    0    0  0.17418340408E+02  0.18161854347E+02  0.31710322534E+01  0.17306861929E+03  0.17120000000E+03 0.  0.
        998    1    1    2    0    0 -0.94471977917E+01 -0.26283128791E+02  0.14322632260E+04  0.14325704174E+04  0.10000000000E+02 0.  1.
</event>
<event>
 5    1  0.1020718E-008  0.3730485E+03  0.7957747E-01  0.3481997E+00
         13   -1    0    0    0    0  0.00000000000E+00  0.00000000000E+00  0.14999999963E+04  0.15000000000E+04  0.10566000000E+00 0.  1.
        994   -1    0    0    0    0 -0.00000000000E+00 -0.00000000000E+00  0.11368683772E-12  0.17120000000E+03  0.17120000000E+03 0.  0.
         13    1    1    2    0    0  0.33532712075E+02 -0.17777377788E+02  0.92816471096E+02  0.10027654966E+03  0.10566000000E+00 0.  1.
        994    1    1    2    0    0 -0.79571335576E+01  0.24597415304E+02  0.99745820798E+01  0.17342802859E+03  0.17120000000E+03 0.  0.
        998    1    1    2    0    0 -0.25575578517E+02 -0.68200375166E+01  0.13972089431E+04  0.13974954218E+04  0.10000000000E+02 0.  1.
</event>
<event>
 5    1  0.1020718E-008  0.3757512E+03  0.7957747E-01  0.3469870E+00
         13   -1    0    0    0    0  0.00000000000E+00  0.00000000000E+00  0.14999999963E+04  0.15000000000E+04  0.10566000000E+00 0.  1.
        994   -1    0    0    0    0 -0.00000000000E+00 -0.00000000000E+00  0.11368683772E-12  0.17120000000E+03  0.17120000000E+03 0.  0.
         13    1    1    2    0    0  0.22788216160E+02  0.10754390719E+02  0.17328084439E+02  0.30581585797E+02  0.10566000000E+00 0.  1.
        994    1    1    2    0    0  0.56685761941E+00 -0.95504800838E+01  0.14339430702E+02  0.17206566267E+03  0.17120000000E+03 0.  0.
        998    1    1    2    0    0 -0.23355073779E+02 -0.12039106352E+01  0.14683324811E+04  0.14685527515E+04  0.10000000000E+02 0.  1.
</event>
<event>
 5    1  0.1020718E-008  0.3813071E+03  0.7957747E-01  0.3445487E+00
         13   -1    0    0    0    0  0.00000000000E+00  0.00000000000E+00  0.14999999963E+04  0.15000000000E+04  0.10566000000E+00 0. -1.
        994   -1    0    0    0    0 -0.00000000000E+00 -0.00000000000E+00  0.11368683772E-12  0.17120000000E+03  0.17120000000E+03 0.  0.
         13    1    1    2    0    0  0.76240839851E+02 -0.12742962331E+02  0.27276800828E+03  0.28350916433E+03  0.10566000000E+00 0. -1.
        994    1    1    2    0    0  0.43081185340E+02 -0.12910268126E+02  0.24448025162E+02  0.17868914205E+03  0.17120000000E+03 0.  0.
        998    1    1    2    0    0 -0.11932202519E+03  0.25653230458E+02  0.12027839628E+04  0.12090016936E+04  0.10000000000E+02 0. -1.
</event>
<event>
 5    1  0.1020718E-008  0.3820457E+03  0.7957747E-01  0.3442299E+00
         13   -1    0    0    0    0  0.00000000000E+00  0.00000000000E+00  0.14999999963E+04  0.15000000000E+04  0.10566000000E+00 0. -1.
        994   -1    0    0    0    0 -0.00000000000E+00 -0.00000000000E+00  0.11368683772E-12  0.17120000000E+03  0.17120000000E+03 0.  0.
         13    1    1    2    0    0  0.64063142208E+01  0.15963776112E+02  0.47956243710E+02  0.50947968404E+02  0.10566000000E+00 0. -1.
        994    1    1    2    0    0  0.56465326510E+01 -0.70636310117E+01  0.33756118426E+01  0.17147190140E+03  0.17120000000E+03 0.  0.
        998    1    1    2    0    0 -0.12052846872E+02 -0.89001451002E+01  0.14486681407E+04  0.14487801302E+04  0.10000000000E+02 0. -1.
</event>
<event>
 5    1  0.1114316E-008  0.3858362E+03  0.7957747E-01  0.3426134E+00
         13   -1    0    0    0    0  0.00000000000E+00  0.00000000000E+00  0.14999999963E+04  0.15000000000E+04  0.10566000000E+00 0.  1.
        994   -1    0    0    0    0 -0.00000000000E+00 -0.00000000000E+00  0.11368683772E-12  0.17120000000E+03  0.17120000000E+03 0.  0.
         13    1    1    2    0    0  0.64486939654E+01 -0.83954071188E+01  0.44080366858E+02  0.45333855130E+02  0.10566000000E+00 0.  1.
        994    1    1    2    0    0 -0.85817234755E+01  0.13705866961E+02  0.20736626984E+01  0.17197452382E+03  0.17120000000E+03 0.  0.
        998    1    1    2    0    0  0.21330295102E+01 -0.53104598425E+01  0.14538459667E+04  0.14538916210E+04  0.10000000000E+02 0.  1.
</event>
<event>
 5    1  0.1020718E-008  0.3812359E+03  0.7957747E-01  0.3445795E+00
         13   -1    0    0    0    0  0.00000000000E+00  0.00000000000E+00  0.14999999963E+04  0.15000000000E+04  0.10566000000E+00 0.  1.
        994   -1    0    0    0    0 -0.00000000000E+00 -0.00000000000E+00  0.11368683772E-12  0.17120000000E+03  0.17120000000E+03 0.  0.
         13    1    1    2    0    0 -0.55146995049E+01 -0.10086669089E+02  0.17415165221E+02  0.20867485417E+02  0.10566000000E+00 0.  1.
        994    1    1    2    0    0  0.40884343686E+01  0.59872603235E+01  0.36855687890E+01  0.17139307454E+03  0.17120000000E+03 0.  0.
        998    1    1    2    0    0  0.14262651363E+01  0.40994087656E+01  0.14788992623E+04  0.14789394400E+04  0.10000000000E+02 0.  1.
</event>
<event>
 5    1  0.1020718E-008  0.3846689E+03  0.7957747E-01  0.3431078E+00
         13   -1    0    0    0    0  0.00000000000E+00  0.00000000000E+00  0.14999999963E+04  0.15000000000E+04  0.10566000000E+00 0.  1.
        994   -1    0    0    0    0 -0.00000000000E+00 -0.00000000000E+00  0.11368683772E-12  0.17120000000E+03  0.17120000000E+03 0.  0.
         13    1    1    2    0    0  0.12006681938E+02 -0.13164148488E+00  0.41151745645E+02  0.42867879284E+02  0.10566000000E+00 0.  1.
        994    1    1    2    0    0 -0.17453579351E+01  0.72076696415E+01  0.19757039893E+01  0.17137193522E+03  0.17120000000E+03 0.  0.
        998    1    1    2    0    0 -0.10261324003E+02 -0.70760281566E+01  0.14568725466E+04  0.14569601855E+04  0.10000000000E+02 0.  1.
</event>
<event>
 5    1  0.1020718E-008  0.3841129E+03  0.7957747E-01  0.3433443E+00
         13   -1    0    0    0    0  0.00000000000E+00  0.00000000000E+00  0.14999999963E+04  0.15000000000E+04  0.10566000000E+00 0. -1.
        994   -1    0    0    0    0 -0.00000000000E+00 -0.00000000000E+00  0.11368683772E-12  0.17120000000E+03  0.17120000000E+03 0.  0.
         13    1    1    2    0    0  0.10813192699E+02  0.95111191871E+01  0.48669744226E+02  0.50755706001E+02  0.10566000000E+00 0. -1.
        994    1    1    2    0    0 -0.67074200802E+01 -0.12918820393E+02  0.27703438541E+01  0.17184004251E+03  0.17120000000E+03 0.  0.
        998    1    1    2    0    0 -0.41057726184E+01  0.34077012054E+01  0.14485599082E+04  0.14486042515E+04  0.10000000000E+02 0. -1.
</event>
<event>
 5    1  0.1020718E-008  0.3773693E+03  0.7957747E-01  0.3462694E+00
         13   -1    0    0    0    0  0.00000000000E+00  0.00000000000E+00  0.14999999963E+04  0.15000000000E+04  0.10566000000E+00 0.  1.
        994   -1    0    0    0    0 -0.00000000000E+00 -0.00000000000E+00  0.11368683772E-12  0.17120000000E+03  0.17120000000E+03 0.  0.
         13    1    1    2    0    0  0.27679433386E+02  0.15339106736E+02  0.96004584748E+02  0.10108575906E+03  0.10566000000E+00 0.  1.
        994    1    1    2    0    0 -0.65371527329E+01  0.30615313467E+01  0.56427867895E+01  0.17144500104E+03  0.17120000000E+03 0.  0.
        998    1    1    2    0    0 -0.21142280653E+02 -0.18400638082E+02  0.13983526247E+04  0.13986692399E+04  0.10000000000E+02 0.  1.
</event>
<event>
 5    1  0.1020718E-008  0.3856572E+03  0.7957747E-01  0.3426890E+00
         13   -1    0    0    0    0  0.00000000000E+00  0.00000000000E+00  0.14999999963E+04  0.15000000000E+04  0.10566000000E+00 0.  1.
        994   -1    0    0    0    0 -0.00000000000E+00 -0.00000000000E+00  0.11368683772E-12  0.17120000000E+03  0.17120000000E+03 0.  0.
         13    1    1    2    0    0 -0.12446924461E+02 -0.39665872814E+01  0.63556065373E+02  0.64884854573E+02  0.10566000000E+00 0.  1.
        994    1    1    2    0    0  0.16093514502E+02 -0.44622931258E+01  0.22200298964E+01  0.17202697987E+03  0.17120000000E+03 0.  0.
        998    1    1    2    0    0 -0.36465900412E+01  0.84288804073E+01  0.14342239010E+04  0.14342881656E+04  0.10000000000E+02 0.  1.
</event>
<event>
 5    1  0.1020718E-008  0.3761599E+03  0.7957747E-01  0.3468052E+00
         13   -1    0    0    0    0  0.00000000000E+00  0.00000000000E+00  0.14999999963E+04  0.15000000000E+04  0.10566000000E+00 0. -1.
        994   -1    0    0    0    0 -0.00000000000E+00 -0.00000000000E+00  0.11368683772E-12  0.17120000000E+03  0.17120000000E+03 0.  0.
         13    1    1    2    0    0  0.88774141602E+02 -0.74914594458E+02  0.31543881844E+03  0.33614684889E+03  0.10566000000E+00 0. -1.
        994    1    1    2    0    0 -0.11171100798E+03  0.81564147774E+02  0.86177306238E+02  0.23636418429E+03  0.17120000000E+03 0.  0.
        998    1    1    2    0    0  0.22936866378E+02 -0.66495533157E+01  0.10983838716E+04  0.10986889668E+04  0.10000000000E+02 0. -1.
</event>
<event>
 5    1  0.1020718E-008  0.3817834E+03  0.7957747E-01  0.3443430E+00
         13   -1    0    0    0    0  0.00000000000E+00  0.00000000000E+00  0.14999999963E+04  0.15000000000E+04  0.10566000000E+00 0. -1.
        994   -1    0    0    0    0 -0.00000000000E+00 -0.00000000000E+00  0.11368683772E-12  0.17120000000E+03  0.17120000000E+03 0.  0.
         13    1    1    2    0    0  0.25005726419E+02  0.14053402203E+02  0.12990731747E+03  0.13303648658E+03  0.10566000000E+00 0. -1.
        994    1    1    2    0    0 -0.11621291325E+02 -0.51740174298E+01  0.37736015630E+01  0.17171343843E+03  0.17120000000E+03 0.  0.
        998    1    1    2    0    0 -0.13384435094E+02 -0.88793847735E+01  0.13663190772E+04  0.13664500750E+04  0.10000000000E+02 0. -1.
</event>
<event>
 5    1  0.1020718E-008  0.3852724E+03  0.7957747E-01  0.3428518E+00
         13   -1    0    0    0    0  0.00000000000E+00  0.00000000000E+00  0.14999999963E+04  0.15000000000E+04  0.10566000000E+00 0. -1.
        994   -1    0    0    0    0 -0.00000000000E+00 -0.00000000000E+00  0.11368683772E-12  0.17120000000E+03  0.17120000000E+03 0.  0.
         13    1    1    2    0    0 -0.14552454122E+01 -0.12437178771E+02  0.46602096483E+02  0.48255235111E+02  0.10566000000E+00 0. -1.
        994    1    1    2    0    0  0.21106071700E+02  0.28158909052E+02  0.55746201729E+01  0.17486825559E+03  0.17120000000E+03 0.  0.
        998    1    1    2    0    0 -0.19650826288E+02 -0.15721730281E+02  0.14478232796E+04  0.14480765093E+04  0.10000000000E+02 0. -1.
</event>
<event>
 5    1  0.1020718E-008  0.3856597E+03  0.7957747E-01  0.3426879E+00
         13   -1    0    0    0    0  0.00000000000E+00  0.00000000000E+00  0.14999999963E+04  0.15000000000E+04  0.10566000000E+00 0.  1.
        994   -1    0    0    0    0 -0.00000000000E+00 -0.00000000000E+00  0.11368683772E-12  0.17120000000E+03  0.17120000000E+03 0.  0.
         13    1    1    2    0    0 -0.12043680313E+02 -0.16076515562E+00  0.56585288312E+02  0.57853107940E+02  0.10566000000E+00 0.  1.
        994    1    1    2    0    0  0.65967650985E+01  0.17103753195E+01  0.14553766815E+01  0.17134176611E+03  0.17120000000E+03 0.  0.
        998    1    1    2    0    0  0.54469152144E+01 -0.15496101638E+01  0.14419593313E+04  0.14420051259E+04  0.10000000000E+02 0.  1.
</event>
<event>
 5    1  0.1020718E-008  0.3738147E+03  0.7957747E-01  0.3478541E+00
         13   -1    0    0    0    0  0.00000000000E+00  0.00000000000E+00  0.14999999963E+04  0.15000000000E+04  0.10566000000E+00 0. -1.
        994   -1    0    0    0    0 -0.00000000000E+00 -0.00000000000E+00  0.11368683772E-12  0.17120000000E+03  0.17120000000E+03 0.  0.
         13    1    1    2    0    0  0.14382175169E+03 -0.53702221922E+02  0.80743744847E+03  0.82190259109E+03  0.10566000000E+00 0. -1.
        994    1    1    2    0    0 -0.12701047925E+03  0.74871856879E+02  0.85532950045E+02  0.24158390330E+03  0.17120000000E+03 0.  0.
        998    1    1    2    0    0 -0.16811272433E+02 -0.21169634958E+02  0.60702959777E+03  0.60771350560E+03  0.10000000000E+02 0.  0.
</event>
<event>
 5    1  0.1020718E-008  0.3786677E+03  0.7957747E-01  0.3456980E+00
         13   -1    0    0    0    0  0.00000000000E+00  0.00000000000E+00  0.14999999963E+04  0.15000000000E+04  0.10566000000E+00 0.  1.
        994   -1    0    0    0    0 -0.00000000000E+00 -0.00000000000E+00  0.11368683772E-12  0.17120000000E+03  0.17120000000E+03 0.  0.
         13    1    1    2    0    0 -0.14579002474E+02  0.11032478596E+03  0.62030078049E+03  0.63020407421E+03  0.10566000000E+00 0.  1.
        994    1    1    2    0    0 -0.37672373656E+02 -0.26176918506E+02  0.23224595376E+02  0.17875474995E+03  0.17120000000E+03 0.  0.
        998    1    1    2    0    0  0.52251376130E+02 -0.84147867450E+02  0.85647462041E+03  0.86224117584E+03  0.10000000000E+02 0.  1.
</event>
<event>
 5    1  0.1020718E-008  0.3713853E+03  0.7957747E-01  0.3489548E+00
         13   -1    0    0    0    0  0.00000000000E+00  0.00000000000E+00  0.14999999963E+04  0.15000000000E+04  0.10566000000E+00 0.  1.
        994   -1    0    0    0    0 -0.00000000000E+00 -0.00000000000E+00  0.11368683772E-12  0.17120000000E+03  0.17120000000E+03 0.  0.
         13    1    1    2    0    0 -0.82298824526E+01  0.10057418274E+02  0.19185509803E+01  0.13136766323E+02  0.10566000000E+00 0.  1.
        994    1    1    2    0    0 -0.17710260982E+02 -0.17245284881E+02  0.13822788339E+02  0.17352683560E+03  0.17120000000E+03 0.  0.
        998    1    1    2    0    0  0.25940143435E+02  0.71878666075E+01  0.14842586570E+04  0.14845363981E+04  0.10000000000E+02 0.  1.
</event>
<event>
 5    1  0.1020718E-008  0.4406904E+03  0.7957747E-01  0.3223135E+00
         13   -1    0    0    0    0  0.00000000000E+00  0.00000000000E+00  0.14999999963E+04  0.15000000000E+04  0.10566000000E+00 0. -1.
        994   -1    0    0    0    0 -0.00000000000E+00 -0.00000000000E+00  0.11368683772E-12  0.17120000000E+03  0.17120000000E+03 0.  0.
         13    1    1    2    0    0  0.14111704874E+02 -0.11049953249E+02 -0.19814644614E+02  0.26718401645E+02  0.10566000000E+00 0. -1.
        994    1    1    2    0    0 -0.22673449654E+02  0.14147608731E+02  0.58173814075E+02  0.18277820657E+03  0.17120000000E+03 0.  0.
        998    1    1    2    0    0  0.85617447798E+01 -0.30976554812E+01  0.14616408268E+04  0.14617033918E+04  0.10000000000E+02 0. -1.
</event>
<event>
 5    1  0.1020718E-008  0.3812200E+03  0.7957747E-01  0.3445863E+00
         13   -1    0    0    0    0  0.00000000000E+00  0.00000000000E+00  0.14999999963E+04  0.15000000000E+04  0.10566000000E+00 0. -1.
        994   -1    0    0    0    0 -0.00000000000E+00 -0.00000000000E+00  0.11368683772E-12  0.17120000000E+03  0.17120000000E+03 0.  0.
         13    1    1    2    0    0 -0.53644641803E+01  0.13871040066E+02  0.29473085438E+02  0.33012984683E+02  0.10566000000E+00 0. -1.
        994    1    1    2    0    0  0.72632782961E+01 -0.14838587489E+02  0.44278206233E+01  0.17205227254E+03  0.17120000000E+03 0.  0.
        998    1    1    2    0    0 -0.18988141158E+01  0.96754742255E+00  0.14660990902E+04  0.14661347428E+04  0.10000000000E+02 0. -1.
</event>
<event>
 5    1  0.1020718E-008  0.3773230E+03  0.7957747E-01  0.3462898E+00
         13   -1    0    0    0    0  0.00000000000E+00  0.00000000000E+00  0.14999999963E+04  0.15000000000E+04  0.10566000000E+00 0.  1.
        994   -1    0    0    0    0 -0.00000000000E+00 -0.00000000000E+00  0.11368683772E-12  0.17120000000E+03  0.17120000000E+03 0.  0.
         13    1    1    2    0    0  0.16903963885E+02 -0.78380544558E+01  0.29852646037E+02  0.35190492070E+02  0.10566000000E+00 0.  1.
        994    1    1    2    0    0 -0.13530497988E+02 -0.13015331678E+02  0.66803092290E+01  0.17235585214E+03  0.17120000000E+03 0.  0.
        998    1    1    2    0    0 -0.33734658970E+01  0.20853386134E+02  0.14634670410E+04  0.14636536558E+04  0.10000000000E+02 0.  1.
</event>
<event>
 5    1  0.1020718E-008  0.3820014E+03  0.7957747E-01  0.3442490E+00
         13   -1    0    0    0    0  0.00000000000E+00  0.00000000000E+00  0.14999999963E+04  0.15000000000E+04  0.10566000000E+00 0.  1.
        994   -1    0    0    0    0 -0.00000000000E+00 -0.00000000000E+00  0.11368683772E-12  0.17120000000E+03  0.17120000000E+03 0.  0.
         13    1    1    2    0    0  0.10734579491E+02 -0.14557113639E+01  0.17238891083E+02  0.20360275593E+02  0.10566000000E+00 0.  1.
        994    1    1    2    0    0 -0.13238879062E+02  0.68874793586E+00  0.37100796741E+01  0.17175257490E+03  0.17120000000E+03 0.  0.
        998    1    1    2    0    0  0.25042995714E+01  0.76696342804E+00  0.14790510255E+04  0.14790871495E+04  0.10000000000E+02 0.  1.
</event>
<event>
 5    1  0.1020718E-008  0.3835177E+03  0.7957747E-01  0.3435983E+00
         13   -1    0    0    0    0  0.00000000000E+00  0.00000000000E+00  0.14999999963E+04  0.15000000000E+04  0.10566000000E+00 0.  1.
        994   -1    0    0    0    0 -0.00000000000E+00 -0.00000000000E+00  0.11368683772E-12  0.17120000000E+03  0.17120000000E+03 0.  0.
         13    1    1    2    0    0  0.13260781789E+02 -0.13649141962E+02  0.76014418161E+02  0.78360387584E+02  0.10566000000E+00 0.  1.
        994    1    1    2    0    0 -0.65632053130E+01  0.10177754930E+02  0.28526777008E+01  0.17165150780E+03  0.17120000000E+03 0.  0.
        998    1    1    2    0    0 -0.66975764761E+01  0.34713870323E+01  0.14211329004E+04  0.14211881046E+04  0.10000000000E+02 0.  1.
</event>
<event>
 5    1  0.1020718E-008  0.3717717E+03  0.7957747E-01  0.3487788E+00
         13   -1    0    0    0    0  0.00000000000E+00  0.00000000000E+00  0.14999999963E+04  0.15000000000E+04  0.10566000000E+00 0.  1.
        994   -1    0    0    0    0 -0.00000000000E+00 -0.00000000000E+00  0.11368683772E-12  0.17120000000E+03  0.17120000000E+03 0.  0.
         13    1    1    2    0    0  0.41038583866E+02 -0.65738701602E+02  0.46572430603E+03  0.47212803629E+03  0.10566000000E+00 0.  1.
        994    1    1    2    0    0 -0.34583193678E+02  0.32019685200E+00  0.12467663819E+02  0.17510277683E+03  0.17120000000E+03 0.  0.
        998    1    1    2    0    0 -0.64553901884E+01  0.65418504750E+02  0.10218080264E+04  0.10239691869E+04  0.10000000000E+02 0. -1.
</event>
<event>
 5    1  0.1020718E-008  0.3770161E+03  0.7957747E-01  0.3464255E+00
         13   -1    0    0    0    0  0.00000000000E+00  0.00000000000E+00  0.14999999963E+04  0.15000000000E+04  0.10566000000E+00 0.  1.
        994   -1    0    0    0    0 -0.00000000000E+00 -0.00000000000E+00  0.11368683772E-12  0.17120000000E+03  0.17120000000E+03 0.  0.
         13    1    1    2    0    0  0.12338443359E+03 -0.30121062966E+02  0.71193525451E+03  0.72317550751E+03  0.10566000000E+00 0.  1.
        994    1    1    2    0    0 -0.12517061778E+03  0.22037222047E+02  0.62288273561E+02  0.22213192417E+03  0.17120000000E+03 0.  0.
        998    1    1    2    0    0  0.17861841969E+01  0.80838409185E+01  0.72577646821E+03  0.72589256832E+03  0.10000000000E+02 0. -1.
</event>
<event>
 5    1  0.1020718E-008  0.3780293E+03  0.7957747E-01  0.3459784E+00
         13   -1    0    0    0    0  0.00000000000E+00  0.00000000000E+00  0.14999999963E+04  0.15000000000E+04  0.10566000000E+00 0.  1.
        994   -1    0    0    0    0 -0.00000000000E+00 -0.00000000000E+00  0.11368683772E-12  0.17120000000E+03  0.17120000000E+03 0.  0.
         13    1    1    2    0    0  0.12502306823E+02  0.41188510133E+01  0.14753210252E+02  0.19772227652E+02  0.10566000000E+00 0.  1.
        994    1    1    2    0    0 -0.79600951328E+01  0.38857759754E+01  0.53953009905E+01  0.17151388178E+03  0.17120000000E+03 0.  0.
        998    1    1    2    0    0 -0.45422116899E+01 -0.80046269887E+01  0.14798514850E+04  0.14799138906E+04  0.10000000000E+02 0.  1.
</event>
<event>
 5    1  0.1020718E-008  0.3742079E+03  0.7957747E-01  0.3476773E+00
         13   -1    0    0    0    0  0.00000000000E+00  0.00000000000E+00  0.14999999963E+04  0.15000000000E+04  0.10566000000E+00 0.  1.
        994   -1    0    0    0    0 -0.00000000000E+00 -0.00000000000E+00  0.11368683772E-12  0.17120000000E+03  0.17120000000E+03 0.  0.
         13    1    1    2    0    0  0.16450833701E+02 -0.36697806918E+01  0.17107632019E+02  0.24016233200E+02  0.10566000000E+00 0.  1.
        994    1    1    2    0    0 -0.64941940079E+01  0.10196162195E+02  0.75842847694E+01  0.17179376489E+03  0.17120000000E+03 0.  0.
        998    1    1    2    0    0 -0.99566396929E+01 -0.65263815033E+01  0.14753080795E+04  0.14753900019E+04  0.10000000000E+02 0.  1.
</event>
<event>
 5    1  0.1020718E-008  0.3802136E+03  0.7957747E-01  0.3450229E+00
         13   -1    0    0    0    0  0.00000000000E+00  0.00000000000E+00  0.14999999963E+04  0.15000000000E+04  0.10566000000E+00 0. -1.
        994   -1    0    0    0    0 -0.00000000000E+00 -0.00000000000E+00  0.11368683772E-12  0.17120000000E+03  0.17120000000E+03 0.  0.
         13    1    1    2    0    0  0.65996255469E+02  0.13918116631E+03  0.53409024763E+03  0.55585907078E+03  0.10566000000E+00 0. -1.
        994    1    1    2    0    0 -0.22356703826E+02 -0.13447738949E+03  0.87358826243E+02  0.23563742278E+03  0.17120000000E+03 0.  0.
        998    1    1    2    0    0 -0.43639551643E+02 -0.47037768186E+01  0.87855092241E+03  0.87970350644E+03  0.10000000000E+02 0. -1.
</event>
<event>
 5    1  0.1020718E-008  0.3692218E+03  0.7957747E-01  0.3499475E+00
         13   -1    0    0    0    0  0.00000000000E+00  0.00000000000E+00  0.14999999963E+04  0.15000000000E+04  0.10566000000E+00 0. -1.
        994   -1    0    0    0    0 -0.00000000000E+00 -0.00000000000E+00  0.11368683772E-12  0.17120000000E+03  0.17120000000E+03 0.  0.
         13    1    1    2    0    0 -0.28493213612E+02 -0.59072068850E+02  0.18707775469E+03  0.19824093927E+03  0.10566000000E+00 0. -1.
        994    1    1    2    0    0  0.12742169589E+02  0.53904202872E+02  0.21302221198E+02  0.18119395851E+03  0.17120000000E+03 0.  0.
        998    1    1    2    0    0  0.15751044023E+02  0.51678659781E+01  0.12916200204E+04  0.12917651022E+04  0.10000000000E+02 0. -1.
</event>
<event>
 5    1  0.1020718E-008  0.3806466E+03  0.7957747E-01  0.3448348E+00
         13   -1    0    0    0    0  0.00000000000E+00  0.00000000000E+00  0.14999999963E+04  0.15000000000E+04  0.10566000000E+00 0. -1.
        994   -1    0    0    0    0 -0.00000000000E+00 -0.00000000000E+00  0.11368683772E-12  0.17120000000E+03  0.17120000000E+03 0.  0.
         13    1    1    2    0    0 -0.44677801436E+02 -0.19023558296E+02  0.28471468214E+03  0.28882600836E+03  0.10566000000E+00 0. -1.
        994    1    1    2    0    0  0.30586133686E+02  0.21006627178E+02  0.84134252016E+01  0.17537678205E+03  0.17120000000E+03 0.  0.
        998    1    1    2    0    0  0.14091667750E+02 -0.19830688819E+01  0.12068718889E+04  0.12069972096E+04  0.10000000000E+02 0. -1.
</event>
<event>
 5    1  0.1020718E-008  0.3843588E+03  0.7957747E-01  0.3432396E+00
         13   -1    0    0    0    0  0.00000000000E+00  0.00000000000E+00  0.14999999963E+04  0.15000000000E+04  0.10566000000E+00 0. -1.
        994   -1    0    0    0    0 -0.00000000000E+00 -0.00000000000E+00  0.11368683772E-12  0.17120000000E+03  0.17120000000E+03 0.  0.
         13    1    1    2    0    0  0.15631401499E+02 -0.85075603924E+01  0.79478642541E+02  0.81446823639E+02  0.10566000000E+00 0. -1.
        994    1    1    2    0    0 -0.98471481508E+01  0.12077391439E+02  0.27494584487E+01  0.17192972178E+03  0.17120000000E+03 0.  0.
        998    1    1    2    0    0 -0.57842533480E+01 -0.35698310467E+01  0.14177718953E+04  0.14178234546E+04  0.10000000000E+02 0. -1.
</event>
<event>
 5    1  0.1020718E-008  0.3849455E+03  0.7957747E-01  0.3429903E+00
         13   -1    0    0    0    0  0.00000000000E+00  0.00000000000E+00  0.14999999963E+04  0.15000000000E+04  0.10566000000E+00 0.  1.
        994   -1    0    0    0    0 -0.00000000000E+00 -0.00000000000E+00  0.11368683772E-12  0.17120000000E+03  0.17120000000E+03 0.  0.
         13    1    1    2    0    0  0.15113370442E+02 -0.22227293838E+01  0.68886268749E+02  0.70559787969E+02  0.10566000000E+00 0.  1.
        994    1    1    2    0    0 -0.13824075137E+02 -0.17463484632E+01  0.22960536228E+01  0.17178145025E+03  0.17120000000E+03 0.  0.
        998    1    1    2    0    0 -0.12892953056E+01  0.39690778470E+01  0.14288176739E+04  0.14288587618E+04  0.10000000000E+02 0.  1.
</event>
<event>
 5    1  0.1020718E-008  0.3695759E+03  0.7957747E-01  0.3497842E+00
         13   -1    0    0    0    0  0.00000000000E+00  0.00000000000E+00  0.14999999963E+04  0.15000000000E+04  0.10566000000E+00 0. -1.
        994   -1    0    0    0    0 -0.00000000000E+00 -0.00000000000E+00  0.11368683772E-12  0.17120000000E+03  0.17120000000E+03 0.  0.
         13    1    1    2    0    0 -0.36714594619E+02  0.56445152492E+02  0.26132672086E+03  0.26986234065E+03  0.10566000000E+00 0. -1.
        994    1    1    2    0    0  0.77267138759E+01 -0.21555632132E+02  0.11308653074E+02  0.17309440493E+03  0.17120000000E+03 0.  0.
        998    1    1    2    0    0  0.28987880743E+02 -0.34889520359E+02  0.12273646223E+04  0.12282432544E+04  0.10000000000E+02 0. -1.
</event>
<event>
 5    1  0.1020718E-008  0.3851884E+03  0.7957747E-01  0.3428874E+00
         13   -1    0    0    0    0  0.00000000000E+00  0.00000000000E+00  0.14999999963E+04  0.15000000000E+04  0.10566000000E+00 0.  1.
        994   -1    0    0    0    0 -0.00000000000E+00 -0.00000000000E+00  0.11368683772E-12  0.17120000000E+03  0.17120000000E+03 0.  0.
         13    1    1    2    0    0 -0.16950923070E+02 -0.50125201784E+01  0.10294890686E+03  0.10445548209E+03  0.10566000000E+00 0.  1.
        994    1    1    2    0    0  0.11209717612E+02 -0.24244546186E+01  0.19690723485E+01  0.17159502614E+03  0.17120000000E+03 0.  0.
        998    1    1    2    0    0  0.57412054575E+01  0.74369747970E+01  0.13950820171E+04  0.13951494918E+04  0.10000000000E+02 0.  1.
</event>
<event>
 5    1  0.1020718E-008  0.3859556E+03  0.7957747E-01  0.3425630E+00
         13   -1    0    0    0    0  0.00000000000E+00  0.00000000000E+00  0.14999999963E+04  0.15000000000E+04  0.10566000000E+00 0. -1.
        994   -1    0    0    0    0 -0.00000000000E+00 -0.00000000000E+00  0.11368683772E-12  0.17120000000E+03  0.17120000000E+03 0.  0.
         13    1    1    2    0    0 -0.11165348226E+02 -0.41545935788E+01  0.68604667044E+02  0.69631437965E+02  0.10566000000E+00 0. -1.
        994    1    1    2    0    0 -0.53873236221E+00 -0.12041057133E+02  0.16328950858E+01  0.17163153450E+03  0.17120000000E+03 0.  0.
        998    1    1    2    0    0  0.11704080588E+02  0.16195650712E+02  0.14297624341E+04  0.14299370275E+04  0.10000000000E+02 0. -1.
</event>
<event>
 5    1  0.1020718E-008  0.3697750E+03  0.7957747E-01  0.3496926E+00
         13   -1    0    0    0    0  0.00000000000E+00  0.00000000000E+00  0.14999999963E+04  0.15000000000E+04  0.10566000000E+00 0.  1.
        994   -1    0    0    0    0 -0.00000000000E+00 -0.00000000000E+00  0.11368683772E-12  0.17120000000E+03  0.17120000000E+03 0.  0.
         13    1    1    2    0    0 -0.13654055791E+02 -0.67844564349E+02  0.21872666579E+03  0.22941378260E+03  0.10566000000E+00 0.  1.
        994    1    1    2    0    0  0.36053152905E+01  0.67507800603E+02  0.25372138790E+02  0.18580496998E+03  0.17120000000E+03 0.  0.
        998    1    1    2    0    0  0.10048740500E+02  0.33676374616E+00  0.12559011917E+04  0.12559812474E+04  0.10000000000E+02 0.  1.
</event>
<event>
 5    1  0.1020718E-008  0.3690390E+03  0.7957747E-01  0.3500319E+00
         13   -1    0    0    0    0  0.00000000000E+00  0.00000000000E+00  0.14999999963E+04  0.15000000000E+04  0.10566000000E+00 0.  1.
        994   -1    0    0    0    0 -0.00000000000E+00 -0.00000000000E+00  0.11368683772E-12  0.17120000000E+03  0.17120000000E+03 0.  0.
         13    1    1    2    0    0  0.19757036541E+02  0.53508590225E+02  0.19690235721E+03  0.20499770525E+03  0.10566000000E+00 0.  1.
        994    1    1    2    0    0  0.38651708251E+02 -0.13194328209E+02  0.15581213035E+02  0.17669255516E+03  0.17120000000E+03 0.  0.
        998    1    1    2    0    0 -0.58408744792E+02 -0.40314262016E+02  0.12875164260E+04  0.12895097396E+04  0.10000000000E+02 0.  1.
</event>
<event>
 5    1  0.1020718E-008  0.3847521E+03  0.7957747E-01  0.3430724E+00
         13   -1    0    0    0    0  0.00000000000E+00  0.00000000000E+00  0.14999999963E+04  0.15000000000E+04  0.10566000000E+00 0.  1.
        994   -1    0    0    0    0 -0.00000000000E+00 -0.00000000000E+00  0.11368683772E-12  0.17120000000E+03  0.17120000000E+03 0.  0.
         13    1    1    2    0    0  0.13331945607E+02  0.88793573862E+01  0.75099558625E+02  0.76788922580E+02  0.10566000000E+00 0.  1.
        994    1    1    2    0    0  0.72224735432E+00 -0.12730382333E+02  0.22885709748E+01  0.17168943425E+03  0.17120000000E+03 0.  0.
        998    1    1    2    0    0 -0.14054192961E+02  0.38510249469E+01  0.14226118667E+04  0.14227216432E+04  0.10000000000E+02 0.  1.
</event>
<event>
 5    1  0.1020718E-008  0.3791831E+03  0.7957747E-01  0.3454723E+00
         13   -1    0    0    0    0  0.00000000000E+00  0.00000000000E+00  0.14999999963E+04  0.15000000000E+04  0.10566000000E+00 0. -1.
        994   -1    0    0    0    0 -0.00000000000E+00 -0.00000000000E+00  0.11368683772E-12  0.17120000000E+03  0.17120000000E+03 0.  0.
         13    1    1    2    0    0  0.50370503567E+01  0.17735961473E+02  0.36658078147E+02  0.41033669872E+02  0.10566000000E+00 0. -1.
        994    1    1    2    0    0  0.56852420031E+01 -0.49561390555E+01  0.47367669059E+01  0.17143150892E+03  0.17120000000E+03 0.  0.
        998    1    1    2    0    0 -0.10722292360E+02 -0.12779822417E+02  0.14586051512E+04  0.14587348212E+04  0.10000000000E+02 0. -1.
</event>
<event>
 5    1  0.1020718E-008  0.3845328E+03  0.7957747E-01  0.3431656E+00
         13   -1    0    0    0    0  0.00000000000E+00  0.00000000000E+00  0.14999999963E+04  0.15000000000E+04  0.10566000000E+00 0.  1.
        994   -1    0    0    0    0 -0.00000000000E+00 -0.00000000000E+00  0.11368683772E-12  0.17120000000E+03  0.17120000000E+03 0.  0.
         13    1    1    2    0    0  0.12160433442E+02  0.18003893439E+02  0.11893438851E+03  0.12090250723E+03  0.10566000000E+00 0.  1.
        994    1    1    2    0    0 -0.10574750562E+02 -0.18491636802E+02  0.33582490886E+01  0.17255284355E+03  0.17120000000E+03 0.  0.
        998    1    1    2    0    0 -0.15856828801E+01  0.48774336305E+00  0.13777073587E+04  0.13777446492E+04  0.10000000000E+02 0.  1.
</event>
<event>
 5    1  0.1020718E-008  0.3824464E+03  0.7957747E-01  0.3440575E+00
         13   -1    0    0    0    0  0.00000000000E+00  0.00000000000E+00  0.14999999963E+04  0.15000000000E+04  0.10566000000E+00 0.  1.
        994   -1    0    0    0    0 -0.00000000000E+00 -0.00000000000E+00  0.11368683772E-12  0.17120000000E+03  0.17120000000E+03 0.  0.
         13    1    1    2    0    0 -0.93097058204E+01  0.14762803439E+02  0.52903849229E+02  0.55708521925E+02  0.10566000000E+00 0.  1.
        994    1    1    2    0    0  0.43919156721E+01 -0.37147109380E+01  0.30130315980E+01  0.17132310516E+03  0.17120000000E+03 0.  0.
        998    1    1    2    0    0  0.49177901483E+01 -0.11048092501E+02  0.14440831155E+04  0.14441683729E+04  0.10000000000E+02 0.  1.
</event>
<event>
 5    1  0.1020718E-008  0.3800860E+03  0.7957747E-01  0.3450784E+00
         13   -1    0    0    0    0  0.00000000000E+00  0.00000000000E+00  0.14999999963E+04  0.15000000000E+04  0.10566000000E+00 0. -1.
        994   -1    0    0    0    0 -0.00000000000E+00 -0.00000000000E+00  0.11368683772E-12  0.17120000000E+03  0.17120000000E+03 0.  0.
         13    1    1    2    0    0 -0.61575720592E+01  0.28697988450E+02  0.11829574437E+03  0.12188266708E+03  0.10566000000E+00 0. -1.
        994    1    1    2    0    0  0.60190933185E+01  0.62584569888E+01  0.43417661944E+01  0.17147503813E+03  0.17120000000E+03 0.  0.
        998    1    1    2    0    0  0.13847874064E+00 -0.34956445439E+02  0.13773624857E+04  0.13778422948E+04  0.10000000000E+02 0. -1.
</event>
<event>
 5    1  0.1020718E-008  0.3831787E+03  0.7957747E-01  0.3437433E+00
         13   -1    0    0    0    0  0.00000000000E+00  0.00000000000E+00  0.14999999963E+04  0.15000000000E+04  0.10566000000E+00 0. -1.
        994   -1    0    0    0    0 -0.00000000000E+00 -0.00000000000E+00  0.11368683772E-12  0.17120000000E+03  0.17120000000E+03 0.  0.
         13    1    1    2    0    0 -0.11155741270E+02 -0.20150172831E+02  0.10958270510E+03  0.11197705323E+03  0.10566000000E+00 0. -1.
        994    1    1    2    0    0 -0.51551507161E+00  0.74771917471E+01  0.27229296252E+01  0.17138561345E+03  0.17120000000E+03 0.  0.
        998    1    1    2    0    0  0.11671256342E+02  0.12672981084E+02  0.13876943616E+04  0.13878373333E+04  0.10000000000E+02 0. -1.
</event>
<event>
 5    1  0.1020718E-008  0.3827782E+03  0.7957747E-01  0.3439150E+00
         13   -1    0    0    0    0  0.00000000000E+00  0.00000000000E+00  0.14999999963E+04  0.15000000000E+04  0.10566000000E+00 0.  1.
        994   -1    0    0    0    0 -0.00000000000E+00 -0.00000000000E+00  0.11368683772E-12  0.17120000000E+03  0.17120000000E+03 0.  0.
         13    1    1    2    0    0  0.32707978738E+01 -0.12126206769E+02  0.28348991157E+02  0.31006764955E+02  0.10566000000E+00 0.  1.
        994    1    1    2    0    0 -0.96184376226E+01  0.10704857507E+01  0.30475471185E+01  0.17150040182E+03  0.17120000000E+03 0.  0.
        998    1    1    2    0    0  0.63476397488E+01  0.11055721018E+02  0.14686034580E+04  0.14686928332E+04  0.10000000000E+02 0.  1.
</event>
<event>
 5    1  0.1020718E-008  0.3792824E+03  0.7957747E-01  0.3454289E+00
         13   -1    0    0    0    0  0.00000000000E+00  0.00000000000E+00  0.14999999963E+04  0.15000000000E+04  0.10566000000E+00 0. -1.
        994   -1    0    0    0    0 -0.00000000000E+00 -0.00000000000E+00  0.11368683772E-12  0.17120000000E+03  0.17120000000E+03 0.  0.
         13    1    1    2    0    0 -0.34128389533E+02 -0.14380819098E+02  0.14071637252E+03  0.14550829389E+03  0.10566000000E+00 0. -1.
        994    1    1    2    0    0  0.31456113240E+02  0.12681490757E+02  0.83599601278E+01  0.17472731956E+03  0.17120000000E+03 0.  0.
        998    1    1    2    0    0  0.26722762930E+01  0.16993283407E+01  0.13509236636E+04  0.13509643866E+04  0.10000000000E+02 0. -1.
</event>
<event>
 5    1  0.1020718E-008  0.3779420E+03  0.7957747E-01  0.3460169E+00
         13   -1    0    0    0    0  0.00000000000E+00  0.00000000000E+00  0.14999999963E+04  0.15000000000E+04  0.10566000000E+00 0. -1.
        994   -1    0    0    0    0 -0.00000000000E+00 -0.00000000000E+00  0.11368683772E-12  0.17120000000E+03  0.17120000000E+03 0.  0.
         13    1    1    2    0    0  0.99485971617E+01 -0.17232268790E+01  0.72772372267E+01  0.12446422862E+02  0.10566000000E+00 0. -1.
        994    1    1    2    0    0 -0.19558368319E+02  0.45424303357E+01  0.65337947604E+01  0.17249722873E+03  0.17120000000E+03 0.  0.
        998    1    1    2    0    0  0.96097711571E+01 -0.28192034567E+01  0.14861889643E+04  0.14862563484E+04  0.10000000000E+02 0. -1.
</event>
<event>
 5    1  0.1020718E-008  0.3743589E+03  0.7957747E-01  0.3476095E+00
         13   -1    0    0    0    0  0.00000000000E+00  0.00000000000E+00  0.14999999963E+04  0.15000000000E+04  0.10566000000E+00 0. -1.
        994   -1    0    0    0    0 -0.00000000000E+00 -0.00000000000E+00  0.11368683772E-12  0.17120000000E+03  0.17120000000E+03 0.  0.
         13    1    1    2    0    0  0.15117756359E+02  0.26370740527E+01  0.13638548189E+02  0.20530997970E+02  0.10566000000E+00 0. -1.
        994    1    1    2    0    0 -0.13324503786E+02 -0.15487572922E+01  0.76215172197E+01  0.17189377119E+03  0.17120000000E+03 0.  0.
        998    1    1    2    0    0 -0.17932525736E+01 -0.10883167604E+01  0.14787399309E+04  0.14787752308E+04  0.10000000000E+02 0. -1.
</event>
<event>
 5    1  0.1020718E-008  0.3854322E+03  0.7957747E-01  0.3427841E+00
         13   -1    0    0    0    0  0.00000000000E+00  0.00000000000E+00  0.14999999963E+04  0.15000000000E+04  0.10566000000E+00 0. -1.
        994   -1    0    0    0    0 -0.00000000000E+00 -0.00000000000E+00  0.11368683772E-12  0.17120000000E+03  0.17120000000E+03 0.  0.
         13    1    1    2    0    0  0.16185740661E+01 -0.12561459496E+02  0.53421185056E+02  0.54902133142E+02  0.10566000000E+00 0. -1.
        994    1    1    2    0    0 -0.10535503353E+02  0.17642242167E+02  0.28036253276E+01  0.17245157539E+03  0.17120000000E+03 0.  0.
        998    1    1    2    0    0  0.89169292866E+01 -0.50807826705E+01  0.14437751859E+04  0.14438462915E+04  0.10000000000E+02 0. -1.
</event>
<event>
 5    1  0.1020718E-008  0.3838061E+03  0.7957747E-01  0.3434752E+00
         13   -1    0    0    0    0  0.00000000000E+00  0.00000000000E+00  0.14999999963E+04  0.15000000000E+04  0.10566000000E+00 0. -1.
        994   -1    0    0    0    0 -0.00000000000E+00 -0.00000000000E+00  0.11368683772E-12  0.17120000000E+03  0.17120000000E+03 0.  0.
         13    1    1    2    0    0 -0.89418375634E+01  0.11357585167E+02  0.47291595731E+02  0.49451566109E+02  0.10566000000E+00 0. -1.
        994    1    1    2    0    0  0.68011418911E+01 -0.19467339841E+01  0.23893086566E+01  0.17136275587E+03  0.17120000000E+03 0.  0.
        998    1    1    2    0    0  0.21406956722E+01 -0.94108511827E+01  0.14503190919E+04  0.14503856780E+04  0.10000000000E+02 0. -1.
</event>
<event>
 5    1  0.1020718E-008  0.3706550E+03  0.7957747E-01  0.3492886E+00
         13   -1    0    0    0    0  0.00000000000E+00  0.00000000000E+00  0.14999999963E+04  0.15000000000E+04  0.10566000000E+00 0.  1.
        994   -1    0    0    0    0 -0.00000000000E+00 -0.00000000000E+00  0.11368683772E-12  0.17120000000E+03  0.17120000000E+03 0.  0.
         13    1    1    2    0    0 -0.25344929442E+02  0.12814485882E+02  0.30358659661E+02  0.41572056448E+02  0.10566000000E+00 0.  1.
        994    1    1    2    0    0  0.25533455225E+02 -0.17133628434E+02  0.14605860732E+02  0.17455168211E+03  0.17120000000E+03 0.  0.
        998    1    1    2    0    0 -0.18852578278E+00  0.43191425518E+01  0.14550354759E+04  0.14550762614E+04  0.10000000000E+02 0.  1.
</event>
<event>
 5    1  0.1020718E-008  0.3853993E+03  0.7957747E-01  0.3427981E+00
         13   -1    0    0    0    0  0.00000000000E+00  0.00000000000E+00  0.14999999963E+04  0.15000000000E+04  0.10566000000E+00 0.  1.
        994   -1    0    0    0    0 -0.00000000000E+00 -0.00000000000E+00  0.11368683772E-12  0.17120000000E+03  0.17120000000E+03 0.  0.
         13    1    1    2    0    0 -0.91471994705E+01  0.76826466767E+01  0.54723940177E+02  0.56012633492E+02  0.10566000000E+00 0.  1.
        994    1    1    2    0    0 -0.50241000872E+01  0.39627304009E+01  0.15665362498E+01  0.17132670209E+03  0.17120000000E+03 0.  0.
        998    1    1    2    0    0  0.14171299558E+02 -0.11645377078E+02  0.14437095199E+04  0.14438606644E+04  0.10000000000E+02 0.  1.
</event>
<event>
 5    1  0.1020718E-008  0.3797060E+03  0.7957747E-01  0.3452440E+00
         13   -1    0    0    0    0  0.00000000000E+00  0.00000000000E+00  0.14999999963E+04  0.15000000000E+04  0.10566000000E+00 0.  1.
        994   -1    0    0    0    0 -0.00000000000E+00 -0.00000000000E+00  0.11368683772E-12  0.17120000000E+03  0.17120000000E+03 0.  0.
         13    1    1    2    0    0  0.48945078712E+02  0.25004543846E+02  0.28324398505E+03  0.28852731963E+03  0.10566000000E+00 0.  1.
        994    1    1    2    0    0 -0.49547494316E+02 -0.26974916538E+02  0.15005698660E+02  0.18087899631E+03  0.17120000000E+03 0.  0.
        998    1    1    2    0    0  0.60241560383E+00  0.19703726920E+01  0.12017503126E+04  0.12017936841E+04  0.10000000000E+02 0.  0.
</event>
<event>
 5    1  0.1020718E-008  0.3701835E+03  0.7957747E-01  0.3495048E+00
         13   -1    0    0    0    0  0.00000000000E+00  0.00000000000E+00  0.14999999963E+04  0.15000000000E+04  0.10566000000E+00 0.  1.
        994   -1    0    0    0    0 -0.00000000000E+00 -0.00000000000E+00  0.11368683772E-12  0.17120000000E+03  0.17120000000E+03 0.  0.
         13    1    1    2    0    0  0.11164308711E+02  0.85395938690E+01  0.65643660141E+01  0.15513494695E+02  0.10566000000E+00 0.  1.
        994    1    1    2    0    0 -0.11354410577E+02 -0.58322834160E+01  0.97363908102E+01  0.17195108454E+03  0.17120000000E+03 0.  0.
        998    1    1    2    0    0  0.19010186623E+00 -0.27073104530E+01  0.14836992395E+04  0.14837354208E+04  0.10000000000E+02 0.  1.
</event>
<event>
 5    1  0.1020718E-008  0.3821844E+03  0.7957747E-01  0.3441702E+00
         13   -1    0    0    0    0  0.00000000000E+00  0.00000000000E+00  0.14999999963E+04  0.15000000000E+04  0.10566000000E+00 0.  1.
        994   -1    0    0    0    0 -0.00000000000E+00 -0.00000000000E+00  0.11368683772E-12  0.17120000000E+03  0.17120000000E+03 0.  0.
         13    1    1    2    0    0 -0.10075544678E+02  0.27316838492E+01  0.16685831824E+02  0.19682653401E+02  0.10566000000E+00 0.  1.
        994    1    1    2    0    0  0.88448863351E+01  0.32085587735E+00  0.32945442908E+01  0.17146028399E+03  0.17120000000E+03 0.  0.
        998    1    1    2    0    0  0.12306583424E+01 -0.30525397265E+01  0.14800196202E+04  0.14800570626E+04  0.10000000000E+02 0.  1.
</event>
<event>
 5    1  0.1020718E-008  0.3861852E+03  0.7957747E-01  0.3424661E+00
         13   -1    0    0    0    0  0.00000000000E+00  0.00000000000E+00  0.14999999963E+04  0.15000000000E+04  0.10566000000E+00 0. -1.
        994   -1    0    0    0    0 -0.00000000000E+00 -0.00000000000E+00  0.11368683772E-12  0.17120000000E+03  0.17120000000E+03 0.  0.
         13    1    1    2    0    0  0.72349871729E+01 -0.82656182938E+01  0.62964069811E+02  0.63915183927E+02  0.10566000000E+00 0. -1.
        994    1    1    2    0    0 -0.63359718535E+01 -0.73705241423E+01  0.13523744471E+01  0.17148101377E+03  0.17120000000E+03 0.  0.
        998    1    1    2    0    0 -0.89901531935E+00  0.15636142436E+02  0.14356835520E+04  0.14358038023E+04  0.10000000000E+02 0. -1.
</event>
<event>
 5    1  0.1020718E-008  0.3821437E+03  0.7957747E-01  0.3441877E+00
         13   -1    0    0    0    0  0.00000000000E+00  0.00000000000E+00  0.14999999963E+04  0.15000000000E+04  0.10566000000E+00 0. -1.
        994   -1    0    0    0    0 -0.00000000000E+00 -0.00000000000E+00  0.11368683772E-12  0.17120000000E+03  0.17120000000E+03 0.  0.
         13    1    1    2    0    0 -0.96175773394E+01  0.12325035735E+02  0.40019864568E+02  0.42965160582E+02  0.10566000000E+00 0. -1.
        994    1    1    2    0    0 -0.11627547019E+01 -0.51521738136E+01  0.31475277507E+01  0.17131037279E+03  0.17120000000E+03 0.  0.
        998    1    1    2    0    0  0.10780332041E+02 -0.71728619218E+01  0.14568326040E+04  0.14569244666E+04  0.10000000000E+02 0. -1.
</event>
<event>
 5    1  0.1020718E-008  0.3805479E+03  0.7957747E-01  0.3448776E+00
         13   -1    0    0    0    0  0.00000000000E+00  0.00000000000E+00  0.14999999963E+04  0.15000000000E+04  0.10566000000E+00 0.  1.
        994   -1    0    0    0    0 -0.00000000000E+00 -0.00000000000E+00  0.11368683772E-12  0.17120000000E+03  0.17120000000E+03 0.  0.
         13    1    1    2    0    0 -0.14199690844E+01 -0.45065848982E+02  0.21381388070E+03  0.21851620947E+03  0.10566000000E+00 0.  1.
        994    1    1    2    0    0  0.63325306767E-01  0.52591974645E+02  0.13142055065E+02  0.17957748583E+03  0.17120000000E+03 0.  0.
        998    1    1    2    0    0  0.13566437776E+01 -0.75261256633E+01  0.12730440605E+04  0.12731063047E+04  0.10000000000E+02 0.  1.
</event>
<event>
 5    1  0.1020718E-008  0.4310672E+03  0.7957747E-01  0.3255073E+00
         13   -1    0    0    0    0  0.00000000000E+00  0.00000000000E+00  0.14999999963E+04  0.15000000000E+04  0.10566000000E+00 0. -1.
        994   -1    0    0    0    0 -0.00000000000E+00 -0.00000000000E+00  0.11368683772E-12  0.17120000000E+03  0.17120000000E+03 0.  0.
         13    1    1    2    0    0 -0.10993489457E+03  0.36502863525E+02  0.12012812069E+03  0.16687994677E+03  0.10566000000E+00 0. -1.
        994    1    1    2    0    0  0.10213096143E+03 -0.32432185491E+02  0.10179369998E+03  0.22617245034E+03  0.17120000000E+03 0.  0.
        998    1    1    2    0    0  0.78039331380E+01 -0.40706780346E+01  0.12780781756E+04  0.12781476029E+04  0.10000000000E+02 0. -1.
</event>
<event>
 5    1  0.1020718E-008  0.3802928E+03  0.7957747E-01  0.3449884E+00
         13   -1    0    0    0    0  0.00000000000E+00  0.00000000000E+00  0.14999999963E+04  0.15000000000E+04  0.10566000000E+00 0. -1.
        994   -1    0    0    0    0 -0.00000000000E+00 -0.00000000000E+00  0.11368683772E-12  0.17120000000E+03  0.17120000000E+03 0.  0.
         13    1    1    2    0    0 -0.13614636578E+02  0.28517209211E+02  0.12402210256E+03  0.12798469689E+03  0.10566000000E+00 0. -1.
        994    1    1    2    0    0  0.11444394128E+02 -0.15324347969E+02  0.52080326828E+01  0.17234376520E+03  0.17120000000E+03 0.  0.
        998    1    1    2    0    0  0.21702424505E+01 -0.13192861242E+02  0.13707698610E+04  0.13708715379E+04  0.10000000000E+02 0. -1.
</event>
<event>
 5    1  0.1020718E-008  0.3771119E+03  0.7957747E-01  0.3463831E+00
         13   -1    0    0    0    0  0.00000000000E+00  0.00000000000E+00  0.14999999963E+04  0.15000000000E+04  0.10566000000E+00 0. -1.
        994   -1    0    0    0    0 -0.00000000000E+00 -0.00000000000E+00  0.11368683772E-12  0.17120000000E+03  0.17120000000E+03 0.  0.
         13    1    1    2    0    0 -0.22532564827E+00  0.19751810530E+02  0.33161225546E+02  0.38598741361E+02  0.10566000000E+00 0. -1.
        994    1    1    2    0    0  0.61881276772E+00 -0.72696644502E+01  0.57778802631E+01  0.17145277732E+03  0.17120000000E+03 0.  0.
        998    1    1    2    0    0 -0.39348711945E+00 -0.12482146079E+02  0.14610608905E+04  0.14611484813E+04  0.10000000000E+02 0. -1.
</event>
<event>
 5    1  0.1020718E-008  0.3818784E+03  0.7957747E-01  0.3443020E+00
         13   -1    0    0    0    0  0.00000000000E+00  0.00000000000E+00  0.14999999963E+04  0.15000000000E+04  0.10566000000E+00 0. -1.
        994   -1    0    0    0    0 -0.00000000000E+00 -0.00000000000E+00  0.11368683772E-12  0.17120000000E+03  0.17120000000E+03 0.  0.
         13    1    1    2    0    0  0.12736145575E+02  0.26576007796E+02  0.13101543383E+03  0.13428904892E+03  0.10566000000E+00 0. -1.
        994    1    1    2    0    0 -0.11059538215E+02 -0.19507601543E+02  0.48603897957E+01  0.17273078270E+03  0.17120000000E+03 0.  0.
        998    1    1    2    0    0 -0.16766073599E+01 -0.70684062531E+01  0.13641241727E+04  0.13641801684E+04  0.10000000000E+02 0. -1.
</event>
<event>
 5    1  0.1020718E-008  0.3793026E+03  0.7957747E-01  0.3454201E+00
         13   -1    0    0    0    0  0.00000000000E+00  0.00000000000E+00  0.14999999963E+04  0.15000000000E+04  0.10566000000E+00 0.  1.
        994   -1    0    0    0    0 -0.00000000000E+00 -0.00000000000E+00  0.11368683772E-12  0.17120000000E+03  0.17120000000E+03 0.  0.
         13    1    1    2    0    0  0.50711696567E+01  0.15986466268E+02  0.28954125122E+02  0.33460968173E+02  0.10566000000E+00 0.  1.
        994    1    1    2    0    0 -0.13948047923E+02 -0.14743938723E+02  0.58670597012E+01  0.17249867872E+03  0.17120000000E+03 0.  0.
        998    1    1    2    0    0  0.88768782665E+01 -0.12425275445E+01  0.14651788115E+04  0.14652403531E+04  0.10000000000E+02 0.  1.
</event>
<event>
 5    1  0.1104302E-008  0.3862112E+03  0.7957747E-01  0.3424552E+00
         13   -1    0    0    0    0  0.00000000000E+00  0.00000000000E+00  0.14999999963E+04  0.15000000000E+04  0.10566000000E+00 0. -1.
        994   -1    0    0    0    0 -0.00000000000E+00 -0.00000000000E+00  0.11368683772E-12  0.17120000000E+03  0.17120000000E+03 0.  0.
         13    1    1    2    0    0  0.82012674351E+01  0.80124720516E+01  0.63092149183E+02  0.64125587315E+02  0.10566000000E+00 0. -1.
        994    1    1    2    0    0 -0.87805743491E+01 -0.69115629902E+01  0.14391382740E+01  0.17157033341E+03  0.17120000000E+03 0.  0.
        998    1    1    2    0    0  0.57930691404E+00 -0.11009090614E+01  0.14354687088E+04  0.14355040793E+04  0.10000000000E+02 0. -1.
</event>
<event>
 5    1  0.1020718E-008  0.3788164E+03  0.7957747E-01  0.3456328E+00
         13   -1    0    0    0    0  0.00000000000E+00  0.00000000000E+00  0.14999999963E+04  0.15000000000E+04  0.10566000000E+00 0.  1.
        994   -1    0    0    0    0 -0.00000000000E+00 -0.00000000000E+00  0.11368683772E-12  0.17120000000E+03  0.17120000000E+03 0.  0.
         13    1    1    2    0    0  0.38435323674E+02  0.89846333080E+02  0.58394694746E+03  0.59206729878E+03  0.10566000000E+00 0.  1.
        994    1    1    2    0    0  0.88268374486E+01  0.10933247306E+02  0.16391381782E+02  0.17255598034E+03  0.17120000000E+03 0.  0.
        998    1    1    2    0    0 -0.47262161123E+02 -0.10077958039E+03  0.89966166704E+03  0.90657672088E+03  0.10000000000E+02 0.  1.
</event>
<event>
 5    1  0.1020718E-008  0.3833963E+03  0.7957747E-01  0.3436502E+00
         13   -1    0    0    0    0  0.00000000000E+00  0.00000000000E+00  0.14999999963E+04  0.15000000000E+04  0.10566000000E+00 0.  1.
        994   -1    0    0    0    0 -0.00000000000E+00 -0.00000000000E+00  0.11368683772E-12  0.17120000000E+03  0.17120000000E+03 0.  0.
         13    1    1    2    0    0  0.21614582737E+02 -0.21776103360E+02  0.15577774260E+03  0.15877060534E+03  0.10566000000E+00 0.  1.
        994    1    1    2    0    0 -0.27774403916E+02  0.36419622347E+02  0.93945737527E+01  0.17746972818E+03  0.17120000000E+03 0.  0.
        998    1    1    2    0    0  0.61598211793E+01 -0.14643518987E+02  0.13348276799E+04  0.13349596665E+04  0.10000000000E+02 0.  1.
</event>
<event>
 5    1  0.1020718E-008  0.3763208E+03  0.7957747E-01  0.3467337E+00
         13   -1    0    0    0    0  0.00000000000E+00  0.00000000000E+00  0.14999999963E+04  0.15000000000E+04  0.10566000000E+00 0. -1.
        994   -1    0    0    0    0 -0.00000000000E+00 -0.00000000000E+00  0.11368683772E-12  0.17120000000E+03  0.17120000000E+03 0.  0.
         13    1    1    2    0    0  0.48906916730E+01  0.89601208433E+02  0.50165417579E+03  0.50961673704E+03  0.10566000000E+00 0. -1.
        994    1    1    2    0    0  0.28729761405E+01 -0.79129759852E+02  0.27523605751E+02  0.19062203902E+03  0.17120000000E+03 0.  0.
        998    1    1    2    0    0 -0.77636678135E+01 -0.10471448581E+02  0.97082221473E+03  0.97096122394E+03  0.10000000000E+02 0. -1.
</event>
<event>
 5    1  0.1020718E-008  0.3724800E+03  0.7957747E-01  0.3484570E+00
         13   -1    0    0    0    0  0.00000000000E+00  0.00000000000E+00  0.14999999963E+04  0.15000000000E+04  0.10566000000E+00 0.  1.
        994   -1    0    0    0    0 -0.00000000000E+00 -0.00000000000E+00  0.11368683772E-12  0.17120000000E+03  0.17120000000E+03 0.  0.
         13    1    1    2    0    0  0.13286600851E+03  0.92347269533E+02  0.79402211956E+03  0.81034099731E+03  0.10566000000E+00 0.  1.
        994    1    1    2    0    0 -0.12139456071E+03 -0.93132672001E+02  0.93056832692E+02  0.24774855817E+03  0.17120000000E+03 0.  0.
        998    1    1    2    0    0 -0.11471447801E+02  0.78540246722E+00  0.61292104403E+03  0.61311044452E+03  0.10000000000E+02 0.  1.
</event>
<event>
 5    1  0.1020718E-008  0.3828725E+03  0.7957747E-01  0.3438746E+00
         13   -1    0    0    0    0  0.00000000000E+00  0.00000000000E+00  0.14999999963E+04  0.15000000000E+04  0.10566000000E+00 0.  1.
        994   -1    0    0    0    0 -0.00000000000E+00 -0.00000000000E+00  0.11368683772E-12  0.17120000000E+03  0.17120000000E+03 0.  0.
         13    1    1    2    0    0 -0.38748756351E+01  0.16948947817E+02  0.57251404407E+02  0.59833234610E+02  0.10566000000E+00 0.  1.
        994    1    1    2    0    0  0.15855909043E+02 -0.10128224458E+01  0.35264886247E+01  0.17197183427E+03  0.17120000000E+03 0.  0.
        998    1    1    2    0    0 -0.11981033408E+02 -0.15936125371E+02  0.14392221032E+04  0.14393949311E+04  0.10000000000E+02 0.  1.
</event>
<event>
 5    1  0.1020718E-008  0.3855052E+03  0.7957747E-01  0.3427533E+00
         13   -1    0    0    0    0  0.00000000000E+00  0.00000000000E+00  0.14999999963E+04  0.15000000000E+04  0.10566000000E+00 0.  1.
        994   -1    0    0    0    0 -0.00000000000E+00 -0.00000000000E+00  0.11368683772E-12  0.17120000000E+03  0.17120000000E+03 0.  0.
         13    1    1    2    0    0 -0.83000626926E+01 -0.12281753517E+02  0.81276398037E+02  0.82617168628E+02  0.10566000000E+00 0.  1.
        994    1    1    2    0    0  0.16458493558E+02 -0.14187736833E+01  0.22760336690E+01  0.17201021847E+03  0.17120000000E+03 0.  0.
        998    1    1    2    0    0 -0.81584308657E+01  0.13700527200E+02  0.14164475646E+04  0.14165726129E+04  0.10000000000E+02 0.  1.
</event>
<event>
 5    1  0.1020718E-008  0.3838057E+03  0.7957747E-01  0.3434753E+00
         13   -1    0    0    0    0  0.00000000000E+00  0.00000000000E+00  0.14999999963E+04  0.15000000000E+04  0.10566000000E+00 0.  1.
        994   -1    0    0    0    0 -0.00000000000E+00 -0.00000000000E+00  0.11368683772E-12  0.17120000000E+03  0.17120000000E+03 0.  0.
         13    1    1    2    0    0  0.10306001269E+02 -0.95939893962E+01  0.47077645706E+02  0.49138316861E+02  0.10566000000E+00 0.  1.
        994    1    1    2    0    0 -0.38796334077E+01 -0.11032686997E+02  0.26759027482E+01  0.17161984790E+03  0.17120000000E+03 0.  0.
        998    1    1    2    0    0 -0.64263678615E+01  0.20626676393E+02  0.14502464478E+04  0.14504418352E+04  0.10000000000E+02 0.  1.
</event>
<event>
 5    1  0.1020718E-008  0.3766434E+03  0.7957747E-01  0.3465905E+00
         13   -1    0    0    0    0  0.00000000000E+00  0.00000000000E+00  0.14999999963E+04  0.15000000000E+04  0.10566000000E+00 0.  1.
        994   -1    0    0    0    0 -0.00000000000E+00 -0.00000000000E+00  0.11368683772E-12  0.17120000000E+03  0.17120000000E+03 0.  0.
         13    1    1    2    0    0  0.73269022327E+01  0.40845917261E+02  0.11182388034E+03  0.11927557936E+03  0.10566000000E+00 0.  1.
        994    1    1    2    0    0  0.67868902409E+02 -0.98264569591E+02  0.55680486456E+02  0.21603673327E+03  0.17120000000E+03 0.  0.
        998    1    1    2    0    0 -0.75195804641E+02  0.57418652330E+02  0.13324956295E+04  0.13358876874E+04  0.10000000000E+02 0.  1.
</event>
<event>
 5    1  0.1020718E-008  0.3825473E+03  0.7957747E-01  0.3440141E+00
         13   -1    0    0    0    0  0.00000000000E+00  0.00000000000E+00  0.14999999963E+04  0.15000000000E+04  0.10566000000E+00 0. -1.
        994   -1    0    0    0    0 -0.00000000000E+00 -0.00000000000E+00  0.11368683772E-12  0.17120000000E+03  0.17120000000E+03 0.  0.
         13    1    1    2    0    0  0.56794460240E+01 -0.90440339015E+01  0.19278541559E+02  0.22039146649E+02  0.10566000000E+00 0. -1.
        994    1    1    2    0    0 -0.10037359620E+02 -0.56733010361E+01  0.32935819596E+01  0.17161941212E+03  0.17120000000E+03 0.  0.
        998    1    1    2    0    0  0.43579135964E+01  0.14717334938E+02  0.14774278728E+04  0.14775414412E+04  0.10000000000E+02 0. -1.
</event>
<event>
 5    1  0.1020718E-008  0.2774835E+03  0.7957747E-01  0.4071153E+00
         13   -1    0    0    0    0  0.00000000000E+00  0.00000000000E+00  0.14999999963E+04  0.15000000000E+04  0.10566000000E+00 0.  1.
        994   -1    0    0    0    0 -0.00000000000E+00 -0.00000000000E+00  0.11368683772E-12  0.17120000000E+03  0.17120000000E+03 0.  0.
         13    1    1    2    0    0  0.45646819938E+02  0.15852607555E+03  0.55822154850E+03  0.58208715600E+03  0.10566000000E+00 0.  1.
        994    1    1    2    0    0 -0.42223841655E+02 -0.12074503127E+03  0.82721323658E+02  0.22916036474E+03  0.17120000000E+03 0.  0.
        998    1    1    2    0    0 -0.34229782828E+01 -0.37781044280E+02  0.85905712412E+03  0.85995247926E+03  0.10000000000E+02 0. -1.
</event>
<event>
 5    1  0.1020718E-008  0.3687361E+03  0.7957747E-01  0.3501720E+00
         13   -1    0    0    0    0  0.00000000000E+00  0.00000000000E+00  0.14999999963E+04  0.15000000000E+04  0.10566000000E+00 0.  1.
        994   -1    0    0    0    0 -0.00000000000E+00 -0.00000000000E+00  0.11368683772E-12  0.17120000000E+03  0.17120000000E+03 0.  0.
         13    1    1    2    0    0  0.11845139607E+02 -0.28757475152E+02  0.44253506993E+02  0.54089590076E+02  0.10566000000E+00 0.  1.
        994    1    1    2    0    0 -0.16982469664E+02  0.20870285474E+02  0.12449518238E+02  0.17374810386E+03  0.17120000000E+03 0.  0.
        998    1    1    2    0    0  0.51373300569E+01  0.78871896774E+01  0.14432969710E+04  0.14433623061E+04  0.10000000000E+02 0.  1.
</event>
<event>
 5    1  0.1020718E-008  0.3709385E+03  0.7957747E-01  0.3491589E+00
         13   -1    0    0    0    0  0.00000000000E+00  0.00000000000E+00  0.14999999963E+04  0.15000000000E+04  0.10566000000E+00 0. -1.
        994   -1    0    0    0    0 -0.00000000000E+00 -0.00000000000E+00  0.11368683772E-12  0.17120000000E+03  0.17120000000E+03 0.  0.
         13    1    1    2    0    0  0.11434201377E+03  0.25314555697E+02  0.53843113735E+03  0.55101998483E+03  0.10566000000E+00 0. -1.
        994    1    1    2    0    0 -0.10160233262E+03  0.48811388561E+02  0.57438217127E+02  0.21287126258E+03  0.17120000000E+03 0.  0.
        998    1    1    2    0    0 -0.12739681144E+02 -0.74125944259E+02  0.90413064180E+03  0.90730875259E+03  0.10000000000E+02 0. -1.
</event>
<event>
 5    1  0.1020718E-008  0.3793453E+03  0.7957747E-01  0.3454014E+00
         13   -1    0    0    0    0  0.00000000000E+00  0.00000000000E+00  0.14999999963E+04  0.15000000000E+04  0.10566000000E+00 0.  1.
        994   -1    0    0    0    0 -0.00000000000E+00 -0.00000000000E+00  0.11368683772E-12  0.17120000000E+03  0.17120000000E+03 0.  0.
         13    1    1    2    0    0  0.11770084699E+01 -0.27975933071E+02  0.97136957494E+02  0.10109222450E+03  0.10566000000E+00 0.  1.
        994    1    1    2    0    0 -0.10348059622E+02 -0.70391613694E+01  0.49888939696E+01  0.17172932538E+03  0.17120000000E+03 0.  0.
        998    1    1    2    0    0  0.91710511518E+01  0.35015094440E+02  0.13978741448E+04  0.13983784501E+04  0.10000000000E+02 0.  1.
</event>
<event>
 5    1  0.1020718E-008  0.3710577E+03  0.7957747E-01  0.3491044E+00
         13   -1    0    0    0    0  0.00000000000E+00  0.00000000000E+00  0.14999999963E+04  0.15000000000E+04  0.10566000000E+00 0.  1.
        994   -1    0    0    0    0 -0.00000000000E+00 -0.00000000000E+00  0.11368683772E-12  0.17120000000E+03  0.17120000000E+03 0.  0.
         13    1    1    2    0    0 -0.11700043650E+02 -0.97949909137E+01  0.49504209090E+01  0.16042153834E+02  0.10566000000E+00 0.  1.
        994    1    1    2    0    0  0.40545426099E+01  0.85501203000E+01  0.11813469118E+02  0.17186780363E+03  0.17120000000E+03 0.  0.
        998    1    1    2    0    0  0.76455010405E+01  0.12448706137E+01  0.14832361063E+04  0.14832900425E+04  0.10000000000E+02 0.  1.
</event>
<event>
 5    1  0.1020718E-008  0.3818716E+03  0.7957747E-01  0.3443049E+00
         13   -1    0    0    0    0  0.00000000000E+00  0.00000000000E+00  0.14999999963E+04  0.15000000000E+04  0.10566000000E+00 0.  1.
        994   -1    0    0    0    0 -0.00000000000E+00 -0.00000000000E+00  0.11368683772E-12  0.17120000000E+03  0.17120000000E+03 0.  0.
         13    1    1    2    0    0 -0.48479763153E+01  0.91131282736E+01  0.15158993977E+02  0.18340072075E+02  0.10566000000E+00 0.  1.
        994    1    1    2    0    0  0.69425365018E+01 -0.10727759340E+02  0.37340142702E+01  0.17171682066E+03  0.17120000000E+03 0.  0.
        998    1    1    2    0    0 -0.20945601865E+01  0.16146310664E+01  0.14811069880E+04  0.14811431073E+04  0.10000000000E+02 0.  1.
</event>
<event>
 5    1  0.1020718E-008  0.3854248E+03  0.7957747E-01  0.3427873E+00
         13   -1    0    0    0    0  0.00000000000E+00  0.00000000000E+00  0.14999999963E+04  0.15000000000E+04  0.10566000000E+00 0.  1.
        994   -1    0    0    0    0 -0.00000000000E+00 -0.00000000000E+00  0.11368683772E-12  0.17120000000E+03  0.17120000000E+03 0.  0.
         13    1    1    2    0    0 -0.25414075855E+01  0.17429861420E+02  0.10324556675E+03  0.10473737174E+03  0.10566000000E+00 0.  1.
        994    1    1    2    0    0 -0.58529453985E+00 -0.18733491001E+02  0.25739093958E+01  0.17224212976E+03  0.17120000000E+03 0.  0.
        998    1    1    2    0    0  0.31267021253E+01  0.13036295810E+01  0.13941805201E+04  0.13942204985E+04  0.10000000000E+02 0.  0.
</event>
<event>
 5    1  0.1020718E-008  0.3818414E+03  0.7957747E-01  0.3443179E+00
         13   -1    0    0    0    0  0.00000000000E+00  0.00000000000E+00  0.14999999963E+04  0.15000000000E+04  0.10566000000E+00 0. -1.
        994   -1    0    0    0    0 -0.00000000000E+00 -0.00000000000E+00  0.11368683772E-12  0.17120000000E+03  0.17120000000E+03 0.  0.
         13    1    1    2    0    0  0.68137098976E+01  0.12806738199E+02  0.27814098691E+02  0.31369960726E+02  0.10566000000E+00 0. -1.
        994    1    1    2    0    0 -0.16706875498E+02 -0.46526502831E+02  0.11369516660E+02  0.17855682867E+03  0.17120000000E+03 0.  0.
        998    1    1    2    0    0  0.98931656009E+01  0.33719764632E+02  0.14608163809E+04  0.14612732106E+04  0.10000000000E+02 0. -1.
</event>
<event>
 5    1  0.1020718E-008  0.2773185E+03  0.7957747E-01  0.4072552E+00
         13   -1    0    0    0    0  0.00000000000E+00  0.00000000000E+00  0.14999999963E+04  0.15000000000E+04  0.10566000000E+00 0. -1.
        994   -1    0    0    0    0 -0.00000000000E+00 -0.00000000000E+00  0.11368683772E-12  0.17120000000E+03  0.17120000000E+03 0.  0.
         13    1    1    2    0    0  0.75881468332E+02 -0.10650269435E+03  0.77538157095E+03  0.78633161762E+03  0.10566000000E+00 0. -1.
        994    1    1    2    0    0 -0.22900595505E+02 -0.47204627301E+02  0.43125629579E+02  0.18417919003E+03  0.17120000000E+03 0.  0.
        998    1    1    2    0    0 -0.52980872827E+02  0.15370732165E+03  0.68149279575E+03  0.70068919235E+03  0.10000000000E+02 0. -1.
</event>
<event>
 5    1  0.1020718E-008  0.3812852E+03  0.7957747E-01  0.3445582E+00
         13   -1    0    0    0    0  0.00000000000E+00  0.00000000000E+00  0.14999999963E+04  0.15000000000E+04  0.10566000000E+00 0. -1.
        994   -1    0    0    0    0 -0.00000000000E+00 -0.00000000000E+00  0.11368683772E-12  0.17120000000E+03  0.17120000000E+03 0.  0.
         13    1    1    2    0    0  0.25615390734E+02  0.21476543041E+02  0.14905607993E+03  0.15275835909E+03  0.10566000000E+00 0. -1.
        994    1    1    2    0    0 -0.24282167676E+02 -0.16804754491E+02  0.63939943471E+01  0.17384575521E+03  0.17120000000E+03 0.  0.
        998    1    1    2    0    0 -0.13332230580E+01 -0.46717885504E+01  0.13445499220E+04  0.13445958857E+04  0.10000000000E+02 0. -1.
</event>
<event>
 5    1  0.1020718E-008  0.3837300E+03  0.7957747E-01  0.3435076E+00
         13   -1    0    0    0    0  0.00000000000E+00  0.00000000000E+00  0.14999999963E+04  0.15000000000E+04  0.10566000000E+00 0.  1.
        994   -1    0    0    0    0 -0.00000000000E+00 -0.00000000000E+00  0.11368683772E-12  0.17120000000E+03  0.17120000000E+03 0.  0.
         13    1    1    2    0    0 -0.73310025597E+00 -0.13904802895E+02  0.40891982627E+02  0.43197759048E+02  0.10566000000E+00 0.  1.
        994    1    1    2    0    0  0.24378858145E+02  0.15864112833E+02  0.50606640470E+01  0.17372693839E+03  0.17120000000E+03 0.  0.
        998    1    1    2    0    0 -0.23645757889E+02 -0.19593099373E+01  0.14540473496E+04  0.14542753026E+04  0.10000000000E+02 0.  1.
</event>
<event>
 5    1  0.1020718E-008  0.3798297E+03  0.7957747E-01  0.3451900E+00
         13   -1    0    0    0    0  0.00000000000E+00  0.00000000000E+00  0.14999999963E+04  0.15000000000E+04  0.10566000000E+00 0.  1.
        994   -1    0    0    0    0 -0.00000000000E+00 -0.00000000000E+00  0.11368683772E-12  0.17120000000E+03  0.17120000000E+03 0.  0.
         13    1    1    2    0    0 -0.32637982694E+02  0.97068369927E+02  0.25829064857E+03  0.27785171703E+03  0.10566000000E+00 0.  1.
        994    1    1    2    0    0  0.53534969556E+02 -0.92027447883E+02  0.58526837160E+02  0.20992826107E+03  0.17120000000E+03 0.  0.
        998    1    1    2    0    0 -0.20896986862E+02 -0.50409220447E+01  0.11831825105E+04  0.11834200219E+04  0.10000000000E+02 0.  1.
</event>
<event>
 5    1  0.1020718E-008  0.3772490E+03  0.7957747E-01  0.3463225E+00
         13   -1    0    0    0    0  0.00000000000E+00  0.00000000000E+00  0.14999999963E+04  0.15000000000E+04  0.10566000000E+00 0. -1.
        994   -1    0    0    0    0 -0.00000000000E+00 -0.00000000000E+00  0.11368683772E-12  0.17120000000E+03  0.17120000000E+03 0.  0.
         13    1    1    2    0    0  0.23678774624E+01 -0.33196384069E+02  0.97319150954E+02  0.10285249178E+03  0.10566000000E+00 0. -1.
        994    1    1    2    0    0 -0.70034149853E+01  0.21925511146E+02  0.73176251325E+01  0.17289523851E+03  0.17120000000E+03 0.  0.
        998    1    1    2    0    0  0.46355375229E+01  0.11270872923E+02  0.13953632202E+04  0.13954522697E+04  0.10000000000E+02 0. -1.
</event>
<event>
 5    1  0.1020718E-008  0.3806954E+03  0.7957747E-01  0.3448136E+00
         13   -1    0    0    0    0  0.00000000000E+00  0.00000000000E+00  0.14999999963E+04  0.15000000000E+04  0.10566000000E+00 0.  1.
        994   -1    0    0    0    0 -0.00000000000E+00 -0.00000000000E+00  0.11368683772E-12  0.17120000000E+03  0.17120000000E+03 0.  0.
         13    1    1    2    0    0 -0.13961231535E+02  0.10094107459E+02  0.36728371110E+02  0.40568354659E+02  0.10566000000E+00 0.  1.
        994    1    1    2    0    0  0.15771560286E+02 -0.12230548906E+02  0.51121712084E+01  0.17243521315E+03  0.17120000000E+03 0.  0.
        998    1    1    2    0    0 -0.18103287513E+01  0.21364414475E+01  0.14581594540E+04  0.14581964322E+04  0.10000000000E+02 0.  1.
</event>
<event>
 5    1  0.1020718E-008  0.3750074E+03  0.7957747E-01  0.3473189E+00
         13   -1    0    0    0    0  0.00000000000E+00  0.00000000000E+00  0.14999999963E+04  0.15000000000E+04  0.10566000000E+00 0. -1.
        994   -1    0    0    0    0 -0.00000000000E+00 -0.00000000000E+00  0.11368683772E-12  0.17120000000E+03  0.17120000000E+03 0.  0.
         13    1    1    2    0    0 -0.32541295698E+02 -0.47206119723E+01  0.75881079962E+02  0.82699271843E+02  0.10566000000E+00 0. -1.
        994    1    1    2    0    0  0.30942901258E+02 -0.49499884427E+01  0.10019971594E+02  0.17433245640E+03  0.17120000000E+03 0.  0.
        998    1    1    2    0    0  0.15983944405E+01  0.96706004150E+01  0.14140989447E+04  0.14141682718E+04  0.10000000000E+02 0. -1.
</event>
<event>
 5    1  0.1020718E-008  0.3740234E+03  0.7957747E-01  0.3477602E+00
         13   -1    0    0    0    0  0.00000000000E+00  0.00000000000E+00  0.14999999963E+04  0.15000000000E+04  0.10566000000E+00 0.  1.
        994   -1    0    0    0    0 -0.00000000000E+00 -0.00000000000E+00  0.11368683772E-12  0.17120000000E+03  0.17120000000E+03 0.  0.
         13    1    1    2    0    0 -0.11600821717E+02 -0.47066734026E+02  0.81167469079E+02  0.94541132409E+02  0.10566000000E+00 0.  1.
        994    1    1    2    0    0 -0.14894674088E+02  0.52465210910E+02  0.23705753019E+02  0.18123424731E+03  0.17120000000E+03 0.  0.
        998    1    1    2    0    0  0.26495495805E+02 -0.53984768832E+01  0.13951267742E+04  0.13954246203E+04  0.10000000000E+02 0.  1.
</event>
<event>
 5    1  0.1020718E-008  0.3827447E+03  0.7957747E-01  0.3439294E+00
         13   -1    0    0    0    0  0.00000000000E+00  0.00000000000E+00  0.14999999963E+04  0.15000000000E+04  0.10566000000E+00 0. -1.
        994   -1    0    0    0    0 -0.00000000000E+00 -0.00000000000E+00  0.11368683772E-12  0.17120000000E+03  0.17120000000E+03 0.  0.
         13    1    1    2    0    0  0.15808676796E+02  0.34470024417E+02  0.22297685213E+03  0.22617865636E+03  0.10566000000E+00 0. -1.
        994    1    1    2    0    0 -0.15191659530E+02 -0.35597464925E+02  0.77324717365E+01  0.17569062908E+03  0.17120000000E+03 0.  0.
        998    1    1    2    0    0 -0.61701726608E+00  0.11274405077E+01  0.12692906724E+04  0.12693307146E+04  0.10000000000E+02 0. -1.
</event>
<event>
 5    1  0.1020718E-008  0.3691420E+03  0.7957747E-01  0.3499843E+00
         13   -1    0    0    0    0  0.00000000000E+00  0.00000000000E+00  0.14999999963E+04  0.15000000000E+04  0.10566000000E+00 0.  1.
        994   -1    0    0    0    0 -0.00000000000E+00 -0.00000000000E+00  0.11368683772E-12  0.17120000000E+03  0.17120000000E+03 0.  0.
         13    1    1    2    0    0 -0.38913339563E+01  0.44657802522E+02  0.93393696070E+02  0.10359466895E+03  0.10566000000E+00 0.  1.
        994    1    1    2    0    0  0.45758402955E+01 -0.47004742354E+02  0.17493123533E+02  0.17845400945E+03  0.17120000000E+03 0.  0.
        998    1    1    2    0    0 -0.68450633924E+00  0.23469398327E+01  0.13891131767E+04  0.13891513216E+04  0.10000000000E+02 0.  1.
</event>
<event>
 5    1  0.1020718E-008  0.3799611E+03  0.7957747E-01  0.3451328E+00
         13   -1    0    0    0    0  0.00000000000E+00  0.00000000000E+00  0.14999999963E+04  0.15000000000E+04  0.10566000000E+00 0.  1.
        994   -1    0    0    0    0 -0.00000000000E+00 -0.00000000000E+00  0.11368683772E-12  0.17120000000E+03  0.17120000000E+03 0.  0.
         13    1    1    2    0    0 -0.16150465192E+01 -0.10478819137E+02  0.11438926026E+02  0.15597250348E+02  0.10566000000E+00 0.  1.
        994    1    1    2    0    0 -0.68097556246E+01  0.18777042484E+02  0.54877352900E+01  0.17244855852E+03  0.17120000000E+03 0.  0.
        998    1    1    2    0    0  0.84248021438E+01 -0.82982233475E+01  0.14830733350E+04  0.14831541911E+04  0.10000000000E+02 0.  1.
</event>
<event>
 5    1  0.1020718E-008  0.3719369E+03  0.7957747E-01  0.3487036E+00
         13   -1    0    0    0    0  0.00000000000E+00  0.00000000000E+00  0.14999999963E+04  0.15000000000E+04  0.10566000000E+00 0. -1.
        994   -1    0    0    0    0 -0.00000000000E+00 -0.00000000000E+00  0.11368683772E-12  0.17120000000E+03  0.17120000000E+03 0.  0.
         13    1    1    2    0    0  0.31433376389E+01  0.21055512342E+02  0.24834282926E+02  0.32710364474E+02  0.10566000000E+00 0. -1.
        994    1    1    2    0    0 -0.11544508075E+02  0.15732382182E+01  0.87265772756E+01  0.17181776362E+03  0.17120000000E+03 0.  0.
        998    1    1    2    0    0  0.84011704361E+01 -0.22628750561E+02  0.14664391361E+04  0.14666718719E+04  0.10000000000E+02 0. -1.
</event>
<event>
 5    1  0.1020718E-008  0.3756595E+03  0.7957747E-01  0.3470278E+00
         13   -1    0    0    0    0  0.00000000000E+00  0.00000000000E+00  0.14999999963E+04  0.15000000000E+04  0.10566000000E+00 0. -1.
        994   -1    0    0    0    0 -0.00000000000E+00 -0.00000000000E+00  0.11368683772E-12  0.17120000000E+03  0.17120000000E+03 0.  0.
         13    1    1    2    0    0  0.33937305243E+02 -0.38965944661E+01  0.88316894758E+02  0.94693237347E+02  0.10566000000E+00 0. -1.
        994    1    1    2    0    0 -0.25125290793E+02  0.84082499060E+00  0.84868830026E+01  0.17324391593E+03  0.17120000000E+03 0.  0.
        998    1    1    2    0    0 -0.88120144498E+01  0.30557694755E+01  0.14031962185E+04  0.14032628467E+04  0.10000000000E+02 0. -1.
</event>
<event>
 5    1  0.1020718E-008  0.3702419E+03  0.7957747E-01  0.3494780E+00
         13   -1    0    0    0    0  0.00000000000E+00  0.00000000000E+00  0.14999999963E+04  0.15000000000E+04  0.10566000000E+00 0.  1.
        994   -1    0    0    0    0 -0.00000000000E+00 -0.00000000000E+00  0.11368683772E-12  0.17120000000E+03  0.17120000000E+03 0.  0.
         13    1    1    2    0    0 -0.85576463931E+02  0.66407906636E+01  0.33857053053E+03  0.34928132871E+03  0.10566000000E+00 0.  1.
        994    1    1    2    0    0  0.53844766927E+02  0.53798738567E+02  0.31623310225E+02  0.19000799180E+03  0.17120000000E+03 0.  0.
        998    1    1    2    0    0  0.31731697005E+02 -0.60439529230E+02  0.11298061555E+04  0.11319106795E+04  0.10000000000E+02 0.  1.
</event>
<event>
 5    1  0.1020718E-008  0.4123651E+03  0.7957747E-01  0.3321305E+00
         13   -1    0    0    0    0  0.00000000000E+00  0.00000000000E+00  0.14999999963E+04  0.15000000000E+04  0.10566000000E+00 0.  1.
        994   -1    0    0    0    0 -0.00000000000E+00 -0.00000000000E+00  0.11368683772E-12  0.17120000000E+03  0.17120000000E+03 0.  0.
         13    1    1    2    0    0  0.81309875740E+02  0.52590757948E+02  0.11555060578E+03  0.15076152485E+03  0.10566000000E+00 0.  1.
        994    1    1    2    0    0 -0.77739199566E+02 -0.45128055067E+02  0.69574195166E+02  0.20549922904E+03  0.17120000000E+03 0.  0.
        998    1    1    2    0    0 -0.35706761745E+01 -0.74627028808E+01  0.13148751953E+04  0.13149392461E+04  0.10000000000E+02 0.  1.
</event>
<event>
 5    1  0.1020718E-008  0.3703148E+03  0.7957747E-01  0.3494445E+00
         13   -1    0    0    0    0  0.00000000000E+00  0.00000000000E+00  0.14999999963E+04  0.15000000000E+04  0.10566000000E+00 0.  1.
        994   -1    0    0    0    0 -0.00000000000E+00 -0.00000000000E+00  0.11368683772E-12  0.17120000000E+03  0.17120000000E+03 0.  0.
         13    1    1    2    0    0 -0.68128057219E+02 -0.86427890032E+02  0.49262418814E+03  0.50476708912E+03  0.10566000000E+00 0.  1.
        994    1    1    2    0    0  0.42254250789E+02  0.62723505742E+02  0.31401274420E+02  0.18977655260E+03  0.17120000000E+03 0.  0.
        998    1    1    2    0    0  0.25873806430E+02  0.23704384291E+02  0.97597453372E+03  0.97665635827E+03  0.10000000000E+02 0.  1.
</event>
<event>
 5    1  0.1095675E-008  0.3861676E+03  0.7957747E-01  0.3424735E+00
         13   -1    0    0    0    0  0.00000000000E+00  0.00000000000E+00  0.14999999963E+04  0.15000000000E+04  0.10566000000E+00 0.  1.
        994   -1    0    0    0    0 -0.00000000000E+00 -0.00000000000E+00  0.11368683772E-12  0.17120000000E+03  0.17120000000E+03 0.  0.
         13    1    1    2    0    0  0.11928107960E+02 -0.88862372132E+00  0.70629577086E+02  0.71635310672E+02  0.10566000000E+00 0.  1.
        994    1    1    2    0    0 -0.60561428550E+01 -0.98299585116E+01  0.14883867744E+01  0.17159533865E+03  0.17120000000E+03 0.  0.
        998    1    1    2    0    0 -0.58719651050E+01  0.10718582233E+02  0.14278820324E+04  0.14279693507E+04  0.10000000000E+02 0.  1.
</event>
<event>
 5    1  0.1020718E-008  0.3827270E+03  0.7957747E-01  0.3439370E+00
         13   -1    0    0    0    0  0.00000000000E+00  0.00000000000E+00  0.14999999963E+04  0.15000000000E+04  0.10566000000E+00 0.  1.
        994   -1    0    0    0    0 -0.00000000000E+00 -0.00000000000E+00  0.11368683772E-12  0.17120000000E+03  0.17120000000E+03 0.  0.
         13    1    1    2    0    0 -0.22556595985E+02  0.29933834357E+01  0.91306365394E+02  0.94099011113E+02  0.10566000000E+00 0.  1.
        994    1    1    2    0    0  0.16802025847E+02 -0.32473194465E+01  0.37337147561E+01  0.17209367734E+03  0.17120000000E+03 0.  0.
        998    1    1    2    0    0  0.57545701385E+01  0.25393601077E+00  0.14049599161E+04  0.14050073115E+04  0.10000000000E+02 0.  1.
</event>
<event>
 5    1  0.1020718E-008  0.3792251E+03  0.7957747E-01  0.3454540E+00
         13   -1    0    0    0    0  0.00000000000E+00  0.00000000000E+00  0.14999999963E+04  0.15000000000E+04  0.10566000000E+00 0.  1.
        994   -1    0    0    0    0 -0.00000000000E+00 -0.00000000000E+00  0.11368683772E-12  0.17120000000E+03  0.17120000000E+03 0.  0.
         13    1    1    2    0    0 -0.18019588079E+02  0.17583630760E+01  0.41301770036E+02  0.45095950677E+02  0.10566000000E+00 0.  1.
        994    1    1    2    0    0 -0.31824186488E+02  0.91944718397E+02  0.36935689661E+02  0.20035043114E+03  0.17120000000E+03 0.  0.
        998    1    1    2    0    0  0.49843774567E+02 -0.93703081473E+02  0.14217625366E+04  0.14257536182E+04  0.10000000000E+02 0.  1.
</event>
<event>
 5    1  0.1020718E-008  0.3813015E+03  0.7957747E-01  0.3445511E+00
         13   -1    0    0    0    0  0.00000000000E+00  0.00000000000E+00  0.14999999963E+04  0.15000000000E+04  0.10566000000E+00 0. -1.
        994   -1    0    0    0    0 -0.00000000000E+00 -0.00000000000E+00  0.11368683772E-12  0.17120000000E+03  0.17120000000E+03 0.  0.
         13    1    1    2    0    0  0.58997562927E+01 -0.30337316766E+02  0.18378239311E+03  0.18636292307E+03  0.10566000000E+00 0. -1.
        994    1    1    2    0    0 -0.44567086372E+00 -0.19321653672E+02  0.47219151015E+01  0.17235214361E+03  0.17120000000E+03 0.  0.
        998    1    1    2    0    0 -0.54540854290E+01  0.49658970438E+02  0.13114956881E+04  0.13124849333E+04  0.10000000000E+02 0. -1.
</event>
<event>
 5    1  0.1020718E-008  0.3829572E+03  0.7957747E-01  0.3438383E+00
         13   -1    0    0    0    0  0.00000000000E+00  0.00000000000E+00  0.14999999963E+04  0.15000000000E+04  0.10566000000E+00 0. -1.
        994   -1    0    0    0    0 -0.00000000000E+00 -0.00000000000E+00  0.11368683772E-12  0.17120000000E+03  0.17120000000E+03 0.  0.
         13    1    1    2    0    0 -0.24697876701E+01  0.10877672718E+02  0.22398653809E+02  0.25022679141E+02  0.10566000000E+00 0. -1.
        994    1    1    2    0    0  0.32316457265E+01 -0.91355001589E+01  0.29587011840E+01  0.17149954755E+03  0.17120000000E+03 0.  0.
        998    1    1    2    0    0 -0.76185805647E+00 -0.17421725595E+01  0.14746426413E+04  0.14746777733E+04  0.10000000000E+02 0. -1.
</event>
<event>
 5    1  0.1020718E-008  0.3818439E+03  0.7957747E-01  0.3443169E+00
         13   -1    0    0    0    0  0.00000000000E+00  0.00000000000E+00  0.14999999963E+04  0.15000000000E+04  0.10566000000E+00 0. -1.
        994   -1    0    0    0    0 -0.00000000000E+00 -0.00000000000E+00  0.11368683772E-12  0.17120000000E+03  0.17120000000E+03 0.  0.
         13    1    1    2    0    0  0.43827861639E+01 -0.10702270689E+02  0.21616515457E+02  0.24515960454E+02  0.10566000000E+00 0. -1.
        994    1    1    2    0    0  0.57507487237E+01 -0.24824840909E+02  0.53658008153E+01  0.17316921105E+03  0.17120000000E+03 0.  0.
        998    1    1    2    0    0 -0.10133534888E+02  0.35527111598E+02  0.14730176800E+04  0.14735148285E+04  0.10000000000E+02 0. -1.
</event>
<event>
 5    1  0.1020718E-008  0.3817793E+03  0.7957747E-01  0.3443447E+00
         13   -1    0    0    0    0  0.00000000000E+00  0.00000000000E+00  0.14999999963E+04  0.15000000000E+04  0.10566000000E+00 0. -1.
        994   -1    0    0    0    0 -0.00000000000E+00 -0.00000000000E+00  0.11368683772E-12  0.17120000000E+03  0.17120000000E+03 0.  0.
         13    1    1    2    0    0  0.38598761682E+01 -0.13974386274E+02  0.30767540855E+02  0.34012274991E+02  0.10566000000E+00 0. -1.
        994    1    1    2    0    0 -0.92034739645E+01  0.12522601694E+02  0.40407270651E+01  0.17195140872E+03  0.17120000000E+03 0.  0.
        998    1    1    2    0    0  0.53435977963E+01  0.14517845803E+01  0.14651917284E+04  0.14652363163E+04  0.10000000000E+02 0. -1.
</event>
<event>
 5    1  0.1020718E-008  0.3842806E+03  0.7957747E-01  0.3432729E+00
         13   -1    0    0    0    0  0.00000000000E+00  0.00000000000E+00  0.14999999963E+04  0.15000000000E+04  0.10566000000E+00 0. -1.
        994   -1    0    0    0    0 -0.00000000000E+00 -0.00000000000E+00  0.11368683772E-12  0.17120000000E+03  0.17120000000E+03 0.  0.
         13    1    1    2    0    0  0.23917870778E+02  0.75468202283E+01  0.14529924917E+03  0.14744796374E+03  0.10566000000E+00 0. -1.
        994    1    1    2    0    0 -0.28592846045E+02  0.65193512259E+01  0.48278876317E+01  0.17376075876E+03  0.17120000000E+03 0.  0.
        998    1    1    2    0    0  0.46749752665E+01 -0.14066171454E+02  0.13498728595E+04  0.13499912775E+04  0.10000000000E+02 0. -1.
</event>
<event>
 5    1  0.1020718E-008  0.3715256E+03  0.7957747E-01  0.3488909E+00
         13   -1    0    0    0    0  0.00000000000E+00  0.00000000000E+00  0.14999999963E+04  0.15000000000E+04  0.10566000000E+00 0.  1.
        994   -1    0    0    0    0 -0.00000000000E+00 -0.00000000000E+00  0.11368683772E-12  0.17120000000E+03  0.17120000000E+03 0.  0.
         13    1    1    2    0    0  0.17290376842E+02  0.23312592608E+02  0.49745645082E+02  0.57594048947E+02  0.10566000000E+00 0.  1.
        994    1    1    2    0    0 -0.79681523020E+02  0.67839805392E+02  0.47139011058E+02  0.20611382940E+03  0.17120000000E+03 0.  0.
        998    1    1    2    0    0  0.62391146178E+02 -0.91152398000E+02  0.14031153401E+04  0.14074921217E+04  0.10000000000E+02 0.  1.
</event>
<event>
 5    1  0.1020718E-008  0.3803052E+03  0.7957747E-01  0.3449831E+00
         13   -1    0    0    0    0  0.00000000000E+00  0.00000000000E+00  0.14999999963E+04  0.15000000000E+04  0.10566000000E+00 0. -1.
        994   -1    0    0    0    0 -0.00000000000E+00 -0.00000000000E+00  0.11368683772E-12  0.17120000000E+03  0.17120000000E+03 0.  0.
         13    1    1    2    0    0  0.84474073593E+02  0.26579180814E+02  0.27332993258E+03  0.28731791654E+03  0.10566000000E+00 0. -1.
        994    1    1    2    0    0 -0.21046029617E+02 -0.53998150651E+01  0.18209336961E+02  0.17353130357E+03  0.17120000000E+03 0.  0.
        998    1    1    2    0    0 -0.63428043975E+02 -0.21179365749E+02  0.12084607267E+04  0.12103507799E+04  0.10000000000E+02 0. -1.
</event>
<event>
 5    1  0.1020718E-008  0.3817224E+03  0.7957747E-01  0.3443693E+00
         13   -1    0    0    0    0  0.00000000000E+00  0.00000000000E+00  0.14999999963E+04  0.15000000000E+04  0.10566000000E+00 0.  1.
        994   -1    0    0    0    0 -0.00000000000E+00 -0.00000000000E+00  0.11368683772E-12  0.17120000000E+03  0.17120000000E+03 0.  0.
         13    1    1    2    0    0 -0.17548412360E+02  0.66630498588E+01  0.51169907009E+02  0.54504252652E+02  0.10566000000E+00 0.  1.
        994    1    1    2    0    0 -0.96013166609E+01 -0.90161093608E+02  0.31093382251E+02  0.19620766168E+03  0.17120000000E+03 0.  0.
        998    1    1    2    0    0  0.27149729021E+02  0.83498043749E+02  0.14177367070E+04  0.14204880857E+04  0.10000000000E+02 0.  1.
</event>
<event>
 5    1  0.1020718E-008  0.3795214E+03  0.7957747E-01  0.3453245E+00
         13   -1    0    0    0    0  0.00000000000E+00  0.00000000000E+00  0.14999999963E+04  0.15000000000E+04  0.10566000000E+00 0.  1.
        994   -1    0    0    0    0 -0.00000000000E+00 -0.00000000000E+00  0.11368683772E-12  0.17120000000E+03  0.17120000000E+03 0.  0.
         13    1    1    2    0    0  0.12264033782E+01 -0.23375930294E+02  0.67886378732E+02  0.71808841821E+02  0.10566000000E+00 0.  1.
        994    1    1    2    0    0  0.14979313246E+01 -0.10237075152E+02  0.47334357221E+01  0.17157764108E+03  0.17120000000E+03 0.  0.
        998    1    1    2    0    0 -0.27243347027E+01  0.33613005446E+02  0.14273801818E+04  0.14278135171E+04  0.10000000000E+02 0.  1.
</event>
<event>
 5    1  0.1020718E-008  0.3965342E+03  0.7957747E-01  0.3382180E+00
         13   -1    0    0    0    0  0.00000000000E+00  0.00000000000E+00  0.14999999963E+04  0.15000000000E+04  0.10566000000E+00 0.  1.
        994   -1    0    0    0    0 -0.00000000000E+00 -0.00000000000E+00  0.11368683772E-12  0.17120000000E+03  0.17120000000E+03 0.  0.
         13    1    1    2    0    0  0.43753748666E+02  0.41603109812E+02  0.57181928292E+02  0.83156439051E+02  0.10566000000E+00 0.  1.
        994    1    1    2    0    0 -0.58640853403E+02 -0.47817816094E+02  0.48181035395E+02  0.19327737942E+03  0.17120000000E+03 0.  0.
        998    1    1    2    0    0  0.14887104737E+02  0.62147062820E+01  0.13946370326E+04  0.13947661815E+04  0.10000000000E+02 0.  1.
</event>
<event>
 5    1  0.1020718E-008  0.2907139E+03  0.7957747E-01  0.3964628E+00
         13   -1    0    0    0    0  0.00000000000E+00  0.00000000000E+00  0.14999999963E+04  0.15000000000E+04  0.10566000000E+00 0. -1.
        994   -1    0    0    0    0 -0.00000000000E+00 -0.00000000000E+00  0.11368683772E-12  0.17120000000E+03  0.17120000000E+03 0.  0.
         13    1    1    2    0    0 -0.54050808114E+02  0.17583145800E+03  0.56899580014E+03  0.59799199260E+03  0.10566000000E+00 0. -1.
        994    1    1    2    0    0  0.51497553644E+02 -0.17801758872E+03  0.15285093226E+03  0.29498323243E+03  0.17120000000E+03 0.  0.
        998    1    1    2    0    0  0.25532544699E+01  0.21861307217E+01  0.77815326388E+03  0.77822477497E+03  0.10000000000E+02 0.  0.
</event>
<event>
 5    1  0.1020718E-008  0.3805913E+03  0.7957747E-01  0.3448588E+00
         13   -1    0    0    0    0  0.00000000000E+00  0.00000000000E+00  0.14999999963E+04  0.15000000000E+04  0.10566000000E+00 0.  1.
        994   -1    0    0    0    0 -0.00000000000E+00 -0.00000000000E+00  0.11368683772E-12  0.17120000000E+03  0.17120000000E+03 0.  0.
         13    1    1    2    0    0 -0.26142516427E+02  0.36973989535E+01  0.90804362886E+02  0.94565032689E+02  0.10566000000E+00 0.  1.
        994    1    1    2    0    0  0.16463994444E+02  0.17448194158E+02  0.57574140323E+01  0.17296846652E+03  0.17120000000E+03 0.  0.
        998    1    1    2    0    0  0.96785219829E+01 -0.21145593112E+02  0.14034382194E+04  0.14036665008E+04  0.10000000000E+02 0.  1.
</event>
<event>
 5    1  0.1020718E-008  0.3775481E+03  0.7957747E-01  0.3461904E+00
         13   -1    0    0    0    0  0.00000000000E+00  0.00000000000E+00  0.14999999963E+04  0.15000000000E+04  0.10566000000E+00 0. -1.
        994   -1    0    0    0    0 -0.00000000000E+00 -0.00000000000E+00  0.11368683772E-12  0.17120000000E+03  0.17120000000E+03 0.  0.
         13    1    1    2    0    0  0.37198487345E+02  0.15720402173E+02  0.13979672540E+03  0.14551286576E+03  0.10566000000E+00 0. -1.
        994    1    1    2    0    0 -0.35561178181E+02 -0.10190322942E+02  0.10001846588E+02  0.17543636171E+03  0.17120000000E+03 0.  0.
        998    1    1    2    0    0 -0.16373091639E+01 -0.55300792311E+01  0.13502014243E+04  0.13502507725E+04  0.10000000000E+02 0. -1.
</event>
<event>
 5    1  0.1935278E-008  0.3861787E+03  0.7957747E-01  0.3424689E+00
         13   -1    0    0    0    0  0.00000000000E+00  0.00000000000E+00  0.14999999963E+04  0.15000000000E+04  0.10566000000E+00 0. -1.
        994   -1    0    0    0    0 -0.00000000000E+00 -0.00000000000E+00  0.11368683772E-12  0.17120000000E+03  0.17120000000E+03 0.  0.
         13    1    1    2    0    0 -0.96553862730E+01  0.29299532496E+01  0.49722017313E+02  0.50735601700E+02  0.10566000000E+00 0. -1.
        994    1    1    2    0    0  0.51379897967E+01 -0.31836803362E+01  0.11657827529E+01  0.17131063542E+03  0.17120000000E+03 0.  0.
        998    1    1    2    0    0  0.45173964764E+01  0.25372708667E+00  0.14491121962E+04  0.14491537629E+04  0.10000000000E+02 0. -1.
</event>
<event>
 5    1  0.1020718E-008  0.3761036E+03  0.7957747E-01  0.3468302E+00
         13   -1    0    0    0    0  0.00000000000E+00  0.00000000000E+00  0.14999999963E+04  0.15000000000E+04  0.10566000000E+00 0.  1.
        994   -1    0    0    0    0 -0.00000000000E+00 -0.00000000000E+00  0.11368683772E-12  0.17120000000E+03  0.17120000000E+03 0.  0.
         13    1    1    2    0    0  0.29550523034E+02  0.11860512972E+02  0.75489835545E+02  0.81930651250E+02  0.10566000000E+00 0.  1.
        994    1    1    2    0    0 -0.30916331821E+02 -0.22991827335E+02  0.11156851635E+02  0.17583617101E+03  0.17120000000E+03 0.  0.
        998    1    1    2    0    0  0.13658087874E+01  0.11131314364E+02  0.14133533091E+04  0.14134331777E+04  0.10000000000E+02 0.  1.
</event>
<event>
 5    1  0.1020718E-008  0.3796827E+03  0.7957747E-01  0.3452541E+00
         13   -1    0    0    0    0  0.00000000000E+00  0.00000000000E+00  0.14999999963E+04  0.15000000000E+04  0.10566000000E+00 0. -1.
        994   -1    0    0    0    0 -0.00000000000E+00 -0.00000000000E+00  0.11368683772E-12  0.17120000000E+03  0.17120000000E+03 0.  0.
         13    1    1    2    0    0 -0.10260887799E+02  0.15746850043E+02  0.39048318924E+02  0.43336260562E+02  0.10566000000E+00 0. -1.
        994    1    1    2    0    0  0.75535886527E+01 -0.13953244752E+02  0.51362856258E+01  0.17201038100E+03  0.17120000000E+03 0.  0.
        998    1    1    2    0    0  0.27072991460E+01 -0.17936052909E+01  0.14558153917E+04  0.14558533584E+04  0.10000000000E+02 0. -1.
</event>
<event>
 5    1  0.1020718E-008  0.3861217E+03  0.7957747E-01  0.3424929E+00
         13   -1    0    0    0    0  0.00000000000E+00  0.00000000000E+00  0.14999999963E+04  0.15000000000E+04  0.10566000000E+00 0.  1.
        994   -1    0    0    0    0 -0.00000000000E+00 -0.00000000000E+00  0.11368683772E-12  0.17120000000E+03  0.17120000000E+03 0.  0.
         13    1    1    2    0    0  0.74215296233E+01 -0.97697358032E+01  0.66505996898E+02  0.67628290138E+02  0.10566000000E+00 0.  1.
        994    1    1    2    0    0 -0.13843716139E+02  0.10430158176E+02  0.20593060580E+01  0.17208752836E+03  0.17120000000E+03 0.  0.
        998    1    1    2    0    0  0.64221865162E+01 -0.66042237246E+00  0.14314346933E+04  0.14314841815E+04  0.10000000000E+02 0.  1.
</event>
<event>
 5    1  0.1020718E-008  0.3809031E+03  0.7957747E-01  0.3447236E+00
         13   -1    0    0    0    0  0.00000000000E+00  0.00000000000E+00  0.14999999963E+04  0.15000000000E+04  0.10566000000E+00 0. -1.
        994   -1    0    0    0    0 -0.00000000000E+00 -0.00000000000E+00  0.11368683772E-12  0.17120000000E+03  0.17120000000E+03 0.  0.
         13    1    1    2    0    0  0.62802475254E+01  0.19529081512E+02  0.58218795672E+02  0.61727351047E+02  0.10566000000E+00 0. -1.
        994    1    1    2    0    0  0.86194208772E+01 -0.65944499444E+01  0.40706421802E+01  0.17159193254E+03  0.17120000000E+03 0.  0.
        998    1    1    2    0    0 -0.14899668403E+02 -0.12934631568E+02  0.14377105584E+04  0.14378807164E+04  0.10000000000E+02 0. -1.
</event>
<event>
 5    1  0.1020718E-008  0.3859887E+03  0.7957747E-01  0.3425490E+00
         13   -1    0    0    0    0  0.00000000000E+00  0.00000000000E+00  0.14999999963E+04  0.15000000000E+04  0.10566000000E+00 0.  1.
        994   -1    0    0    0    0 -0.00000000000E+00 -0.00000000000E+00  0.11368683772E-12  0.17120000000E+03  0.17120000000E+03 0.  0.
         13    1    1    2    0    0  0.10922004080E+02  0.37495824245E+01  0.60048927607E+02  0.61149279736E+02  0.10566000000E+00 0.  1.
        994    1    1    2    0    0 -0.75431647327E+01  0.43045054051E+01  0.13873833280E+01  0.17142576508E+03  0.17120000000E+03 0.  0.
        998    1    1    2    0    0 -0.33788393474E+01 -0.80540878296E+01  0.14385636853E+04  0.14386249552E+04  0.10000000000E+02 0.  1.
</event>
<event>
 5    1  0.1020718E-008  0.3774098E+03  0.7957747E-01  0.3462515E+00
         13   -1    0    0    0    0  0.00000000000E+00  0.00000000000E+00  0.14999999963E+04  0.15000000000E+04  0.10566000000E+00 0. -1.
        994   -1    0    0    0    0 -0.00000000000E+00 -0.00000000000E+00  0.11368683772E-12  0.17120000000E+03  0.17120000000E+03 0.  0.
         13    1    1    2    0    0 -0.28846309417E+01 -0.25207281047E+02  0.59680804472E+02  0.64850117193E+02  0.10566000000E+00 0. -1.
        994    1    1    2    0    0 -0.83451501077E+01  0.48818156722E+01  0.57616384639E+01  0.17156954897E+03  0.17120000000E+03 0.  0.
        998    1    1    2    0    0  0.11229781049E+02  0.20325465375E+02  0.14345575533E+04  0.14347803338E+04  0.10000000000E+02 0. -1.
</event>
<event>
 5    1  0.1020718E-008  0.3726139E+03  0.7957747E-01  0.3483963E+00
         13   -1    0    0    0    0  0.00000000000E+00  0.00000000000E+00  0.14999999963E+04  0.15000000000E+04  0.10566000000E+00 0. -1.
        994   -1    0    0    0    0 -0.00000000000E+00 -0.00000000000E+00  0.11368683772E-12  0.17120000000E+03  0.17120000000E+03 0.  0.
         13    1    1    2    0    0 -0.84848836413E+02  0.12177266640E+02  0.37021799267E+03  0.38001182104E+03  0.10566000000E+00 0. -1.
        994    1    1    2    0    0  0.75660011054E+02 -0.19737998367E+02  0.29160376976E+02  0.19045680203E+03  0.17120000000E+03 0.  0.
        998    1    1    2    0    0  0.91888253594E+01  0.75607317272E+01  0.11006216266E+04  0.11007313769E+04  0.10000000000E+02 0. -1.
</event>
<event>
 5    1  0.1020718E-008  0.3788854E+03  0.7957747E-01  0.3456026E+00
         13   -1    0    0    0    0  0.00000000000E+00  0.00000000000E+00  0.14999999963E+04  0.15000000000E+04  0.10566000000E+00 0.  1.
        994   -1    0    0    0    0 -0.00000000000E+00 -0.00000000000E+00  0.11368683772E-12  0.17120000000E+03  0.17120000000E+03 0.  0.
         13    1    1    2    0    0 -0.37345829774E+02  0.16391637095E+02  0.17688907321E+03  0.18153003099E+03  0.10566000000E+00 0.  1.
        994    1    1    2    0    0  0.13902138261E+02 -0.25168428126E+02  0.74756619577E+01  0.17375858179E+03  0.17120000000E+03 0.  0.
        998    1    1    2    0    0  0.23443691513E+02  0.87767910313E+01  0.13156352611E+04  0.13159113872E+04  0.10000000000E+02 0.  1.
</event>
<event>
 5    1  0.1020718E-008  0.3827529E+03  0.7957747E-01  0.3439259E+00
         13   -1    0    0    0    0  0.00000000000E+00  0.00000000000E+00  0.14999999963E+04  0.15000000000E+04  0.10566000000E+00 0.  1.
        994   -1    0    0    0    0 -0.00000000000E+00 -0.00000000000E+00  0.11368683772E-12  0.17120000000E+03  0.17120000000E+03 0.  0.
         13    1    1    2    0    0 -0.35846101315E+01  0.16488283146E+02  0.54260864133E+02  0.56823986585E+02  0.10566000000E+00 0.  1.
        994    1    1    2    0    0 -0.85674224378E+01  0.83699446794E+00  0.29954161350E+01  0.17144245042E+03  0.17120000000E+03 0.  0.
        998    1    1    2    0    0  0.12152032569E+02 -0.17325277614E+02  0.14427437160E+04  0.14429335630E+04  0.10000000000E+02 0.  1.
</event>
<event>
 5    1  0.1020718E-008  0.3802844E+03  0.7957747E-01  0.3449921E+00
         13   -1    0    0    0    0  0.00000000000E+00  0.00000000000E+00  0.14999999963E+04  0.15000000000E+04  0.10566000000E+00 0. -1.
        994   -1    0    0    0    0 -0.00000000000E+00 -0.00000000000E+00  0.11368683772E-12  0.17120000000E+03  0.17120000000E+03 0.  0.
         13    1    1    2    0    0  0.78352423182E+02 -0.25570027045E+02  0.25872761057E+03  0.27153805652E+03  0.10566000000E+00 0. -1.
        994    1    1    2    0    0 -0.75356234045E+01 -0.25039797538E+02  0.18967631372E+02  0.17422108977E+03  0.17120000000E+03 0.  0.
        998    1    1    2    0    0 -0.70816799777E+02  0.50609824583E+02  0.12223047543E+04  0.12254408537E+04  0.10000000000E+02 0. -1.
</event>
<event>
 5    1  0.1020718E-008  0.3857889E+03  0.7957747E-01  0.3426333E+00
         13   -1    0    0    0    0  0.00000000000E+00  0.00000000000E+00  0.14999999963E+04  0.15000000000E+04  0.10566000000E+00 0.  1.
        994   -1    0    0    0    0 -0.00000000000E+00 -0.00000000000E+00  0.11368683772E-12  0.17120000000E+03  0.17120000000E+03 0.  0.
         13    1    1    2    0    0  0.74161614263E+01 -0.10829901072E+02  0.70432363284E+02  0.71645063817E+02  0.10566000000E+00 0.  1.
        994    1    1    2    0    0  0.34015620580E+01  0.12328738207E+02  0.17757109901E+01  0.17168622997E+03  0.17120000000E+03 0.  0.
        998    1    1    2    0    0 -0.10817723484E+02 -0.14988371353E+01  0.14277919220E+04  0.14278687062E+04  0.10000000000E+02 0.  1.
</event>
<event>
 5    1  0.1020718E-008  0.3778008E+03  0.7957747E-01  0.3460790E+00
         13   -1    0    0    0    0  0.00000000000E+00  0.00000000000E+00  0.14999999963E+04  0.15000000000E+04  0.10566000000E+00 0.  1.
        994   -1    0    0    0    0 -0.00000000000E+00 -0.00000000000E+00  0.11368683772E-12  0.17120000000E+03  0.17120000000E+03 0.  0.
         13    1    1    2    0    0  0.41501174600E+02 -0.16048900632E+02  0.18870369916E+03  0.19387885894E+03  0.10566000000E+00 0.  1.
        994    1    1    2    0    0 -0.20318471554E+02  0.14876292445E+02  0.73857682681E+01  0.17319969381E+03  0.17120000000E+03 0.  0.
        998    1    1    2    0    0 -0.21182703045E+02  0.11726081863E+01  0.13039105289E+04  0.13041214472E+04  0.10000000000E+02 0.  1.
</event>
<event>
 5    1  0.2276640E-008  0.3864477E+03  0.7957747E-01  0.3423555E+00
         13   -1    0    0    0    0  0.00000000000E+00  0.00000000000E+00  0.14999999963E+04  0.15000000000E+04  0.10566000000E+00 0. -1.
        994   -1    0    0    0    0 -0.00000000000E+00 -0.00000000000E+00  0.11368683772E-12  0.17120000000E+03  0.17120000000E+03 0.  0.
         13    1    1    2    0    0 -0.31186132073E+01  0.10180213428E+02  0.62290843901E+02  0.63194326420E+02  0.10566000000E+00 0. -1.
        994    1    1    2    0    0  0.75203951216E+01 -0.73664108145E+01  0.12758843800E+01  0.17152809750E+03  0.17120000000E+03 0.  0.
        998    1    1    2    0    0 -0.44017819143E+01 -0.28138026132E+01  0.14364332680E+04  0.14364775761E+04  0.10000000000E+02 0. -1.
</event>
<event>
 5    1  0.1020718E-008  0.3835177E+03  0.7957747E-01  0.3435983E+00
         13   -1    0    0    0    0  0.00000000000E+00  0.00000000000E+00  0.14999999963E+04  0.15000000000E+04  0.10566000000E+00 0. -1.
        994   -1    0    0    0    0 -0.00000000000E+00 -0.00000000000E+00  0.11368683772E-12  0.17120000000E+03  0.17120000000E+03 0.  0.
         13    1    1    2    0    0 -0.88712098415E+01 -0.95095784807E+01  0.35222030833E+02  0.37546412172E+02  0.10566000000E+00 0. -1.
        994    1    1    2    0    0  0.27413575102E+01  0.74571240285E+01  0.25764842200E+01  0.17140362310E+03  0.17120000000E+03 0.  0.
        998    1    1    2    0    0  0.61298523313E+01  0.20524544522E+01  0.14622014812E+04  0.14622499647E+04  0.10000000000E+02 0. -1.
</event>
<event>
 5    1  0.1020718E-008  0.3779976E+03  0.7957747E-01  0.3459924E+00
         13   -1    0    0    0    0  0.00000000000E+00  0.00000000000E+00  0.14999999963E+04  0.15000000000E+04  0.10566000000E+00 0.  1.
        994   -1    0    0    0    0 -0.00000000000E+00 -0.00000000000E+00  0.11368683772E-12  0.17120000000E+03  0.17120000000E+03 0.  0.
         13    1    1    2    0    0 -0.86588504988E+01 -0.50259539388E+02  0.21961399402E+03  0.22545801056E+03  0.10566000000E+00 0.  1.
        994    1    1    2    0    0  0.37562551857E+01  0.48617111300E+02  0.13191007752E+02  0.17849699059E+03  0.17120000000E+03 0.  0.
        998    1    1    2    0    0  0.49025953131E+01  0.16424280888E+01  0.12671949945E+04  0.12672449989E+04  0.10000000000E+02 0.  1.
</event>
<event>
 5    1  0.1020718E-008  0.3822170E+03  0.7957747E-01  0.3441562E+00
         13   -1    0    0    0    0  0.00000000000E+00  0.00000000000E+00  0.14999999963E+04  0.15000000000E+04  0.10566000000E+00 0.  1.
        994   -1    0    0    0    0 -0.00000000000E+00 -0.00000000000E+00  0.11368683772E-12  0.17120000000E+03  0.17120000000E+03 0.  0.
         13    1    1    2    0    0 -0.97596120592E+01 -0.21033170329E+02  0.89592623076E+02  0.92544549031E+02  0.10566000000E+00 0.  1.
        994    1    1    2    0    0  0.68788449050E+01  0.94515142900E+01  0.34718234268E+01  0.17163374723E+03  0.17120000000E+03 0.  0.
        998    1    1    2    0    0  0.28807671542E+01  0.11581656039E+02  0.14069355498E+04  0.14070217037E+04  0.10000000000E+02 0.  1.
</event>
<event>
 5    1  0.1020718E-008  0.3721804E+03  0.7957747E-01  0.3485930E+00
         13   -1    0    0    0    0  0.00000000000E+00  0.00000000000E+00  0.14999999963E+04  0.15000000000E+04  0.10566000000E+00 0. -1.
        994   -1    0    0    0    0 -0.00000000000E+00 -0.00000000000E+00  0.11368683772E-12  0.17120000000E+03  0.17120000000E+03 0.  0.
         13    1    1    2    0    0  0.14528803987E+03  0.68404961880E+02  0.69469693568E+03  0.71301591633E+03  0.10566000000E+00 0. -1.
        994    1    1    2    0    0 -0.18449128371E+03 -0.21159493877E+02  0.13766703053E+03  0.28765675594E+03  0.17120000000E+03 0.  0.
        998    1    1    2    0    0  0.39203243840E+02 -0.47245468003E+02  0.66763603007E+03  0.67052732773E+03  0.10000000000E+02 0. -1.
</event>
<event>
 5    1  0.1020718E-008  0.3835786E+03  0.7957747E-01  0.3435723E+00
         13   -1    0    0    0    0  0.00000000000E+00  0.00000000000E+00  0.14999999963E+04  0.15000000000E+04  0.10566000000E+00 0. -1.
        994   -1    0    0    0    0 -0.00000000000E+00 -0.00000000000E+00  0.11368683772E-12  0.17120000000E+03  0.17120000000E+03 0.  0.
         13    1    1    2    0    0  0.10507500891E+02 -0.12253012721E+02  0.54625911210E+02  0.56960909713E+02  0.10566000000E+00 0. -1.
        994    1    1    2    0    0 -0.42338749429E+01  0.12842193342E+02  0.29418031629E+01  0.17175838213E+03  0.17120000000E+03 0.  0.
        998    1    1    2    0    0 -0.62736259478E+01 -0.58918062130E+00  0.14424322819E+04  0.14424807082E+04  0.10000000000E+02 0. -1.
</event>
<event>
 5    1  0.1020718E-008  0.3758376E+03  0.7957747E-01  0.3469485E+00
         13   -1    0    0    0    0  0.00000000000E+00  0.00000000000E+00  0.14999999963E+04  0.15000000000E+04  0.10566000000E+00 0.  1.
        994   -1    0    0    0    0 -0.00000000000E+00 -0.00000000000E+00  0.11368683772E-12  0.17120000000E+03  0.17120000000E+03 0.  0.
         13    1    1    2    0    0 -0.25001428739E+01 -0.44170572489E+02  0.61903256019E+02  0.76087544698E+02  0.10566000000E+00 0.  1.
        994    1    1    2    0    0 -0.73712310845E+01  0.45213861952E+02  0.21587521988E+02  0.17853316069E+03  0.17120000000E+03 0.  0.
        998    1    1    2    0    0  0.98713739584E+01 -0.10432894632E+01  0.14165092183E+04  0.14165792946E+04  0.10000000000E+02 0.  1.
</event>
<event>
 5    1  0.1020718E-008  0.3740577E+03  0.7957747E-01  0.3477448E+00
         13   -1    0    0    0    0  0.00000000000E+00  0.00000000000E+00  0.14999999963E+04  0.15000000000E+04  0.10566000000E+00 0. -1.
        994   -1    0    0    0    0 -0.00000000000E+00 -0.00000000000E+00  0.11368683772E-12  0.17120000000E+03  0.17120000000E+03 0.  0.
         13    1    1    2    0    0 -0.14629158455E+02 -0.22899842815E+02  0.22084446734E+02  0.35016410862E+02  0.10566000000E+00 0. -1.
        994    1    1    2    0    0  0.21543785581E+02  0.24234594184E+02  0.16838659992E+02  0.17505550755E+03  0.17120000000E+03 0.  0.
        998    1    1    2    0    0 -0.69146271260E+01 -0.13347513695E+01  0.14610768896E+04  0.14611280816E+04  0.10000000000E+02 0. -1.
</event>
<event>
 5    1  0.1020718E-008  0.3857211E+03  0.7957747E-01  0.3426620E+00
         13   -1    0    0    0    0  0.00000000000E+00  0.00000000000E+00  0.14999999963E+04  0.15000000000E+04  0.10566000000E+00 0.  1.
        994   -1    0    0    0    0 -0.00000000000E+00 -0.00000000000E+00  0.11368683772E-12  0.17120000000E+03  0.17120000000E+03 0.  0.
         13    1    1    2    0    0 -0.83724588960E+01 -0.65906598366E+01  0.49155034169E+02  0.50296753506E+02  0.10566000000E+00 0.  1.
        994    1    1    2    0    0  0.47813946543E+01 -0.16991085348E+02  0.22954435377E+01  0.17212282759E+03  0.17120000000E+03 0.  0.
        998    1    1    2    0    0  0.35910642417E+01  0.23581745184E+02  0.14485495186E+04  0.14487804189E+04  0.10000000000E+02 0.  1.
</event>
<event>
 5    1  0.1020718E-008  0.3746140E+03  0.7957747E-01  0.3474951E+00
         13   -1    0    0    0    0  0.00000000000E+00  0.00000000000E+00  0.14999999963E+04  0.15000000000E+04  0.10566000000E+00 0. -1.
        994   -1    0    0    0    0 -0.00000000000E+00 -0.00000000000E+00  0.11368683772E-12  0.17120000000E+03  0.17120000000E+03 0.  0.
         13    1    1    2    0    0 -0.37280916747E+02 -0.41220879124E+02  0.25731601873E+03  0.26325001859E+03  0.10566000000E+00 0. -1.
        994    1    1    2    0    0 -0.35518081874E+01  0.18359584319E+02  0.80681920478E+01  0.17240715009E+03  0.17120000000E+03 0.  0.
        998    1    1    2    0    0  0.40832724934E+02  0.22861294805E+02  0.12346157855E+04  0.12355428313E+04  0.10000000000E+02 0. -1.
</event>
<event>
 5    1  0.1020718E-008  0.3838532E+03  0.7957747E-01  0.3434551E+00
         13   -1    0    0    0    0  0.00000000000E+00  0.00000000000E+00  0.14999999963E+04  0.15000000000E+04  0.10566000000E+00 0. -1.
        994   -1    0    0    0    0 -0.00000000000E+00 -0.00000000000E+00  0.11368683772E-12  0.17120000000E+03  0.17120000000E+03 0.  0.
         13    1    1    2    0    0  0.42355948126E+02  0.31166607737E+02  0.77903559160E+02  0.93991273389E+02  0.10566000000E+00 0. -1.
        994    1    1    2    0    0 -0.20086936471E+02  0.45416528385E+02  0.27580445349E+02  0.18037812238E+03  0.17120000000E+03 0.  0.
        998    1    1    2    0    0 -0.22269011654E+02 -0.76583136121E+02  0.13945159918E+04  0.13968306042E+04  0.10000000000E+02 0. -1.
</event>
<event>
 5    1  0.1020718E-008  0.4062914E+03  0.7957747E-01  0.3344105E+00
         13   -1    0    0    0    0  0.00000000000E+00  0.00000000000E+00  0.14999999963E+04  0.15000000000E+04  0.10566000000E+00 0.  1.
        994   -1    0    0    0    0 -0.00000000000E+00 -0.00000000000E+00  0.11368683772E-12  0.17120000000E+03  0.17120000000E+03 0.  0.
         13    1    1    2    0    0 -0.31348345547E+02 -0.49555294304E+01  0.33418205081E+01  0.31913241277E+02  0.10566000000E+00 0.  1.
        994    1    1    2    0    0  0.12169542520E+02 -0.10666562633E+02  0.32649710194E+02  0.17503518760E+03  0.17120000000E+03 0.  0.
        998    1    1    2    0    0  0.19178803027E+02  0.15622092063E+02  0.14640084656E+04  0.14642515711E+04  0.10000000000E+02 0.  1.
</event>
<event>
 5    1  0.1020718E-008  0.2762487E+03  0.7957747E-01  0.4081675E+00
         13   -1    0    0    0    0  0.00000000000E+00  0.00000000000E+00  0.14999999963E+04  0.15000000000E+04  0.10566000000E+00 0. -1.
        994   -1    0    0    0    0 -0.00000000000E+00 -0.00000000000E+00  0.11368683772E-12  0.17120000000E+03  0.17120000000E+03 0.  0.
         13    1    1    2    0    0 -0.96257218277E+02  0.12589303422E+03  0.66902089935E+03  0.68753435047E+03  0.10566000000E+00 0. -1.
        994    1    1    2    0    0  0.89669691822E+01 -0.49302170408E+02  0.38281517279E+02  0.18244458092E+03  0.17120000000E+03 0.  0.
        998    1    1    2    0    0  0.87290249095E+02 -0.76590863814E+02  0.79269757965E+03  0.80122106861E+03  0.10000000000E+02 0. -1.
</event>
<event>
 5    1  0.1020718E-008  0.3819039E+03  0.7957747E-01  0.3442910E+00
         13   -1    0    0    0    0  0.00000000000E+00  0.00000000000E+00  0.14999999963E+04  0.15000000000E+04  0.10566000000E+00 0. -1.
        994   -1    0    0    0    0 -0.00000000000E+00 -0.00000000000E+00  0.11368683772E-12  0.17120000000E+03  0.17120000000E+03 0.  0.
         13    1    1    2    0    0  0.75694059196E+01 -0.90907448829E+01  0.20175273118E+02  0.23387824993E+02  0.10566000000E+00 0. -1.
        994    1    1    2    0    0 -0.40435386419E+01  0.20552966242E+02  0.46341357232E+01  0.17253895166E+03  0.17120000000E+03 0.  0.
        998    1    1    2    0    0 -0.35258672777E+01 -0.11462221359E+02  0.14751905874E+04  0.14752732233E+04  0.10000000000E+02 0. -1.
</event>
<event>
 5    1  0.1020718E-008  0.3790035E+03  0.7957747E-01  0.3455509E+00
         13   -1    0    0    0    0  0.00000000000E+00  0.00000000000E+00  0.14999999963E+04  0.15000000000E+04  0.10566000000E+00 0. -1.
        994   -1    0    0    0    0 -0.00000000000E+00 -0.00000000000E+00  0.11368683772E-12  0.17120000000E+03  0.17120000000E+03 0.  0.
         13    1    1    2    0    0  0.20992487078E+02 -0.27893558199E+02  0.12790223266E+03  0.13258102197E+03  0.10566000000E+00 0. -1.
        994    1    1    2    0    0 -0.20879937787E+02  0.13718061512E+02  0.67332492951E+01  0.17314425679E+03  0.17120000000E+03 0.  0.
        998    1    1    2    0    0 -0.11254929153E+00  0.14175496687E+02  0.13653645143E+04  0.13654747212E+04  0.10000000000E+02 0. -1.
</event>
<event>
 5    1  0.1020718E-008  0.3770607E+03  0.7957747E-01  0.3464057E+00
         13   -1    0    0    0    0  0.00000000000E+00  0.00000000000E+00  0.14999999963E+04  0.15000000000E+04  0.10566000000E+00 0.  1.
        994   -1    0    0    0    0 -0.00000000000E+00 -0.00000000000E+00  0.11368683772E-12  0.17120000000E+03  0.17120000000E+03 0.  0.
         13    1    1    2    0    0  0.72068306409E+01 -0.31446430635E+02  0.93940529173E+02  0.99325981460E+02  0.10566000000E+00 0.  1.
        994    1    1    2    0    0 -0.14103103835E+02  0.85229864335E+01  0.65414531771E+01  0.17211557003E+03  0.17120000000E+03 0.  0.
        998    1    1    2    0    0  0.68962731944E+01  0.22923444202E+02  0.13995180139E+04  0.13997584485E+04  0.10000000000E+02 0.  1.
</event>
<event>
 5    1  0.1020718E-008  0.3783302E+03  0.7957747E-01  0.3458462E+00
         13   -1    0    0    0    0  0.00000000000E+00  0.00000000000E+00  0.14999999963E+04  0.15000000000E+04  0.10566000000E+00 0.  1.
        994   -1    0    0    0    0 -0.00000000000E+00 -0.00000000000E+00  0.11368683772E-12  0.17120000000E+03  0.17120000000E+03 0.  0.
         13    1    1    2    0    0 -0.21663689558E+02 -0.18099818804E+01  0.43726755140E+02  0.48832691497E+02  0.10566000000E+00 0.  1.
        994    1    1    2    0    0  0.26450819634E+02  0.16967308928E+01  0.73435441754E+01  0.17339519139E+03  0.17120000000E+03 0.  0.
        998    1    1    2    0    0 -0.47871300765E+01  0.11325098761E+00  0.14489296970E+04  0.14489721171E+04  0.10000000000E+02 0.  1.
</event>
<event>
 5    1  0.1020718E-008  0.3719534E+03  0.7957747E-01  0.3486961E+00
         13   -1    0    0    0    0  0.00000000000E+00  0.00000000000E+00  0.14999999963E+04  0.15000000000E+04  0.10566000000E+00 0.  1.
        994   -1    0    0    0    0 -0.00000000000E+00 -0.00000000000E+00  0.11368683772E-12  0.17120000000E+03  0.17120000000E+03 0.  0.
         13    1    1    2    0    0 -0.86753473366E+02  0.68672217561E+02  0.39531828480E+03  0.41051016561E+03  0.10566000000E+00 0.  1.
        994    1    1    2    0    0  0.79574081971E+02 -0.61325082623E+02  0.48406031748E+02  0.20431687201E+03  0.17120000000E+03 0.  0.
        998    1    1    2    0    0  0.71793913954E+01 -0.73471349383E+01  0.10562756797E+04  0.10563729624E+04  0.10000000000E+02 0.  1.
</event>
<event>
 5    1  0.1020718E-008  0.3812515E+03  0.7957747E-01  0.3445727E+00
         13   -1    0    0    0    0  0.00000000000E+00  0.00000000000E+00  0.14999999963E+04  0.15000000000E+04  0.10566000000E+00 0. -1.
        994   -1    0    0    0    0 -0.00000000000E+00 -0.00000000000E+00  0.11368683772E-12  0.17120000000E+03  0.17120000000E+03 0.  0.
         13    1    1    2    0    0 -0.11694734085E+02  0.26412910371E+02  0.12267486413E+03  0.12602992539E+03  0.10566000000E+00 0. -1.
        994    1    1    2    0    0  0.10551976666E+02 -0.73974837157E+01  0.40558072017E+01  0.17173222339E+03  0.17120000000E+03 0.  0.
        998    1    1    2    0    0  0.11427574190E+01 -0.19015426655E+02  0.13732693249E+04  0.13734378512E+04  0.10000000000E+02 0. -1.
</event>
<event>
 5    1  0.1020718E-008  0.3820919E+03  0.7957747E-01  0.3442100E+00
         13   -1    0    0    0    0  0.00000000000E+00  0.00000000000E+00  0.14999999963E+04  0.15000000000E+04  0.10566000000E+00 0. -1.
        994   -1    0    0    0    0 -0.00000000000E+00 -0.00000000000E+00  0.11368683772E-12  0.17120000000E+03  0.17120000000E+03 0.  0.
         13    1    1    2    0    0 -0.19365338171E+02 -0.66684144291E+01  0.81631143849E+02  0.84161385942E+02  0.10566000000E+00 0. -1.
        994    1    1    2    0    0 -0.22896476738E+02 -0.39211493912E+01  0.48744580309E+01  0.17283756652E+03  0.17120000000E+03 0.  0.
        998    1    1    2    0    0  0.42261814909E+02  0.10589563820E+02  0.14134943944E+04  0.14142010475E+04  0.10000000000E+02 0. -1.
</event>
<event>
 5    1  0.1020718E-008  0.3702789E+03  0.7957747E-01  0.3494610E+00
         13   -1    0    0    0    0  0.00000000000E+00  0.00000000000E+00  0.14999999963E+04  0.15000000000E+04  0.10566000000E+00 0. -1.
        994   -1    0    0    0    0 -0.00000000000E+00 -0.00000000000E+00  0.11368683772E-12  0.17120000000E+03  0.17120000000E+03 0.  0.
         13    1    1    2    0    0  0.48164146029E+02  0.16437861826E+02  0.12602647003E+03  0.13591420300E+03  0.10566000000E+00 0. -1.
        994    1    1    2    0    0 -0.44490452426E+02 -0.37992847097E+02  0.21041538883E+02  0.18214017444E+03  0.17120000000E+03 0.  0.
        998    1    1    2    0    0 -0.36736936032E+01  0.21554985271E+02  0.13529319874E+04  0.13531456226E+04  0.10000000000E+02 0. -1.
</event>
<event>
 5    1  0.1020718E-008  0.3799660E+03  0.7957747E-01  0.3451307E+00
         13   -1    0    0    0    0  0.00000000000E+00  0.00000000000E+00  0.14999999963E+04  0.15000000000E+04  0.10566000000E+00 0.  1.
        994   -1    0    0    0    0 -0.00000000000E+00 -0.00000000000E+00  0.11368683772E-12  0.17120000000E+03  0.17120000000E+03 0.  0.
         13    1    1    2    0    0 -0.23431369092E+02 -0.28487511409E+02  0.19009322045E+03  0.19363886745E+03  0.10566000000E+00 0.  1.
        994    1    1    2    0    0  0.70597839140E+01 -0.54355626781E+01  0.44157682041E+01  0.17148855618E+03  0.17120000000E+03 0.  0.
        998    1    1    2    0    0  0.16371585178E+02  0.33923074087E+02  0.13054910076E+04  0.13060725764E+04  0.10000000000E+02 0.  1.
</event>
<event>
 5    1  0.1020718E-008  0.3793926E+03  0.7957747E-01  0.3453807E+00
         13   -1    0    0    0    0  0.00000000000E+00  0.00000000000E+00  0.14999999963E+04  0.15000000000E+04  0.10566000000E+00 0.  1.
        994   -1    0    0    0    0 -0.00000000000E+00 -0.00000000000E+00  0.11368683772E-12  0.17120000000E+03  0.17120000000E+03 0.  0.
         13    1    1    2    0    0 -0.26830978626E+02  0.59428919332E+02  0.36312160819E+03  0.36892954797E+03  0.10566000000E+00 0.  1.
        994    1    1    2    0    0  0.45443199033E+02 -0.51913762161E+02  0.20553390850E+02  0.18572023292E+03  0.17120000000E+03 0.  0.
        998    1    1    2    0    0 -0.18612220407E+02 -0.75151571706E+01  0.11163249972E+04  0.11165502191E+04  0.10000000000E+02 0.  0.
</event>
<event>
 5    1  0.1020718E-008  0.3813522E+03  0.7957747E-01  0.3445292E+00
         13   -1    0    0    0    0  0.00000000000E+00  0.00000000000E+00  0.14999999963E+04  0.15000000000E+04  0.10566000000E+00 0. -1.
        994   -1    0    0    0    0 -0.00000000000E+00 -0.00000000000E+00  0.11368683772E-12  0.17120000000E+03  0.17120000000E+03 0.  0.
         13    1    1    2    0    0  0.99117819159E+01  0.14379429433E+02  0.41887436003E+02  0.45382594357E+02  0.10566000000E+00 0. -1.
        994    1    1    2    0    0 -0.12502793697E+02 -0.13429980917E+02  0.45733991802E+01  0.17224122682E+03  0.17120000000E+03 0.  0.
        998    1    1    2    0    0  0.25910117807E+01 -0.94944851645E+00  0.14535391611E+04  0.14535761788E+04  0.10000000000E+02 0. -1.
</event>
<event>
 5    1  0.1020718E-008  0.3756565E+03  0.7957747E-01  0.3470292E+00
         13   -1    0    0    0    0  0.00000000000E+00  0.00000000000E+00  0.14999999963E+04  0.15000000000E+04  0.10566000000E+00 0.  1.
        994   -1    0    0    0    0 -0.00000000000E+00 -0.00000000000E+00  0.11368683772E-12  0.17120000000E+03  0.17120000000E+03 0.  0.
         13    1    1    2    0    0 -0.25998318425E+02 -0.22808308800E+01  0.50815089563E+02  0.57125294238E+02  0.10566000000E+00 0.  1.
        994    1    1    2    0    0  0.19729180819E+02  0.24712535631E+00  0.76634907381E+01  0.17250353833E+03  0.17120000000E+03 0.  0.
        998    1    1    2    0    0  0.62691376057E+01  0.20337055237E+01  0.14415214160E+04  0.14415711674E+04  0.10000000000E+02 0.  1.
</event>
<event>
 5    1  0.1020718E-008  0.3756080E+03  0.7957747E-01  0.3470508E+00
         13   -1    0    0    0    0  0.00000000000E+00  0.00000000000E+00  0.14999999963E+04  0.15000000000E+04  0.10566000000E+00 0.  1.
        994   -1    0    0    0    0 -0.00000000000E+00 -0.00000000000E+00  0.11368683772E-12  0.17120000000E+03  0.17120000000E+03 0.  0.
         13    1    1    2    0    0 -0.17549451049E+02 -0.13567560146E+02  0.37576440674E+02  0.43635558645E+02  0.10566000000E+00 0.  1.
        994    1    1    2    0    0 -0.57710722599E+01  0.89138022581E+01  0.67494348659E+01  0.17166174885E+03  0.17120000000E+03 0.  0.
        998    1    1    2    0    0  0.23320523309E+02  0.46537578877E+01  0.14556741207E+04  0.14559026925E+04  0.10000000000E+02 0.  1.
</event>
<event>
 5    1  0.1624392E-008  0.3859107E+03  0.7957747E-01  0.3425819E+00
         13   -1    0    0    0    0  0.00000000000E+00  0.00000000000E+00  0.14999999963E+04  0.15000000000E+04  0.10566000000E+00 0.  1.
        994   -1    0    0    0    0 -0.00000000000E+00 -0.00000000000E+00  0.11368683772E-12  0.17120000000E+03  0.17120000000E+03 0.  0.
         13    1    1    2    0    0  0.98576321491E+01 -0.71310494977E+01  0.62852118354E+02  0.64018940355E+02  0.10566000000E+00 0.  1.
        994    1    1    2    0    0 -0.57890516430E+01  0.80663060192E+01  0.15019547720E+01  0.17149423979E+03  0.17120000000E+03 0.  0.
        998    1    1    2    0    0 -0.40685805061E+01 -0.93525652143E+00  0.14356459232E+04  0.14356868199E+04  0.10000000000E+02 0.  1.
</event>
<event>
 5    1  0.1020718E-008  0.3840616E+03  0.7957747E-01  0.3433662E+00
         13   -1    0    0    0    0  0.00000000000E+00  0.00000000000E+00  0.14999999963E+04  0.15000000000E+04  0.10566000000E+00 0. -1.
        994   -1    0    0    0    0 -0.00000000000E+00 -0.00000000000E+00  0.11368683772E-12  0.17120000000E+03  0.17120000000E+03 0.  0.
         13    1    1    2    0    0 -0.12273478236E+02  0.52286172272E+01  0.41352907646E+02  0.43451706997E+02  0.10566000000E+00 0. -1.
        994    1    1    2    0    0  0.11237500935E+02 -0.45729704803E+01  0.25824268328E+01  0.17164877633E+03  0.17120000000E+03 0.  0.
        998    1    1    2    0    0  0.10359773015E+01 -0.65564674689E+00  0.14560646618E+04  0.14560995167E+04  0.10000000000E+02 0. -1.
</event>
<event>
 5    1  0.1020718E-008  0.3842114E+03  0.7957747E-01  0.3433024E+00
         13   -1    0    0    0    0  0.00000000000E+00  0.00000000000E+00  0.14999999963E+04  0.15000000000E+04  0.10566000000E+00 0.  1.
        994   -1    0    0    0    0 -0.00000000000E+00 -0.00000000000E+00  0.11368683772E-12  0.17120000000E+03  0.17120000000E+03 0.  0.
         13    1    1    2    0    0 -0.73045621178E+01 -0.16276262689E+02  0.78599851084E+02  0.80599138391E+02  0.10566000000E+00 0.  1.
        994    1    1    2    0    0 -0.15109675537E+02  0.19445156790E+02  0.40241291148E+01  0.17300881490E+03  0.17120000000E+03 0.  0.
        998    1    1    2    0    0  0.22414237655E+02 -0.31688941008E+01  0.14173760161E+04  0.14175920467E+04  0.10000000000E+02 0.  1.
</event>
<event>
 5    1  0.1020718E-008  0.3315530E+03  0.7957747E-01  0.3693685E+00
         13   -1    0    0    0    0  0.00000000000E+00  0.00000000000E+00  0.14999999963E+04  0.15000000000E+04  0.10566000000E+00 0. -1.
        994   -1    0    0    0    0 -0.00000000000E+00 -0.00000000000E+00  0.11368683772E-12  0.17120000000E+03  0.17120000000E+03 0.  0.
         13    1    1    2    0    0  0.29651745533E+03  0.17723731265E+02  0.79515637915E+03  0.84882884637E+03  0.10566000000E+00 0. -1.
        994    1    1    2    0    0 -0.22661012812E+03  0.40027850098E+02  0.33295817468E+03  0.43945985600E+03  0.17120000000E+03 0.  0.
        998    1    1    2    0    0 -0.69907327203E+02 -0.57751581363E+02  0.37188544245E+03  0.38291129763E+03  0.10000000000E+02 0.  1.
</event>
<event>
 5    1  0.1020718E-008  0.3811934E+03  0.7957747E-01  0.3445979E+00
         13   -1    0    0    0    0  0.00000000000E+00  0.00000000000E+00  0.14999999963E+04  0.15000000000E+04  0.10566000000E+00 0.  1.
        994   -1    0    0    0    0 -0.00000000000E+00 -0.00000000000E+00  0.11368683772E-12  0.17120000000E+03  0.17120000000E+03 0.  0.
         13    1    1    2    0    0 -0.80742210983E+01 -0.92269858768E+02  0.21223721900E+03  0.23156763197E+03  0.10566000000E+00 0.  1.
        994    1    1    2    0    0  0.14175247191E+02  0.91123162939E+02  0.48633333481E+02  0.20044702438E+03  0.17120000000E+03 0.  0.
        998    1    1    2    0    0 -0.61010260930E+01  0.11466958286E+01  0.12391294438E+04  0.12391853437E+04  0.10000000000E+02 0.  1.
</event>
<event>
 5    1  0.1020718E-008  0.3832163E+03  0.7957747E-01  0.3437272E+00
         13   -1    0    0    0    0  0.00000000000E+00  0.00000000000E+00  0.14999999963E+04  0.15000000000E+04  0.10566000000E+00 0.  1.
        994   -1    0    0    0    0 -0.00000000000E+00 -0.00000000000E+00  0.11368683772E-12  0.17120000000E+03  0.17120000000E+03 0.  0.
         13    1    1    2    0    0  0.82313798074E+01  0.19853327742E+03  0.11464221375E+04  0.11635149103E+04  0.10566000000E+00 0.  1.
        994    1    1    2    0    0 -0.19498736870E+02 -0.20024447138E+03  0.15048751369E+03  0.30402957230E+03  0.17120000000E+03 0.  0.
        998    1    1    2    0    0  0.11267357063E+02  0.17111939623E+01  0.20309034506E+03  0.20365551742E+03  0.10000000000E+02 0.  1.
</event>
<event>
 5    1  0.1020718E-008  0.3831016E+03  0.7957747E-01  0.3437764E+00
         13   -1    0    0    0    0  0.00000000000E+00  0.00000000000E+00  0.14999999963E+04  0.15000000000E+04  0.10566000000E+00 0.  1.
        994   -1    0    0    0    0 -0.00000000000E+00 -0.00000000000E+00  0.11368683772E-12  0.17120000000E+03  0.17120000000E+03 0.  0.
         13    1    1    2    0    0  0.16632212088E+02 -0.20078045715E+02  0.14063632599E+03  0.14303267371E+03  0.10566000000E+00 0.  1.
        994    1    1    2    0    0 -0.75162638624E+01  0.25137098048E+01  0.27834781385E+01  0.17140595296E+03  0.17120000000E+03 0.  0.
        998    1    1    2    0    0 -0.91159482253E+01  0.17564335910E+02  0.13565801922E+04  0.13567613733E+04  0.10000000000E+02 0.  1.
</event>
<event>
 5    1  0.1020718E-008  0.3811970E+03  0.7957747E-01  0.3445963E+00
         13   -1    0    0    0    0  0.00000000000E+00  0.00000000000E+00  0.14999999963E+04  0.15000000000E+04  0.10566000000E+00 0. -1.
        994   -1    0    0    0    0 -0.00000000000E+00 -0.00000000000E+00  0.11368683772E-12  0.17120000000E+03  0.17120000000E+03 0.  0.
         13    1    1    2    0    0 -0.20206946924E+02 -0.29167122511E+01  0.53517928923E+02  0.57280082006E+02  0.10566000000E+00 0. -1.
        994    1    1    2    0    0  0.34031031424E+02 -0.11298261864E+02  0.78232441446E+01  0.17508970549E+03  0.17120000000E+03 0.  0.
        998    1    1    2    0    0 -0.13824084501E+02  0.14214974115E+02  0.14386588232E+04  0.14388302125E+04  0.10000000000E+02 0. -1.
</event>
<event>
 5    1  0.1020718E-008  0.3814367E+03  0.7957747E-01  0.3444927E+00
         13   -1    0    0    0    0  0.00000000000E+00  0.00000000000E+00  0.14999999963E+04  0.15000000000E+04  0.10566000000E+00 0.  1.
        994   -1    0    0    0    0 -0.00000000000E+00 -0.00000000000E+00  0.11368683772E-12  0.17120000000E+03  0.17120000000E+03 0.  0.
         13    1    1    2    0    0 -0.32187160239E+02  0.15089146741E+02  0.16293386841E+03  0.16676676010E+03  0.10566000000E+00 0.  1.
        994    1    1    2    0    0  0.35828665103E+02 -0.13453423096E+02  0.82982325790E+01  0.17562171990E+03  0.17120000000E+03 0.  0.
        998    1    1    2    0    0 -0.36415048633E+01 -0.16357236450E+01  0.13287678953E+04  0.13288115200E+04  0.10000000000E+02 0.  1.
</event>
<event>
 5    1  0.1020718E-008  0.3806630E+03  0.7957747E-01  0.3448277E+00
         13   -1    0    0    0    0  0.00000000000E+00  0.00000000000E+00  0.14999999963E+04  0.15000000000E+04  0.10566000000E+00 0. -1.
        994   -1    0    0    0    0 -0.00000000000E+00 -0.00000000000E+00  0.11368683772E-12  0.17120000000E+03  0.17120000000E+03 0.  0.
         13    1    1    2    0    0 -0.16567678686E+02  0.16496363027E+02  0.73546211528E+02  0.77173015779E+02  0.10566000000E+00 0. -1.
        994    1    1    2    0    0  0.14101767211E+02  0.55704933433E+01  0.45660596495E+01  0.17193073936E+03  0.17120000000E+03 0.  0.
        998    1    1    2    0    0  0.24659114757E+01 -0.22066856370E+02  0.14218877251E+04  0.14220962449E+04  0.10000000000E+02 0. -1.
</event>
<event>
 5    1  0.1020718E-008  0.3759560E+03  0.7957747E-01  0.3468958E+00
         13   -1    0    0    0    0  0.00000000000E+00  0.00000000000E+00  0.14999999963E+04  0.15000000000E+04  0.10566000000E+00 0. -1.
        994   -1    0    0    0    0 -0.00000000000E+00 -0.00000000000E+00  0.11368683772E-12  0.17120000000E+03  0.17120000000E+03 0.  0.
         13    1    1    2    0    0 -0.27085447532E+02 -0.15869915749E+02  0.76460020099E+02  0.82653623825E+02  0.10566000000E+00 0. -1.
        994    1    1    2    0    0  0.14838880011E+02  0.19597175422E+02  0.82386498838E+01  0.17315183221E+03  0.17120000000E+03 0.  0.
        998    1    1    2    0    0  0.12246567521E+02 -0.37272596730E+01  0.14153013263E+04  0.14153945440E+04  0.10000000000E+02 0. -1.
</event>
<event>
 5    1  0.1020718E-008  0.3743588E+03  0.7957747E-01  0.3476096E+00
         13   -1    0    0    0    0  0.00000000000E+00  0.00000000000E+00  0.14999999963E+04  0.15000000000E+04  0.10566000000E+00 0. -1.
        994   -1    0    0    0    0 -0.00000000000E+00 -0.00000000000E+00  0.11368683772E-12  0.17120000000E+03  0.17120000000E+03 0.  0.
         13    1    1    2    0    0 -0.84524723679E+02  0.22644326738E+02  0.30401409577E+03  0.31635703886E+03  0.10566000000E+00 0. -1.
        994    1    1    2    0    0  0.20496329054E+02 -0.13779369535E+03  0.85779271751E+02  0.23680102501E+03  0.17120000000E+03 0.  0.
        998    1    1    2    0    0  0.64028394625E+02  0.11514936861E+03  0.11102066288E+04  0.11180419361E+04  0.10000000000E+02 0. -1.
</event>
<event>
 5    1  0.1020718E-008  0.3815173E+03  0.7957747E-01  0.3444578E+00
         13   -1    0    0    0    0  0.00000000000E+00  0.00000000000E+00  0.14999999963E+04  0.15000000000E+04  0.10566000000E+00 0. -1.
        994   -1    0    0    0    0 -0.00000000000E+00 -0.00000000000E+00  0.11368683772E-12  0.17120000000E+03  0.17120000000E+03 0.  0.
         13    1    1    2    0    0 -0.77948256570E+02 -0.75263148214E+02  0.49381890928E+03  0.50556661134E+03  0.10566000000E+00 0. -1.
        994    1    1    2    0    0 -0.49914186804E+02  0.92313178103E+02  0.58487932158E+02  0.20914929382E+03  0.17120000000E+03 0.  0.
        998    1    1    2    0    0  0.12786244337E+03 -0.17050029889E+02  0.94769315484E+03  0.95648409484E+03  0.10000000000E+02 0. -1.
</event>
<event>
 5    1  0.1020718E-008  0.3838370E+03  0.7957747E-01  0.3434619E+00
         13   -1    0    0    0    0  0.00000000000E+00  0.00000000000E+00  0.14999999963E+04  0.15000000000E+04  0.10566000000E+00 0.  1.
        994   -1    0    0    0    0 -0.00000000000E+00 -0.00000000000E+00  0.11368683772E-12  0.17120000000E+03  0.17120000000E+03 0.  0.
         13    1    1    2    0    0  0.21842017214E+02  0.16410497577E+02  0.15780185990E+03  0.16014935622E+03  0.10566000000E+00 0.  1.
        994    1    1    2    0    0 -0.18880960764E+02 -0.14787137919E+02  0.41095597866E+01  0.17292044011E+03  0.17120000000E+03 0.  0.
        998    1    1    2    0    0 -0.29610564505E+01 -0.16233596576E+01  0.13380885766E+04  0.13381302037E+04  0.10000000000E+02 0.  1.
</event>
<event>
 5    1  0.1020718E-008  0.3746065E+03  0.7957747E-01  0.3474984E+00
         13   -1    0    0    0    0  0.00000000000E+00  0.00000000000E+00  0.14999999963E+04  0.15000000000E+04  0.10566000000E+00 0. -1.
        994   -1    0    0    0    0 -0.00000000000E+00 -0.00000000000E+00  0.11368683772E-12  0.17120000000E+03  0.17120000000E+03 0.  0.
         13    1    1    2    0    0 -0.31231882980E+02  0.20824037498E+02  0.44404615252E+02  0.58145094994E+02  0.10566000000E+00 0. -1.
        994    1    1    2    0    0  0.36947439222E+02 -0.37241442593E+02  0.23239921618E+02  0.18055905479E+03  0.17120000000E+03 0.  0.
        998    1    1    2    0    0 -0.57155562422E+01  0.16417405095E+02  0.14323554594E+04  0.14324958502E+04  0.10000000000E+02 0. -1.
</event>
<event>
 5    1  0.1020718E-008  0.3711623E+03  0.7957747E-01  0.3490566E+00
         13   -1    0    0    0    0  0.00000000000E+00  0.00000000000E+00  0.14999999963E+04  0.15000000000E+04  0.10566000000E+00 0.  1.
        994   -1    0    0    0    0 -0.00000000000E+00 -0.00000000000E+00  0.11368683772E-12  0.17120000000E+03  0.17120000000E+03 0.  0.
         13    1    1    2    0    0  0.12867081101E+03 -0.12450789428E+03  0.99443040744E+03  0.10104208231E+04  0.10566000000E+00 0.  1.
        994    1    1    2    0    0 -0.82449994445E+02  0.15221822831E+03  0.12018872816E+03  0.27152009316E+03  0.17120000000E+03 0.  0.
        998    1    1    2    0    0 -0.46220816563E+02 -0.27710334033E+02  0.38538086068E+03  0.38925908374E+03  0.10000000000E+02 0.  1.
</event>
<event>
 5    1  0.1020718E-008  0.3687566E+03  0.7957747E-01  0.3501625E+00
         13   -1    0    0    0    0  0.00000000000E+00  0.00000000000E+00  0.14999999963E+04  0.15000000000E+04  0.10566000000E+00 0.  1.
        994   -1    0    0    0    0 -0.00000000000E+00 -0.00000000000E+00  0.11368683772E-12  0.17120000000E+03  0.17120000000E+03 0.  0.
         13    1    1    2    0    0 -0.25253509386E+02 -0.72176521381E+01  0.30537330532E+02  0.40278703539E+02  0.10566000000E+00 0.  1.
        994    1    1    2    0    0  0.20299742644E+02  0.43829495505E+01  0.11419511336E+02  0.17283267931E+03  0.17120000000E+03 0.  0.
        998    1    1    2    0    0  0.49537667419E+01  0.28347025876E+01  0.14580431544E+04  0.14580886172E+04  0.10000000000E+02 0.  1.
</event>
<event>
 5    1  0.1020718E-008  0.3763193E+03  0.7957747E-01  0.3467343E+00
         13   -1    0    0    0    0  0.00000000000E+00  0.00000000000E+00  0.14999999963E+04  0.15000000000E+04  0.10566000000E+00 0.  1.
        994   -1    0    0    0    0 -0.00000000000E+00 -0.00000000000E+00  0.11368683772E-12  0.17120000000E+03  0.17120000000E+03 0.  0.
         13    1    1    2    0    0 -0.11635624062E+02  0.91416432594E+01  0.15124691905E+02  0.21159509872E+02  0.10566000000E+00 0.  1.
        994    1    1    2    0    0  0.20008717791E+02 -0.13347215810E+02  0.79629608618E+01  0.17306457091E+03  0.17120000000E+03 0.  0.
        998    1    1    2    0    0 -0.83730937296E+01  0.42055725504E+01  0.14769123435E+04  0.14769759192E+04  0.10000000000E+02 0.  1.
</event>
<event>
 5    1  0.1020718E-008  0.3837943E+03  0.7957747E-01  0.3434802E+00
         13   -1    0    0    0    0  0.00000000000E+00  0.00000000000E+00  0.14999999963E+04  0.15000000000E+04  0.10566000000E+00 0. -1.
        994   -1    0    0    0    0 -0.00000000000E+00 -0.00000000000E+00  0.11368683772E-12  0.17120000000E+03  0.17120000000E+03 0.  0.
         13    1    1    2    0    0  0.11246988141E+02  0.15951440088E+02  0.94748050354E+02  0.96737518022E+02  0.10566000000E+00 0. -1.
        994    1    1    2    0    0  0.99485560428E+01 -0.23877136293E+01  0.25755816614E+01  0.17152477537E+03  0.17120000000E+03 0.  0.
        998    1    1    2    0    0 -0.21195544184E+02 -0.13563726459E+02  0.14026763643E+04  0.14029377066E+04  0.10000000000E+02 0. -1.
</event>
<event>
 5    1  0.1020718E-008  0.3846289E+03  0.7957747E-01  0.3431248E+00
         13   -1    0    0    0    0  0.00000000000E+00  0.00000000000E+00  0.14999999963E+04  0.15000000000E+04  0.10566000000E+00 0. -1.
        994   -1    0    0    0    0 -0.00000000000E+00 -0.00000000000E+00  0.11368683772E-12  0.17120000000E+03  0.17120000000E+03 0.  0.
         13    1    1    2    0    0 -0.28860351506E+01 -0.10183945150E+02  0.29815002202E+02  0.31638385832E+02  0.10566000000E+00 0. -1.
        994    1    1    2    0    0  0.21500898728E+01  0.12541123214E+02  0.23477688698E+01  0.17168824851E+03  0.17120000000E+03 0.  0.
        998    1    1    2    0    0  0.73594527775E+00 -0.23571780646E+01  0.14678372252E+04  0.14678733657E+04  0.10000000000E+02 0. -1.
</event>
<event>
 5    1  0.1020718E-008  0.3836756E+03  0.7957747E-01  0.3435309E+00
         13   -1    0    0    0    0  0.00000000000E+00  0.00000000000E+00  0.14999999963E+04  0.15000000000E+04  0.10566000000E+00 0.  1.
        994   -1    0    0    0    0 -0.00000000000E+00 -0.00000000000E+00  0.11368683772E-12  0.17120000000E+03  0.17120000000E+03 0.  0.
         13    1    1    2    0    0 -0.10620159983E+02 -0.65767479563E+01  0.31829948795E+02  0.34193540561E+02  0.10566000000E+00 0.  1.
        994    1    1    2    0    0  0.19700010333E+02  0.79248233403E+01  0.37797377312E+01  0.17255323715E+03  0.17120000000E+03 0.  0.
        998    1    1    2    0    0 -0.90798503501E+01 -0.13480753840E+01  0.14643903098E+04  0.14644532223E+04  0.10000000000E+02 0.  1.
</event>
<event>
 5    1  0.1020718E-008  0.3834028E+03  0.7957747E-01  0.3436475E+00
         13   -1    0    0    0    0  0.00000000000E+00  0.00000000000E+00  0.14999999963E+04  0.15000000000E+04  0.10566000000E+00 0. -1.
        994   -1    0    0    0    0 -0.00000000000E+00 -0.00000000000E+00  0.11368683772E-12  0.17120000000E+03  0.17120000000E+03 0.  0.
         13    1    1    2    0    0 -0.46989756492E+01 -0.12691427071E+02  0.39110398711E+02  0.41385832656E+02  0.10566000000E+00 0. -1.
        994    1    1    2    0    0  0.61960567691E+01 -0.63386079345E+01  0.26849903218E+01  0.17145033754E+03  0.17120000000E+03 0.  0.
        998    1    1    2    0    0 -0.14970811199E+01  0.19030035005E+02  0.14582046072E+04  0.14583638298E+04  0.10000000000E+02 0. -1.
</event>
<event>
 5    1  0.1020718E-008  0.3751216E+03  0.7957747E-01  0.3472679E+00
         13   -1    0    0    0    0  0.00000000000E+00  0.00000000000E+00  0.14999999963E+04  0.15000000000E+04  0.10566000000E+00 0. -1.
        994   -1    0    0    0    0 -0.00000000000E+00 -0.00000000000E+00  0.11368683772E-12  0.17120000000E+03  0.17120000000E+03 0.  0.
         13    1    1    2    0    0 -0.35949464018E+02  0.15648000459E+02  0.52352009633E+02  0.65406176759E+02  0.10566000000E+00 0. -1.
        994    1    1    2    0    0  0.19948882271E+02  0.85045624672E+00  0.15093448985E+02  0.17302003752E+03  0.17120000000E+03 0.  0.
        998    1    1    2    0    0  0.16000581747E+02 -0.16498456706E+02  0.14325545377E+04  0.14327737857E+04  0.10000000000E+02 0. -1.
</event>
<event>
 5    1  0.1020718E-008  0.3692251E+03  0.7957747E-01  0.3499460E+00
         13   -1    0    0    0    0  0.00000000000E+00  0.00000000000E+00  0.14999999963E+04  0.15000000000E+04  0.10566000000E+00 0. -1.
        994   -1    0    0    0    0 -0.00000000000E+00 -0.00000000000E+00  0.11368683772E-12  0.17120000000E+03  0.17120000000E+03 0.  0.
         13    1    1    2    0    0 -0.76621807407E+02  0.78452421468E+02  0.40830930308E+03  0.42277911721E+03  0.10566000000E+00 0. -1.
        994    1    1    2    0    0  0.73368687043E+02 -0.94172098573E+02  0.60843079517E+02  0.21739979005E+03  0.17120000000E+03 0.  0.
        998    1    1    2    0    0  0.32531203636E+01  0.15719677105E+02  0.10308476137E+04  0.10310210927E+04  0.10000000000E+02 0. -1.
</event>
<event>
 5    1  0.1020718E-008  0.3727724E+03  0.7957747E-01  0.3483246E+00
         13   -1    0    0    0    0  0.00000000000E+00  0.00000000000E+00  0.14999999963E+04  0.15000000000E+04  0.10566000000E+00 0.  1.
        994   -1    0    0    0    0 -0.00000000000E+00 -0.00000000000E+00  0.11368683772E-12  0.17120000000E+03  0.17120000000E+03 0.  0.
         13    1    1    2    0    0  0.41767252456E+02  0.73929201626E+02  0.40758827562E+03  0.41633909715E+03  0.10566000000E+00 0.  1.
        994    1    1    2    0    0 -0.27463241275E+02  0.11628895145E+02  0.15558753902E+02  0.17447342390E+03  0.17120000000E+03 0.  0.
        998    1    1    2    0    0 -0.14304011180E+02 -0.85558096771E+02  0.10768529668E+04  0.10803874790E+04  0.10000000000E+02 0.  1.
</event>
<event>
 5    1  0.1020718E-008  0.3798192E+03  0.7957747E-01  0.3451946E+00
         13   -1    0    0    0    0  0.00000000000E+00  0.00000000000E+00  0.14999999963E+04  0.15000000000E+04  0.10566000000E+00 0. -1.
        994   -1    0    0    0    0 -0.00000000000E+00 -0.00000000000E+00  0.11368683772E-12  0.17120000000E+03  0.17120000000E+03 0.  0.
         13    1    1    2    0    0 -0.10335416068E+01  0.26221455548E+02  0.84651230976E+02  0.88625476072E+02  0.10566000000E+00 0. -1.
        994    1    1    2    0    0  0.48296376353E+00 -0.43695879607E+01  0.42891056714E+01  0.17131013683E+03  0.17120000000E+03 0.  0.
        998    1    1    2    0    0  0.55057784330E+00 -0.21851867588E+02  0.14110596596E+04  0.14112643871E+04  0.10000000000E+02 0. -1.
</event>
<event>
 5    1  0.1020718E-008  0.3733552E+03  0.7957747E-01  0.3480612E+00
         13   -1    0    0    0    0  0.00000000000E+00  0.00000000000E+00  0.14999999963E+04  0.15000000000E+04  0.10566000000E+00 0. -1.
        994   -1    0    0    0    0 -0.00000000000E+00 -0.00000000000E+00  0.11368683772E-12  0.17120000000E+03  0.17120000000E+03 0.  0.
         13    1    1    2    0    0 -0.23095167201E+02  0.93212899261E+01  0.41923816806E+02  0.48763621415E+02  0.10566000000E+00 0. -1.
        994    1    1    2    0    0 -0.14489155967E+02  0.66802666232E+01  0.83964243572E+01  0.17214674422E+03  0.17120000000E+03 0.  0.
        998    1    1    2    0    0  0.37584323168E+02 -0.16001556549E+02  0.14496797551E+04  0.14502896344E+04  0.10000000000E+02 0. -1.
</event>
<event>
 5    1  0.1020718E-008  0.3819470E+03  0.7957747E-01  0.3442724E+00
         13   -1    0    0    0    0  0.00000000000E+00  0.00000000000E+00  0.14999999963E+04  0.15000000000E+04  0.10566000000E+00 0.  1.
        994   -1    0    0    0    0 -0.00000000000E+00 -0.00000000000E+00  0.11368683772E-12  0.17120000000E+03  0.17120000000E+03 0.  0.
         13    1    1    2    0    0 -0.38860367444E+01 -0.12013249898E+02  0.23885161005E+02  0.27017245140E+02  0.10566000000E+00 0.  1.
        994    1    1    2    0    0  0.84875010021E+00  0.11442374113E+02  0.35909054696E+01  0.17162162715E+03  0.17120000000E+03 0.  0.
        998    1    1    2    0    0  0.30372866441E+01  0.57087578510E+00  0.14725239298E+04  0.14725611277E+04  0.10000000000E+02 0.  1.
</event>
<event>
 5    1  0.1020718E-008  0.3818311E+03  0.7957747E-01  0.3443224E+00
         13   -1    0    0    0    0  0.00000000000E+00  0.00000000000E+00  0.14999999963E+04  0.15000000000E+04  0.10566000000E+00 0. -1.
        994   -1    0    0    0    0 -0.00000000000E+00 -0.00000000000E+00  0.11368683772E-12  0.17120000000E+03  0.17120000000E+03 0.  0.
         13    1    1    2    0    0  0.33173214271E+02 -0.37311923136E+02  0.24564310528E+03  0.25066549042E+03  0.10566000000E+00 0. -1.
        994    1    1    2    0    0 -0.86702973322E+02  0.35848299190E+02  0.33034767163E+02  0.19799808580E+03  0.17120000000E+03 0.  0.
        998    1    1    2    0    0  0.53529759051E+02  0.14636239458E+01  0.12213221238E+04  0.12225364238E+04  0.10000000000E+02 0. -1.
</event>
<event>
 5    1  0.1020718E-008  0.3830186E+03  0.7957747E-01  0.3438119E+00
         13   -1    0    0    0    0  0.00000000000E+00  0.00000000000E+00  0.14999999963E+04  0.15000000000E+04  0.10566000000E+00 0.  1.
        994   -1    0    0    0    0 -0.00000000000E+00 -0.00000000000E+00  0.11368683772E-12  0.17120000000E+03  0.17120000000E+03 0.  0.
         13    1    1    2    0    0  0.23281901623E+01  0.10575553505E+02  0.21328279983E+02  0.23920064641E+02  0.10566000000E+00 0.  1.
        994    1    1    2    0    0 -0.87626393816E+00 -0.93398922787E+01  0.29083789963E+01  0.17148148616E+03  0.17120000000E+03 0.  0.
        998    1    1    2    0    0 -0.14519262241E+01 -0.12356612268E+01  0.14757633373E+04  0.14757984492E+04  0.10000000000E+02 0.  1.
</event>
<event>
 5    1  0.1020718E-008  0.3706011E+03  0.7957747E-01  0.3493133E+00
         13   -1    0    0    0    0  0.00000000000E+00  0.00000000000E+00  0.14999999963E+04  0.15000000000E+04  0.10566000000E+00 0.  1.
        994   -1    0    0    0    0 -0.00000000000E+00 -0.00000000000E+00  0.11368683772E-12  0.17120000000E+03  0.17120000000E+03 0.  0.
         13    1    1    2    0    0 -0.51633485806E+02  0.11843934880E+01  0.12202125042E+03  0.13250138249E+03  0.10566000000E+00 0.  1.
        994    1    1    2    0    0  0.74498566410E+02 -0.31434225393E+01  0.28391724202E+02  0.18887945231E+03  0.17120000000E+03 0.  0.
        998    1    1    2    0    0 -0.22865080605E+02  0.19590290513E+01  0.13495870217E+04  0.13498191652E+04  0.10000000000E+02 0.  1.
</event>
<event>
 5    1  0.1020718E-008  0.3799524E+03  0.7957747E-01  0.3451366E+00
         13   -1    0    0    0    0  0.00000000000E+00  0.00000000000E+00  0.14999999963E+04  0.15000000000E+04  0.10566000000E+00 0. -1.
        994   -1    0    0    0    0 -0.00000000000E+00 -0.00000000000E+00  0.11368683772E-12  0.17120000000E+03  0.17120000000E+03 0.  0.
         13    1    1    2    0    0 -0.12705310468E+02  0.11686344326E+02  0.33980150956E+02  0.38113742677E+02  0.10566000000E+00 0. -1.
        994    1    1    2    0    0  0.15499144297E+02 -0.35251875397E+01  0.50023258000E+01  0.17200905117E+03  0.17120000000E+03 0.  0.
        998    1    1    2    0    0 -0.27938338288E+01 -0.81611567864E+01  0.14610175195E+04  0.14610772062E+04  0.10000000000E+02 0. -1.
</event>
<event>
 5    1  0.1020718E-008  0.3716534E+03  0.7957747E-01  0.3488326E+00
         13   -1    0    0    0    0  0.00000000000E+00  0.00000000000E+00  0.14999999963E+04  0.15000000000E+04  0.10566000000E+00 0. -1.
        994   -1    0    0    0    0 -0.00000000000E+00 -0.00000000000E+00  0.11368683772E-12  0.17120000000E+03  0.17120000000E+03 0.  0.
         13    1    1    2    0    0 -0.31088187944E+02  0.33931389347E+02  0.11894517099E+03  0.12753736503E+03  0.10566000000E+00 0. -1.
        994    1    1    2    0    0  0.27736019514E+02 -0.23692596656E+02  0.12995974212E+02  0.17552481665E+03  0.17120000000E+03 0.  0.
        998    1    1    2    0    0  0.33521684299E+01 -0.10238792691E+02  0.13680588511E+04  0.13681378183E+04  0.10000000000E+02 0. -1.
</event>
<event>
 5    1  0.1020718E-008  0.3761152E+03  0.7957747E-01  0.3468250E+00
         13   -1    0    0    0    0  0.00000000000E+00  0.00000000000E+00  0.14999999963E+04  0.15000000000E+04  0.10566000000E+00 0. -1.
        994   -1    0    0    0    0 -0.00000000000E+00 -0.00000000000E+00  0.11368683772E-12  0.17120000000E+03  0.17120000000E+03 0.  0.
         13    1    1    2    0    0  0.53499912688E+02  0.44231497910E+02  0.17982777385E+03  0.19276074672E+03  0.10566000000E+00 0. -1.
        994    1    1    2    0    0 -0.23710816776E+02 -0.69396737190E+01  0.16393128191E+02  0.17374848648E+03  0.17120000000E+03 0.  0.
        998    1    1    2    0    0 -0.29789095911E+02 -0.37291824191E+02  0.13037790942E+04  0.13046907668E+04  0.10000000000E+02 0. -1.
</event>
<event>
 5    1  0.1020718E-008  0.3822553E+03  0.7957747E-01  0.3441397E+00
         13   -1    0    0    0    0  0.00000000000E+00  0.00000000000E+00  0.14999999963E+04  0.15000000000E+04  0.10566000000E+00 0.  1.
        994   -1    0    0    0    0 -0.00000000000E+00 -0.00000000000E+00  0.11368683772E-12  0.17120000000E+03  0.17120000000E+03 0.  0.
         13    1    1    2    0    0 -0.28302632575E+02  0.10453668210E+02  0.16388947660E+03  0.16664360142E+03  0.10566000000E+00 0.  1.
        994    1    1    2    0    0  0.28545550468E+01 -0.13591971703E+02  0.36392935781E+01  0.17180097391E+03  0.17120000000E+03 0.  0.
        998    1    1    2    0    0  0.25448077529E+02  0.31383034929E+01  0.13324712261E+04  0.13327554247E+04  0.10000000000E+02 0. -1.
</event>
<event>
 5    1  0.1020718E-008  0.3724452E+03  0.7957747E-01  0.3484728E+00
         13   -1    0    0    0    0  0.00000000000E+00  0.00000000000E+00  0.14999999963E+04  0.15000000000E+04  0.10566000000E+00 0.  1.
        994   -1    0    0    0    0 -0.00000000000E+00 -0.00000000000E+00  0.11368683772E-12  0.17120000000E+03  0.17120000000E+03 0.  0.
         13    1    1    2    0    0 -0.51639530398E+01  0.86251879089E+01  0.25311668151E+01  0.10367171598E+02  0.10566000000E+00 0.  1.
        994    1    1    2    0    0  0.64815732849E+01 -0.11792056277E+02  0.86176146762E+01  0.17194408006E+03  0.17120000000E+03 0.  0.
        998    1    1    2    0    0 -0.13176202451E+01  0.31668683685E+01  0.14888512148E+04  0.14888887483E+04  0.10000000000E+02 0.  1.
</event>
<event>
 5    1  0.1020718E-008  0.3747750E+03  0.7957747E-01  0.3474229E+00
         13   -1    0    0    0    0  0.00000000000E+00  0.00000000000E+00  0.14999999963E+04  0.15000000000E+04  0.10566000000E+00 0.  1.
        994   -1    0    0    0    0 -0.00000000000E+00 -0.00000000000E+00  0.11368683772E-12  0.17120000000E+03  0.17120000000E+03 0.  0.
         13    1    1    2    0    0  0.45769956533E+02  0.55769858781E+02  0.25606228307E+03  0.26603208462E+03  0.10566000000E+00 0.  1.
        994    1    1    2    0    0  0.93100161017E+01  0.10542848546E+02  0.14189974355E+02  0.17236189668E+03  0.17120000000E+03 0.  0.
        998    1    1    2    0    0 -0.55079972634E+02 -0.66312707327E+02  0.12297477389E+04  0.12328060187E+04  0.10000000000E+02 0.  1.
</event>
<event>
 5    1  0.1020718E-008  0.3691886E+03  0.7957747E-01  0.3499628E+00
         13   -1    0    0    0    0  0.00000000000E+00  0.00000000000E+00  0.14999999963E+04  0.15000000000E+04  0.10566000000E+00 0.  1.
        994   -1    0    0    0    0 -0.00000000000E+00 -0.00000000000E+00  0.11368683772E-12  0.17120000000E+03  0.17120000000E+03 0.  0.
         13    1    1    2    0    0  0.37543237422E+02  0.43883048453E+01  0.65855704427E+02  0.75932449356E+02  0.10566000000E+00 0.  1.
        994    1    1    2    0    0 -0.45183538171E+02  0.28489705074E+01  0.16834503492E+02  0.17788341480E+03  0.17120000000E+03 0.  0.
        998    1    1    2    0    0  0.76403007491E+01 -0.72372753527E+01  0.14173097884E+04  0.14173841358E+04  0.10000000000E+02 0.  1.
</event>
<event>
 5    1  0.1020718E-008  0.3857574E+03  0.7957747E-01  0.3426466E+00
         13   -1    0    0    0    0  0.00000000000E+00  0.00000000000E+00  0.14999999963E+04  0.15000000000E+04  0.10566000000E+00 0.  1.
        994   -1    0    0    0    0 -0.00000000000E+00 -0.00000000000E+00  0.11368683772E-12  0.17120000000E+03  0.17120000000E+03 0.  0.
         13    1    1    2    0    0 -0.44429099621E+01  0.95166639562E+01  0.44838440948E+02  0.46052180105E+02  0.10566000000E+00 0.  1.
        994    1    1    2    0    0  0.63573112875E+01 -0.26031605082E+01  0.14093956533E+01  0.17134356786E+03  0.17120000000E+03 0.  0.
        998    1    1    2    0    0 -0.19144013254E+01 -0.69135034479E+01  0.14537521597E+04  0.14538042520E+04  0.10000000000E+02 0.  1.
</event>
<event>
 5    1  0.1020718E-008  0.3728042E+03  0.7957747E-01  0.3483102E+00
         13   -1    0    0    0    0  0.00000000000E+00  0.00000000000E+00  0.14999999963E+04  0.15000000000E+04  0.10566000000E+00 0.  1.
        994   -1    0    0    0    0 -0.00000000000E+00 -0.00000000000E+00  0.11368683772E-12  0.17120000000E+03  0.17120000000E+03 0.  0.
         13    1    1    2    0    0  0.73550164490E+02 -0.19795891005E+02  0.27456414097E+03  0.28493329512E+03  0.10566000000E+00 0.  1.
        994    1    1    2    0    0 -0.81239912603E+02  0.43576970224E+02  0.37500991781E+02  0.19802686716E+03  0.17120000000E+03 0.  0.
        998    1    1    2    0    0  0.76897481130E+01 -0.23781079219E+02  0.11879348635E+04  0.11882398377E+04  0.10000000000E+02 0.  1.
</event>
<event>
 5    1  0.1020718E-008  0.3832794E+03  0.7957747E-01  0.3437002E+00
         13   -1    0    0    0    0  0.00000000000E+00  0.00000000000E+00  0.14999999963E+04  0.15000000000E+04  0.10566000000E+00 0. -1.
        994   -1    0    0    0    0 -0.00000000000E+00 -0.00000000000E+00  0.11368683772E-12  0.17120000000E+03  0.17120000000E+03 0.  0.
         13    1    1    2    0    0 -0.16625437351E+02  0.83895126884E+01  0.69941326125E+02  0.72378099964E+02  0.10566000000E+00 0. -1.
        994    1    1    2    0    0  0.10662226455E+02 -0.28220594344E+00  0.28631093348E+01  0.17155582213E+03  0.17120000000E+03 0.  0.
        998    1    1    2    0    0  0.59632108960E+01 -0.81073067450E+01  0.14271955608E+04  0.14272660779E+04  0.10000000000E+02 0. -1.
</event>
<event>
 5    1  0.1020718E-008  0.3834995E+03  0.7957747E-01  0.3436061E+00
         13   -1    0    0    0    0  0.00000000000E+00  0.00000000000E+00  0.14999999963E+04  0.15000000000E+04  0.10566000000E+00 0.  1.
        994   -1    0    0    0    0 -0.00000000000E+00 -0.00000000000E+00  0.11368683772E-12  0.17120000000E+03  0.17120000000E+03 0.  0.
         13    1    1    2    0    0 -0.24159751485E+02  0.86988421336E+01  0.12888975017E+03  0.13142276176E+03  0.10566000000E+00 0.  1.
        994    1    1    2    0    0  0.20751180732E+02 -0.16021388038E+02  0.46515812835E+01  0.17325811261E+03  0.17120000000E+03 0.  0.
        998    1    1    2    0    0  0.34085707525E+01  0.73225459039E+01  0.13664586648E+04  0.13665191256E+04  0.10000000000E+02 0.  1.
</event>
<event>
 5    1  0.1020718E-008  0.3733636E+03  0.7957747E-01  0.3480574E+00
         13   -1    0    0    0    0  0.00000000000E+00  0.00000000000E+00  0.14999999963E+04  0.15000000000E+04  0.10566000000E+00 0.  1.
        994   -1    0    0    0    0 -0.00000000000E+00 -0.00000000000E+00  0.11368683772E-12  0.17120000000E+03  0.17120000000E+03 0.  0.
         13    1    1    2    0    0  0.16663120061E+03  0.18365979299E+02  0.65019798365E+03  0.67146161120E+03  0.10566000000E+00 0.  1.
        994    1    1    2    0    0 -0.19104408841E+03 -0.53626478137E+02  0.15692732480E+03  0.30546565788E+03  0.17120000000E+03 0.  0.
        998    1    1    2    0    0  0.24412887794E+02  0.35260498839E+02  0.69287468783E+03  0.69427273093E+03  0.10000000000E+02 0.  1.
</event>
<event>
 5    1  0.1020718E-008  0.3824763E+03  0.7957747E-01  0.3440446E+00
         13   -1    0    0    0    0  0.00000000000E+00  0.00000000000E+00  0.14999999963E+04  0.15000000000E+04  0.10566000000E+00 0.  1.
        994   -1    0    0    0    0 -0.00000000000E+00 -0.00000000000E+00  0.11368683772E-12  0.17120000000E+03  0.17120000000E+03 0.  0.
         13    1    1    2    0    0 -0.17305564320E+02 -0.44825570810E+02  0.24127528661E+03  0.24601339282E+03  0.10566000000E+00 0.  1.
        994    1    1    2    0    0  0.66257248439E+02  0.67586544625E+02  0.33182145099E+02  0.19841486522E+03  0.17120000000E+03 0.  0.
        998    1    1    2    0    0 -0.48951684119E+02 -0.22760973815E+02  0.12255425646E+04  0.12267717420E+04  0.10000000000E+02 0.  1.
</event>
<event>
 5    1  0.1020718E-008  0.3782849E+03  0.7957747E-01  0.3458661E+00
         13   -1    0    0    0    0  0.00000000000E+00  0.00000000000E+00  0.14999999963E+04  0.15000000000E+04  0.10566000000E+00 0.  1.
        994   -1    0    0    0    0 -0.00000000000E+00 -0.00000000000E+00  0.11368683772E-12  0.17120000000E+03  0.17120000000E+03 0.  0.
         13    1    1    2    0    0  0.13124854564E+02 -0.91684724043E+01  0.22958474506E+02  0.27989737570E+02  0.10566000000E+00 0.  1.
        994    1    1    2    0    0 -0.17283007577E+02  0.10870865272E+02  0.64042412790E+01  0.17253211982E+03  0.17120000000E+03 0.  0.
        998    1    1    2    0    0  0.41581530126E+01 -0.17023928681E+01  0.14706372805E+04  0.14706781426E+04  0.10000000000E+02 0.  1.
</event>
<event>
 5    1  0.1020718E-008  0.3769537E+03  0.7957747E-01  0.3464531E+00
         13   -1    0    0    0    0  0.00000000000E+00  0.00000000000E+00  0.14999999963E+04  0.15000000000E+04  0.10566000000E+00 0.  1.
        994   -1    0    0    0    0 -0.00000000000E+00 -0.00000000000E+00  0.11368683772E-12  0.17120000000E+03  0.17120000000E+03 0.  0.
         13    1    1    2    0    0  0.71880196412E+02  0.77979229623E+01  0.20465057627E+03  0.21704709114E+03  0.10566000000E+00 0.  1.
        994    1    1    2    0    0 -0.12010547766E+02  0.33113057684E+02  0.19123037723E+02  0.17582906022E+03  0.17120000000E+03 0.  0.
        998    1    1    2    0    0 -0.59869648646E+02 -0.40910980646E+02  0.12762263823E+04  0.12783238486E+04  0.10000000000E+02 0.  1.
</event>
<event>
 5    1  0.1020718E-008  0.3822053E+03  0.7957747E-01  0.3441612E+00
         13   -1    0    0    0    0  0.00000000000E+00  0.00000000000E+00  0.14999999963E+04  0.15000000000E+04  0.10566000000E+00 0. -1.
        994   -1    0    0    0    0 -0.00000000000E+00 -0.00000000000E+00  0.11368683772E-12  0.17120000000E+03  0.17120000000E+03 0.  0.
         13    1    1    2    0    0  0.11167520465E+02  0.57754111175E+01  0.26534376960E+02  0.29362445599E+02  0.10566000000E+00 0. -1.
        994    1    1    2    0    0 -0.29952639784E+01  0.26472610614E+02  0.53831266598E+01  0.17334413394E+03  0.17120000000E+03 0.  0.
        998    1    1    2    0    0 -0.81722564862E+01 -0.32248021731E+02  0.14680824927E+04  0.14684934205E+04  0.10000000000E+02 0. -1.
</event>
<event>
 5    1  0.1020718E-008  0.3755119E+03  0.7957747E-01  0.3470936E+00
         13   -1    0    0    0    0  0.00000000000E+00  0.00000000000E+00  0.14999999963E+04  0.15000000000E+04  0.10566000000E+00 0.  1.
        994   -1    0    0    0    0 -0.00000000000E+00 -0.00000000000E+00  0.11368683772E-12  0.17120000000E+03  0.17120000000E+03 0.  0.
         13    1    1    2    0    0 -0.75027826643E+01 -0.25123828128E+02  0.49209037175E+02  0.55758757081E+02  0.10566000000E+00 0.  1.
        994    1    1    2    0    0  0.14812282233E+02  0.25739690577E+02  0.94145921618E+01  0.17401152238E+03  0.17120000000E+03 0.  0.
        998    1    1    2    0    0 -0.73094995691E+01 -0.61586244923E+00  0.14413763669E+04  0.14414297205E+04  0.10000000000E+02 0.  1.
</event>
<event>
 5    1  0.1020718E-008  0.3703248E+03  0.7957747E-01  0.3494399E+00
         13   -1    0    0    0    0  0.00000000000E+00  0.00000000000E+00  0.14999999963E+04  0.15000000000E+04  0.10566000000E+00 0. -1.
        994   -1    0    0    0    0 -0.00000000000E+00 -0.00000000000E+00  0.11368683772E-12  0.17120000000E+03  0.17120000000E+03 0.  0.
         13    1    1    2    0    0 -0.30336337468E+02  0.64286430117E+01  0.65971362991E+02  0.72896177684E+02  0.10566000000E+00 0. -1.
        994    1    1    2    0    0 -0.73009530450E+02  0.61336463571E-01  0.27741359282E+02  0.18817390444E+03  0.17120000000E+03 0.  0.
        998    1    1    2    0    0  0.10334586792E+03 -0.64899794752E+01  0.14062872740E+04  0.14101299179E+04  0.10000000000E+02 0. -1.
</event>
<event>
 5    1  0.1020718E-008  0.3694216E+03  0.7957747E-01  0.3498553E+00
         13   -1    0    0    0    0  0.00000000000E+00  0.00000000000E+00  0.14999999963E+04  0.15000000000E+04  0.10566000000E+00 0.  1.
        994   -1    0    0    0    0 -0.00000000000E+00 -0.00000000000E+00  0.11368683772E-12  0.17120000000E+03  0.17120000000E+03 0.  0.
         13    1    1    2    0    0 -0.90264092688E+02  0.49172173759E+02  0.44636264239E+03  0.45804489822E+03  0.10566000000E+00 0.  1.
        994    1    1    2    0    0  0.62931654585E+02 -0.35345874285E+02  0.29037558012E+02  0.18804878025E+03  0.17120000000E+03 0.  0.
        998    1    1    2    0    0  0.27332438104E+02 -0.13826299474E+02  0.10245997959E+04  0.10251063215E+04  0.10000000000E+02 0.  1.
</event>
<event>
 5    1  0.1020718E-008  0.3843692E+03  0.7957747E-01  0.3432352E+00
         13   -1    0    0    0    0  0.00000000000E+00  0.00000000000E+00  0.14999999963E+04  0.15000000000E+04  0.10566000000E+00 0. -1.
        994   -1    0    0    0    0 -0.00000000000E+00 -0.00000000000E+00  0.11368683772E-12  0.17120000000E+03  0.17120000000E+03 0.  0.
         13    1    1    2    0    0 -0.11806369130E+02  0.20927024089E+01  0.35981486782E+02  0.37926881106E+02  0.10566000000E+00 0. -1.
        994    1    1    2    0    0  0.12123136821E+02  0.78089324953E+00  0.24301379797E+01  0.17164767931E+03  0.17120000000E+03 0.  0.
        998    1    1    2    0    0 -0.31676769102E+00 -0.28735956585E+01  0.14615883715E+04  0.14616254396E+04  0.10000000000E+02 0. -1.
</event>
<event>
 5    1  0.1020718E-008  0.3815579E+03  0.7957747E-01  0.3444403E+00
         13   -1    0    0    0    0  0.00000000000E+00  0.00000000000E+00  0.14999999963E+04  0.15000000000E+04  0.10566000000E+00 0. -1.
        994   -1    0    0    0    0 -0.00000000000E+00 -0.00000000000E+00  0.11368683772E-12  0.17120000000E+03  0.17120000000E+03 0.  0.
         13    1    1    2    0    0  0.13379262892E+02 -0.87624935406E+01  0.38107371368E+02  0.41327580200E+02  0.10566000000E+00 0. -1.
        994    1    1    2    0    0  0.50359055966E+00  0.51301788206E+01  0.34371549761E+01  0.17131207305E+03  0.17120000000E+03 0.  0.
        998    1    1    2    0    0 -0.13882853452E+02  0.36323147200E+01  0.14584554699E+04  0.14585603468E+04  0.10000000000E+02 0. -1.
</event>
<event>
 5    1  0.1020718E-008  0.3720603E+03  0.7957747E-01  0.3486476E+00
         13   -1    0    0    0    0  0.00000000000E+00  0.00000000000E+00  0.14999999963E+04  0.15000000000E+04  0.10566000000E+00 0. -1.
        994   -1    0    0    0    0 -0.00000000000E+00 -0.00000000000E+00  0.11368683772E-12  0.17120000000E+03  0.17120000000E+03 0.  0.
         13    1    1    2    0    0  0.13385855005E+02  0.52101692840E+02  0.15208347531E+03  0.16131696172E+03  0.10566000000E+00 0. -1.
        994    1    1    2    0    0 -0.59853386517E+01 -0.60695597094E+02  0.21077190253E+02  0.18295755719E+03  0.17120000000E+03 0.  0.
        998    1    1    2    0    0 -0.74005163530E+01  0.85939042542E+01  0.13268393307E+04  0.13269254811E+04  0.10000000000E+02 0. -1.
</event>
<event>
 5    1  0.1020718E-008  0.3776033E+03  0.7957747E-01  0.3461661E+00
         13   -1    0    0    0    0  0.00000000000E+00  0.00000000000E+00  0.14999999963E+04  0.15000000000E+04  0.10566000000E+00 0.  1.
        994   -1    0    0    0    0 -0.00000000000E+00 -0.00000000000E+00  0.11368683772E-12  0.17120000000E+03  0.17120000000E+03 0.  0.
         13    1    1    2    0    0  0.18639596311E+03  0.13692742236E+02  0.99268497772E+03  0.10101259438E+04  0.10566000000E+00 0.  1.
        994    1    1    2    0    0 -0.18132752941E+03 -0.99126793179E+01  0.12600291345E+03  0.27957844754E+03  0.17120000000E+03 0.  0.
        998    1    1    2    0    0 -0.50684337039E+01 -0.37800629182E+01  0.38131210511E+03  0.38149560862E+03  0.10000000000E+02 0.  0.
</event>
<event>
 5    1  0.1020718E-008  0.3839583E+03  0.7957747E-01  0.3434102E+00
         13   -1    0    0    0    0  0.00000000000E+00  0.00000000000E+00  0.14999999963E+04  0.15000000000E+04  0.10566000000E+00 0.  1.
        994   -1    0    0    0    0 -0.00000000000E+00 -0.00000000000E+00  0.11368683772E-12  0.17120000000E+03  0.17120000000E+03 0.  0.
         13    1    1    2    0    0  0.15388557158E+02  0.11055495831E+01  0.60729934534E+02  0.62659125783E+02  0.10566000000E+00 0.  1.
        994    1    1    2    0    0  0.91893668847E+01 -0.20124933205E+02  0.37649963288E+01  0.17266462463E+03  0.17120000000E+03 0.  0.
        998    1    1    2    0    0 -0.24577924042E+02  0.19019383622E+02  0.14355050654E+04  0.14358762496E+04  0.10000000000E+02 0.  1.
</event>
<event>
 5    1  0.2973458E-008  0.3864845E+03  0.7957747E-01  0.3423401E+00
         13   -1    0    0    0    0  0.00000000000E+00  0.00000000000E+00  0.14999999963E+04  0.15000000000E+04  0.10566000000E+00 0.  1.
        994   -1    0    0    0    0 -0.00000000000E+00 -0.00000000000E+00  0.11368683772E-12  0.17120000000E+03  0.17120000000E+03 0.  0.
         13    1    1    2    0    0 -0.21643764776E+01  0.10036215171E+02  0.60559741897E+02  0.61423966358E+02  0.10566000000E+00 0.  1.
        994    1    1    2    0    0  0.34336528790E+01 -0.55046561703E+01  0.10326770277E+01  0.17132599812E+03  0.17120000000E+03 0.  0.
        998    1    1    2    0    0 -0.12692764013E+01 -0.45315590004E+01  0.14384075774E+04  0.14384500355E+04  0.10000000000E+02 0.  1.
</event>
<event>
 5    1  0.1020718E-008  0.3858950E+03  0.7957747E-01  0.3425885E+00
         13   -1    0    0    0    0  0.00000000000E+00  0.00000000000E+00  0.14999999963E+04  0.15000000000E+04  0.10566000000E+00 0. -1.
        994   -1    0    0    0    0 -0.00000000000E+00 -0.00000000000E+00  0.11368683772E-12  0.17120000000E+03  0.17120000000E+03 0.  0.
         13    1    1    2    0    0 -0.87422654104E+01 -0.72658132786E+01  0.50749410435E+02  0.52007048278E+02  0.10566000000E+00 0. -1.
        994    1    1    2    0    0 -0.33770438487E+01  0.37450144914E+02  0.58366477077E+01  0.17537794683E+03  0.17120000000E+03 0.  0.
        998    1    1    2    0    0  0.12119309259E+02 -0.30184331635E+02  0.14434139381E+04  0.14438150049E+04  0.10000000000E+02 0. -1.
</event>
<event>
 5    1  0.1020718E-008  0.3824518E+03  0.7957747E-01  0.3440552E+00
         13   -1    0    0    0    0  0.00000000000E+00  0.00000000000E+00  0.14999999963E+04  0.15000000000E+04  0.10566000000E+00 0. -1.
        994   -1    0    0    0    0 -0.00000000000E+00 -0.00000000000E+00  0.11368683772E-12  0.17120000000E+03  0.17120000000E+03 0.  0.
         13    1    1    2    0    0  0.18300397874E+02 -0.16612479205E+02  0.94975938316E+02  0.98139283932E+02  0.10566000000E+00 0. -1.
        994    1    1    2    0    0 -0.19726363022E+02  0.25336843865E+02  0.63272212953E+01  0.17430019732E+03  0.17120000000E+03 0.  0.
        998    1    1    2    0    0  0.14259651476E+01 -0.87243646603E+01  0.13986968367E+04  0.13987605188E+04  0.10000000000E+02 0. -1.
</event>
<event>
 5    1  0.1020718E-008  0.3947251E+03  0.7957747E-01  0.3389446E+00
         13   -1    0    0    0    0  0.00000000000E+00  0.00000000000E+00  0.14999999963E+04  0.15000000000E+04  0.10566000000E+00 0.  1.
        994   -1    0    0    0    0 -0.00000000000E+00 -0.00000000000E+00  0.11368683772E-12  0.17120000000E+03  0.17120000000E+03 0.  0.
         13    1    1    2    0    0  0.51387525249E+02  0.32441645077E+02  0.69576903846E+02  0.92380164534E+02  0.10566000000E+00 0.  1.
        994    1    1    2    0    0 -0.36986389822E+02  0.64136427691E+01  0.30081857856E+02  0.17782993566E+03  0.17120000000E+03 0.  0.
        998    1    1    2    0    0 -0.14401135427E+02 -0.38855287847E+02  0.14003412346E+04  0.14009898998E+04  0.10000000000E+02 0.  1.
</event>
<event>
 5    1  0.1020718E-008  0.3906320E+03  0.7957747E-01  0.3406132E+00
         13   -1    0    0    0    0  0.00000000000E+00  0.00000000000E+00  0.14999999963E+04  0.15000000000E+04  0.10566000000E+00 0.  1.
        994   -1    0    0    0    0 -0.00000000000E+00 -0.00000000000E+00  0.11368683772E-12  0.17120000000E+03  0.17120000000E+03 0.  0.
         13    1    1    2    0    0 -0.74264169148E+02 -0.29883544187E+02  0.13062219562E+03  0.15320039878E+03  0.10566000000E+00 0.  1.
        994    1    1    2    0    0  0.60601237507E+02  0.32026171272E+02  0.40238238631E+02  0.18875047412E+03  0.17120000000E+03 0.  0.
        998    1    1    2    0    0  0.13662931641E+02 -0.21426270858E+01  0.13291395620E+04  0.13292491271E+04  0.10000000000E+02 0.  1.
</event>
<event>
 5    1  0.1020718E-008  0.3815573E+03  0.7957747E-01  0.3444405E+00
         13   -1    0    0    0    0  0.00000000000E+00  0.00000000000E+00  0.14999999963E+04  0.15000000000E+04  0.10566000000E+00 0. -1.
        994   -1    0    0    0    0 -0.00000000000E+00 -0.00000000000E+00  0.11368683772E-12  0.17120000000E+03  0.17120000000E+03 0.  0.
         13    1    1    2    0    0  0.37508405529E+01  0.23580586910E+02  0.83536083713E+02  0.86881536186E+02  0.10566000000E+00 0. -1.
        994    1    1    2    0    0 -0.51720743135E+01 -0.15337218577E+02  0.42208466173E+01  0.17201522076E+03  0.17120000000E+03 0.  0.
        998    1    1    2    0    0  0.14212337606E+01 -0.82433683334E+01  0.14122430659E+04  0.14123032431E+04  0.10000000000E+02 0. -1.
</event>
<event>
 5    1  0.1020718E-008  0.3977345E+03  0.7957747E-01  0.3377396E+00
         13   -1    0    0    0    0  0.00000000000E+00  0.00000000000E+00  0.14999999963E+04  0.15000000000E+04  0.10566000000E+00 0. -1.
        994   -1    0    0    0    0 -0.00000000000E+00 -0.00000000000E+00  0.11368683772E-12  0.17120000000E+03  0.17120000000E+03 0.  0.
         13    1    1    2    0    0  0.38802229810E+02 -0.93890897129E+02  0.19086295351E+03  0.21621700161E+03  0.10566000000E+00 0. -1.
        994    1    1    2    0    0 -0.29718155549E+02  0.55641656633E+02  0.42034305933E+02  0.18723110211E+03  0.17120000000E+03 0.  0.
        998    1    1    2    0    0 -0.90840742614E+01  0.38249240496E+02  0.12671027368E+04  0.12677518963E+04  0.10000000000E+02 0.  1.
</event>
<event>
 5    1  0.1020718E-008  0.3748267E+03  0.7957747E-01  0.3473998E+00
         13   -1    0    0    0    0  0.00000000000E+00  0.00000000000E+00  0.14999999963E+04  0.15000000000E+04  0.10566000000E+00 0. -1.
        994   -1    0    0    0    0 -0.00000000000E+00 -0.00000000000E+00  0.11368683772E-12  0.17120000000E+03  0.17120000000E+03 0.  0.
         13    1    1    2    0    0 -0.44627805044E+02  0.92794775953E+01  0.17796004992E+03  0.18370503591E+03  0.10566000000E+00 0. -1.
        994    1    1    2    0    0 -0.43030788889E+01 -0.12858364154E+02  0.73933270184E+01  0.17189518696E+03  0.17120000000E+03 0.  0.
        998    1    1    2    0    0  0.48930883933E+02  0.35788865588E+01  0.13146466193E+04  0.13155997771E+04  0.10000000000E+02 0. -1.
</event>
<event>
 5    1  0.1020718E-008  0.4072501E+03  0.7957747E-01  0.3340461E+00
         13   -1    0    0    0    0  0.00000000000E+00  0.00000000000E+00  0.14999999963E+04  0.15000000000E+04  0.10566000000E+00 0. -1.
        994   -1    0    0    0    0 -0.00000000000E+00 -0.00000000000E+00  0.11368683772E-12  0.17120000000E+03  0.17120000000E+03 0.  0.
         13    1    1    2    0    0  0.76101740283E+02 -0.10256326883E+03  0.21945809489E+03  0.25391448475E+03  0.10566000000E+00 0. -1.
        994    1    1    2    0    0 -0.16449146663E+03  0.11950976148E+02  0.15318263574E+03  0.28279785769E+03  0.17120000000E+03 0.  0.
        998    1    1    2    0    0  0.88389726344E+02  0.90612292685E+02  0.11273592656E+04  0.11344876576E+04  0.10000000000E+02 0. -1.
</event>
<event>
 5    1  0.1020718E-008  0.3750510E+03  0.7957747E-01  0.3472995E+00
         13   -1    0    0    0    0  0.00000000000E+00  0.00000000000E+00  0.14999999963E+04  0.15000000000E+04  0.10566000000E+00 0.  1.
        994   -1    0    0    0    0 -0.00000000000E+00 -0.00000000000E+00  0.11368683772E-12  0.17120000000E+03  0.17120000000E+03 0.  0.
         13    1    1    2    0    0  0.10382378568E+03 -0.81918927215E+02  0.67796875724E+03  0.69074723023E+03  0.10566000000E+00 0.  1.
        994    1    1    2    0    0 -0.10512136702E+03  0.79858005152E+02  0.68398963587E+02  0.22675021722E+03  0.17120000000E+03 0.  0.
        998    1    1    2    0    0  0.12975813376E+01  0.20609220634E+01  0.75363227545E+03  0.75370255254E+03  0.10000000000E+02 0.  1.
</event>
<event>
 5    1  0.1020718E-008  0.3809179E+03  0.7957747E-01  0.3447172E+00
         13   -1    0    0    0    0  0.00000000000E+00  0.00000000000E+00  0.14999999963E+04  0.15000000000E+04  0.10566000000E+00 0. -1.
        994   -1    0    0    0    0 -0.00000000000E+00 -0.00000000000E+00  0.11368683772E-12  0.17120000000E+03  0.17120000000E+03 0.  0.
         13    1    1    2    0    0 -0.40113539020E+01 -0.18496493029E+02  0.55827610849E+02  0.58948659965E+02  0.10566000000E+00 0. -1.
        994    1    1    2    0    0  0.21491221463E+02 -0.31253012225E+02  0.84800781363E+01  0.17555618787E+03  0.17120000000E+03 0.  0.
        998    1    1    2    0    0 -0.17479867561E+02  0.49749505254E+02  0.14356923073E+04  0.14366951522E+04  0.10000000000E+02 0. -1.
</event>
<event>
 5    1  0.1020718E-008  0.3778595E+03  0.7957747E-01  0.3460532E+00
         13   -1    0    0    0    0  0.00000000000E+00  0.00000000000E+00  0.14999999963E+04  0.15000000000E+04  0.10566000000E+00 0.  1.
        994   -1    0    0    0    0 -0.00000000000E+00 -0.00000000000E+00  0.11368683772E-12  0.17120000000E+03  0.17120000000E+03 0.  0.
         13    1    1    2    0    0 -0.61528435037E+01  0.35147552534E+02  0.12920147848E+03  0.13403820776E+03  0.10566000000E+00 0.  1.
        994    1    1    2    0    0  0.45133675590E+01 -0.70944662447E+01  0.54556553049E+01  0.17149316637E+03  0.17120000000E+03 0.  0.
        998    1    1    2    0    0  0.16394759446E+01 -0.28053086289E+02  0.13653428625E+04  0.13656686259E+04  0.10000000000E+02 0.  1.
</event>
<event>
 5    1  0.1020718E-008  0.3849134E+03  0.7957747E-01  0.3430039E+00
         13   -1    0    0    0    0  0.00000000000E+00  0.00000000000E+00  0.14999999963E+04  0.15000000000E+04  0.10566000000E+00 0. -1.
        994   -1    0    0    0    0 -0.00000000000E+00 -0.00000000000E+00  0.11368683772E-12  0.17120000000E+03  0.17120000000E+03 0.  0.
         13    1    1    2    0    0 -0.83053158655E+01 -0.11612872308E+02  0.67666950916E+02  0.69156810838E+02  0.10566000000E+00 0. -1.
        994    1    1    2    0    0 -0.27439293968E+01 -0.64502879493E+01  0.18347781081E+01  0.17135326601E+03  0.17120000000E+03 0.  0.
        998    1    1    2    0    0  0.11049245262E+02  0.18063160257E+02  0.14304982673E+04  0.14306899231E+04  0.10000000000E+02 0. -1.
</event>
<event>
 5    1  0.1020718E-008  0.3089432E+03  0.7957747E-01  0.3834171E+00
         13   -1    0    0    0    0  0.00000000000E+00  0.00000000000E+00  0.14999999963E+04  0.15000000000E+04  0.10566000000E+00 0. -1.
        994   -1    0    0    0    0 -0.00000000000E+00 -0.00000000000E+00  0.11368683772E-12  0.17120000000E+03  0.17120000000E+03 0.  0.
         13    1    1    2    0    0 -0.18289212955E+03  0.11389887830E+03  0.58197142135E+03  0.62057492051E+03  0.10566000000E+00 0. -1.
        994    1    1    2    0    0  0.21198419349E+03 -0.12633473566E+03  0.27650150737E+03  0.40824047729E+03  0.17120000000E+03 0.  0.
        998    1    1    2    0    0 -0.29092063938E+02  0.12435857355E+02  0.64152706756E+03  0.64238460220E+03  0.10000000000E+02 0.  1.
</event>
<event>
 5    1  0.1020718E-008  0.3819685E+03  0.7957747E-01  0.3442632E+00
         13   -1    0    0    0    0  0.00000000000E+00  0.00000000000E+00  0.14999999963E+04  0.15000000000E+04  0.10566000000E+00 0. -1.
        994   -1    0    0    0    0 -0.00000000000E+00 -0.00000000000E+00  0.11368683772E-12  0.17120000000E+03  0.17120000000E+03 0.  0.
         13    1    1    2    0    0 -0.11837492171E+02 -0.96802330013E+01  0.36642053258E+02  0.39704966476E+02  0.10566000000E+00 0. -1.
        994    1    1    2    0    0  0.40239881055E+01  0.46390892592E+01  0.32680401889E+01  0.17134127849E+03  0.17120000000E+03 0.  0.
        998    1    1    2    0    0  0.78135040654E+01  0.50411437421E+01  0.14600899028E+04  0.14601537550E+04  0.10000000000E+02 0. -1.
</event>
<event>
 5    1  0.1020718E-008  0.3745975E+03  0.7957747E-01  0.3475025E+00
         13   -1    0    0    0    0  0.00000000000E+00  0.00000000000E+00  0.14999999963E+04  0.15000000000E+04  0.10566000000E+00 0.  1.
        994   -1    0    0    0    0 -0.00000000000E+00 -0.00000000000E+00  0.11368683772E-12  0.17120000000E+03  0.17120000000E+03 0.  0.
         13    1    1    2    0    0  0.91785806103E+01 -0.35887047542E+02  0.10835288101E+03  0.11450975727E+03  0.10566000000E+00 0.  1.
        994    1    1    2    0    0 -0.21461043385E+02 -0.74881653998E+01  0.86461500826E+01  0.17291860778E+03  0.17120000000E+03 0.  0.
        998    1    1    2    0    0  0.12282462774E+02  0.43375212941E+02  0.13830009652E+04  0.13837716350E+04  0.10000000000E+02 0.  1.
</event>
<event>
 5    1  0.1020718E-008  0.3712634E+03  0.7957747E-01  0.3490105E+00
         13   -1    0    0    0    0  0.00000000000E+00  0.00000000000E+00  0.14999999963E+04  0.15000000000E+04  0.10566000000E+00 0.  1.
        994   -1    0    0    0    0 -0.00000000000E+00 -0.00000000000E+00  0.11368683772E-12  0.17120000000E+03  0.17120000000E+03 0.  0.
         13    1    1    2    0    0 -0.24551035732E+02  0.17856608839E+02  0.55230007646E+02  0.63023620519E+02  0.10566000000E+00 0.  1.
        994    1    1    2    0    0 -0.71813300458E+01  0.98420653553E+01  0.91213615969E+01  0.17187517851E+03  0.17120000000E+03 0.  0.
        998    1    1    2    0    0  0.31732365778E+02 -0.27698674194E+02  0.14356486270E+04  0.14363012010E+04  0.10000000000E+02 0.  1.
</event>
<event>
 5    1  0.1020718E-008  0.3821213E+03  0.7957747E-01  0.3441974E+00
         13   -1    0    0    0    0  0.00000000000E+00  0.00000000000E+00  0.14999999963E+04  0.15000000000E+04  0.10566000000E+00 0.  1.
        994   -1    0    0    0    0 -0.00000000000E+00 -0.00000000000E+00  0.11368683772E-12  0.17120000000E+03  0.17120000000E+03 0.  0.
         13    1    1    2    0    0  0.11884961403E+02 -0.39458545234E+02  0.20552440271E+03  0.20961517210E+03  0.10566000000E+00 0.  1.
        994    1    1    2    0    0 -0.17195054726E+02  0.57300062913E+02  0.15039399591E+02  0.18197414832E+03  0.17120000000E+03 0.  0.
        998    1    1    2    0    0  0.53100933223E+01 -0.17841517679E+02  0.12794361940E+04  0.12796106796E+04  0.10000000000E+02 0.  1.
</event>
<event>
 5    1  0.1020718E-008  0.3771429E+03  0.7957747E-01  0.3463694E+00
         13   -1    0    0    0    0  0.00000000000E+00  0.00000000000E+00  0.14999999963E+04  0.15000000000E+04  0.10566000000E+00 0. -1.
        994   -1    0    0    0    0 -0.00000000000E+00 -0.00000000000E+00  0.11368683772E-12  0.17120000000E+03  0.17120000000E+03 0.  0.
         13    1    1    2    0    0  0.43206002523E+02 -0.11932236595E+02  0.15951148988E+03  0.16568966018E+03  0.10566000000E+00 0. -1.
        994    1    1    2    0    0 -0.82659089023E+02 -0.88045359298E+02  0.56501597271E+02  0.21699396486E+03  0.17120000000E+03 0.  0.
        998    1    1    2    0    0  0.39453086500E+02  0.99977595893E+02  0.12839869091E+04  0.12885163750E+04  0.10000000000E+02 0. -1.
</event>
<event>
 5    1  0.1020718E-008  0.3797123E+03  0.7957747E-01  0.3452412E+00
         13   -1    0    0    0    0  0.00000000000E+00  0.00000000000E+00  0.14999999963E+04  0.15000000000E+04  0.10566000000E+00 0. -1.
        994   -1    0    0    0    0 -0.00000000000E+00 -0.00000000000E+00  0.11368683772E-12  0.17120000000E+03  0.17120000000E+03 0.  0.
         13    1    1    2    0    0  0.15202441697E+02  0.25169974511E+02  0.10758705036E+03  0.11153307321E+03  0.10566000000E+00 0. -1.
        994    1    1    2    0    0  0.27590459891E+01 -0.54802126806E+01  0.44044010349E+01  0.17136651894E+03  0.17120000000E+03 0.  0.
        998    1    1    2    0    0 -0.17961487686E+02 -0.19689761830E+02  0.13880085449E+04  0.13883004079E+04  0.10000000000E+02 0. -1.
</event>
<event>
 5    1  0.1020718E-008  0.3385241E+03  0.7957747E-01  0.3654361E+00
         13   -1    0    0    0    0  0.00000000000E+00  0.00000000000E+00  0.14999999963E+04  0.15000000000E+04  0.10566000000E+00 0. -1.
        994   -1    0    0    0    0 -0.00000000000E+00 -0.00000000000E+00  0.11368683772E-12  0.17120000000E+03  0.17120000000E+03 0.  0.
         13    1    1    2    0    0  0.54458038449E+02 -0.22221211113E+03  0.10288674762E+04  0.10539981949E+04  0.10566000000E+00 0. -1.
        994    1    1    2    0    0 -0.12197332898E+02  0.15877579671E+03  0.13001605063E+03  0.26752970297E+03  0.17120000000E+03 0.  0.
        998    1    1    2    0    0 -0.42260705551E+02  0.63436314425E+02  0.34111646948E+03  0.34967210208E+03  0.10000000000E+02 0. -1.
</event>
<event>
 5    1  0.1020718E-008  0.3785198E+03  0.7957747E-01  0.3457629E+00
         13   -1    0    0    0    0  0.00000000000E+00  0.00000000000E+00  0.14999999963E+04  0.15000000000E+04  0.10566000000E+00 0.  1.
        994   -1    0    0    0    0 -0.00000000000E+00 -0.00000000000E+00  0.11368683772E-12  0.17120000000E+03  0.17120000000E+03 0.  0.
         13    1    1    2    0    0 -0.14549877950E+02  0.12065273392E+02  0.33976202557E+02  0.38880114128E+02  0.10566000000E+00 0.  1.
        994    1    1    2    0    0  0.18134439666E+02 -0.80362826062E+01  0.62050176999E+01  0.17245689892E+03  0.17120000000E+03 0.  0.
        998    1    1    2    0    0 -0.35845617165E+01 -0.40289907857E+01  0.14598187760E+04  0.14598629870E+04  0.10000000000E+02 0.  1.
</event>
<event>
 5    1  0.1020718E-008  0.3790547E+03  0.7957747E-01  0.3455285E+00
         13   -1    0    0    0    0  0.00000000000E+00  0.00000000000E+00  0.14999999963E+04  0.15000000000E+04  0.10566000000E+00 0.  1.
        994   -1    0    0    0    0 -0.00000000000E+00 -0.00000000000E+00  0.11368683772E-12  0.17120000000E+03  0.17120000000E+03 0.  0.
         13    1    1    2    0    0  0.16075259302E+02  0.26377445857E+01  0.27155806289E+02  0.31667343390E+02  0.10566000000E+00 0.  1.
        994    1    1    2    0    0 -0.70105438326E+01 -0.55532239143E+01  0.48793441230E+01  0.17150286884E+03  0.17120000000E+03 0.  0.
        998    1    1    2    0    0 -0.90647154690E+01  0.29154793286E+01  0.14679648459E+04  0.14680297878E+04  0.10000000000E+02 0.  1.
</event>
<event>
 5    1  0.1020718E-008  0.3813958E+03  0.7957747E-01  0.3445103E+00
         13   -1    0    0    0    0  0.00000000000E+00  0.00000000000E+00  0.14999999963E+04  0.15000000000E+04  0.10566000000E+00 0. -1.
        994   -1    0    0    0    0 -0.00000000000E+00 -0.00000000000E+00  0.11368683772E-12  0.17120000000E+03  0.17120000000E+03 0.  0.
         13    1    1    2    0    0  0.30190991485E+02 -0.11363812458E+02  0.15281941978E+03  0.15618712631E+03  0.10566000000E+00 0. -1.
        994    1    1    2    0    0 -0.21249184032E+02 -0.77021156250E+01  0.51319275987E+01  0.17276176396E+03  0.17120000000E+03 0.  0.
        998    1    1    2    0    0 -0.89418074530E+01  0.19065928083E+02  0.13420486489E+04  0.13422511097E+04  0.10000000000E+02 0. -1.
</event>
<event>
 5    1  0.1020718E-008  0.3850591E+03  0.7957747E-01  0.3429422E+00
         13   -1    0    0    0    0  0.00000000000E+00  0.00000000000E+00  0.14999999963E+04  0.15000000000E+04  0.10566000000E+00 0. -1.
        994   -1    0    0    0    0 -0.00000000000E+00 -0.00000000000E+00  0.11368683772E-12  0.17120000000E+03  0.17120000000E+03 0.  0.
         13    1    1    2    0    0  0.70753008849E+01 -0.11095479540E+02  0.57479003003E+02  0.58966231854E+02  0.10566000000E+00 0. -1.
        994    1    1    2    0    0  0.74666779798E+01  0.33815233920E+01  0.18217571781E+01  0.17140578981E+03  0.17120000000E+03 0.  0.
        998    1    1    2    0    0 -0.14541978865E+02  0.77139561479E+01  0.14406992361E+04  0.14408279783E+04  0.10000000000E+02 0. -1.
</event>
<event>
 5    1  0.1078393E-008  0.3860133E+03  0.7957747E-01  0.3425386E+00
         13   -1    0    0    0    0  0.00000000000E+00  0.00000000000E+00  0.14999999963E+04  0.15000000000E+04  0.10566000000E+00 0.  1.
        994   -1    0    0    0    0 -0.00000000000E+00 -0.00000000000E+00  0.11368683772E-12  0.17120000000E+03  0.17120000000E+03 0.  0.
         13    1    1    2    0    0  0.93191790052E+01 -0.37928481744E+01  0.45042382503E+02  0.46152575012E+02  0.10566000000E+00 0.  1.
        994    1    1    2    0    0 -0.74287910652E+01  0.31128106009E+01  0.13405875497E+01  0.17139461398E+03  0.17120000000E+03 0.  0.
        998    1    1    2    0    0 -0.18903879401E+01  0.68003757353E+00  0.14536170262E+04  0.14536528110E+04  0.10000000000E+02 0.  0.
</event>
<event>
 5    1  0.1020718E-008  0.3824706E+03  0.7957747E-01  0.3440471E+00
         13   -1    0    0    0    0  0.00000000000E+00  0.00000000000E+00  0.14999999963E+04  0.15000000000E+04  0.10566000000E+00 0. -1.
        994   -1    0    0    0    0 -0.00000000000E+00 -0.00000000000E+00  0.11368683772E-12  0.17120000000E+03  0.17120000000E+03 0.  0.
         13    1    1    2    0    0 -0.96615614150E+00  0.14097472229E+02  0.33103870063E+02  0.35993743319E+02  0.10566000000E+00 0. -1.
        994    1    1    2    0    0  0.64646312731E+00 -0.13015681218E+02  0.34544887382E+01  0.17173001882E+03  0.17120000000E+03 0.  0.
        998    1    1    2    0    0  0.31969301420E+00 -0.10817910106E+01  0.14634416375E+04  0.14634762379E+04  0.10000000000E+02 0. -1.
</event>
<event>
 5    1  0.1020718E-008  0.3860154E+03  0.7957747E-01  0.3425377E+00
         13   -1    0    0    0    0  0.00000000000E+00  0.00000000000E+00  0.14999999963E+04  0.15000000000E+04  0.10566000000E+00 0. -1.
        994   -1    0    0    0    0 -0.00000000000E+00 -0.00000000000E+00  0.11368683772E-12  0.17120000000E+03  0.17120000000E+03 0.  0.
         13    1    1    2    0    0  0.90975378346E+01 -0.72892580354E+01  0.61416518417E+02  0.62513185616E+02  0.10566000000E+00 0. -1.
        994    1    1    2    0    0 -0.82904374747E+01  0.78196901411E+00  0.13541592644E+01  0.17140774946E+03  0.17120000000E+03 0.  0.
        998    1    1    2    0    0 -0.80710035991E+00  0.65072890213E+01  0.14372293186E+04  0.14372790649E+04  0.10000000000E+02 0. -1.
</event>
<event>
 5    1  0.1678231E-008  0.3864847E+03  0.7957747E-01  0.3423400E+00
         13   -1    0    0    0    0  0.00000000000E+00  0.00000000000E+00  0.14999999963E+04  0.15000000000E+04  0.10566000000E+00 0. -1.
        994   -1    0    0    0    0 -0.00000000000E+00 -0.00000000000E+00  0.11368683772E-12  0.17120000000E+03  0.17120000000E+03 0.  0.
         13    1    1    2    0    0  0.76729480301E+01 -0.66380506210E+01  0.59187516967E+02  0.60050904875E+02  0.10566000000E+00 0. -1.
        994    1    1    2    0    0  0.68279948472E+00  0.10037670434E+02  0.12261291993E+01  0.17149975054E+03  0.17120000000E+03 0.  0.
        998    1    1    2    0    0 -0.83557475149E+01 -0.33996198133E+01  0.14395863501E+04  0.14396493446E+04  0.10000000000E+02 0. -1.
</event>
<event>
 5    1  0.1020718E-008  0.3812405E+03  0.7957747E-01  0.3445775E+00
         13   -1    0    0    0    0  0.00000000000E+00  0.00000000000E+00  0.14999999963E+04  0.15000000000E+04  0.10566000000E+00 0.  1.
        994   -1    0    0    0    0 -0.00000000000E+00 -0.00000000000E+00  0.11368683772E-12  0.17120000000E+03  0.17120000000E+03 0.  0.
         13    1    1    2    0    0 -0.53445009614E+01 -0.11582332467E+02  0.21183170254E+02  0.24727555114E+02  0.10566000000E+00 0.  1.
        994    1    1    2    0    0 -0.33289018941E+01  0.21914753340E+02  0.51457469141E+01  0.17270569392E+03  0.17120000000E+03 0.  0.
        998    1    1    2    0    0  0.86734028554E+01 -0.10332420874E+02  0.14736710791E+04  0.14737667510E+04  0.10000000000E+02 0.  1.
</event>
<event>
 5    1  0.1020718E-008  0.4187769E+03  0.7957747E-01  0.3297945E+00
         13   -1    0    0    0    0  0.00000000000E+00  0.00000000000E+00  0.14999999963E+04  0.15000000000E+04  0.10566000000E+00 0.  1.
        994   -1    0    0    0    0 -0.00000000000E+00 -0.00000000000E+00  0.11368683772E-12  0.17120000000E+03  0.17120000000E+03 0.  0.
         13    1    1    2    0    0 -0.22344525834E+02  0.49549916626E+02  0.22873601401E+02  0.58971899049E+02  0.10566000000E+00 0.  1.
        994    1    1    2    0    0  0.36280737150E+02 -0.38388559806E+02  0.51449081901E+02  0.18640392013E+03  0.17120000000E+03 0.  0.
        998    1    1    2    0    0 -0.13936211316E+02 -0.11161356820E+02  0.14256773130E+04  0.14258241808E+04  0.10000000000E+02 0.  1.
</event>
<event>
 5    1  0.1020718E-008  0.3849896E+03  0.7957747E-01  0.3429716E+00
         13   -1    0    0    0    0  0.00000000000E+00  0.00000000000E+00  0.14999999963E+04  0.15000000000E+04  0.10566000000E+00 0. -1.
        994   -1    0    0    0    0 -0.00000000000E+00 -0.00000000000E+00  0.11368683772E-12  0.17120000000E+03  0.17120000000E+03 0.  0.
         13    1    1    2    0    0  0.48346827996E+01 -0.13384911262E+02  0.67780148063E+02  0.69258137736E+02  0.10566000000E+00 0. -1.
        994    1    1    2    0    0  0.75883800932E+01 -0.18555269407E+01  0.18360450261E+01  0.17138797377E+03  0.17120000000E+03 0.  0.
        998    1    1    2    0    0 -0.12423062893E+02  0.15240438203E+02  0.14303838032E+04  0.14305538885E+04  0.10000000000E+02 0. -1.
</event>
<event>
 5    1  0.1020718E-008  0.3710827E+03  0.7957747E-01  0.3490930E+00
         13   -1    0    0    0    0  0.00000000000E+00  0.00000000000E+00  0.14999999963E+04  0.15000000000E+04  0.10566000000E+00 0.  1.
        994   -1    0    0    0    0 -0.00000000000E+00 -0.00000000000E+00  0.11368683772E-12  0.17120000000E+03  0.17120000000E+03 0.  0.
         13    1    1    2    0    0 -0.66415304459E+02 -0.77535596332E+02  0.51582937125E+03  0.52583525250E+03  0.10566000000E+00 0.  1.
        994    1    1    2    0    0 -0.27603728162E+01  0.64528944552E+02  0.26299202596E+02  0.18485857405E+03  0.17120000000E+03 0.  0.
        998    1    1    2    0    0  0.69175677275E+02  0.13006651780E+02  0.95787142244E+03  0.96050617345E+03  0.10000000000E+02 0.  1.
</event>
<event>
 5    1  0.1020718E-008  0.3167068E+03  0.7957747E-01  0.3783524E+00
         13   -1    0    0    0    0  0.00000000000E+00  0.00000000000E+00  0.14999999963E+04  0.15000000000E+04  0.10566000000E+00 0. -1.
        994   -1    0    0    0    0 -0.00000000000E+00 -0.00000000000E+00  0.11368683772E-12  0.17120000000E+03  0.17120000000E+03 0.  0.
         13    1    1    2    0    0  0.35164921367E+02 -0.18821055072E+03  0.78274089869E+03  0.80581828519E+03  0.10566000000E+00 0. -1.
        994    1    1    2    0    0 -0.30684638936E+02  0.17142325043E+03  0.12788270247E+03  0.27566447621E+03  0.17120000000E+03 0.  0.
        998    1    1    2    0    0 -0.44802824317E+01  0.16787300298E+02  0.58937639512E+03  0.58971723860E+03  0.10000000000E+02 0. -1.
</event>
<event>
 5    1  0.1020718E-008  0.3839544E+03  0.7957747E-01  0.3434119E+00
         13   -1    0    0    0    0  0.00000000000E+00  0.00000000000E+00  0.14999999963E+04  0.15000000000E+04  0.10566000000E+00 0. -1.
        994   -1    0    0    0    0 -0.00000000000E+00 -0.00000000000E+00  0.11368683772E-12  0.17120000000E+03  0.17120000000E+03 0.  0.
         13    1    1    2    0    0 -0.22550260364E+01 -0.16792934786E+02  0.72286839249E+02  0.74246118376E+02  0.10566000000E+00 0. -1.
        994    1    1    2    0    0  0.12710020165E+02 -0.50310097618E+01  0.27669666452E+01  0.17176714405E+03  0.17120000000E+03 0.  0.
        998    1    1    2    0    0 -0.10454994129E+02  0.21823944548E+02  0.14249461904E+04  0.14251867376E+04  0.10000000000E+02 0. -1.
</event>
<event>
 5    1  0.1020718E-008  0.4495297E+03  0.7957747E-01  0.3194967E+00
         13   -1    0    0    0    0  0.00000000000E+00  0.00000000000E+00  0.14999999963E+04  0.15000000000E+04  0.10566000000E+00 0.  1.
        994   -1    0    0    0    0 -0.00000000000E+00 -0.00000000000E+00  0.11368683772E-12  0.17120000000E+03  0.17120000000E+03 0.  0.
         13    1    1    2    0    0 -0.56667473557E+02 -0.10996270614E+02  0.60750541178E+01  0.58043414556E+02  0.10566000000E+00 0.  1.
        994    1    1    2    0    0  0.44202475173E+02  0.23139838817E+02  0.73962548531E+02  0.19305234921E+03  0.17120000000E+03 0.  0.
        998    1    1    2    0    0  0.12464998385E+02 -0.12143568203E+02  0.14199623936E+04  0.14201042362E+04  0.10000000000E+02 0.  1.
</event>
<event>
 5    1  0.1020718E-008  0.3831821E+03  0.7957747E-01  0.3437419E+00
         13   -1    0    0    0    0  0.00000000000E+00  0.00000000000E+00  0.14999999963E+04  0.15000000000E+04  0.10566000000E+00 0. -1.
        994   -1    0    0    0    0 -0.00000000000E+00 -0.00000000000E+00  0.11368683772E-12  0.17120000000E+03  0.17120000000E+03 0.  0.
         13    1    1    2    0    0 -0.24268213324E+02  0.15335833950E+01  0.11013332520E+03  0.11278589690E+03  0.10566000000E+00 0. -1.
        994    1    1    2    0    0  0.22564750765E+02 -0.11216595053E+01  0.42257526185E+01  0.17273599243E+03  0.17120000000E+03 0.  0.
        998    1    1    2    0    0  0.17034625592E+01 -0.41192388972E+00  0.13856409185E+04  0.13856781107E+04  0.10000000000E+02 0.  0.
</event>
<event>
 5    1  0.1020718E-008  0.3752819E+03  0.7957747E-01  0.3471963E+00
         13   -1    0    0    0    0  0.00000000000E+00  0.00000000000E+00  0.14999999963E+04  0.15000000000E+04  0.10566000000E+00 0.  1.
        994   -1    0    0    0    0 -0.00000000000E+00 -0.00000000000E+00  0.11368683772E-12  0.17120000000E+03  0.17120000000E+03 0.  0.
         13    1    1    2    0    0  0.31552433762E+02  0.68219185488E+02  0.21214925363E+03  0.22507050079E+03  0.10566000000E+00 0.  1.
        994    1    1    2    0    0 -0.37606819223E+02 -0.20372023355E+02  0.20303796575E+02  0.17762594502E+03  0.17120000000E+03 0.  0.
        998    1    1    2    0    0  0.60543854611E+01 -0.47847162133E+02  0.12675469461E+04  0.12685035542E+04  0.10000000000E+02 0.  1.
</event>
<event>
 5    1  0.1020718E-008  0.3819058E+03  0.7957747E-01  0.3442902E+00
         13   -1    0    0    0    0  0.00000000000E+00  0.00000000000E+00  0.14999999963E+04  0.15000000000E+04  0.10566000000E+00 0.  1.
        994   -1    0    0    0    0 -0.00000000000E+00 -0.00000000000E+00  0.11368683772E-12  0.17120000000E+03  0.17120000000E+03 0.  0.
         13    1    1    2    0    0 -0.16091415314E+02  0.21551204881E+01  0.40239961678E+02  0.43391748882E+02  0.10566000000E+00 0.  1.
        994    1    1    2    0    0  0.11983149740E+02  0.10215086035E+00  0.36514042757E+01  0.17165773815E+03  0.17120000000E+03 0.  0.
        998    1    1    2    0    0  0.41082655742E+01 -0.22572713485E+01  0.14561086303E+04  0.14561505130E+04  0.10000000000E+02 0.  1.
</event>
<event>
 5    1  0.1020718E-008  0.3732375E+03  0.7957747E-01  0.3481143E+00
         13   -1    0    0    0    0  0.00000000000E+00  0.00000000000E+00  0.14999999963E+04  0.15000000000E+04  0.10566000000E+00 0.  1.
        994   -1    0    0    0    0 -0.00000000000E+00 -0.00000000000E+00  0.11368683772E-12  0.17120000000E+03  0.17120000000E+03 0.  0.
         13    1    1    2    0    0  0.59010902171E+01 -0.14464131572E+03  0.69165237355E+03  0.70663919370E+03  0.10566000000E+00 0.  1.
        994    1    1    2    0    0  0.10342471661E+02  0.14520280738E+03  0.83918437922E+02  0.23988031644E+03  0.17120000000E+03 0.  0.
        998    1    1    2    0    0 -0.16243561878E+02 -0.56149166417E+00  0.72442918481E+03  0.72468048986E+03  0.10000000000E+02 0. -1.
</event>
<event>
 5    1  0.1020718E-008  0.3752734E+03  0.7957747E-01  0.3472001E+00
         13   -1    0    0    0    0  0.00000000000E+00  0.00000000000E+00  0.14999999963E+04  0.15000000000E+04  0.10566000000E+00 0.  1.
        994   -1    0    0    0    0 -0.00000000000E+00 -0.00000000000E+00  0.11368683772E-12  0.17120000000E+03  0.17120000000E+03 0.  0.
         13    1    1    2    0    0 -0.11185395004E+03 -0.21488543069E+02  0.61309912990E+03  0.62358930224E+03  0.10566000000E+00 0.  1.
        994    1    1    2    0    0  0.10892374298E+03  0.72201444743E+01  0.48148870748E+02  0.20867262884E+03  0.17120000000E+03 0.  0.
        998    1    1    2    0    0  0.29302070568E+01  0.14268398594E+02  0.83875199563E+03  0.83893806892E+03  0.10000000000E+02 0.  1.
</event>
<event>
 5    1  0.1020718E-008  0.3748392E+03  0.7957747E-01  0.3473942E+00
         13   -1    0    0    0    0  0.00000000000E+00  0.00000000000E+00  0.14999999963E+04  0.15000000000E+04  0.10566000000E+00 0. -1.
        994   -1    0    0    0    0 -0.00000000000E+00 -0.00000000000E+00  0.11368683772E-12  0.17120000000E+03  0.17120000000E+03 0.  0.
         13    1    1    2    0    0  0.73855951424E+02 -0.11212730193E+02  0.17160208844E+03  0.18715692560E+03  0.10566000000E+00 0. -1.
        994    1    1    2    0    0 -0.91288131075E+02 -0.35943448369E+02  0.48596394680E+02  0.20321541263E+03  0.17120000000E+03 0.  0.
        998    1    1    2    0    0  0.17432179651E+02  0.47156178562E+02  0.12798015132E+04  0.12808276618E+04  0.10000000000E+02 0. -1.
</event>
<event>
 5    1  0.1020718E-008  0.3833645E+03  0.7957747E-01  0.3436638E+00
         13   -1    0    0    0    0  0.00000000000E+00  0.00000000000E+00  0.14999999963E+04  0.15000000000E+04  0.10566000000E+00 0.  1.
        994   -1    0    0    0    0 -0.00000000000E+00 -0.00000000000E+00  0.11368683772E-12  0.17120000000E+03  0.17120000000E+03 0.  0.
         13    1    1    2    0    0  0.10236144758E+03  0.51115165563E+02  0.34436227632E+03  0.36287189836E+03  0.10566000000E+00 0.  1.
        994    1    1    2    0    0 -0.61395673091E+02 -0.42199842346E+02  0.38847036516E+02  0.19070602406E+03  0.17120000000E+03 0.  0.
        998    1    1    2    0    0 -0.40965774489E+02 -0.89153232171E+01  0.11167906834E+04  0.11176220776E+04  0.10000000000E+02 0.  1.
</event>
<event>
 5    1  0.1020718E-008  0.3724351E+03  0.7957747E-01  0.3484774E+00
         13   -1    0    0    0    0  0.00000000000E+00  0.00000000000E+00  0.14999999963E+04  0.15000000000E+04  0.10566000000E+00 0.  1.
        994   -1    0    0    0    0 -0.00000000000E+00 -0.00000000000E+00  0.11368683772E-12  0.17120000000E+03  0.17120000000E+03 0.  0.
         13    1    1    2    0    0 -0.68961663761E+02 -0.93674843226E+02  0.37211088085E+03  0.38986819072E+03  0.10566000000E+00 0.  1.
        994    1    1    2    0    0  0.71400636274E+02  0.10503913438E+03  0.71512361693E+02  0.22484378686E+03  0.17120000000E+03 0.  0.
        998    1    1    2    0    0 -0.24389725135E+01 -0.11364291158E+02  0.10563767537E+04  0.10564880224E+04  0.10000000000E+02 0.  1.
</event>
<event>
 5    1  0.1020718E-008  0.3758742E+03  0.7957747E-01  0.3469322E+00
         13   -1    0    0    0    0  0.00000000000E+00  0.00000000000E+00  0.14999999963E+04  0.15000000000E+04  0.10566000000E+00 0. -1.
        994   -1    0    0    0    0 -0.00000000000E+00 -0.00000000000E+00  0.11368683772E-12  0.17120000000E+03  0.17120000000E+03 0.  0.
         13    1    1    2    0    0 -0.10940407227E+03 -0.43003890421E+02  0.69231549974E+03  0.70222457089E+03  0.10566000000E+00 0. -1.
        994    1    1    2    0    0  0.10763040849E+03  0.18445421192E+02  0.47780901584E+02  0.20860726965E+03  0.17120000000E+03 0.  0.
        998    1    1    2    0    0  0.17736637771E+01  0.24558469229E+02  0.75990359495E+03  0.76036815946E+03  0.10000000000E+02 0. -1.
</event>
<event>
 5    1  0.1020718E-008  0.3772110E+03  0.7957747E-01  0.3463393E+00
         13   -1    0    0    0    0  0.00000000000E+00  0.00000000000E+00  0.14999999963E+04  0.15000000000E+04  0.10566000000E+00 0.  1.
        994   -1    0    0    0    0 -0.00000000000E+00 -0.00000000000E+00  0.11368683772E-12  0.17120000000E+03  0.17120000000E+03 0.  0.
         13    1    1    2    0    0  0.94603080697E+02 -0.17427180613E+03  0.99483566932E+03  0.10144054541E+04  0.10566000000E+00 0.  1.
        994    1    1    2    0    0 -0.11742381713E+03  0.16123254155E+03  0.15428688813E+03  0.30479200963E+03  0.17120000000E+03 0.  0.
        998    1    1    2    0    0  0.22820736429E+02  0.13039264583E+02  0.35087743882E+03  0.35200253622E+03  0.10000000000E+02 0.  1.
</event>
<event>
 5    1  0.1020718E-008  0.3718986E+03  0.7957747E-01  0.3487211E+00
         13   -1    0    0    0    0  0.00000000000E+00  0.00000000000E+00  0.14999999963E+04  0.15000000000E+04  0.10566000000E+00 0.  1.
        994   -1    0    0    0    0 -0.00000000000E+00 -0.00000000000E+00  0.11368683772E-12  0.17120000000E+03  0.17120000000E+03 0.  0.
         13    1    1    2    0    0  0.58163934535E+02 -0.28315892061E+02  0.17597951850E+03  0.18749302686E+03  0.10566000000E+00 0.  1.
        994    1    1    2    0    0 -0.24195583353E+02  0.26427282167E+02  0.16478035334E+02  0.17568378737E+03  0.17120000000E+03 0.  0.
        998    1    1    2    0    0 -0.33968351181E+02  0.18886098939E+01  0.13075424424E+04  0.13080231858E+04  0.10000000000E+02 0.  1.
</event>
<event>
 5    1  0.1020718E-008  0.3837616E+03  0.7957747E-01  0.3434941E+00
         13   -1    0    0    0    0  0.00000000000E+00  0.00000000000E+00  0.14999999963E+04  0.15000000000E+04  0.10566000000E+00 0.  1.
        994   -1    0    0    0    0 -0.00000000000E+00 -0.00000000000E+00  0.11368683772E-12  0.17120000000E+03  0.17120000000E+03 0.  0.
         13    1    1    2    0    0  0.83612475170E+01  0.20147925726E+02  0.10687797604E+03  0.10908144800E+03  0.10566000000E+00 0.  1.
        994    1    1    2    0    0 -0.39812498971E+01 -0.10901161690E+02  0.26910794400E+01  0.17161400754E+03  0.17120000000E+03 0.  0.
        998    1    1    2    0    0 -0.43799976198E+01 -0.92467640362E+01  0.13904309408E+04  0.13905045445E+04  0.10000000000E+02 0.  1.
</event>
<event>
 5    1  0.1020718E-008  0.3773918E+03  0.7957747E-01  0.3462594E+00
         13   -1    0    0    0    0  0.00000000000E+00  0.00000000000E+00  0.14999999963E+04  0.15000000000E+04  0.10566000000E+00 0. -1.
        994   -1    0    0    0    0 -0.00000000000E+00 -0.00000000000E+00  0.11368683772E-12  0.17120000000E+03  0.17120000000E+03 0.  0.
         13    1    1    2    0    0 -0.56843944225E+01 -0.64809401835E+02  0.39046217477E+03  0.39584503533E+03  0.10566000000E+00 0. -1.
        994    1    1    2    0    0  0.64353169249E+01  0.35489554399E+02  0.98548571072E+01  0.17523549864E+03  0.17120000000E+03 0.  0.
        998    1    1    2    0    0 -0.75092250241E+00  0.29319847436E+02  0.10996829644E+04  0.11001194660E+04  0.10000000000E+02 0. -1.
</event>
<event>
 5    1  0.1020718E-008  0.3699865E+03  0.7957747E-01  0.3495953E+00
         13   -1    0    0    0    0  0.00000000000E+00  0.00000000000E+00  0.14999999963E+04  0.15000000000E+04  0.10566000000E+00 0.  1.
        994   -1    0    0    0    0 -0.00000000000E+00 -0.00000000000E+00  0.11368683772E-12  0.17120000000E+03  0.17120000000E+03 0.  0.
         13    1    1    2    0    0  0.20463416015E+02 -0.73264242250E+02  0.22148524719E+03  0.23418395862E+03  0.10566000000E+00 0.  1.
        994    1    1    2    0    0 -0.13723216870E+02  0.76189092804E+02  0.32187246240E+02  0.19062676455E+03  0.17120000000E+03 0.  0.
        998    1    1    2    0    0 -0.67401991449E+01 -0.29248505532E+01  0.12463275029E+04  0.12463892768E+04  0.10000000000E+02 0.  1.
</event>
<event>
 5    1  0.1020718E-008  0.3779723E+03  0.7957747E-01  0.3460035E+00
         13   -1    0    0    0    0  0.00000000000E+00  0.00000000000E+00  0.14999999963E+04  0.15000000000E+04  0.10566000000E+00 0.  1.
        994   -1    0    0    0    0 -0.00000000000E+00 -0.00000000000E+00  0.11368683772E-12  0.17120000000E+03  0.17120000000E+03 0.  0.
         13    1    1    2    0    0 -0.12158398649E+03  0.19402986941E+02  0.65667675583E+03  0.66811938640E+03  0.10566000000E+00 0.  1.
        994    1    1    2    0    0  0.13532780024E+03 -0.87616811996E+01  0.69782828118E+02  0.22928031681E+03  0.17120000000E+03 0.  0.
        998    1    1    2    0    0 -0.13743813756E+02 -0.10641305741E+02  0.77354041233E+03  0.77380029679E+03  0.10000000000E+02 0. -1.
</event>
<event>
 5    1  0.1020718E-008  0.3825980E+03  0.7957747E-01  0.3439924E+00
         13   -1    0    0    0    0  0.00000000000E+00  0.00000000000E+00  0.14999999963E+04  0.15000000000E+04  0.10566000000E+00 0.  1.
        994   -1    0    0    0    0 -0.00000000000E+00 -0.00000000000E+00  0.11368683772E-12  0.17120000000E+03  0.17120000000E+03 0.  0.
         13    1    1    2    0    0 -0.15858528811E+02 -0.23795790230E+02  0.13286181006E+03  0.13590439399E+03  0.10566000000E+00 0.  1.
        994    1    1    2    0    0  0.19940694110E+02  0.20937076358E+02  0.56032139441E+01  0.17371479055E+03  0.17120000000E+03 0.  0.
        998    1    1    2    0    0 -0.40821652987E+01  0.28587138724E+01  0.13615349723E+04  0.13615808155E+04  0.10000000000E+02 0.  1.
</event>
<event>
 5    1  0.1020718E-008  0.3790822E+03  0.7957747E-01  0.3455165E+00
         13   -1    0    0    0    0  0.00000000000E+00  0.00000000000E+00  0.14999999963E+04  0.15000000000E+04  0.10566000000E+00 0. -1.
        994   -1    0    0    0    0 -0.00000000000E+00 -0.00000000000E+00  0.11368683772E-12  0.17120000000E+03  0.17120000000E+03 0.  0.
         13    1    1    2    0    0  0.18261714489E+02  0.13288817575E+02  0.51820549632E+02  0.56528430164E+02  0.10566000000E+00 0. -1.
        994    1    1    2    0    0 -0.24727375228E+02 -0.78867140590E+01  0.68592357066E+01  0.17329204384E+03  0.17120000000E+03 0.  0.
        998    1    1    2    0    0  0.64656607384E+01 -0.54021035162E+01  0.14413202109E+04  0.14413795260E+04  0.10000000000E+02 0. -1.
</event>
<event>
 5    1  0.1020718E-008  0.3854782E+03  0.7957747E-01  0.3427647E+00
         13   -1    0    0    0    0  0.00000000000E+00  0.00000000000E+00  0.14999999963E+04  0.15000000000E+04  0.10566000000E+00 0.  1.
        994   -1    0    0    0    0 -0.00000000000E+00 -0.00000000000E+00  0.11368683772E-12  0.17120000000E+03  0.17120000000E+03 0.  0.
         13    1    1    2    0    0  0.15469692709E+02  0.18686984430E+01  0.92432385160E+02  0.93736654606E+02  0.10566000000E+00 0.  1.
        994    1    1    2    0    0 -0.28530066921E+01 -0.63781105287E+01  0.15532243211E+01  0.17134956214E+03  0.17120000000E+03 0.  0.
        998    1    1    2    0    0 -0.12616686017E+02  0.45094120856E+01  0.14060143868E+04  0.14061137833E+04  0.10000000000E+02 0.  1.
</event>
<event>
 5    1  0.1020718E-008  0.3754181E+03  0.7957747E-01  0.3471355E+00
         13   -1    0    0    0    0  0.00000000000E+00  0.00000000000E+00  0.14999999963E+04  0.15000000000E+04  0.10566000000E+00 0. -1.
        994   -1    0    0    0    0 -0.00000000000E+00 -0.00000000000E+00  0.11368683772E-12  0.17120000000E+03  0.17120000000E+03 0.  0.
         13    1    1    2    0    0 -0.57741524484E+02 -0.29420213740E+02  0.26915835809E+03  0.27684989709E+03  0.10566000000E+00 0. -1.
        994    1    1    2    0    0  0.52109953692E+02  0.36701491382E+02  0.20380981091E+02  0.18381314190E+03  0.17120000000E+03 0.  0.
        998    1    1    2    0    0  0.56315707919E+01 -0.72812776423E+01  0.12104606571E+04  0.12105369610E+04  0.10000000000E+02 0. -1.
</event>
<event>
 5    1  0.1020718E-008  0.3846483E+03  0.7957747E-01  0.3431165E+00
         13   -1    0    0    0    0  0.00000000000E+00  0.00000000000E+00  0.14999999963E+04  0.15000000000E+04  0.10566000000E+00 0.  1.
        994   -1    0    0    0    0 -0.00000000000E+00 -0.00000000000E+00  0.11368683772E-12  0.17120000000E+03  0.17120000000E+03 0.  0.
         13    1    1    2    0    0 -0.51158831919E+01  0.21854137520E+02  0.12641346503E+03  0.12839061840E+03  0.10566000000E+00 0.  1.
        994    1    1    2    0    0 -0.22418091190E+01 -0.26987607969E+02  0.42230693218E+01  0.17338001905E+03  0.17120000000E+03 0.  0.
        998    1    1    2    0    0  0.73576923109E+01  0.51334704484E+01  0.13693634619E+04  0.13694293625E+04  0.10000000000E+02 0.  1.
</event>
<event>
 5    1  0.1020718E-008  0.3825733E+03  0.7957747E-01  0.3440030E+00
         13   -1    0    0    0    0  0.00000000000E+00  0.00000000000E+00  0.14999999963E+04  0.15000000000E+04  0.10566000000E+00 0.  1.
        994   -1    0    0    0    0 -0.00000000000E+00 -0.00000000000E+00  0.11368683772E-12  0.17120000000E+03  0.17120000000E+03 0.  0.
         13    1    1    2    0    0  0.11647218020E+02  0.36338029445E+02  0.22633175020E+03  0.22952599501E+03  0.10566000000E+00 0.  1.
        994    1    1    2    0    0 -0.23701787106E+02 -0.29720537705E+02  0.76446367205E+01  0.17553622288E+03  0.17120000000E+03 0.  0.
        998    1    1    2    0    0  0.12054569086E+02 -0.66174917406E+01  0.12660236094E+04  0.12661377821E+04  0.10000000000E+02 0.  1.
</event>
<event>
 5    1  0.1020718E-008  0.3712159E+03  0.7957747E-01  0.3490321E+00
         13   -1    0    0    0    0  0.00000000000E+00  0.00000000000E+00  0.14999999963E+04  0.15000000000E+04  0.10566000000E+00 0.  1.
        994   -1    0    0    0    0 -0.00000000000E+00 -0.00000000000E+00  0.11368683772E-12  0.17120000000E+03  0.17120000000E+03 0.  0.
         13    1    1    2    0    0 -0.11525518487E+02  0.17161950427E+02  0.21463730954E+02  0.29800554179E+02  0.10566000000E+00 0.  1.
        994    1    1    2    0    0 -0.63856299343E+01 -0.12548878557E+02  0.93178189348E+01  0.17203055651E+03  0.17120000000E+03 0.  0.
        998    1    1    2    0    0  0.17911148422E+02 -0.46130718701E+01  0.14692184464E+04  0.14693688893E+04  0.10000000000E+02 0.  1.
</event>
<event>
 5    1  0.1020718E-008  0.3783557E+03  0.7957747E-01  0.3458350E+00
         13   -1    0    0    0    0  0.00000000000E+00  0.00000000000E+00  0.14999999963E+04  0.15000000000E+04  0.10566000000E+00 0.  1.
        994   -1    0    0    0    0 -0.00000000000E+00 -0.00000000000E+00  0.11368683772E-12  0.17120000000E+03  0.17120000000E+03 0.  0.
         13    1    1    2    0    0  0.10566734475E+02 -0.26560046045E+02  0.82215645031E+02  0.87043181095E+02  0.10566000000E+00 0.  1.
        994    1    1    2    0    0  0.27350785468E+01  0.14962364358E+02  0.57435069116E+01  0.17197029067E+03  0.17120000000E+03 0.  0.
        998    1    1    2    0    0 -0.13301813022E+02  0.11597681687E+02  0.14120408443E+04  0.14121865282E+04  0.10000000000E+02 0.  1.
</event>
<event>
 5    1  0.1020718E-008  0.3810637E+03  0.7957747E-01  0.3446540E+00
         13   -1    0    0    0    0  0.00000000000E+00  0.00000000000E+00  0.14999999963E+04  0.15000000000E+04  0.10566000000E+00 0.  1.
        994   -1    0    0    0    0 -0.00000000000E+00 -0.00000000000E+00  0.11368683772E-12  0.17120000000E+03  0.17120000000E+03 0.  0.
         13    1    1    2    0    0  0.63296524402E+01  0.26334128567E+02  0.11770037285E+03  0.12077640399E+03  0.10566000000E+00 0.  1.
        994    1    1    2    0    0  0.60034875573E+02 -0.93220818291E+01  0.15992179016E+02  0.18236303706E+03  0.17120000000E+03 0.  0.
        998    1    1    2    0    0 -0.66364528013E+02 -0.17012046737E+02  0.13663074444E+04  0.13680605590E+04  0.10000000000E+02 0.  1.
</event>
<event>
 5    1  0.1020718E-008  0.3808063E+03  0.7957747E-01  0.3447655E+00
         13   -1    0    0    0    0  0.00000000000E+00  0.00000000000E+00  0.14999999963E+04  0.15000000000E+04  0.10566000000E+00 0. -1.
        994   -1    0    0    0    0 -0.00000000000E+00 -0.00000000000E+00  0.11368683772E-12  0.17120000000E+03  0.17120000000E+03 0.  0.
         13    1    1    2    0    0 -0.99502500503E+01 -0.37031102281E+02  0.17798223952E+03  0.18206591872E+03  0.10566000000E+00 0. -1.
        994    1    1    2    0    0  0.17685614991E+02  0.32393119428E+02  0.82812841526E+01  0.17532859103E+03  0.17120000000E+03 0.  0.
        998    1    1    2    0    0 -0.77353649411E+01  0.46379828528E+01  0.13137364726E+04  0.13138054903E+04  0.10000000000E+02 0. -1.
</event>
<event>
 5    1  0.1020718E-008  0.3736962E+03  0.7957747E-01  0.3479074E+00
         13   -1    0    0    0    0  0.00000000000E+00  0.00000000000E+00  0.14999999963E+04  0.15000000000E+04  0.10566000000E+00 0. -1.
        994   -1    0    0    0    0 -0.00000000000E+00 -0.00000000000E+00  0.11368683772E-12  0.17120000000E+03  0.17120000000E+03 0.  0.
         13    1    1    2    0    0 -0.56649174806E+02  0.86741258212E+02  0.50706961038E+03  0.51754495053E+03  0.10566000000E+00 0. -1.
        994    1    1    2    0    0  0.66286756919E+02 -0.73072172098E+02  0.41347378833E+02  0.20187253952E+03  0.17120000000E+03 0.  0.
        998    1    1    2    0    0 -0.96375821125E+01 -0.13669086114E+02  0.95158300706E+03  0.95178250994E+03  0.10000000000E+02 0.  1.
</event>
<event>
 5    1  0.1020718E-008  0.3688231E+03  0.7957747E-01  0.3501317E+00
         13   -1    0    0    0    0  0.00000000000E+00  0.00000000000E+00  0.14999999963E+04  0.15000000000E+04  0.10566000000E+00 0.  1.
        994   -1    0    0    0    0 -0.00000000000E+00 -0.00000000000E+00  0.11368683772E-12  0.17120000000E+03  0.17120000000E+03 0.  0.
         13    1    1    2    0    0 -0.11942133167E+02  0.47638683170E+01  0.32174822773E+01  0.13254144339E+02  0.10566000000E+00 0.  1.
        994    1    1    2    0    0  0.13154992273E+02 -0.29051282917E+01  0.10949958283E+02  0.17207799156E+03  0.17120000000E+03 0.  0.
        998    1    1    2    0    0 -0.12128591055E+01 -0.18587400253E+01  0.14858325557E+04  0.14858678641E+04  0.10000000000E+02 0.  1.
</event>
<event>
 5    1  0.1020718E-008  0.3833640E+03  0.7957747E-01  0.3436640E+00
         13   -1    0    0    0    0  0.00000000000E+00  0.00000000000E+00  0.14999999963E+04  0.15000000000E+04  0.10566000000E+00 0.  1.
        994   -1    0    0    0    0 -0.00000000000E+00 -0.00000000000E+00  0.11368683772E-12  0.17120000000E+03  0.17120000000E+03 0.  0.
         13    1    1    2    0    0 -0.14755169705E+02  0.52374108711E+01  0.51173930347E+02  0.53515678234E+02  0.10566000000E+00 0.  1.
        994    1    1    2    0    0  0.51992566115E+01  0.51654122010E+01  0.26221631661E+01  0.17137686393E+03  0.17120000000E+03 0.  0.
        998    1    1    2    0    0  0.95559130938E+01 -0.10402823072E+02  0.14462039028E+04  0.14463074578E+04  0.10000000000E+02 0.  1.
</event>
<event>
 5    1  0.1020718E-008  0.3776512E+03  0.7957747E-01  0.3461450E+00
         13   -1    0    0    0    0  0.00000000000E+00  0.00000000000E+00  0.14999999963E+04  0.15000000000E+04  0.10566000000E+00 0. -1.
        994   -1    0    0    0    0 -0.00000000000E+00 -0.00000000000E+00  0.11368683772E-12  0.17120000000E+03  0.17120000000E+03 0.  0.
         13    1    1    2    0    0  0.33950991785E+02  0.11006627923E+03  0.67679627331E+03  0.68652783075E+03  0.10566000000E+00 0. -1.
        994    1    1    2    0    0 -0.77253100820E+02 -0.15086415153E+02  0.37652822908E+02  0.19215310713E+03  0.17120000000E+03 0.  0.
        998    1    1    2    0    0  0.43302109035E+02 -0.94979864078E+02  0.78555090006E+03  0.79251906212E+03  0.10000000000E+02 0. -1.
</event>
<event>
 5    1  0.1020718E-008  0.3810753E+03  0.7957747E-01  0.3446490E+00
         13   -1    0    0    0    0  0.00000000000E+00  0.00000000000E+00  0.14999999963E+04  0.15000000000E+04  0.10566000000E+00 0. -1.
        994   -1    0    0    0    0 -0.00000000000E+00 -0.00000000000E+00  0.11368683772E-12  0.17120000000E+03  0.17120000000E+03 0.  0.
         13    1    1    2    0    0  0.29664043026E+02  0.35529787832E+02  0.26733656260E+03  0.27131378538E+03  0.10566000000E+00 0. -1.
        994    1    1    2    0    0 -0.24785187156E+02 -0.28737045292E+02  0.84033965948E+01  0.17555677244E+03  0.17120000000E+03 0.  0.
        998    1    1    2    0    0 -0.48788558706E+01 -0.67927425396E+01  0.12242600371E+04  0.12243294422E+04  0.10000000000E+02 0. -1.
</event>
<event>
 5    1  0.1020718E-008  0.3855218E+03  0.7957747E-01  0.3427462E+00
         13   -1    0    0    0    0  0.00000000000E+00  0.00000000000E+00  0.14999999963E+04  0.15000000000E+04  0.10566000000E+00 0. -1.
        994   -1    0    0    0    0 -0.00000000000E+00 -0.00000000000E+00  0.11368683772E-12  0.17120000000E+03  0.17120000000E+03 0.  0.
         13    1    1    2    0    0 -0.28179393104E+01  0.15132489077E+02  0.81716587480E+02  0.83153742195E+02  0.10566000000E+00 0. -1.
        994    1    1    2    0    0  0.91419608474E+00 -0.18152064645E+02  0.24565455085E+01  0.17217958015E+03  0.17120000000E+03 0.  0.
        998    1    1    2    0    0  0.19037432257E+01  0.30195755676E+01  0.14158268633E+04  0.14158666777E+04  0.10000000000E+02 0. -1.
</event>
<event>
 5    1  0.1020718E-008  0.3816705E+03  0.7957747E-01  0.3443917E+00
         13   -1    0    0    0    0  0.00000000000E+00  0.00000000000E+00  0.14999999963E+04  0.15000000000E+04  0.10566000000E+00 0.  1.
        994   -1    0    0    0    0 -0.00000000000E+00 -0.00000000000E+00  0.11368683772E-12  0.17120000000E+03  0.17120000000E+03 0.  0.
         13    1    1    2    0    0 -0.20003090203E+02 -0.28625082431E+01  0.64629465227E+02  0.67714817512E+02  0.10566000000E+00 0.  1.
        994    1    1    2    0    0  0.23341210363E+01 -0.14282092766E+02  0.39888382018E+01  0.17185685068E+03  0.17120000000E+03 0.  0.
        998    1    1    2    0    0  0.17668969167E+02  0.17144601009E+02  0.14313816929E+04  0.14316283318E+04  0.10000000000E+02 0.  1.
</event>
<event>
 5    1  0.1020718E-008  0.3755213E+03  0.7957747E-01  0.3470895E+00
         13   -1    0    0    0    0  0.00000000000E+00  0.00000000000E+00  0.14999999963E+04  0.15000000000E+04  0.10566000000E+00 0. -1.
        994   -1    0    0    0    0 -0.00000000000E+00 -0.00000000000E+00  0.11368683772E-12  0.17120000000E+03  0.17120000000E+03 0.  0.
         13    1    1    2    0    0  0.88578165311E+01 -0.50066986501E+01  0.50505846038E+01  0.11359908184E+02  0.10566000000E+00 0. -1.
        994    1    1    2    0    0 -0.11296393481E+02  0.51640264703E+01  0.69349423115E+01  0.17179001455E+03  0.17120000000E+03 0.  0.
        998    1    1    2    0    0  0.24385769500E+01 -0.15732782019E+00  0.14880144694E+04  0.14880500773E+04  0.10000000000E+02 0. -1.
</event>
<event>
 5    1  0.1020718E-008  0.3837295E+03  0.7957747E-01  0.3435079E+00
         13   -1    0    0    0    0  0.00000000000E+00  0.00000000000E+00  0.14999999963E+04  0.15000000000E+04  0.10566000000E+00 0.  1.
        994   -1    0    0    0    0 -0.00000000000E+00 -0.00000000000E+00  0.11368683772E-12  0.17120000000E+03  0.17120000000E+03 0.  0.
         13    1    1    2    0    0 -0.49623410085E+01 -0.19108346863E+02  0.82189988240E+02  0.84527859781E+02  0.10566000000E+00 0.  1.
        994    1    1    2    0    0  0.26113720451E+02  0.13694144747E+02  0.51386945453E+01  0.17379672660E+03  0.17120000000E+03 0.  0.
        998    1    1    2    0    0 -0.21151379442E+02  0.54142021162E+01  0.14126713135E+04  0.14128754136E+04  0.10000000000E+02 0.  1.
</event>
<event>
 5    1  0.1020718E-008  0.3821332E+03  0.7957747E-01  0.3441922E+00
         13   -1    0    0    0    0  0.00000000000E+00  0.00000000000E+00  0.14999999963E+04  0.15000000000E+04  0.10566000000E+00 0.  1.
        994   -1    0    0    0    0 -0.00000000000E+00 -0.00000000000E+00  0.11368683772E-12  0.17120000000E+03  0.17120000000E+03 0.  0.
         13    1    1    2    0    0  0.25604225923E+02 -0.14503330230E+02  0.15218238789E+03  0.15500133329E+03  0.10566000000E+00 0.  1.
        994    1    1    2    0    0 -0.15160767307E+02 -0.12169394831E+02  0.43157854502E+01  0.17235431251E+03  0.17120000000E+03 0.  0.
        998    1    1    2    0    0 -0.10443458615E+02  0.26672725061E+02  0.13435018229E+04  0.13438443542E+04  0.10000000000E+02 0.  1.
</event>
<event>
 5    1  0.1020718E-008  0.3729603E+03  0.7957747E-01  0.3482396E+00
         13   -1    0    0    0    0  0.00000000000E+00  0.00000000000E+00  0.14999999963E+04  0.15000000000E+04  0.10566000000E+00 0. -1.
        994   -1    0    0    0    0 -0.00000000000E+00 -0.00000000000E+00  0.11368683772E-12  0.17120000000E+03  0.17120000000E+03 0.  0.
         13    1    1    2    0    0 -0.15404108971E+03  0.53907896238E+02  0.69466329038E+03  0.71357677706E+03  0.10566000000E+00 0. -1.
        994    1    1    2    0    0  0.16484448749E+03 -0.56837346559E+02  0.12020766702E+03  0.27232978579E+03  0.17120000000E+03 0.  0.
        998    1    1    2    0    0 -0.10803397780E+02  0.29294503215E+01  0.68512903888E+03  0.68529343715E+03  0.10000000000E+02 0. -1.
</event>
<event>
 5    1  0.1020718E-008  0.3819334E+03  0.7957747E-01  0.3442783E+00
         13   -1    0    0    0    0  0.00000000000E+00  0.00000000000E+00  0.14999999963E+04  0.15000000000E+04  0.10566000000E+00 0.  1.
        994   -1    0    0    0    0 -0.00000000000E+00 -0.00000000000E+00  0.11368683772E-12  0.17120000000E+03  0.17120000000E+03 0.  0.
         13    1    1    2    0    0  0.28485498485E+02  0.68656756551E+01  0.12064172345E+03  0.12414909475E+03  0.10566000000E+00 0.  1.
        994    1    1    2    0    0 -0.34754778507E+02 -0.65998362468E+01  0.73284367762E+01  0.17497027877E+03  0.17120000000E+03 0.  0.
        998    1    1    2    0    0  0.62692800211E+01 -0.26583940826E+00  0.13720298361E+04  0.13720806265E+04  0.10000000000E+02 0.  1.
</event>
<event>
 5    1  0.1020718E-008  0.3855921E+03  0.7957747E-01  0.3427165E+00
         13   -1    0    0    0    0  0.00000000000E+00  0.00000000000E+00  0.14999999963E+04  0.15000000000E+04  0.10566000000E+00 0. -1.
        994   -1    0    0    0    0 -0.00000000000E+00 -0.00000000000E+00  0.11368683772E-12  0.17120000000E+03  0.17120000000E+03 0.  0.
         13    1    1    2    0    0  0.97274651900E+01 -0.89917085055E+01  0.64322931978E+02  0.65672864588E+02  0.10566000000E+00 0. -1.
        994    1    1    2    0    0 -0.86323740396E+01  0.92744238616E+01  0.18635669764E+01  0.17167832042E+03  0.17120000000E+03 0.  0.
        998    1    1    2    0    0 -0.10950911504E+01 -0.28271535617E+00  0.14338134973E+04  0.14338488150E+04  0.10000000000E+02 0.  0.
</event>
<event>
 5    1  0.1020718E-008  0.3782532E+03  0.7957747E-01  0.3458800E+00
         13   -1    0    0    0    0  0.00000000000E+00  0.00000000000E+00  0.14999999963E+04  0.15000000000E+04  0.10566000000E+00 0.  1.
        994   -1    0    0    0    0 -0.00000000000E+00 -0.00000000000E+00  0.11368683772E-12  0.17120000000E+03  0.17120000000E+03 0.  0.
         13    1    1    2    0    0  0.20805833106E+02 -0.17094405473E+02  0.73488610875E+02  0.78266777639E+02  0.10566000000E+00 0.  1.
        994    1    1    2    0    0 -0.13770666584E+02 -0.62723104874E+01  0.57877655690E+01  0.17196485504E+03  0.17120000000E+03 0.  0.
        998    1    1    2    0    0 -0.70351665227E+01  0.23366715960E+02  0.14207236198E+04  0.14209683673E+04  0.10000000000E+02 0.  1.
</event>
<event>
 5    1  0.1020718E-008  0.3689756E+03  0.7957747E-01  0.3500612E+00
         13   -1    0    0    0    0  0.00000000000E+00  0.00000000000E+00  0.14999999963E+04  0.15000000000E+04  0.10566000000E+00 0.  1.
        994   -1    0    0    0    0 -0.00000000000E+00 -0.00000000000E+00  0.11368683772E-12  0.17120000000E+03  0.17120000000E+03 0.  0.
         13    1    1    2    0    0 -0.10929119923E+02  0.85642148105E+02  0.28552288634E+03  0.29829071890E+03  0.10566000000E+00 0.  1.
        994    1    1    2    0    0  0.16237095067E+02 -0.85294789482E+02  0.37141572321E+02  0.19551925932E+03  0.17120000000E+03 0.  0.
        998    1    1    2    0    0 -0.53079751439E+01 -0.34735862296E+00  0.11773355376E+04  0.11773900218E+04  0.10000000000E+02 0.  1.
</event>
<event>
 5    1  0.1020718E-008  0.3845752E+03  0.7957747E-01  0.3431476E+00
         13   -1    0    0    0    0  0.00000000000E+00  0.00000000000E+00  0.14999999963E+04  0.15000000000E+04  0.10566000000E+00 0. -1.
        994   -1    0    0    0    0 -0.00000000000E+00 -0.00000000000E+00  0.11368683772E-12  0.17120000000E+03  0.17120000000E+03 0.  0.
         13    1    1    2    0    0 -0.10713977166E+02 -0.25752448652E+02  0.15731141919E+03  0.15976505153E+03  0.10566000000E+00 0. -1.
        994    1    1    2    0    0 -0.51024494263E+00  0.55089238376E+02  0.11901001857E+02  0.18023916994E+03  0.17120000000E+03 0.  0.
        998    1    1    2    0    0  0.11224222108E+02 -0.29336789725E+02  0.13307875752E+04  0.13311957785E+04  0.10000000000E+02 0. -1.
</event>
<event>
 5    1  0.1020718E-008  0.3700297E+03  0.7957747E-01  0.3495754E+00
         13   -1    0    0    0    0  0.00000000000E+00  0.00000000000E+00  0.14999999963E+04  0.15000000000E+04  0.10566000000E+00 0.  1.
        994   -1    0    0    0    0 -0.00000000000E+00 -0.00000000000E+00  0.11368683772E-12  0.17120000000E+03  0.17120000000E+03 0.  0.
         13    1    1    2    0    0  0.11326276488E+02  0.35266345463E+01  0.13344736152E+01  0.11937909120E+02  0.10566000000E+00 0.  1.
        994    1    1    2    0    0 -0.95395450809E+01 -0.21706245507E+01  0.11289260995E+02  0.17185052210E+03  0.17120000000E+03 0.  0.
        998    1    1    2    0    0 -0.17867314069E+01 -0.13560099957E+01  0.14873762617E+04  0.14874115688E+04  0.10000000000E+02 0.  1.
</event>
<event>
 5    1  0.1020718E-008  0.3792814E+03  0.7957747E-01  0.3454293E+00
         13   -1    0    0    0    0  0.00000000000E+00  0.00000000000E+00  0.14999999963E+04  0.15000000000E+04  0.10566000000E+00 0. -1.
        994   -1    0    0    0    0 -0.00000000000E+00 -0.00000000000E+00  0.11368683772E-12  0.17120000000E+03  0.17120000000E+03 0.  0.
         13    1    1    2    0    0 -0.10532637726E+02  0.27807195549E+02  0.97895921298E+02  0.10231226296E+03  0.10566000000E+00 0. -1.
        994    1    1    2    0    0  0.25560202019E+01 -0.15863467279E+02  0.53619390766E+01  0.17203596491E+03  0.17120000000E+03 0.  0.
        998    1    1    2    0    0  0.79766175245E+01 -0.11943728270E+02  0.13967421359E+04  0.13968517721E+04  0.10000000000E+02 0. -1.
</event>
<event>
 5    1  0.1020718E-008  0.3767390E+03  0.7957747E-01  0.3465482E+00
         13   -1    0    0    0    0  0.00000000000E+00  0.00000000000E+00  0.14999999963E+04  0.15000000000E+04  0.10566000000E+00 0.  1.
        994   -1    0    0    0    0 -0.00000000000E+00 -0.00000000000E+00  0.11368683772E-12  0.17120000000E+03  0.17120000000E+03 0.  0.
         13    1    1    2    0    0  0.14782158941E+02 -0.21736501366E+02  0.56968986127E+02  0.62741248465E+02  0.10566000000E+00 0.  1.
        994    1    1    2    0    0 -0.71304968835E+01  0.18785458911E+02  0.71539966970E+01  0.17252349730E+03  0.17120000000E+03 0.  0.
        998    1    1    2    0    0 -0.76516620577E+01  0.29510424550E+01  0.14358770135E+04  0.14359352542E+04  0.10000000000E+02 0.  1.
</event>
<event>
 5    1  0.1020718E-008  0.3795183E+03  0.7957747E-01  0.3453258E+00
         13   -1    0    0    0    0  0.00000000000E+00  0.00000000000E+00  0.14999999963E+04  0.15000000000E+04  0.10566000000E+00 0. -1.
        994   -1    0    0    0    0 -0.00000000000E+00 -0.00000000000E+00  0.11368683772E-12  0.17120000000E+03  0.17120000000E+03 0.  0.
         13    1    1    2    0    0 -0.31451462106E+02 -0.67774399094E+01  0.13656347248E+03  0.14030224995E+03  0.10566000000E+00 0. -1.
        994    1    1    2    0    0 -0.63144909332E+01 -0.33739182805E+01  0.45481262350E+01  0.17140998096E+03  0.17120000000E+03 0.  0.
        998    1    1    2    0    0  0.37765953039E+02  0.10151358190E+02  0.13588883976E+04  0.13594877691E+04  0.10000000000E+02 0. -1.
</event>
<event>
 5    1  0.1020718E-008  0.3777775E+03  0.7957747E-01  0.3460893E+00
         13   -1    0    0    0    0  0.00000000000E+00  0.00000000000E+00  0.14999999963E+04  0.15000000000E+04  0.10566000000E+00 0.  1.
        994   -1    0    0    0    0 -0.00000000000E+00 -0.00000000000E+00  0.11368683772E-12  0.17120000000E+03  0.17120000000E+03 0.  0.
         13    1    1    2    0    0  0.29520309452E+02 -0.21613279846E+02  0.37326969778E+02  0.52267546075E+02  0.10566000000E+00 0.  1.
        994    1    1    2    0    0 -0.36214570356E+02  0.14481301911E+02  0.20599165856E+02  0.17679074875E+03  0.17120000000E+03 0.  0.
        998    1    1    2    0    0  0.66942609035E+01  0.71319779346E+01  0.14420738606E+04  0.14421417052E+04  0.10000000000E+02 0.  1.
</event>
<event>
 5    1  0.1020718E-008  0.3827172E+03  0.7957747E-01  0.3439412E+00
         13   -1    0    0    0    0  0.00000000000E+00  0.00000000000E+00  0.14999999963E+04  0.15000000000E+04  0.10566000000E+00 0. -1.
        994   -1    0    0    0    0 -0.00000000000E+00 -0.00000000000E+00  0.11368683772E-12  0.17120000000E+03  0.17120000000E+03 0.  0.
         13    1    1    2    0    0 -0.18450693375E+02  0.18862200839E+02  0.11129277399E+03  0.11437789739E+03  0.10566000000E+00 0. -1.
        994    1    1    2    0    0  0.24706925879E+02 -0.23678409304E+02  0.66575047970E+01  0.17471365609E+03  0.17120000000E+03 0.  0.
        998    1    1    2    0    0 -0.62562325044E+01  0.48162084653E+01  0.13820497175E+04  0.13821084465E+04  0.10000000000E+02 0. -1.
</event>
<event>
 5    1  0.1020718E-008  0.3807380E+03  0.7957747E-01  0.3447951E+00
         13   -1    0    0    0    0  0.00000000000E+00  0.00000000000E+00  0.14999999963E+04  0.15000000000E+04  0.10566000000E+00 0.  1.
        994   -1    0    0    0    0 -0.00000000000E+00 -0.00000000000E+00  0.11368683772E-12  0.17120000000E+03  0.17120000000E+03 0.  0.
         13    1    1    2    0    0  0.31310755686E+02 -0.16966941412E+02  0.16407661280E+03  0.16789695219E+03  0.10566000000E+00 0.  1.
        994    1    1    2    0    0 -0.20324918602E+02  0.12189379896E+02  0.56363866072E+01  0.17292452733E+03  0.17120000000E+03 0.  0.
        998    1    1    2    0    0 -0.10985837084E+02  0.47775615167E+01  0.13302869969E+04  0.13303785205E+04  0.10000000000E+02 0.  1.
</event>
<event>
 5    1  0.1020718E-008  0.3739874E+03  0.7957747E-01  0.3477764E+00
         13   -1    0    0    0    0  0.00000000000E+00  0.00000000000E+00  0.14999999963E+04  0.15000000000E+04  0.10566000000E+00 0.  1.
        994   -1    0    0    0    0 -0.00000000000E+00 -0.00000000000E+00  0.11368683772E-12  0.17120000000E+03  0.17120000000E+03 0.  0.
         13    1    1    2    0    0  0.98025947523E+02 -0.72007481049E+02  0.29465681902E+03  0.31877392596E+03  0.10566000000E+00 0.  1.
        994    1    1    2    0    0 -0.15236414448E+03  0.10186703981E+03  0.14394908469E+03  0.28917556139E+03  0.17120000000E+03 0.  0.
        998    1    1    2    0    0  0.54338196959E+02 -0.29859558758E+02  0.10613940926E+04  0.10632505126E+04  0.10000000000E+02 0.  1.
</event>
<event>
 5    1  0.1020718E-008  0.3844601E+03  0.7957747E-01  0.3431965E+00
         13   -1    0    0    0    0  0.00000000000E+00  0.00000000000E+00  0.14999999963E+04  0.15000000000E+04  0.10566000000E+00 0.  1.
        994   -1    0    0    0    0 -0.00000000000E+00 -0.00000000000E+00  0.11368683772E-12  0.17120000000E+03  0.17120000000E+03 0.  0.
         13    1    1    2    0    0  0.13853192835E+02 -0.10039704272E+02  0.74623720486E+02  0.76559894440E+02  0.10566000000E+00 0.  1.
        994    1    1    2    0    0 -0.18002154325E+02  0.21997441732E+01  0.29827556599E+01  0.17218377759E+03  0.17120000000E+03 0.  0.
        998    1    1    2    0    0  0.41489614902E+01  0.78399600990E+01  0.14223935201E+04  0.14224563280E+04  0.10000000000E+02 0.  1.
</event>
<event>
 5    1  0.1020718E-008  0.3847209E+03  0.7957747E-01  0.3430857E+00
         13   -1    0    0    0    0  0.00000000000E+00  0.00000000000E+00  0.14999999963E+04  0.15000000000E+04  0.10566000000E+00 0.  1.
        994   -1    0    0    0    0 -0.00000000000E+00 -0.00000000000E+00  0.11368683772E-12  0.17120000000E+03  0.17120000000E+03 0.  0.
         13    1    1    2    0    0 -0.29385445869E+01  0.17079237622E+02  0.81075987379E+02  0.82907552705E+02  0.10566000000E+00 0.  1.
        994    1    1    2    0    0  0.55794697001E+01 -0.17144014779E+02  0.28394538095E+01  0.17217012001E+03  0.17120000000E+03 0.  0.
        998    1    1    2    0    0 -0.26409251133E+01  0.64777156962E-01  0.14160845551E+04  0.14161223273E+04  0.10000000000E+02 0.  1.
</event>
<event>
 5    1  0.1020718E-008  0.3840206E+03  0.7957747E-01  0.3433836E+00
         13   -1    0    0    0    0  0.00000000000E+00  0.00000000000E+00  0.14999999963E+04  0.15000000000E+04  0.10566000000E+00 0. -1.
        994   -1    0    0    0    0 -0.00000000000E+00 -0.00000000000E+00  0.11368683772E-12  0.17120000000E+03  0.17120000000E+03 0.  0.
         13    1    1    2    0    0  0.13184985594E+02 -0.86709013496E+01  0.60722158072E+02  0.62739302039E+02  0.10566000000E+00 0. -1.
        994    1    1    2    0    0  0.29532785538E+00  0.62320301967E+01  0.22455907710E+01  0.17132836338E+03  0.17120000000E+03 0.  0.
        998    1    1    2    0    0 -0.13480313450E+02  0.24388711530E+01  0.14370322474E+04  0.14371323346E+04  0.10000000000E+02 0. -1.
</event>
<event>
 5    1  0.1020718E-008  0.3842173E+03  0.7957747E-01  0.3432999E+00
         13   -1    0    0    0    0  0.00000000000E+00  0.00000000000E+00  0.14999999963E+04  0.15000000000E+04  0.10566000000E+00 0. -1.
        994   -1    0    0    0    0 -0.00000000000E+00 -0.00000000000E+00  0.11368683772E-12  0.17120000000E+03  0.17120000000E+03 0.  0.
         13    1    1    2    0    0 -0.36525225839E+01  0.93127729854E+01  0.24236905593E+02  0.26220362672E+02  0.10566000000E+00 0. -1.
        994    1    1    2    0    0 -0.25284048872E+01 -0.79699300945E+01  0.22497872439E+01  0.17141882674E+03  0.17120000000E+03 0.  0.
        998    1    1    2    0    0  0.61809274712E+01 -0.13428428910E+01  0.14735133034E+04  0.14735608106E+04  0.10000000000E+02 0. -1.
</event>
<event>
 5    1  0.1020718E-008  0.3823264E+03  0.7957747E-01  0.3441091E+00
         13   -1    0    0    0    0  0.00000000000E+00  0.00000000000E+00  0.14999999963E+04  0.15000000000E+04  0.10566000000E+00 0.  1.
        994   -1    0    0    0    0 -0.00000000000E+00 -0.00000000000E+00  0.11368683772E-12  0.17120000000E+03  0.17120000000E+03 0.  0.
         13    1    1    2    0    0  0.14106126229E+02 -0.26112962406E+02  0.13526638860E+03  0.13848421084E+03  0.10566000000E+00 0.  1.
        994    1    1    2    0    0 -0.15400831248E+02  0.26369674698E+02  0.60631538319E+01  0.17400789402E+03  0.17120000000E+03 0.  0.
        998    1    1    2    0    0  0.12947050180E+01 -0.25671229154E+00  0.13586704539E+04  0.13587078951E+04  0.10000000000E+02 0.  1.
</event>
<event>
 5    1  0.1020718E-008  0.3740742E+03  0.7957747E-01  0.3477374E+00
         13   -1    0    0    0    0  0.00000000000E+00  0.00000000000E+00  0.14999999963E+04  0.15000000000E+04  0.10566000000E+00 0. -1.
        994   -1    0    0    0    0 -0.00000000000E+00 -0.00000000000E+00  0.11368683772E-12  0.17120000000E+03  0.17120000000E+03 0.  0.
         13    1    1    2    0    0  0.29677937360E+02 -0.11671718150E+03  0.65458587500E+03  0.66557220445E+03  0.10566000000E+00 0. -1.
        994    1    1    2    0    0  0.89061659798E+01  0.11720002243E+03  0.55830645404E+02  0.21503875468E+03  0.17120000000E+03 0.  0.
        998    1    1    2    0    0 -0.38584103340E+02 -0.48284092942E+00  0.78958347587E+03  0.79058904087E+03  0.10000000000E+02 0.  1.
</event>
<event>
 5    1  0.1020718E-008  0.3820521E+03  0.7957747E-01  0.3442271E+00
         13   -1    0    0    0    0  0.00000000000E+00  0.00000000000E+00  0.14999999963E+04  0.15000000000E+04  0.10566000000E+00 0. -1.
        994   -1    0    0    0    0 -0.00000000000E+00 -0.00000000000E+00  0.11368683772E-12  0.17120000000E+03  0.17120000000E+03 0.  0.
         13    1    1    2    0    0 -0.25106916529E+02  0.16358197751E+02  0.12576717109E+03  0.12928781992E+03  0.10566000000E+00 0. -1.
        994    1    1    2    0    0  0.27142801133E+02 -0.29572580943E+02  0.84693937041E+01  0.17604669786E+03  0.17120000000E+03 0.  0.
        998    1    1    2    0    0 -0.20358846047E+01  0.13214383192E+02  0.13657634315E+04  0.13658654822E+04  0.10000000000E+02 0. -1.
</event>
<event>
 5    1  0.1020718E-008  0.3855690E+03  0.7957747E-01  0.3427263E+00
         13   -1    0    0    0    0  0.00000000000E+00  0.00000000000E+00  0.14999999963E+04  0.15000000000E+04  0.10566000000E+00 0. -1.
        994   -1    0    0    0    0 -0.00000000000E+00 -0.00000000000E+00  0.11368683772E-12  0.17120000000E+03  0.17120000000E+03 0.  0.
         13    1    1    2    0    0 -0.86767052560E+01  0.13981076172E+02  0.97089065635E+02  0.98473618472E+02  0.10566000000E+00 0. -1.
        994    1    1    2    0    0  0.13307591962E+02 -0.97609238377E+01  0.22425036835E+01  0.17200824533E+03  0.17120000000E+03 0.  0.
        998    1    1    2    0    0 -0.46308867065E+01 -0.42201523338E+01  0.14006684270E+04  0.14007181362E+04  0.10000000000E+02 0. -1.
</event>
<event>
 5    1  0.1020718E-008  0.3798463E+03  0.7957747E-01  0.3451828E+00
         13   -1    0    0    0    0  0.00000000000E+00  0.00000000000E+00  0.14999999963E+04  0.15000000000E+04  0.10566000000E+00 0. -1.
        994   -1    0    0    0    0 -0.00000000000E+00 -0.00000000000E+00  0.11368683772E-12  0.17120000000E+03  0.17120000000E+03 0.  0.
         13    1    1    2    0    0 -0.12367953245E+02 -0.63738959562E+01  0.21506074328E+02  0.25614746029E+02  0.10566000000E+00 0. -1.
        994    1    1    2    0    0  0.52537312123E+01  0.11719514567E+01  0.43076898932E+01  0.17133876197E+03  0.17120000000E+03 0.  0.
        998    1    1    2    0    0  0.71142220324E+01  0.52019444995E+01  0.14741862321E+04  0.14742464920E+04  0.10000000000E+02 0. -1.
</event>
<event>
 5    1  0.1020718E-008  0.3815213E+03  0.7957747E-01  0.3444561E+00
         13   -1    0    0    0    0  0.00000000000E+00  0.00000000000E+00  0.14999999963E+04  0.15000000000E+04  0.10566000000E+00 0.  1.
        994   -1    0    0    0    0 -0.00000000000E+00 -0.00000000000E+00  0.11368683772E-12  0.17120000000E+03  0.17120000000E+03 0.  0.
         13    1    1    2    0    0 -0.12900040194E+02 -0.25399718012E+02  0.11803234660E+03  0.12142159083E+03  0.10566000000E+00 0.  1.
        994    1    1    2    0    0  0.21059840194E+01  0.20365242777E+02  0.47627013507E+01  0.17248565623E+03  0.17120000000E+03 0.  0.
        998    1    1    2    0    0  0.10794056175E+02  0.50344752343E+01  0.13772049483E+04  0.13772927529E+04  0.10000000000E+02 0.  1.
</event>
<event>
 5    1  0.1020718E-008  0.3792621E+03  0.7957747E-01  0.3454378E+00
         13   -1    0    0    0    0  0.00000000000E+00  0.00000000000E+00  0.14999999963E+04  0.15000000000E+04  0.10566000000E+00 0. -1.
        994   -1    0    0    0    0 -0.00000000000E+00 -0.00000000000E+00  0.11368683772E-12  0.17120000000E+03  0.17120000000E+03 0.  0.
         13    1    1    2    0    0  0.12100704652E+02 -0.89699384907E+01  0.23092334688E+02  0.27570889267E+02  0.10566000000E+00 0. -1.
        994    1    1    2    0    0 -0.11680717401E+02  0.75543277846E+01  0.51548167669E+01  0.17184155249E+03  0.17120000000E+03 0.  0.
        998    1    1    2    0    0 -0.41998725132E+00  0.14156107061E+01  0.14717528448E+04  0.14717875582E+04  0.10000000000E+02 0. -1.
</event>
<event>
 5    1  0.1020718E-008  0.3861494E+03  0.7957747E-01  0.3424812E+00
         13   -1    0    0    0    0  0.00000000000E+00  0.00000000000E+00  0.14999999963E+04  0.15000000000E+04  0.10566000000E+00 0. -1.
        994   -1    0    0    0    0 -0.00000000000E+00 -0.00000000000E+00  0.11368683772E-12  0.17120000000E+03  0.17120000000E+03 0.  0.
         13    1    1    2    0    0  0.13690471822E+02 -0.68413574612E+01  0.91714112616E+02  0.92982379017E+02  0.10566000000E+00 0. -1.
        994    1    1    2    0    0 -0.17894170926E+02  0.39472825998E+02  0.72390291955E+01  0.17674882995E+03  0.17120000000E+03 0.  0.
        998    1    1    2    0    0  0.42036991038E+01 -0.32631468537E+02  0.14010468545E+04  0.14014687910E+04  0.10000000000E+02 0. -1.
</event>
<event>
 5    1  0.1020718E-008  0.3793771E+03  0.7957747E-01  0.3453875E+00
         13   -1    0    0    0    0  0.00000000000E+00  0.00000000000E+00  0.14999999963E+04  0.15000000000E+04  0.10566000000E+00 0.  1.
        994   -1    0    0    0    0 -0.00000000000E+00 -0.00000000000E+00  0.11368683772E-12  0.17120000000E+03  0.17120000000E+03 0.  0.
         13    1    1    2    0    0  0.30535793191E+02 -0.40512879079E+02  0.10109793076E+03  0.11311291175E+03  0.10566000000E+00 0.  1.
        994    1    1    2    0    0  0.11436209821E+03  0.84255016463E+01  0.65213371627E+02  0.21612936502E+03  0.17120000000E+03 0.  0.
        998    1    1    2    0    0 -0.14489789140E+03  0.32087377433E+02  0.13336886939E+04  0.13419577232E+04  0.10000000000E+02 0.  1.
</event>
<event>
 5    1  0.1020718E-008  0.3812804E+03  0.7957747E-01  0.3445602E+00
         13   -1    0    0    0    0  0.00000000000E+00  0.00000000000E+00  0.14999999963E+04  0.15000000000E+04  0.10566000000E+00 0.  1.
        994   -1    0    0    0    0 -0.00000000000E+00 -0.00000000000E+00  0.11368683772E-12  0.17120000000E+03  0.17120000000E+03 0.  0.
         13    1    1    2    0    0  0.10031152598E+02 -0.87013054067E+00  0.13478689399E+02  0.16824606431E+02  0.10566000000E+00 0.  1.
        994    1    1    2    0    0  0.54562629049E+01 -0.36352266694E+01  0.36313220318E+01  0.17136397573E+03  0.17120000000E+03 0.  0.
        998    1    1    2    0    0 -0.15487415503E+02  0.45053572100E+01  0.14828899848E+04  0.14830114178E+04  0.10000000000E+02 0.  1.
</event>
<event>
 5    1  0.1020718E-008  0.3737189E+03  0.7957747E-01  0.3478972E+00
         13   -1    0    0    0    0  0.00000000000E+00  0.00000000000E+00  0.14999999963E+04  0.15000000000E+04  0.10566000000E+00 0. -1.
        994   -1    0    0    0    0 -0.00000000000E+00 -0.00000000000E+00  0.11368683772E-12  0.17120000000E+03  0.17120000000E+03 0.  0.
         13    1    1    2    0    0 -0.17408470090E+01  0.29242016933E+02  0.50355626194E+02  0.58256556335E+02  0.10566000000E+00 0. -1.
        994    1    1    2    0    0  0.10255056789E+02 -0.50671399820E+02  0.16518210169E+02  0.17959690481E+03  0.17120000000E+03 0.  0.
        998    1    1    2    0    0 -0.85142097795E+01  0.21429382887E+02  0.14331261599E+04  0.14333465389E+04  0.10000000000E+02 0. -1.
</event>
<event>
 5    1  0.1020718E-008  0.3799758E+03  0.7957747E-01  0.3451264E+00
         13   -1    0    0    0    0  0.00000000000E+00  0.00000000000E+00  0.14999999963E+04  0.15000000000E+04  0.10566000000E+00 0. -1.
        994   -1    0    0    0    0 -0.00000000000E+00 -0.00000000000E+00  0.11368683772E-12  0.17120000000E+03  0.17120000000E+03 0.  0.
         13    1    1    2    0    0 -0.16451088774E+02 -0.53711749859E+01  0.37169906396E+02  0.41001231056E+02  0.10566000000E+00 0. -1.
        994    1    1    2    0    0 -0.38541152677E+01 -0.22552891778E+02  0.58974308886E+01  0.17282276130E+03  0.17120000000E+03 0.  0.
        998    1    1    2    0    0  0.20305204041E+02  0.27924066763E+02  0.14569326590E+04  0.14573760076E+04  0.10000000000E+02 0. -1.
</event>
<event>
 5    1  0.1020718E-008  0.3848142E+03  0.7957747E-01  0.3430461E+00
         13   -1    0    0    0    0  0.00000000000E+00  0.00000000000E+00  0.14999999963E+04  0.15000000000E+04  0.10566000000E+00 0. -1.
        994   -1    0    0    0    0 -0.00000000000E+00 -0.00000000000E+00  0.11368683772E-12  0.17120000000E+03  0.17120000000E+03 0.  0.
         13    1    1    2    0    0  0.13458951710E+02 -0.41602655781E+01  0.55332332896E+02  0.57097543017E+02  0.10566000000E+00 0. -1.
        994    1    1    2    0    0 -0.15743163683E+02  0.36231915608E+01  0.25816687666E+01  0.17197988177E+03  0.17120000000E+03 0.  0.
        998    1    1    2    0    0  0.22842119726E+01  0.53707401725E+00  0.14420859946E+04  0.14421225752E+04  0.10000000000E+02 0. -1.
</event>
<event>
 5    1  0.1020718E-008  0.3802661E+03  0.7957747E-01  0.3450001E+00
         13   -1    0    0    0    0  0.00000000000E+00  0.00000000000E+00  0.14999999963E+04  0.15000000000E+04  0.10566000000E+00 0. -1.
        994   -1    0    0    0    0 -0.00000000000E+00 -0.00000000000E+00  0.11368683772E-12  0.17120000000E+03  0.17120000000E+03 0.  0.
         13    1    1    2    0    0  0.26071980099E+01 -0.15051387599E+02  0.27045103224E+02  0.31061077292E+02  0.10566000000E+00 0. -1.
        994    1    1    2    0    0 -0.69698529591E+01  0.16033272161E+02  0.50203956315E+01  0.17216355317E+03  0.17120000000E+03 0.  0.
        998    1    1    2    0    0  0.43626549492E+01 -0.98188456155E+00  0.14679344974E+04  0.14679753695E+04  0.10000000000E+02 0. -1.
</event>
<event>
 5    1  0.1020718E-008  0.3795271E+03  0.7957747E-01  0.3453220E+00
         13   -1    0    0    0    0  0.00000000000E+00  0.00000000000E+00  0.14999999963E+04  0.15000000000E+04  0.10566000000E+00 0.  1.
        994   -1    0    0    0    0 -0.00000000000E+00 -0.00000000000E+00  0.11368683772E-12  0.17120000000E+03  0.17120000000E+03 0.  0.
         13    1    1    2    0    0 -0.40506349489E+01  0.14816650074E+02  0.24974690001E+02  0.29320420659E+02  0.10566000000E+00 0.  1.
        994    1    1    2    0    0  0.27182168257E+01 -0.13461535877E+02  0.50037822878E+01  0.17182281422E+03  0.17120000000E+03 0.  0.
        998    1    1    2    0    0  0.13324181231E+01 -0.13551141974E+01  0.14700215240E+04  0.14700567651E+04  0.10000000000E+02 0.  1.
</event>
<event>
 5    1  0.1020718E-008  0.3811200E+03  0.7957747E-01  0.3446296E+00
         13   -1    0    0    0    0  0.00000000000E+00  0.00000000000E+00  0.14999999963E+04  0.15000000000E+04  0.10566000000E+00 0. -1.
        994   -1    0    0    0    0 -0.00000000000E+00 -0.00000000000E+00  0.11368683772E-12  0.17120000000E+03  0.17120000000E+03 0.  0.
         13    1    1    2    0    0  0.18746314294E+02 -0.25551743835E+02  0.12726007145E+03  0.13114668453E+03  0.10566000000E+00 0. -1.
        994    1    1    2    0    0 -0.14405060038E+02  0.31558827677E+02  0.75874996625E+01  0.17484414634E+03  0.17120000000E+03 0.  0.
        998    1    1    2    0    0 -0.43412542565E+01 -0.60070838413E+01  0.13651524252E+04  0.13652091691E+04  0.10000000000E+02 0. -1.
</event>
<event>
 5    1  0.1020718E-008  0.3748652E+03  0.7957747E-01  0.3473826E+00
         13   -1    0    0    0    0  0.00000000000E+00  0.00000000000E+00  0.14999999963E+04  0.15000000000E+04  0.10566000000E+00 0. -1.
        994   -1    0    0    0    0 -0.00000000000E+00 -0.00000000000E+00  0.11368683772E-12  0.17120000000E+03  0.17120000000E+03 0.  0.
         13    1    1    2    0    0 -0.13589918083E+02 -0.23469147199E+02  0.47857239234E+02  0.55007392729E+02  0.10566000000E+00 0. -1.
        994    1    1    2    0    0  0.16376837455E+02  0.40840749945E+02  0.13360970263E+02  0.17726850591E+03  0.17120000000E+03 0.  0.
        998    1    1    2    0    0 -0.27869193715E+01 -0.17371602746E+02  0.14387817868E+04  0.14389241014E+04  0.10000000000E+02 0. -1.
</event>
<event>
 5    1  0.1020718E-008  0.3694711E+03  0.7957747E-01  0.3498325E+00
         13   -1    0    0    0    0  0.00000000000E+00  0.00000000000E+00  0.14999999963E+04  0.15000000000E+04  0.10566000000E+00 0. -1.
        994   -1    0    0    0    0 -0.00000000000E+00 -0.00000000000E+00  0.11368683772E-12  0.17120000000E+03  0.17120000000E+03 0.  0.
         13    1    1    2    0    0 -0.18180479144E+02 -0.25515434760E+02  0.36993953557E+02  0.48478149683E+02  0.10566000000E+00 0. -1.
        994    1    1    2    0    0  0.60005419794E+02  0.39565265910E+02  0.28910698196E+02  0.18791308933E+03  0.17120000000E+03 0.  0.
        998    1    1    2    0    0 -0.41824940650E+02 -0.14049831150E+02  0.14340953445E+04  0.14348087610E+04  0.10000000000E+02 0. -1.
</event>
<event>
 5    1  0.1020718E-008  0.3841963E+03  0.7957747E-01  0.3433088E+00
         13   -1    0    0    0    0  0.00000000000E+00  0.00000000000E+00  0.14999999963E+04  0.15000000000E+04  0.10566000000E+00 0.  1.
        994   -1    0    0    0    0 -0.00000000000E+00 -0.00000000000E+00  0.11368683772E-12  0.17120000000E+03  0.17120000000E+03 0.  0.
         13    1    1    2    0    0  0.16945365238E+01 -0.19213423992E+02  0.81985235185E+02  0.84223613482E+02  0.10566000000E+00 0.  1.
        994    1    1    2    0    0  0.11363567500E+02  0.30729986593E+02  0.55772036196E+01  0.17439612365E+03  0.17120000000E+03 0.  0.
        998    1    1    2    0    0 -0.13058104024E+02 -0.11516562602E+02  0.14124375575E+04  0.14125802629E+04  0.10000000000E+02 0.  1.
</event>
<event>
 5    1  0.1020718E-008  0.3809022E+03  0.7957747E-01  0.3447240E+00
         13   -1    0    0    0    0  0.00000000000E+00  0.00000000000E+00  0.14999999963E+04  0.15000000000E+04  0.10566000000E+00 0. -1.
        994   -1    0    0    0    0 -0.00000000000E+00 -0.00000000000E+00  0.11368683772E-12  0.17120000000E+03  0.17120000000E+03 0.  0.
         13    1    1    2    0    0  0.38421823500E+01  0.96871636247E+01 -0.45852735342E+01  0.11385929989E+02  0.10566000000E+00 0. -1.
        994    1    1    2    0    0  0.70960847900E+00 -0.64904654137E+01  0.16978951934E+02  0.17216374326E+03  0.17120000000E+03 0.  0.
        998    1    1    2    0    0 -0.45517908290E+01 -0.31966982110E+01  0.14876063179E+04  0.14876503267E+04  0.10000000000E+02 0. -1.
</event>
<event>
 5    1  0.1020718E-008  0.3774112E+03  0.7957747E-01  0.3462509E+00
         13   -1    0    0    0    0  0.00000000000E+00  0.00000000000E+00  0.14999999963E+04  0.15000000000E+04  0.10566000000E+00 0.  1.
        994   -1    0    0    0    0 -0.00000000000E+00 -0.00000000000E+00  0.11368683772E-12  0.17120000000E+03  0.17120000000E+03 0.  0.
         13    1    1    2    0    0 -0.75476263253E+02 -0.19239914833E+02  0.40803513910E+03  0.41540284850E+03  0.10566000000E+00 0.  1.
        994    1    1    2    0    0  0.70457887575E+02  0.36629793851E+02  0.27012544206E+02  0.19064410105E+03  0.17120000000E+03 0.  0.
        998    1    1    2    0    0  0.50183756782E+01 -0.17389879019E+02  0.10649523130E+04  0.10651530505E+04  0.10000000000E+02 0.  1.
</event>
<event>
 5    1  0.1020718E-008  0.3796529E+03  0.7957747E-01  0.3452671E+00
         13   -1    0    0    0    0  0.00000000000E+00  0.00000000000E+00  0.14999999963E+04  0.15000000000E+04  0.10566000000E+00 0.  1.
        994   -1    0    0    0    0 -0.00000000000E+00 -0.00000000000E+00  0.11368683772E-12  0.17120000000E+03  0.17120000000E+03 0.  0.
         13    1    1    2    0    0 -0.11181553666E+02  0.40731841176E-01  0.12548970626E+02  0.16808230998E+02  0.10566000000E+00 0.  1.
        994    1    1    2    0    0  0.10628651623E+02 -0.20388919042E+01  0.47005469007E+01  0.17160612010E+03  0.17120000000E+03 0.  0.
        998    1    1    2    0    0  0.55290204207E+00  0.19981600630E+01  0.14827504788E+04  0.14827856489E+04  0.10000000000E+02 0.  1.
</event>
<event>
 5    1  0.1020718E-008  0.3835195E+03  0.7957747E-01  0.3435975E+00
         13   -1    0    0    0    0  0.00000000000E+00  0.00000000000E+00  0.14999999963E+04  0.15000000000E+04  0.10566000000E+00 0. -1.
        994   -1    0    0    0    0 -0.00000000000E+00 -0.00000000000E+00  0.11368683772E-12  0.17120000000E+03  0.17120000000E+03 0.  0.
         13    1    1    2    0    0 -0.20046270627E+02 -0.48745891450E+01  0.83902133900E+02  0.86401353129E+02  0.10566000000E+00 0. -1.
        994    1    1    2    0    0  0.26453187891E+02 -0.84453892474E+01  0.49192088473E+01  0.17350715941E+03  0.17120000000E+03 0.  0.
        998    1    1    2    0    0 -0.64069172643E+01  0.13319978392E+02  0.14111786535E+04  0.14112914875E+04  0.10000000000E+02 0. -1.
</event>
<event>
 5    1  0.1020718E-008  0.3734994E+03  0.7957747E-01  0.3479961E+00
         13   -1    0    0    0    0  0.00000000000E+00  0.00000000000E+00  0.14999999963E+04  0.15000000000E+04  0.10566000000E+00 0. -1.
        994   -1    0    0    0    0 -0.00000000000E+00 -0.00000000000E+00  0.11368683772E-12  0.17120000000E+03  0.17120000000E+03 0.  0.
         13    1    1    2    0    0  0.13127921744E+02 -0.62434325604E+02  0.25782203127E+03  0.26559856610E+03  0.10566000000E+00 0. -1.
        994    1    1    2    0    0 -0.16879791597E+02  0.41640044809E+02  0.14380162782E+02  0.17758110760E+03  0.17120000000E+03 0.  0.
        998    1    1    2    0    0  0.37518698528E+01  0.20794280794E+02  0.12277978022E+04  0.12280203263E+04  0.10000000000E+02 0. -1.
</event>
<event>
 5    1  0.1020718E-008  0.3844856E+03  0.7957747E-01  0.3431857E+00
         13   -1    0    0    0    0  0.00000000000E+00  0.00000000000E+00  0.14999999963E+04  0.15000000000E+04  0.10566000000E+00 0.  1.
        994   -1    0    0    0    0 -0.00000000000E+00 -0.00000000000E+00  0.11368683772E-12  0.17120000000E+03  0.17120000000E+03 0.  0.
         13    1    1    2    0    0  0.84238777976E+01 -0.94530970076E+01  0.42966039221E+02  0.44793017877E+02  0.10566000000E+00 0.  1.
        994    1    1    2    0    0  0.25561021877E+01  0.86754822741E+01  0.21552564032E+01  0.17145227552E+03  0.17120000000E+03 0.  0.
        998    1    1    2    0    0 -0.10979979985E+02  0.77761473348E+00  0.14548787007E+04  0.14549547066E+04  0.10000000000E+02 0.  1.
</event>
<event>
 5    1  0.1020718E-008  0.3780632E+03  0.7957747E-01  0.3459635E+00
         13   -1    0    0    0    0  0.00000000000E+00  0.00000000000E+00  0.14999999963E+04  0.15000000000E+04  0.10566000000E+00 0. -1.
        994   -1    0    0    0    0 -0.00000000000E+00 -0.00000000000E+00  0.11368683772E-12  0.17120000000E+03  0.17120000000E+03 0.  0.
         13    1    1    2    0    0 -0.22180919669E+02  0.31826711054E+02  0.16840506423E+03  0.17281553621E+03  0.10566000000E+00 0. -1.
        994    1    1    2    0    0  0.76581575409E+01  0.61359323179E+01  0.54381038621E+01  0.17156721719E+03  0.17120000000E+03 0.  0.
        998    1    1    2    0    0  0.14522762128E+02 -0.37962643372E+02  0.13261568282E+04  0.13268172466E+04  0.10000000000E+02 0. -1.
</event>
<event>
 5    1  0.1020718E-008  0.3840446E+03  0.7957747E-01  0.3433734E+00
         13   -1    0    0    0    0  0.00000000000E+00  0.00000000000E+00  0.14999999963E+04  0.15000000000E+04  0.10566000000E+00 0. -1.
        994   -1    0    0    0    0 -0.00000000000E+00 -0.00000000000E+00  0.11368683772E-12  0.17120000000E+03  0.17120000000E+03 0.  0.
         13    1    1    2    0    0 -0.15414838082E+02 -0.10636130983E+02  0.79443497477E+02  0.81621228677E+02  0.10566000000E+00 0. -1.
        994    1    1    2    0    0  0.15795569000E+02  0.10379904199E+02  0.32845838376E+01  0.17227150345E+03  0.17120000000E+03 0.  0.
        998    1    1    2    0    0 -0.38073091735E+00  0.25622678363E+00  0.14172719150E+04  0.14173072679E+04  0.10000000000E+02 0.  0.
</event>
<event>
 5    1  0.1020718E-008  0.3817785E+03  0.7957747E-01  0.3443451E+00
         13   -1    0    0    0    0  0.00000000000E+00  0.00000000000E+00  0.14999999963E+04  0.15000000000E+04  0.10566000000E+00 0. -1.
        994   -1    0    0    0    0 -0.00000000000E+00 -0.00000000000E+00  0.11368683772E-12  0.17120000000E+03  0.17120000000E+03 0.  0.
         13    1    1    2    0    0 -0.23535750233E+02  0.16822626033E+02  0.14837428920E+03  0.15116836027E+03  0.10566000000E+00 0. -1.
        994    1    1    2    0    0 -0.65173482298E+01 -0.39739671825E+01  0.34317209307E+01  0.17140444846E+03  0.17120000000E+03 0.  0.
        998    1    1    2    0    0  0.30053098463E+02 -0.12848658851E+02  0.13481939861E+04  0.13486271913E+04  0.10000000000E+02 0. -1.
</event>
<event>
 5    1  0.1020718E-008  0.2956009E+03  0.7957747E-01  0.3927934E+00
         13   -1    0    0    0    0  0.00000000000E+00  0.00000000000E+00  0.14999999963E+04  0.15000000000E+04  0.10566000000E+00 0.  1.
        994   -1    0    0    0    0 -0.00000000000E+00 -0.00000000000E+00  0.11368683772E-12  0.17120000000E+03  0.17120000000E+03 0.  0.
         13    1    1    2    0    0 -0.14119233736E+03  0.67745560537E+02  0.73613233472E+03  0.75260584803E+03  0.10566000000E+00 0.  1.
        994    1    1    2    0    0  0.61665865052E+02 -0.10690825605E+03  0.75006923019E+02  0.22398109881E+03  0.17120000000E+03 0.  0.
        998    1    1    2    0    0  0.79526472304E+02  0.39162695517E+02  0.68886073854E+03  0.69461305316E+03  0.10000000000E+02 0.  1.
</event>
<event>
 5    1  0.1020718E-008  0.3839577E+03  0.7957747E-01  0.3434105E+00
         13   -1    0    0    0    0  0.00000000000E+00  0.00000000000E+00  0.14999999963E+04  0.15000000000E+04  0.10566000000E+00 0.  1.
        994   -1    0    0    0    0 -0.00000000000E+00 -0.00000000000E+00  0.11368683772E-12  0.17120000000E+03  0.17120000000E+03 0.  0.
         13    1    1    2    0    0  0.87487021534E+01  0.10315192372E+02  0.41841057619E+02  0.43973040033E+02  0.10566000000E+00 0.  1.
        994    1    1    2    0    0 -0.44078028823E+01 -0.96335487308E+01  0.25189269609E+01  0.17154596754E+03  0.17120000000E+03 0.  0.
        998    1    1    2    0    0 -0.43408992711E+01 -0.68164364091E+00  0.14556400117E+04  0.14556809924E+04  0.10000000000E+02 0.  1.
</event>
<event>
 5    1  0.1020718E-008  0.3767532E+03  0.7957747E-01  0.3465419E+00
         13   -1    0    0    0    0  0.00000000000E+00  0.00000000000E+00  0.14999999963E+04  0.15000000000E+04  0.10566000000E+00 0.  1.
        994   -1    0    0    0    0 -0.00000000000E+00 -0.00000000000E+00  0.11368683772E-12  0.17120000000E+03  0.17120000000E+03 0.  0.
         13    1    1    2    0    0  0.79649994595E+02 -0.68866423270E+01  0.42975618829E+03  0.43712920289E+03  0.10566000000E+00 0.  1.
        994    1    1    2    0    0 -0.73025959627E+02 -0.11016691840E+02  0.24439993052E+02  0.18804497212E+03  0.17120000000E+03 0.  0.
        998    1    1    2    0    0 -0.66240349687E+01  0.17903334167E+02  0.10458038149E+04  0.10460258250E+04  0.10000000000E+02 0.  1.
</event>
<event>
 5    1  0.1020718E-008  0.3852851E+03  0.7957747E-01  0.3428464E+00
         13   -1    0    0    0    0  0.00000000000E+00  0.00000000000E+00  0.14999999963E+04  0.15000000000E+04  0.10566000000E+00 0. -1.
        994   -1    0    0    0    0 -0.00000000000E+00 -0.00000000000E+00  0.11368683772E-12  0.17120000000E+03  0.17120000000E+03 0.  0.
         13    1    1    2    0    0 -0.80898382738E+01 -0.74126055755E+01  0.41015856019E+02  0.42458259664E+02  0.10566000000E+00 0. -1.
        994    1    1    2    0    0  0.61865609431E+01  0.34230124115E+00  0.16147967752E+01  0.17131969611E+03  0.17120000000E+03 0.  0.
        998    1    1    2    0    0  0.19032773307E+01  0.70703043343E+01  0.14573693435E+04  0.14574220442E+04  0.10000000000E+02 0. -1.
</event>
<event>
 5    1  0.1020718E-008  0.3753711E+03  0.7957747E-01  0.3471565E+00
         13   -1    0    0    0    0  0.00000000000E+00  0.00000000000E+00  0.14999999963E+04  0.15000000000E+04  0.10566000000E+00 0. -1.
        994   -1    0    0    0    0 -0.00000000000E+00 -0.00000000000E+00  0.11368683772E-12  0.17120000000E+03  0.17120000000E+03 0.  0.
         13    1    1    2    0    0  0.13631823941E+02  0.88815376186E+01  0.17520719129E+02  0.23910146324E+02  0.10566000000E+00 0. -1.
        994    1    1    2    0    0 -0.11235502731E+02 -0.70160942668E+01  0.70841923729E+01  0.17185775479E+03  0.17120000000E+03 0.  0.
        998    1    1    2    0    0 -0.23963212095E+01 -0.18654433519E+01  0.14753950848E+04  0.14754320989E+04  0.10000000000E+02 0. -1.
</event>
<event>
 5    1  0.1020718E-008  0.3837833E+03  0.7957747E-01  0.3434849E+00
         13   -1    0    0    0    0  0.00000000000E+00  0.00000000000E+00  0.14999999963E+04  0.15000000000E+04  0.10566000000E+00 0. -1.
        994   -1    0    0    0    0 -0.00000000000E+00 -0.00000000000E+00  0.11368683772E-12  0.17120000000E+03  0.17120000000E+03 0.  0.
         13    1    1    2    0    0  0.12540583090E+02  0.15550768955E+01  0.37236347718E+02  0.39322274143E+02  0.10566000000E+00 0. -1.
        994    1    1    2    0    0  0.58919655920E+01 -0.45532178265E+01  0.24184845560E+01  0.17137892554E+03  0.17120000000E+03 0.  0.
        998    1    1    2    0    0 -0.18432548682E+02  0.29981409310E+01  0.14603451640E+04  0.14604988003E+04  0.10000000000E+02 0. -1.
</event>
<event>
 5    1  0.1020718E-008  0.3793950E+03  0.7957747E-01  0.3453797E+00
         13   -1    0    0    0    0  0.00000000000E+00  0.00000000000E+00  0.14999999963E+04  0.15000000000E+04  0.10566000000E+00 0.  1.
        994   -1    0    0    0    0 -0.00000000000E+00 -0.00000000000E+00  0.11368683772E-12  0.17120000000E+03  0.17120000000E+03 0.  0.
         13    1    1    2    0    0  0.37260877715E+02  0.71102574858E+01  0.22345208276E+03  0.22664900888E+03  0.10566000000E+00 0.  1.
        994    1    1    2    0    0  0.41601086777E+01  0.54065477761E+02  0.14351706366E+02  0.18015491630E+03  0.17120000000E+03 0.  0.
        998    1    1    2    0    0 -0.41420986393E+02 -0.61175735247E+02  0.12621962071E+04  0.12643960748E+04  0.10000000000E+02 0.  1.
</event>
<event>
 5    1  0.1020718E-008  0.3859671E+03  0.7957747E-01  0.3425581E+00
         13   -1    0    0    0    0  0.00000000000E+00  0.00000000000E+00  0.14999999963E+04  0.15000000000E+04  0.10566000000E+00 0.  1.
        994   -1    0    0    0    0 -0.00000000000E+00 -0.00000000000E+00  0.11368683772E-12  0.17120000000E+03  0.17120000000E+03 0.  0.
         13    1    1    2    0    0  0.89191039773E+01  0.84966934551E+01  0.65234294770E+02  0.66387262285E+02  0.10566000000E+00 0.  1.
        994    1    1    2    0    0 -0.11329942869E+02 -0.42700207333E+01  0.16314886614E+01  0.17163537642E+03  0.17120000000E+03 0.  0.
        998    1    1    2    0    0  0.24108388922E+01 -0.42266727219E+01  0.14331342128E+04  0.14331773613E+04  0.10000000000E+02 0.  1.
</event>
<event>
 5    1  0.1020718E-008  0.3758340E+03  0.7957747E-01  0.3469501E+00
         13   -1    0    0    0    0  0.00000000000E+00  0.00000000000E+00  0.14999999963E+04  0.15000000000E+04  0.10566000000E+00 0.  1.
        994   -1    0    0    0    0 -0.00000000000E+00 -0.00000000000E+00  0.11368683772E-12  0.17120000000E+03  0.17120000000E+03 0.  0.
         13    1    1    2    0    0  0.16677663432E+02 -0.29475612598E+02  0.33797318367E+02  0.47845857589E+02  0.10566000000E+00 0.  1.
        994    1    1    2    0    0 -0.16508333638E+02  0.37849332139E+02  0.20167850998E+02  0.17726048414E+03  0.17120000000E+03 0.  0.
        998    1    1    2    0    0 -0.16932979411E+00 -0.83737195409E+01  0.14460348269E+04  0.14460936583E+04  0.10000000000E+02 0.  1.
</event>
<event>
 5    1  0.1020718E-008  0.3834104E+03  0.7957747E-01  0.3436442E+00
         13   -1    0    0    0    0  0.00000000000E+00  0.00000000000E+00  0.14999999963E+04  0.15000000000E+04  0.10566000000E+00 0. -1.
        994   -1    0    0    0    0 -0.00000000000E+00 -0.00000000000E+00  0.11368683772E-12  0.17120000000E+03  0.17120000000E+03 0.  0.
         13    1    1    2    0    0 -0.77669004938E+01 -0.81120125029E+01  0.25062776134E+02  0.27464220392E+02  0.10566000000E+00 0. -1.
        994    1    1    2    0    0  0.46219186771E+01  0.90145149348E+01  0.27607147662E+01  0.17152167548E+03  0.17120000000E+03 0.  0.
        998    1    1    2    0    0  0.31449818167E+01 -0.90250243195E+00  0.14721765054E+04  0.14722141041E+04  0.10000000000E+02 0. -1.
</event>
<event>
 5    1  0.1020718E-008  0.3842459E+03  0.7957747E-01  0.3432877E+00
         13   -1    0    0    0    0  0.00000000000E+00  0.00000000000E+00  0.14999999963E+04  0.15000000000E+04  0.10566000000E+00 0. -1.
        994   -1    0    0    0    0 -0.00000000000E+00 -0.00000000000E+00  0.11368683772E-12  0.17120000000E+03  0.17120000000E+03 0.  0.
         13    1    1    2    0    0  0.19699151220E+01 -0.99169888406E+01  0.24882744015E+02  0.26858692206E+02  0.10566000000E+00 0. -1.
        994    1    1    2    0    0 -0.53429508643E-01  0.76261408988E+01  0.21967762475E+01  0.17138385777E+03  0.17120000000E+03 0.  0.
        998    1    1    2    0    0 -0.19164856134E+01  0.22908479418E+01  0.14729204760E+04  0.14729574500E+04  0.10000000000E+02 0. -1.
</event>
<event>
 5    1  0.1020718E-008  0.3855286E+03  0.7957747E-01  0.3427433E+00
         13   -1    0    0    0    0  0.00000000000E+00  0.00000000000E+00  0.14999999963E+04  0.15000000000E+04  0.10566000000E+00 0. -1.
        994   -1    0    0    0    0 -0.00000000000E+00 -0.00000000000E+00  0.11368683772E-12  0.17120000000E+03  0.17120000000E+03 0.  0.
         13    1    1    2    0    0  0.80129887829E+01  0.78594665096E+01  0.45050792285E+02  0.46428054585E+02  0.10566000000E+00 0. -1.
        994    1    1    2    0    0 -0.86353489717E+01 -0.85176658093E+01  0.18510662985E+01  0.17163911655E+03  0.17120000000E+03 0.  0.
        998    1    1    2    0    0  0.62236018875E+00  0.65819929972E+00  0.14530981377E+04  0.14531328289E+04  0.10000000000E+02 0. -1.
</event>
<event>
 5    1  0.1020718E-008  0.3854894E+03  0.7957747E-01  0.3427599E+00
         13   -1    0    0    0    0  0.00000000000E+00  0.00000000000E+00  0.14999999963E+04  0.15000000000E+04  0.10566000000E+00 0.  1.
        994   -1    0    0    0    0 -0.00000000000E+00 -0.00000000000E+00  0.11368683772E-12  0.17120000000E+03  0.17120000000E+03 0.  0.
         13    1    1    2    0    0  0.61671233643E+01  0.11902984157E+02  0.63603710661E+02  0.65001212422E+02  0.10566000000E+00 0.  1.
        994    1    1    2    0    0 -0.72235231221E+01 -0.10133260847E+02  0.18959931817E+01  0.17166215964E+03  0.17120000000E+03 0.  0.
        998    1    1    2    0    0  0.10563997579E+01 -0.17697233097E+01  0.14345002924E+04  0.14345366279E+04  0.10000000000E+02 0.  1.
</event>
<event>
 5    1  0.1020718E-008  0.3757194E+03  0.7957747E-01  0.3470011E+00
         13   -1    0    0    0    0  0.00000000000E+00  0.00000000000E+00  0.14999999963E+04  0.15000000000E+04  0.10566000000E+00 0.  1.
        994   -1    0    0    0    0 -0.00000000000E+00 -0.00000000000E+00  0.11368683772E-12  0.17120000000E+03  0.17120000000E+03 0.  0.
         13    1    1    2    0    0  0.24347790510E+02 -0.54991183648E+02  0.12525795358E+03  0.13894751269E+03  0.10566000000E+00 0.  1.
        994    1    1    2    0    0 -0.19766159188E+01  0.39532306137E+02  0.19605738531E+02  0.17680649089E+03  0.17120000000E+03 0.  0.
        998    1    1    2    0    0 -0.22371174591E+02  0.15458877510E+02  0.13551363042E+04  0.13554459964E+04  0.10000000000E+02 0.  1.
</event>
<event>
 5    1  0.1020718E-008  0.3853139E+03  0.7957747E-01  0.3428342E+00
         13   -1    0    0    0    0  0.00000000000E+00  0.00000000000E+00  0.14999999963E+04  0.15000000000E+04  0.10566000000E+00 0.  1.
        994   -1    0    0    0    0 -0.00000000000E+00 -0.00000000000E+00  0.11368683772E-12  0.17120000000E+03  0.17120000000E+03 0.  0.
         13    1    1    2    0    0 -0.32502990162E+01  0.10610025324E+02  0.44711971484E+02  0.46068521130E+02  0.10566000000E+00 0.  1.
        994    1    1    2    0    0  0.77918906140E+01  0.70299774798E+01  0.18362606421E+01  0.17153118083E+03  0.17120000000E+03 0.  0.
        998    1    1    2    0    0 -0.45415915978E+01 -0.17640002804E+02  0.14534517642E+04  0.14536002980E+04  0.10000000000E+02 0.  1.
</event>
<event>
 5    1  0.1020718E-008  0.3814206E+03  0.7957747E-01  0.3444996E+00
         13   -1    0    0    0    0  0.00000000000E+00  0.00000000000E+00  0.14999999963E+04  0.15000000000E+04  0.10566000000E+00 0.  1.
        994   -1    0    0    0    0 -0.00000000000E+00 -0.00000000000E+00  0.11368683772E-12  0.17120000000E+03  0.17120000000E+03 0.  0.
         13    1    1    2    0    0 -0.33702048824E+01 -0.33636438350E+02  0.16864138235E+03  0.17199620714E+03  0.10566000000E+00 0.  1.
        994    1    1    2    0    0 -0.18687914917E+02  0.20282570545E+02  0.59526900003E+01  0.17350935234E+03  0.17120000000E+03 0.  0.
        998    1    1    2    0    0  0.22058119799E+02  0.13353867805E+02  0.13254059239E+04  0.13256944405E+04  0.10000000000E+02 0.  1.
</event>
<event>
 5    1  0.1020718E-008  0.3856392E+03  0.7957747E-01  0.3426966E+00
         13   -1    0    0    0    0  0.00000000000E+00  0.00000000000E+00  0.14999999963E+04  0.15000000000E+04  0.10566000000E+00 0.  1.
        994   -1    0    0    0    0 -0.00000000000E+00 -0.00000000000E+00  0.11368683772E-12  0.17120000000E+03  0.17120000000E+03 0.  0.
         13    1    1    2    0    0  0.13126544535E+02  0.64029831819E+01  0.82858334840E+02  0.84135718821E+02  0.10566000000E+00 0.  1.
        994    1    1    2    0    0 -0.54651069444E+01 -0.67620253900E+01  0.15612178315E+01  0.17142773924E+03  0.17120000000E+03 0.  0.
        998    1    1    2    0    0 -0.76614375909E+01  0.35904220815E+00  0.14155804436E+04  0.14156365419E+04  0.10000000000E+02 0.  1.
</event>
<event>
 5    1  0.1020718E-008  0.3827585E+03  0.7957747E-01  0.3439235E+00
         13   -1    0    0    0    0  0.00000000000E+00  0.00000000000E+00  0.14999999963E+04  0.15000000000E+04  0.10566000000E+00 0. -1.
        994   -1    0    0    0    0 -0.00000000000E+00 -0.00000000000E+00  0.11368683772E-12  0.17120000000E+03  0.17120000000E+03 0.  0.
         13    1    1    2    0    0  0.21213066421E+02  0.12853707769E+02  0.11740702358E+03  0.11999846808E+03  0.10566000000E+00 0. -1.
        994    1    1    2    0    0 -0.18336465535E+02  0.15355555615E+02  0.46443626219E+01  0.17292492348E+03  0.17120000000E+03 0.  0.
        998    1    1    2    0    0 -0.28766008856E+01 -0.28209263384E+02  0.13779486101E+04  0.13782766084E+04  0.10000000000E+02 0. -1.
</event>
<event>
 5    1  0.1020718E-008  0.3817343E+03  0.7957747E-01  0.3443641E+00
         13   -1    0    0    0    0  0.00000000000E+00  0.00000000000E+00  0.14999999963E+04  0.15000000000E+04  0.10566000000E+00 0. -1.
        994   -1    0    0    0    0 -0.00000000000E+00 -0.00000000000E+00  0.11368683772E-12  0.17120000000E+03  0.17120000000E+03 0.  0.
         13    1    1    2    0    0 -0.12315292044E+02  0.19976653437E+02  0.82219461955E+02  0.85503123855E+02  0.10566000000E+00 0. -1.
        994    1    1    2    0    0  0.14667535698E+02 -0.11417046963E+02  0.44094084263E+01  0.17226249867E+03  0.17120000000E+03 0.  0.
        998    1    1    2    0    0 -0.23522436545E+01 -0.85596064741E+01  0.14133711259E+04  0.14134343775E+04  0.10000000000E+02 0. -1.
</event>
<event>
 5    1  0.1020718E-008  0.3856508E+03  0.7957747E-01  0.3426917E+00
         13   -1    0    0    0    0  0.00000000000E+00  0.00000000000E+00  0.14999999963E+04  0.15000000000E+04  0.10566000000E+00 0. -1.
        994   -1    0    0    0    0 -0.00000000000E+00 -0.00000000000E+00  0.11368683772E-12  0.17120000000E+03  0.17120000000E+03 0.  0.
         13    1    1    2    0    0  0.11381048972E+02  0.88963683350E+01  0.85046130396E+02  0.86264297972E+02  0.10566000000E+00 0. -1.
        994    1    1    2    0    0 -0.10657586893E+02  0.91169553879E+01  0.19531727099E+01  0.17178462655E+03  0.17120000000E+03 0.  0.
        998    1    1    2    0    0 -0.72346207899E+00 -0.18013323723E+02  0.14130006932E+04  0.14131510755E+04  0.10000000000E+02 0. -1.
</event>
<event>
 5    1  0.1020718E-008  0.3762100E+03  0.7957747E-01  0.3467829E+00
         13   -1    0    0    0    0  0.00000000000E+00  0.00000000000E+00  0.14999999963E+04  0.15000000000E+04  0.10566000000E+00 0. -1.
        994   -1    0    0    0    0 -0.00000000000E+00 -0.00000000000E+00  0.11368683772E-12  0.17120000000E+03  0.17120000000E+03 0.  0.
         13    1    1    2    0    0 -0.13732940858E+02  0.66689694118E+02  0.19315550101E+03  0.20480519452E+03  0.10566000000E+00 0. -1.
        994    1    1    2    0    0  0.10095507396E+02  0.56535113485E+01  0.14739507915E+02  0.17222245659E+03  0.17120000000E+03 0.  0.
        998    1    1    2    0    0  0.36374334621E+01 -0.72343205467E+02  0.12921049873E+04  0.12941723489E+04  0.10000000000E+02 0. -1.
</event>
<event>
 5    1  0.1020718E-008  0.3693094E+03  0.7957747E-01  0.3499071E+00
         13   -1    0    0    0    0  0.00000000000E+00  0.00000000000E+00  0.14999999963E+04  0.15000000000E+04  0.10566000000E+00 0. -1.
        994   -1    0    0    0    0 -0.00000000000E+00 -0.00000000000E+00  0.11368683772E-12  0.17120000000E+03  0.17120000000E+03 0.  0.
         13    1    1    2    0    0 -0.94849154155E+02 -0.84496376245E+02  0.74200845862E+03  0.75280313726E+03  0.10566000000E+00 0. -1.
        994    1    1    2    0    0  0.10056709435E+03  0.26013712066E+02  0.48018894040E+02  0.20592646228E+03  0.17120000000E+03 0.  0.
        998    1    1    2    0    0 -0.57179401912E+01  0.58482664179E+02  0.70997264362E+03  0.71247040046E+03  0.10000000000E+02 0.  1.
</event>
<event>
 5    1  0.1020718E-008  0.3712215E+03  0.7957747E-01  0.3490296E+00
         13   -1    0    0    0    0  0.00000000000E+00  0.00000000000E+00  0.14999999963E+04  0.15000000000E+04  0.10566000000E+00 0.  1.
        994   -1    0    0    0    0 -0.00000000000E+00 -0.00000000000E+00  0.11368683772E-12  0.17120000000E+03  0.17120000000E+03 0.  0.
         13    1    1    2    0    0  0.18274545454E+02  0.44709699370E+02  0.14561876802E+03  0.15342018444E+03  0.10566000000E+00 0.  1.
        994    1    1    2    0    0  0.22451478710E+02 -0.18440611937E+02  0.11543970261E+02  0.17403111306E+03  0.17120000000E+03 0.  0.
        998    1    1    2    0    0 -0.40726024165E+02 -0.26269087433E+02  0.13428372580E+04  0.13437487025E+04  0.10000000000E+02 0.  1.
</event>
<event>
 5    1  0.1020718E-008  0.3804649E+03  0.7957747E-01  0.3449137E+00
         13   -1    0    0    0    0  0.00000000000E+00  0.00000000000E+00  0.14999999963E+04  0.15000000000E+04  0.10566000000E+00 0. -1.
        994   -1    0    0    0    0 -0.00000000000E+00 -0.00000000000E+00  0.11368683772E-12  0.17120000000E+03  0.17120000000E+03 0.  0.
         13    1    1    2    0    0  0.21561122866E+02  0.21571116760E+01  0.59438032280E+02  0.63264729473E+02  0.10566000000E+00 0. -1.
        994    1    1    2    0    0 -0.11704660526E+02  0.27588721148E+01  0.43814861301E+01  0.17167774426E+03  0.17120000000E+03 0.  0.
        998    1    1    2    0    0 -0.98564623402E+01 -0.49159837908E+01  0.14361804779E+04  0.14362575263E+04  0.10000000000E+02 0. -1.
</event>
<event>
 5    1  0.1020718E-008  0.3842723E+03  0.7957747E-01  0.3432764E+00
         13   -1    0    0    0    0  0.00000000000E+00  0.00000000000E+00  0.14999999963E+04  0.15000000000E+04  0.10566000000E+00 0. -1.
        994   -1    0    0    0    0 -0.00000000000E+00 -0.00000000000E+00  0.11368683772E-12  0.17120000000E+03  0.17120000000E+03 0.  0.
         13    1    1    2    0    0 -0.90789268527E+01  0.12501055342E+02  0.57595146661E+02  0.59631496547E+02  0.10566000000E+00 0. -1.
        994    1    1    2    0    0  0.69461755519E+01 -0.15267534798E+02  0.29198255155E+01  0.17204450690E+03  0.17120000000E+03 0.  0.
        998    1    1    2    0    0  0.21327513009E+01  0.27664794554E+01  0.14394850241E+04  0.14395239966E+04  0.10000000000E+02 0. -1.
</event>
<event>
 5    1  0.1020718E-008  0.3858139E+03  0.7957747E-01  0.3426228E+00
         13   -1    0    0    0    0  0.00000000000E+00  0.00000000000E+00  0.14999999963E+04  0.15000000000E+04  0.10566000000E+00 0. -1.
        994   -1    0    0    0    0 -0.00000000000E+00 -0.00000000000E+00  0.11368683772E-12  0.17120000000E+03  0.17120000000E+03 0.  0.
         13    1    1    2    0    0  0.67093592097E+01  0.11353778921E+02  0.71435099096E+02  0.72642331624E+02  0.10566000000E+00 0. -1.
        994    1    1    2    0    0 -0.48228862775E+01 -0.74759157415E+01  0.14862279796E+01  0.17143744755E+03  0.17120000000E+03 0.  0.
        998    1    1    2    0    0 -0.18864729322E+01 -0.38778631799E+01  0.14270786692E+04  0.14271202208E+04  0.10000000000E+02 0. -1.
</event>
<event>
 5    1  0.1020718E-008  0.3816243E+03  0.7957747E-01  0.3444117E+00
         13   -1    0    0    0    0  0.00000000000E+00  0.00000000000E+00  0.14999999963E+04  0.15000000000E+04  0.10566000000E+00 0. -1.
        994   -1    0    0    0    0 -0.00000000000E+00 -0.00000000000E+00  0.11368683772E-12  0.17120000000E+03  0.17120000000E+03 0.  0.
         13    1    1    2    0    0 -0.15003814578E+01 -0.50590869387E+02  0.30284420665E+03  0.30704447866E+03  0.10566000000E+00 0. -1.
        994    1    1    2    0    0  0.74907282855E+02  0.63316209079E+02  0.35992399895E+02  0.20056155217E+03  0.17120000000E+03 0.  0.
        998    1    1    2    0    0 -0.73406901397E+02 -0.12725339691E+02  0.11611633897E+04  0.11635939692E+04  0.10000000000E+02 0. -1.
</event>
<event>
 5    1  0.1020718E-008  0.3815090E+03  0.7957747E-01  0.3444614E+00
         13   -1    0    0    0    0  0.00000000000E+00  0.00000000000E+00  0.14999999963E+04  0.15000000000E+04  0.10566000000E+00 0. -1.
        994   -1    0    0    0    0 -0.00000000000E+00 -0.00000000000E+00  0.11368683772E-12  0.17120000000E+03  0.17120000000E+03 0.  0.
         13    1    1    2    0    0  0.28286991181E+02  0.49018491661E+01  0.13184469759E+03  0.13493412260E+03  0.10566000000E+00 0. -1.
        994    1    1    2    0    0 -0.29585188618E+01 -0.79160490226E+01  0.36109162742E+01  0.17144647964E+03  0.17120000000E+03 0.  0.
        998    1    1    2    0    0 -0.25328472320E+02  0.30141998564E+01  0.13645443824E+04  0.13648193978E+04  0.10000000000E+02 0. -1.
</event>
<event>
 5    1  0.1020718E-008  0.3825882E+03  0.7957747E-01  0.3439966E+00
         13   -1    0    0    0    0  0.00000000000E+00  0.00000000000E+00  0.14999999963E+04  0.15000000000E+04  0.10566000000E+00 0.  1.
        994   -1    0    0    0    0 -0.00000000000E+00 -0.00000000000E+00  0.11368683772E-12  0.17120000000E+03  0.17120000000E+03 0.  0.
         13    1    1    2    0    0  0.10900163401E+02 -0.20654300574E+02  0.92200771266E+02  0.95112602111E+02  0.10566000000E+00 0.  1.
        994    1    1    2    0    0 -0.63429661911E+01  0.19751815171E+02  0.42600833767E+01  0.17250494408E+03  0.17120000000E+03 0.  0.
        998    1    1    2    0    0 -0.45571972097E+01  0.90248540359E+00  0.14035391416E+04  0.14035824538E+04  0.10000000000E+02 0.  1.
</event>
<event>
 5    1  0.1020718E-008  0.3834309E+03  0.7957747E-01  0.3436354E+00
         13   -1    0    0    0    0  0.00000000000E+00  0.00000000000E+00  0.14999999963E+04  0.15000000000E+04  0.10566000000E+00 0. -1.
        994   -1    0    0    0    0 -0.00000000000E+00 -0.00000000000E+00  0.11368683772E-12  0.17120000000E+03  0.17120000000E+03 0.  0.
         13    1    1    2    0    0 -0.38332519135E+01 -0.97151542435E+01  0.21845654997E+02  0.24214083680E+02  0.10566000000E+00 0. -1.
        994    1    1    2    0    0  0.32917824667E+01  0.55467510242E+01  0.25487119368E+01  0.17134041616E+03  0.17120000000E+03 0.  0.
        998    1    1    2    0    0  0.54146944680E+00  0.41684032193E+01  0.14756056293E+04  0.14756455002E+04  0.10000000000E+02 0. -1.
</event>
<event>
 5    1  0.1141991E-008  0.3858878E+03  0.7957747E-01  0.3425916E+00
         13   -1    0    0    0    0  0.00000000000E+00  0.00000000000E+00  0.14999999963E+04  0.15000000000E+04  0.10566000000E+00 0. -1.
        994   -1    0    0    0    0 -0.00000000000E+00 -0.00000000000E+00  0.11368683772E-12  0.17120000000E+03  0.17120000000E+03 0.  0.
         13    1    1    2    0    0 -0.10542483323E+02  0.37885985058E+01  0.51985583468E+02  0.53179032389E+02  0.10566000000E+00 0. -1.
        994    1    1    2    0    0  0.91453939584E+01 -0.77314423687E+01  0.16604320706E+01  0.17162636880E+03  0.17120000000E+03 0.  0.
        998    1    1    2    0    0  0.13970893650E+01  0.39428438629E+01  0.14463539807E+04  0.14463945988E+04  0.10000000000E+02 0. -1.
</event>
<event>
 5    1  0.1020718E-008  0.3816300E+03  0.7957747E-01  0.3444092E+00
         13   -1    0    0    0    0  0.00000000000E+00  0.00000000000E+00  0.14999999963E+04  0.15000000000E+04  0.10566000000E+00 0. -1.
        994   -1    0    0    0    0 -0.00000000000E+00 -0.00000000000E+00  0.11368683772E-12  0.17120000000E+03  0.17120000000E+03 0.  0.
         13    1    1    2    0    0 -0.18223228794E+02 -0.15441835429E+01  0.51311673058E+02  0.54473567228E+02  0.10566000000E+00 0. -1.
        994    1    1    2    0    0  0.30031058911E+01 -0.56132647866E+01  0.34473500536E+01  0.17135300292E+03  0.17120000000E+03 0.  0.
        998    1    1    2    0    0  0.15220122903E+02  0.71574483295E+01  0.14452409732E+04  0.14453734299E+04  0.10000000000E+02 0. -1.
</event>
<event>
 5    1  0.1020718E-008  0.3835967E+03  0.7957747E-01  0.3435646E+00
         13   -1    0    0    0    0  0.00000000000E+00  0.00000000000E+00  0.14999999963E+04  0.15000000000E+04  0.10566000000E+00 0.  1.
        994   -1    0    0    0    0 -0.00000000000E+00 -0.00000000000E+00  0.11368683772E-12  0.17120000000E+03  0.17120000000E+03 0.  0.
         13    1    1    2    0    0 -0.36557609603E+01 -0.16823219779E+02  0.60744546765E+02  0.63137124085E+02  0.10566000000E+00 0.  1.
        994    1    1    2    0    0  0.16637920679E+01  0.18524465955E+02  0.34721152198E+01  0.17224232821E+03  0.17120000000E+03 0.  0.
        998    1    1    2    0    0  0.19919688924E+01 -0.17012461754E+01  0.14357833343E+04  0.14358205477E+04  0.10000000000E+02 0.  1.
</event>
<event>
 5    1  0.1020718E-008  0.3748993E+03  0.7957747E-01  0.3473673E+00
         13   -1    0    0    0    0  0.00000000000E+00  0.00000000000E+00  0.14999999963E+04  0.15000000000E+04  0.10566000000E+00 0.  1.
        994   -1    0    0    0    0 -0.00000000000E+00 -0.00000000000E+00  0.11368683772E-12  0.17120000000E+03  0.17120000000E+03 0.  0.
         13    1    1    2    0    0  0.30631457897E+02  0.38353979493E+02  0.23990781284E+03  0.24487769148E+03  0.10566000000E+00 0.  1.
        994    1    1    2    0    0  0.16425430250E+02  0.68500017251E+01  0.78081065650E+01  0.17229951773E+03  0.17120000000E+03 0.  0.
        998    1    1    2    0    0 -0.47056888147E+02 -0.45203981218E+02  0.12522840769E+04  0.12540227908E+04  0.10000000000E+02 0.  1.
</event>
<event>
 5    1  0.1020718E-008  0.3818003E+03  0.7957747E-01  0.3443357E+00
         13   -1    0    0    0    0  0.00000000000E+00  0.00000000000E+00  0.14999999963E+04  0.15000000000E+04  0.10566000000E+00 0. -1.
        994   -1    0    0    0    0 -0.00000000000E+00 -0.00000000000E+00  0.11368683772E-12  0.17120000000E+03  0.17120000000E+03 0.  0.
         13    1    1    2    0    0 -0.36646888801E+02  0.30227742374E+02  0.28465967220E+03  0.28859634615E+03  0.10566000000E+00 0. -1.
        994    1    1    2    0    0  0.51313622684E+02 -0.14495199887E+02  0.12733705298E+02  0.17976313844E+03  0.17120000000E+03 0.  0.
        998    1    1    2    0    0 -0.14666733883E+02 -0.15732542486E+02  0.12026066188E+04  0.12028405154E+04  0.10000000000E+02 0. -1.
</event>
<event>
 5    1  0.1020718E-008  0.3752707E+03  0.7957747E-01  0.3472013E+00
         13   -1    0    0    0    0  0.00000000000E+00  0.00000000000E+00  0.14999999963E+04  0.15000000000E+04  0.10566000000E+00 0.  1.
        994   -1    0    0    0    0 -0.00000000000E+00 -0.00000000000E+00  0.11368683772E-12  0.17120000000E+03  0.17120000000E+03 0.  0.
         13    1    1    2    0    0 -0.11220948497E+03  0.67527009628E+02  0.69079677558E+03  0.70310103247E+03  0.10566000000E+00 0.  1.
        994    1    1    2    0    0  0.10621186944E+03 -0.72781541168E+02  0.65102192734E+02  0.22388802881E+03  0.17120000000E+03 0.  0.
        998    1    1    2    0    0  0.59976155314E+01  0.52545315399E+01  0.74410102796E+03  0.74421093872E+03  0.10000000000E+02 0.  0.
</event>
<event>
 5    1  0.1020718E-008  0.3759715E+03  0.7957747E-01  0.3468889E+00
         13   -1    0    0    0    0  0.00000000000E+00  0.00000000000E+00  0.14999999963E+04  0.15000000000E+04  0.10566000000E+00 0. -1.
        994   -1    0    0    0    0 -0.00000000000E+00 -0.00000000000E+00  0.11368683772E-12  0.17120000000E+03  0.17120000000E+03 0.  0.
         13    1    1    2    0    0  0.50447462607E+01 -0.11401374383E+02  0.97954027910E+01  0.15855657745E+02  0.10566000000E+00 0. -1.
        994    1    1    2    0    0 -0.66062574936E+01  0.69969900927E+01  0.64944872592E+01  0.17159317840E+03  0.17120000000E+03 0.  0.
        998    1    1    2    0    0  0.15615112329E+01  0.44043842903E+01  0.14837101062E+04  0.14837511639E+04  0.10000000000E+02 0. -1.
</event>
<event>
 5    1  0.1020718E-008  0.3778123E+03  0.7957747E-01  0.3460740E+00
         13   -1    0    0    0    0  0.00000000000E+00  0.00000000000E+00  0.14999999963E+04  0.15000000000E+04  0.10566000000E+00 0.  1.
        994   -1    0    0    0    0 -0.00000000000E+00 -0.00000000000E+00  0.11368683772E-12  0.17120000000E+03  0.17120000000E+03 0.  0.
         13    1    1    2    0    0 -0.17565324405E+02 -0.27051257764E+02  0.26084802794E+02  0.41481794427E+02  0.10566000000E+00 0.  1.
        994    1    1    2    0    0  0.56864948158E+02  0.28423597205E+02  0.29805648185E+02  0.18503875235E+03  0.17120000000E+03 0.  0.
        998    1    1    2    0    0 -0.39299623753E+02 -0.13723394415E+01  0.14441095453E+04  0.14446794532E+04  0.10000000000E+02 0.  1.
</event>
<event>
 5    1  0.1020718E-008  0.3771096E+03  0.7957747E-01  0.3463841E+00
         13   -1    0    0    0    0  0.00000000000E+00  0.00000000000E+00  0.14999999963E+04  0.15000000000E+04  0.10566000000E+00 0.  1.
        994   -1    0    0    0    0 -0.00000000000E+00 -0.00000000000E+00  0.11368683772E-12  0.17120000000E+03  0.17120000000E+03 0.  0.
         13    1    1    2    0    0  0.88614236749E+01 -0.36339967359E+02  0.13031005905E+03  0.13557227118E+03  0.10566000000E+00 0.  1.
        994    1    1    2    0    0  0.28304597176E+02  0.19248154376E+02  0.95640811917E+01  0.17485008812E+03  0.17120000000E+03 0.  0.
        998    1    1    2    0    0 -0.37166020851E+02  0.17091812984E+02  0.13601258560E+04  0.13607776407E+04  0.10000000000E+02 0.  1.
</event>
<event>
 5    1  0.1020718E-008  0.3812323E+03  0.7957747E-01  0.3445810E+00
         13   -1    0    0    0    0  0.00000000000E+00  0.00000000000E+00  0.14999999963E+04  0.15000000000E+04  0.10566000000E+00 0.  1.
        994   -1    0    0    0    0 -0.00000000000E+00 -0.00000000000E+00  0.11368683772E-12  0.17120000000E+03  0.17120000000E+03 0.  0.
         13    1    1    2    0    0  0.94595594920E+01 -0.20687640282E+02  0.71265053512E+02  0.74807624894E+02  0.10566000000E+00 0.  1.
        994    1    1    2    0    0 -0.12203713940E+02  0.14136648097E+02  0.46744239314E+01  0.17227903440E+03  0.17120000000E+03 0.  0.
        998    1    1    2    0    0  0.27441544478E+01  0.65509921841E+01  0.14240605188E+04  0.14241133407E+04  0.10000000000E+02 0.  1.
</event>
<event>
 5    1  0.1020718E-008  0.3802321E+03  0.7957747E-01  0.3450148E+00
         13   -1    0    0    0    0  0.00000000000E+00  0.00000000000E+00  0.14999999963E+04  0.15000000000E+04  0.10566000000E+00 0.  1.
        994   -1    0    0    0    0 -0.00000000000E+00 -0.00000000000E+00  0.11368683772E-12  0.17120000000E+03  0.17120000000E+03 0.  0.
         13    1    1    2    0    0 -0.28368544368E+02 -0.17158310285E+03  0.84376803390E+03  0.86150452215E+03  0.10566000000E+00 0.  1.
        994    1    1    2    0    0  0.35714803740E+02  0.19172684842E+03  0.14373856265E+03  0.29665627585E+03  0.17120000000E+03 0.  0.
        998    1    1    2    0    0 -0.73462593720E+01 -0.20143745572E+02  0.51249339973E+03  0.51303920199E+03  0.10000000000E+02 0.  1.
</event>
<event>
 5    1  0.1020718E-008  0.3807967E+03  0.7957747E-01  0.3447697E+00
         13   -1    0    0    0    0  0.00000000000E+00  0.00000000000E+00  0.14999999963E+04  0.15000000000E+04  0.10566000000E+00 0. -1.
        994   -1    0    0    0    0 -0.00000000000E+00 -0.00000000000E+00  0.11368683772E-12  0.17120000000E+03  0.17120000000E+03 0.  0.
         13    1    1    2    0    0 -0.12276531540E+01  0.14777001664E+02  0.31312225239E+02  0.34645829820E+02  0.10566000000E+00 0. -1.
        994    1    1    2    0    0 -0.33354101274E+02  0.21749226343E+02  0.90359887456E+01  0.17600174434E+03  0.17120000000E+03 0.  0.
        998    1    1    2    0    0  0.34581754428E+02 -0.36526228007E+02  0.14596517823E+04  0.14605524258E+04  0.10000000000E+02 0. -1.
</event>
<event>
 5    1  0.1020718E-008  0.3702246E+03  0.7957747E-01  0.3494859E+00
         13   -1    0    0    0    0  0.00000000000E+00  0.00000000000E+00  0.14999999963E+04  0.15000000000E+04  0.10566000000E+00 0.  1.
        994   -1    0    0    0    0 -0.00000000000E+00 -0.00000000000E+00  0.11368683772E-12  0.17120000000E+03  0.17120000000E+03 0.  0.
         13    1    1    2    0    0  0.24779307742E+02 -0.17719942138E+02  0.46907439171E+02  0.55931471062E+02  0.10566000000E+00 0.  1.
        994    1    1    2    0    0 -0.69477706444E+01  0.28259329107E+02  0.12083152202E+02  0.17407556912E+03  0.17120000000E+03 0.  0.
        998    1    1    2    0    0 -0.17831537097E+02 -0.10539386969E+02  0.14410094049E+04  0.14411929598E+04  0.10000000000E+02 0.  1.
</event>
<event>
 5    1  0.1020718E-008  0.3807718E+03  0.7957747E-01  0.3447805E+00
         13   -1    0    0    0    0  0.00000000000E+00  0.00000000000E+00  0.14999999963E+04  0.15000000000E+04  0.10566000000E+00 0. -1.
        994   -1    0    0    0    0 -0.00000000000E+00 -0.00000000000E+00  0.11368683772E-12  0.17120000000E+03  0.17120000000E+03 0.  0.
         13    1    1    2    0    0 -0.15265927697E+02  0.45008197992E+02  0.59102891271E+02  0.75841607021E+02  0.10566000000E+00 0. -1.
        994    1    1    2    0    0  0.15802085237E+02 -0.44650202176E+02  0.24948707138E+02  0.17937453677E+03  0.17120000000E+03 0.  0.
        998    1    1    2    0    0 -0.53615754014E+00 -0.35799581587E+00  0.14159483979E+04  0.14159838562E+04  0.10000000000E+02 0. -1.
</event>
<event>
 5    1  0.1020718E-008  0.3801709E+03  0.7957747E-01  0.3450415E+00
         13   -1    0    0    0    0  0.00000000000E+00  0.00000000000E+00  0.14999999963E+04  0.15000000000E+04  0.10566000000E+00 0. -1.
        994   -1    0    0    0    0 -0.00000000000E+00 -0.00000000000E+00  0.11368683772E-12  0.17120000000E+03  0.17120000000E+03 0.  0.
         13    1    1    2    0    0  0.29383184338E+02 -0.89320157858E+01  0.11383796167E+03  0.11790778223E+03  0.10566000000E+00 0. -1.
        994    1    1    2    0    0 -0.32532967254E+02 -0.31512684713E+02  0.10931475106E+02  0.17742711293E+03  0.17120000000E+03 0.  0.
        998    1    1    2    0    0  0.31497829160E+01  0.40444700498E+02  0.13752305595E+04  0.13758651048E+04  0.10000000000E+02 0. -1.
</event>
<event>
 5    1  0.1020718E-008  0.3755523E+03  0.7957747E-01  0.3470756E+00
         13   -1    0    0    0    0  0.00000000000E+00  0.00000000000E+00  0.14999999963E+04  0.15000000000E+04  0.10566000000E+00 0. -1.
        994   -1    0    0    0    0 -0.00000000000E+00 -0.00000000000E+00  0.11368683772E-12  0.17120000000E+03  0.17120000000E+03 0.  0.
         13    1    1    2    0    0  0.31216844709E+02  0.18515190371E+02  0.11338137412E+03  0.11904894300E+03  0.10566000000E+00 0. -1.
        994    1    1    2    0    0  0.38784214182E+00  0.63876424674E+01  0.65343464825E+01  0.17144413108E+03  0.17120000000E+03 0.  0.
        998    1    1    2    0    0 -0.31604686851E+02 -0.24902832838E+02  0.13800842757E+04  0.13807069259E+04  0.10000000000E+02 0. -1.
</event>
<event>
 5    1  0.1020718E-008  0.3740378E+03  0.7957747E-01  0.3477537E+00
         13   -1    0    0    0    0  0.00000000000E+00  0.00000000000E+00  0.14999999963E+04  0.15000000000E+04  0.10566000000E+00 0.  1.
        994   -1    0    0    0    0 -0.00000000000E+00 -0.00000000000E+00  0.11368683772E-12  0.17120000000E+03  0.17120000000E+03 0.  0.
         13    1    1    2    0    0  0.76433352905E+01  0.43206877588E+02  0.14951629008E+03  0.15582165129E+03  0.10566000000E+00 0.  1.
        994    1    1    2    0    0 -0.74928315405E+01  0.17677694889E+00  0.73652377518E+01  0.17152218662E+03  0.17120000000E+03 0.  0.
        998    1    1    2    0    0 -0.15050375006E+00 -0.43383654537E+02  0.13431184684E+04  0.13438561621E+04  0.10000000000E+02 0.  1.
</event>
<event>
 5    1  0.1020718E-008  0.3737523E+03  0.7957747E-01  0.3478822E+00
         13   -1    0    0    0    0  0.00000000000E+00  0.00000000000E+00  0.14999999963E+04  0.15000000000E+04  0.10566000000E+00 0.  1.
        994   -1    0    0    0    0 -0.00000000000E+00 -0.00000000000E+00  0.11368683772E-12  0.17120000000E+03  0.17120000000E+03 0.  0.
         13    1    1    2    0    0 -0.80679006527E+02  0.33111582918E+02  0.35798683397E+03  0.36845632506E+03  0.10566000000E+00 0.  1.
        994    1    1    2    0    0  0.11492466644E+02 -0.22693862259E+02  0.15232483432E+02  0.17374854453E+03  0.17120000000E+03 0.  0.
        998    1    1    2    0    0  0.69186539882E+02 -0.10417720659E+02  0.11267806789E+04  0.11289951304E+04  0.10000000000E+02 0.  1.
</event>
<event>
 5    1  0.1020718E-008  0.3843185E+03  0.7957747E-01  0.3432567E+00
         13   -1    0    0    0    0  0.00000000000E+00  0.00000000000E+00  0.14999999963E+04  0.15000000000E+04  0.10566000000E+00 0. -1.
        994   -1    0    0    0    0 -0.00000000000E+00 -0.00000000000E+00  0.11368683772E-12  0.17120000000E+03  0.17120000000E+03 0.  0.
         13    1    1    2    0    0 -0.19052552323E+02 -0.13091984709E+02  0.13236676723E+03  0.13437027962E+03  0.10566000000E+00 0. -1.
        994    1    1    2    0    0  0.16108517567E+02  0.64755912182E+01  0.29629247313E+01  0.17210356342E+03  0.17120000000E+03 0.  0.
        998    1    1    2    0    0  0.29440347560E+01  0.66163934912E+01  0.13646703043E+04  0.13647261570E+04  0.10000000000E+02 0. -1.
</event>
<event>
 5    1  0.1020718E-008  0.3843959E+03  0.7957747E-01  0.3432238E+00
         13   -1    0    0    0    0  0.00000000000E+00  0.00000000000E+00  0.14999999963E+04  0.15000000000E+04  0.10566000000E+00 0. -1.
        994   -1    0    0    0    0 -0.00000000000E+00 -0.00000000000E+00  0.11368683772E-12  0.17120000000E+03  0.17120000000E+03 0.  0.
         13    1    1    2    0    0 -0.13258123742E+02 -0.15568560316E+02  0.12119305728E+03  0.12290616832E+03  0.10566000000E+00 0. -1.
        994    1    1    2    0    0  0.89936818556E+01 -0.89028965645E+01  0.24582526327E+01  0.17168468448E+03  0.17120000000E+03 0.  0.
        998    1    1    2    0    0  0.42644418862E+01  0.24471456881E+02  0.13763486864E+04  0.13766091472E+04  0.10000000000E+02 0. -1.
</event>
<event>
 5    1  0.1020718E-008  0.3843230E+03  0.7957747E-01  0.3432548E+00
         13   -1    0    0    0    0  0.00000000000E+00  0.00000000000E+00  0.14999999963E+04  0.15000000000E+04  0.10566000000E+00 0.  1.
        994   -1    0    0    0    0 -0.00000000000E+00 -0.00000000000E+00  0.11368683772E-12  0.17120000000E+03  0.17120000000E+03 0.  0.
         13    1    1    2    0    0  0.34901115588E+01  0.25765221006E+02  0.15565077027E+03  0.15780748063E+03  0.10566000000E+00 0.  1.
        994    1    1    2    0    0 -0.36414234348E+01 -0.26325658094E+02  0.42979600239E+01  0.17330381617E+03  0.17120000000E+03 0.  0.
        998    1    1    2    0    0  0.15131187605E+00  0.56043708737E+00  0.13400512660E+04  0.13400887032E+04  0.10000000000E+02 0.  0.
</event>
<event>
 5    1  0.1020718E-008  0.3836466E+03  0.7957747E-01  0.3435432E+00
         13   -1    0    0    0    0  0.00000000000E+00  0.00000000000E+00  0.14999999963E+04  0.15000000000E+04  0.10566000000E+00 0. -1.
        994   -1    0    0    0    0 -0.00000000000E+00 -0.00000000000E+00  0.11368683772E-12  0.17120000000E+03  0.17120000000E+03 0.  0.
         13    1    1    2    0    0 -0.22480113170E+02 -0.64021178208E+01  0.12124044187E+03  0.12347306795E+03  0.10566000000E+00 0. -1.
        994    1    1    2    0    0  0.10941832947E+02  0.78758192669E+00  0.27011592757E+01  0.17157237614E+03  0.17120000000E+03 0.  0.
        998    1    1    2    0    0  0.11538280223E+02  0.56145358941E+01  0.13760583951E+04  0.13761545559E+04  0.10000000000E+02 0. -1.
</event>
<event>
 5    1  0.1020718E-008  0.3854561E+03  0.7957747E-01  0.3427740E+00
         13   -1    0    0    0    0  0.00000000000E+00  0.00000000000E+00  0.14999999963E+04  0.15000000000E+04  0.10566000000E+00 0.  1.
        994   -1    0    0    0    0 -0.00000000000E+00 -0.00000000000E+00  0.11368683772E-12  0.17120000000E+03  0.17120000000E+03 0.  0.
         13    1    1    2    0    0  0.68057264580E+01 -0.77396822150E+01  0.37712456185E+02  0.39095538223E+02  0.10566000000E+00 0.  1.
        994    1    1    2    0    0 -0.81045585661E+01  0.34420871543E+01  0.16585190623E+01  0.17143430963E+03  0.17120000000E+03 0.  0.
        998    1    1    2    0    0  0.12988321081E+01  0.42975950606E+01  0.14606290210E+04  0.14606701521E+04  0.10000000000E+02 0.  1.
</event>
<event>
 5    1  0.1020718E-008  0.3816314E+03  0.7957747E-01  0.3444086E+00
         13   -1    0    0    0    0  0.00000000000E+00  0.00000000000E+00  0.14999999963E+04  0.15000000000E+04  0.10566000000E+00 0.  1.
        994   -1    0    0    0    0 -0.00000000000E+00 -0.00000000000E+00  0.11368683772E-12  0.17120000000E+03  0.17120000000E+03 0.  0.
         13    1    1    2    0    0 -0.12136864892E+02  0.14555276759E+02  0.52623259143E+02  0.55931906259E+02  0.10566000000E+00 0.  1.
        994    1    1    2    0    0  0.59084820797E+01 -0.13825918867E+02  0.40639227655E+01  0.17190701458E+03  0.17120000000E+03 0.  0.
        998    1    1    2    0    0  0.62283828122E+01 -0.72935789201E+00  0.14433128144E+04  0.14433610792E+04  0.10000000000E+02 0.  1.
</event>
<event>
 5    1  0.1020718E-008  0.3860272E+03  0.7957747E-01  0.3425327E+00
         13   -1    0    0    0    0  0.00000000000E+00  0.00000000000E+00  0.14999999963E+04  0.15000000000E+04  0.10566000000E+00 0.  1.
        994   -1    0    0    0    0 -0.00000000000E+00 -0.00000000000E+00  0.11368683772E-12  0.17120000000E+03  0.17120000000E+03 0.  0.
         13    1    1    2    0    0  0.51295533540E+01 -0.11598339169E+02  0.74927986273E+02  0.75993737110E+02  0.10566000000E+00 0.  1.
        994    1    1    2    0    0  0.22045821039E+01  0.59628241879E+01  0.12534851750E+01  0.17132258076E+03  0.17120000000E+03 0.  0.
        998    1    1    2    0    0 -0.73341354579E+01  0.56355149808E+01  0.14238185248E+04  0.14238836821E+04  0.10000000000E+02 0.  1.
</event>
<event>
 5    1  0.1020718E-008  0.3832391E+03  0.7957747E-01  0.3437175E+00
         13   -1    0    0    0    0  0.00000000000E+00  0.00000000000E+00  0.14999999963E+04  0.15000000000E+04  0.10566000000E+00 0. -1.
        994   -1    0    0    0    0 -0.00000000000E+00 -0.00000000000E+00  0.11368683772E-12  0.17120000000E+03  0.17120000000E+03 0.  0.
         13    1    1    2    0    0  0.10182732804E+02  0.39566904265E+01  0.22354301953E+02  0.24881105810E+02  0.10566000000E+00 0. -1.
        994    1    1    2    0    0 -0.12617569989E+02 -0.94985187732E+01  0.33323484846E+01  0.17195920876E+03  0.17120000000E+03 0.  0.
        998    1    1    2    0    0  0.24348371850E+01  0.55418283468E+01  0.14743133458E+04  0.14743596854E+04  0.10000000000E+02 0. -1.
</event>
<event>
 5    1  0.1020718E-008  0.3806695E+03  0.7957747E-01  0.3448248E+00
         13   -1    0    0    0    0  0.00000000000E+00  0.00000000000E+00  0.14999999963E+04  0.15000000000E+04  0.10566000000E+00 0.  1.
        994   -1    0    0    0    0 -0.00000000000E+00 -0.00000000000E+00  0.11368683772E-12  0.17120000000E+03  0.17120000000E+03 0.  0.
         13    1    1    2    0    0 -0.50992892326E+02 -0.49685997744E+01  0.30393722132E+03  0.30822525484E+03  0.10566000000E+00 0.  1.
        994    1    1    2    0    0  0.43230646034E+02 -0.61502501803E+01  0.10181790840E+02  0.17697407493E+03  0.17120000000E+03 0.  0.
        998    1    1    2    0    0  0.77622462918E+01  0.11118849955E+02  0.11858809841E+04  0.11860006702E+04  0.10000000000E+02 0.  1.
</event>
<event>
 5    1  0.1020718E-008  0.3830866E+03  0.7957747E-01  0.3437828E+00
         13   -1    0    0    0    0  0.00000000000E+00  0.00000000000E+00  0.14999999963E+04  0.15000000000E+04  0.10566000000E+00 0. -1.
        994   -1    0    0    0    0 -0.00000000000E+00 -0.00000000000E+00  0.11368683772E-12  0.17120000000E+03  0.17120000000E+03 0.  0.
         13    1    1    2    0    0  0.61697446180E+01  0.12944759289E+02  0.39761169568E+02  0.42268124056E+02  0.10566000000E+00 0. -1.
        994    1    1    2    0    0  0.65608523148E+02 -0.39462791033E+02  0.22228873464E+02  0.18885272834E+03  0.17120000000E+03 0.  0.
        998    1    1    2    0    0 -0.71778267766E+02  0.26518031743E+02  0.14380099532E+04  0.14400791476E+04  0.10000000000E+02 0. -1.
</event>
<event>
 5    1  0.1020718E-008  0.3809028E+03  0.7957747E-01  0.3447237E+00
         13   -1    0    0    0    0  0.00000000000E+00  0.00000000000E+00  0.14999999963E+04  0.15000000000E+04  0.10566000000E+00 0. -1.
        994   -1    0    0    0    0 -0.00000000000E+00 -0.00000000000E+00  0.11368683772E-12  0.17120000000E+03  0.17120000000E+03 0.  0.
         13    1    1    2    0    0 -0.31922810766E+02  0.17042792124E+02  0.16593213485E+03  0.16983229125E+03  0.10566000000E+00 0. -1.
        994    1    1    2    0    0  0.24344493836E+02 -0.18656260894E+02  0.68197972068E+01  0.17405935793E+03  0.17120000000E+03 0.  0.
        998    1    1    2    0    0  0.75783169300E+01  0.16134687700E+01  0.13272480642E+04  0.13273083508E+04  0.10000000000E+02 0. -1.
</event>
<event>
 5    1  0.1020718E-008  0.3967476E+03  0.7957747E-01  0.3381328E+00
         13   -1    0    0    0    0  0.00000000000E+00  0.00000000000E+00  0.14999999963E+04  0.15000000000E+04  0.10566000000E+00 0. -1.
        994   -1    0    0    0    0 -0.00000000000E+00 -0.00000000000E+00  0.11368683772E-12  0.17120000000E+03  0.17120000000E+03 0.  0.
         13    1    1    2    0    0  0.34893803258E+02 -0.39785881225E+02  0.44802430361E+02  0.69338032716E+02  0.10566000000E+00 0. -1.
        994    1    1    2    0    0 -0.16784304243E+02  0.40872483893E+02  0.33428692319E+02  0.17994218593E+03  0.17120000000E+03 0.  0.
        998    1    1    2    0    0 -0.18109499015E+02 -0.10866026682E+01  0.14217688736E+04  0.14219197814E+04  0.10000000000E+02 0. -1.
</event>
<event>
 5    1  0.1020718E-008  0.3691849E+03  0.7957747E-01  0.3499645E+00
         13   -1    0    0    0    0  0.00000000000E+00  0.00000000000E+00  0.14999999963E+04  0.15000000000E+04  0.10566000000E+00 0. -1.
        994   -1    0    0    0    0 -0.00000000000E+00 -0.00000000000E+00  0.11368683772E-12  0.17120000000E+03  0.17120000000E+03 0.  0.
         13    1    1    2    0    0 -0.14291436541E+02 -0.18965700192E+02  0.24112136805E+02  0.33843008843E+02  0.10566000000E+00 0. -1.
        994    1    1    2    0    0  0.25484129161E+02  0.20968076869E+02  0.13481473528E+02  0.17487221396E+03  0.17120000000E+03 0.  0.
        998    1    1    2    0    0 -0.11192692620E+02 -0.20023766771E+01  0.14624063859E+04  0.14624847772E+04  0.10000000000E+02 0. -1.
</event>
<event>
 5    1  0.1020718E-008  0.3847105E+03  0.7957747E-01  0.3430901E+00
         13   -1    0    0    0    0  0.00000000000E+00  0.00000000000E+00  0.14999999963E+04  0.15000000000E+04  0.10566000000E+00 0.  1.
        994   -1    0    0    0    0 -0.00000000000E+00 -0.00000000000E+00  0.11368683772E-12  0.17120000000E+03  0.17120000000E+03 0.  0.
         13    1    1    2    0    0  0.11222380636E+01 -0.12160411344E+02  0.40905635764E+02  0.42689778913E+02  0.10566000000E+00 0.  1.
        994    1    1    2    0    0 -0.62037733876E+01  0.12122265017E+02  0.23846040595E+01  0.17175727772E+03  0.17120000000E+03 0.  0.
        998    1    1    2    0    0  0.50815353239E+01  0.38146327551E-01  0.14567097565E+04  0.14567529434E+04  0.10000000000E+02 0.  1.
</event>
<event>
 5    1  0.1020718E-008  0.3706880E+03  0.7957747E-01  0.3492735E+00
         13   -1    0    0    0    0  0.00000000000E+00  0.00000000000E+00  0.14999999963E+04  0.15000000000E+04  0.10566000000E+00 0. -1.
        994   -1    0    0    0    0 -0.00000000000E+00 -0.00000000000E+00  0.11368683772E-12  0.17120000000E+03  0.17120000000E+03 0.  0.
         13    1    1    2    0    0  0.29234958725E+02 -0.38190270524E+02  0.10196348515E+03  0.11273749617E+03  0.10566000000E+00 0. -1.
        994    1    1    2    0    0 -0.43722566785E+02  0.74833053359E+02  0.35285758236E+02  0.19510554440E+03  0.17120000000E+03 0.  0.
        998    1    1    2    0    0  0.14487608061E+02 -0.36642782835E+02  0.13627507529E+04  0.13633569594E+04  0.10000000000E+02 0. -1.
</event>
<event>
 5    1  0.1020718E-008  0.3801492E+03  0.7957747E-01  0.3450509E+00
         13   -1    0    0    0    0  0.00000000000E+00  0.00000000000E+00  0.14999999963E+04  0.15000000000E+04  0.10566000000E+00 0. -1.
        994   -1    0    0    0    0 -0.00000000000E+00 -0.00000000000E+00  0.11368683772E-12  0.17120000000E+03  0.17120000000E+03 0.  0.
         13    1    1    2    0    0 -0.17433616519E+02 -0.17703197212E+02  0.77658377992E+02  0.81536304875E+02  0.10566000000E+00 0. -1.
        994    1    1    2    0    0 -0.37832993064E+01  0.13589239420E+02  0.47229893394E+01  0.17184506804E+03  0.17120000000E+03 0.  0.
        998    1    1    2    0    0  0.21216915825E+02  0.41139577913E+01  0.14176186289E+04  0.14178186271E+04  0.10000000000E+02 0. -1.
</event>
<event>
 5    1  0.1020718E-008  0.3857098E+03  0.7957747E-01  0.3426668E+00
         13   -1    0    0    0    0  0.00000000000E+00  0.00000000000E+00  0.14999999963E+04  0.15000000000E+04  0.10566000000E+00 0.  1.
        994   -1    0    0    0    0 -0.00000000000E+00 -0.00000000000E+00  0.11368683772E-12  0.17120000000E+03  0.17120000000E+03 0.  0.
         13    1    1    2    0    0 -0.12196549358E+02  0.17947725831E+00  0.58026882984E+02  0.59295179747E+02  0.10566000000E+00 0.  1.
        994    1    1    2    0    0  0.97519368448E+01  0.18709418563E+01  0.16017475134E+01  0.17149520778E+03  0.17120000000E+03 0.  0.
        998    1    1    2    0    0  0.24446125133E+01 -0.20504191146E+01  0.14403713658E+04  0.14404096125E+04  0.10000000000E+02 0.  1.
</event>
<event>
 5    1  0.1020718E-008  0.3847495E+03  0.7957747E-01  0.3430735E+00
         13   -1    0    0    0    0  0.00000000000E+00  0.00000000000E+00  0.14999999963E+04  0.15000000000E+04  0.10566000000E+00 0.  1.
        994   -1    0    0    0    0 -0.00000000000E+00 -0.00000000000E+00  0.11368683772E-12  0.17120000000E+03  0.17120000000E+03 0.  0.
         13    1    1    2    0    0  0.94260030028E+01 -0.46936768486E+01  0.31500888043E+02  0.33214413234E+02  0.10566000000E+00 0.  1.
        994    1    1    2    0    0 -0.32005811697E+01  0.60829363691E+01  0.19100593529E+01  0.17134857502E+03  0.17120000000E+03 0.  0.
        998    1    1    2    0    0 -0.62254218331E+01 -0.13892595206E+01  0.14665890489E+04  0.14666370117E+04  0.10000000000E+02 0.  1.
</event>
<event>
 5    1  0.1020718E-008  0.3842058E+03  0.7957747E-01  0.3433047E+00
         13   -1    0    0    0    0  0.00000000000E+00  0.00000000000E+00  0.14999999963E+04  0.15000000000E+04  0.10566000000E+00 0.  1.
        994   -1    0    0    0    0 -0.00000000000E+00 -0.00000000000E+00  0.11368683772E-12  0.17120000000E+03  0.17120000000E+03 0.  0.
         13    1    1    2    0    0 -0.66697158066E+01 -0.11210972420E+02  0.40100536521E+02  0.42169126205E+02  0.10566000000E+00 0.  1.
        994    1    1    2    0    0  0.19551418696E+02  0.79445506976E+01  0.34947812904E+01  0.17253123588E+03  0.17120000000E+03 0.  0.
        998    1    1    2    0    0 -0.12881702890E+02  0.32664217220E+01  0.14564046785E+04  0.14564996379E+04  0.10000000000E+02 0.  1.
</event>
<event>
 5    1  0.1020718E-008  0.3832521E+03  0.7957747E-01  0.3437119E+00
         13   -1    0    0    0    0  0.00000000000E+00  0.00000000000E+00  0.14999999963E+04  0.15000000000E+04  0.10566000000E+00 0. -1.
        994   -1    0    0    0    0 -0.00000000000E+00 -0.00000000000E+00  0.11368683772E-12  0.17120000000E+03  0.17120000000E+03 0.  0.
         13    1    1    2    0    0  0.57580219581E+02 -0.10754499132E+02  0.88411424351E+02  0.10605532546E+03  0.10566000000E+00 0. -1.
        994    1    1    2    0    0 -0.35897461546E+02  0.28632454011E+02  0.25897768853E+02  0.17913285461E+03  0.17120000000E+03 0.  0.
        998    1    1    2    0    0 -0.21682758035E+02 -0.17877954880E+02  0.13856908031E+04  0.13860118199E+04  0.10000000000E+02 0. -1.
</event>
<event>
 5    1  0.1020718E-008  0.3843632E+03  0.7957747E-01  0.3432377E+00
         13   -1    0    0    0    0  0.00000000000E+00  0.00000000000E+00  0.14999999963E+04  0.15000000000E+04  0.10566000000E+00 0. -1.
        994   -1    0    0    0    0 -0.00000000000E+00 -0.00000000000E+00  0.11368683772E-12  0.17120000000E+03  0.17120000000E+03 0.  0.
         13    1    1    2    0    0  0.61537443264E+01 -0.17385454659E+02  0.84825290686E+02  0.86807048717E+02  0.10566000000E+00 0. -1.
        994    1    1    2    0    0 -0.99101492366E+01  0.13265638632E+02  0.28507018902E+01  0.17202254134E+03  0.17120000000E+03 0.  0.
        998    1    1    2    0    0  0.37564049102E+01  0.41198160273E+01  0.14123240037E+04  0.14123704099E+04  0.10000000000E+02 0. -1.
</event>
<event>
 5    1  0.1020718E-008  0.3475978E+03  0.7957747E-01  0.3605639E+00
         13   -1    0    0    0    0  0.00000000000E+00  0.00000000000E+00  0.14999999963E+04  0.15000000000E+04  0.10566000000E+00 0. -1.
        994   -1    0    0    0    0 -0.00000000000E+00 -0.00000000000E+00  0.11368683772E-12  0.17120000000E+03  0.17120000000E+03 0.  0.
         13    1    1    2    0    0 -0.15398940384E+03  0.17250905958E+03  0.10852335320E+04  0.11095962970E+04  0.10566000000E+00 0. -1.
        994    1    1    2    0    0  0.15859880110E+03 -0.99635581822E+02  0.16864039672E+03  0.30467991775E+03  0.17120000000E+03 0.  0.
        998    1    1    2    0    0 -0.46093972641E+01 -0.72873477755E+02  0.24612606755E+03  0.25692378526E+03  0.10000000000E+02 0.  1.
</event>
<event>
 5    1  0.1020718E-008  0.3856653E+03  0.7957747E-01  0.3426855E+00
         13   -1    0    0    0    0  0.00000000000E+00  0.00000000000E+00  0.14999999963E+04  0.15000000000E+04  0.10566000000E+00 0. -1.
        994   -1    0    0    0    0 -0.00000000000E+00 -0.00000000000E+00  0.11368683772E-12  0.17120000000E+03  0.17120000000E+03 0.  0.
         13    1    1    2    0    0  0.13071630753E+02  0.65962903006E+01  0.83020919082E+02  0.84302210799E+02  0.10566000000E+00 0. -1.
        994    1    1    2    0    0 -0.79521797016E+01 -0.54159918903E+01  0.16040100442E+01  0.17147764571E+03  0.17120000000E+03 0.  0.
        998    1    1    2    0    0 -0.51194510513E+01 -0.11802984104E+01  0.14153750672E+04  0.14154201435E+04  0.10000000000E+02 0. -1.
</event>
<event>
 5    1  0.1020718E-008  0.3841890E+03  0.7957747E-01  0.3433119E+00
         13   -1    0    0    0    0  0.00000000000E+00  0.00000000000E+00  0.14999999963E+04  0.15000000000E+04  0.10566000000E+00 0. -1.
        994   -1    0    0    0    0 -0.00000000000E+00 -0.00000000000E+00  0.11368683772E-12  0.17120000000E+03  0.17120000000E+03 0.  0.
         13    1    1    2    0    0 -0.77534541343E+01 -0.14756724637E+02  0.69401319859E+02  0.71375285185E+02  0.10566000000E+00 0. -1.
        994    1    1    2    0    0  0.11406394079E+02  0.23934462405E+01  0.24813500935E+01  0.17161419379E+03  0.17120000000E+03 0.  0.
        998    1    1    2    0    0 -0.36529399444E+01  0.12363278397E+02  0.14281173263E+04  0.14282105210E+04  0.10000000000E+02 0. -1.
</event>
<event>
 5    1  0.1020718E-008  0.3724599E+03  0.7957747E-01  0.3484662E+00
         13   -1    0    0    0    0  0.00000000000E+00  0.00000000000E+00  0.14999999963E+04  0.15000000000E+04  0.10566000000E+00 0.  1.
        994   -1    0    0    0    0 -0.00000000000E+00 -0.00000000000E+00  0.11368683772E-12  0.17120000000E+03  0.17120000000E+03 0.  0.
         13    1    1    2    0    0  0.38153648608E+02 -0.12111802034E+02  0.63729989916E+02  0.75259015601E+02  0.10566000000E+00 0.  1.
        994    1    1    2    0    0  0.91464380485E+00  0.38669470482E+02  0.17540022944E+02  0.17638950344E+03  0.17120000000E+03 0.  0.
        998    1    1    2    0    0 -0.39068292413E+02 -0.26557668448E+02  0.14187299834E+04  0.14195514810E+04  0.10000000000E+02 0.  1.
</event>
<event>
 5    1  0.1020718E-008  0.3834780E+03  0.7957747E-01  0.3436153E+00
         13   -1    0    0    0    0  0.00000000000E+00  0.00000000000E+00  0.14999999963E+04  0.15000000000E+04  0.10566000000E+00 0. -1.
        994   -1    0    0    0    0 -0.00000000000E+00 -0.00000000000E+00  0.11368683772E-12  0.17120000000E+03  0.17120000000E+03 0.  0.
         13    1    1    2    0    0  0.20514650196E+02  0.54106814046E+01  0.10028422417E+03  0.10250396640E+03  0.10566000000E+00 0. -1.
        994    1    1    2    0    0 -0.44680925510E+01  0.49455713446E+01  0.25344782510E+01  0.17134843480E+03  0.17120000000E+03 0.  0.
        998    1    1    2    0    0 -0.16046557645E+02 -0.10356252749E+02  0.13971812939E+04  0.13973475988E+04  0.10000000000E+02 0. -1.
</event>
<event>
 5    1  0.1020718E-008  0.3842307E+03  0.7957747E-01  0.3432942E+00
         13   -1    0    0    0    0  0.00000000000E+00  0.00000000000E+00  0.14999999963E+04  0.15000000000E+04  0.10566000000E+00 0. -1.
        994   -1    0    0    0    0 -0.00000000000E+00 -0.00000000000E+00  0.11368683772E-12  0.17120000000E+03  0.17120000000E+03 0.  0.
         13    1    1    2    0    0  0.17858296884E+01 -0.10570247697E+02  0.27196655018E+02  0.29233346238E+02  0.10566000000E+00 0. -1.
        994    1    1    2    0    0 -0.12470822331E+02  0.13158280328E+02  0.30968781984E+01  0.17218505279E+03  0.17120000000E+03 0.  0.
        998    1    1    2    0    0  0.10684992642E+02 -0.25880326315E+01  0.14697064631E+04  0.14697816010E+04  0.10000000000E+02 0. -1.
</event>
<event>
 5    1  0.1020718E-008  0.3802568E+03  0.7957747E-01  0.3450041E+00
         13   -1    0    0    0    0  0.00000000000E+00  0.00000000000E+00  0.14999999963E+04  0.15000000000E+04  0.10566000000E+00 0. -1.
        994   -1    0    0    0    0 -0.00000000000E+00 -0.00000000000E+00  0.11368683772E-12  0.17120000000E+03  0.17120000000E+03 0.  0.
         13    1    1    2    0    0 -0.10186207644E+03  0.79593153847E+02  0.71376709584E+03  0.72537881898E+03  0.10566000000E+00 0. -1.
        994    1    1    2    0    0  0.10174402495E+03 -0.11766584137E+03  0.89576273892E+02  0.24805331218E+03  0.17120000000E+03 0.  0.
        998    1    1    2    0    0  0.11805148240E+00  0.38072687527E+02  0.69665662655E+03  0.69776786884E+03  0.10000000000E+02 0. -1.
</event>
<event>
 5    1  0.1020718E-008  0.3853087E+03  0.7957747E-01  0.3428364E+00
         13   -1    0    0    0    0  0.00000000000E+00  0.00000000000E+00  0.14999999963E+04  0.15000000000E+04  0.10566000000E+00 0.  1.
        994   -1    0    0    0    0 -0.00000000000E+00 -0.00000000000E+00  0.11368683772E-12  0.17120000000E+03  0.17120000000E+03 0.  0.
         13    1    1    2    0    0  0.78928774274E+01  0.72380729333E+01  0.39208459342E+02  0.40644823310E+02  0.10566000000E+00 0.  1.
        994    1    1    2    0    0 -0.50572115121E+01 -0.24540993635E+01  0.15807749116E+01  0.17129955295E+03  0.17120000000E+03 0.  0.
        998    1    1    2    0    0 -0.28356659153E+01 -0.47839735698E+01  0.14592107620E+04  0.14592556237E+04  0.10000000000E+02 0.  1.
</event>
<event>
 5    1  0.1020718E-008  0.3835122E+03  0.7957747E-01  0.3436007E+00
         13   -1    0    0    0    0  0.00000000000E+00  0.00000000000E+00  0.14999999963E+04  0.15000000000E+04  0.10566000000E+00 0.  1.
        994   -1    0    0    0    0 -0.00000000000E+00 -0.00000000000E+00  0.11368683772E-12  0.17120000000E+03  0.17120000000E+03 0.  0.
         13    1    1    2    0    0 -0.56868830147E+02  0.26057363244E+02  0.95108763178E+02  0.11383645294E+03  0.10566000000E+00 0.  1.
        994    1    1    2    0    0  0.56614864291E+02 -0.25591186662E+02  0.32580690148E+02  0.18501646701E+03  0.17120000000E+03 0.  0.
        998    1    1    2    0    0  0.25396585625E+00 -0.46617658246E+00  0.13723105430E+04  0.13723470800E+04  0.10000000000E+02 0.  0.
</event>
<event>
 5    1  0.1020718E-008  0.3799702E+03  0.7957747E-01  0.3451288E+00
         13   -1    0    0    0    0  0.00000000000E+00  0.00000000000E+00  0.14999999963E+04  0.15000000000E+04  0.10566000000E+00 0. -1.
        994   -1    0    0    0    0 -0.00000000000E+00 -0.00000000000E+00  0.11368683772E-12  0.17120000000E+03  0.17120000000E+03 0.  0.
         13    1    1    2    0    0 -0.59491578347E+02 -0.24822990496E+01  0.32847054539E+03  0.33382378593E+03  0.10566000000E+00 0. -1.
        994    1    1    2    0    0  0.61190057090E+02  0.57842209637E+01  0.16882983069E+02  0.18268047355E+03  0.17120000000E+03 0.  0.
        998    1    1    2    0    0 -0.16984787431E+01 -0.33019219141E+01  0.11546464678E+04  0.11546957405E+04  0.10000000000E+02 0. -1.
</event>
<event>
 5    1  0.1020718E-008  0.3845965E+03  0.7957747E-01  0.3431385E+00
         13   -1    0    0    0    0  0.00000000000E+00  0.00000000000E+00  0.14999999963E+04  0.15000000000E+04  0.10566000000E+00 0.  1.
        994   -1    0    0    0    0 -0.00000000000E+00 -0.00000000000E+00  0.11368683772E-12  0.17120000000E+03  0.17120000000E+03 0.  0.
         13    1    1    2    0    0 -0.13134956320E+02 -0.52114186056E+01  0.57292887928E+02  0.59009932491E+02  0.10566000000E+00 0.  1.
        994    1    1    2    0    0 -0.43388666381E+01  0.11400319252E+02  0.23207299267E+01  0.17164969802E+03  0.17120000000E+03 0.  0.
        998    1    1    2    0    0  0.17473822958E+02 -0.61889006468E+01  0.14403863784E+04  0.14405403695E+04  0.10000000000E+02 0.  1.
</event>
<event>
 5    1  0.1020718E-008  0.3736818E+03  0.7957747E-01  0.3479139E+00
         13   -1    0    0    0    0  0.00000000000E+00  0.00000000000E+00  0.14999999963E+04  0.15000000000E+04  0.10566000000E+00 0. -1.
        994   -1    0    0    0    0 -0.00000000000E+00 -0.00000000000E+00  0.11368683772E-12  0.17120000000E+03  0.17120000000E+03 0.  0.
         13    1    1    2    0    0  0.22514874492E+02  0.16539843443E+02  0.49943341399E+02  0.57226169788E+02  0.10566000000E+00 0. -1.
        994    1    1    2    0    0 -0.95949988102E+01 -0.20697044162E+02  0.91361787337E+01  0.17295473801E+03  0.17120000000E+03 0.  0.
        998    1    1    2    0    0 -0.12919875681E+02  0.41572007184E+01  0.14409204761E+04  0.14410190922E+04  0.10000000000E+02 0. -1.
</event>
<event>
 5    1  0.1020718E-008  0.3765188E+03  0.7957747E-01  0.3466458E+00
         13   -1    0    0    0    0  0.00000000000E+00  0.00000000000E+00  0.14999999963E+04  0.15000000000E+04  0.10566000000E+00 0.  1.
        994   -1    0    0    0    0 -0.00000000000E+00 -0.00000000000E+00  0.11368683772E-12  0.17120000000E+03  0.17120000000E+03 0.  0.
         13    1    1    2    0    0  0.22434734479E+02 -0.12965310221E+02  0.54248144619E+02  0.60118956569E+02  0.10566000000E+00 0.  1.
        994    1    1    2    0    0 -0.17855128461E+02  0.68336897058E+01  0.71379102390E+01  0.17241199114E+03  0.17120000000E+03 0.  0.
        998    1    1    2    0    0 -0.45796060183E+01  0.61316205155E+01  0.14386139414E+04  0.14386690523E+04  0.10000000000E+02 0.  1.
</event>
<event>
 5    1  0.1020718E-008  0.3699129E+03  0.7957747E-01  0.3496291E+00
         13   -1    0    0    0    0  0.00000000000E+00  0.00000000000E+00  0.14999999963E+04  0.15000000000E+04  0.10566000000E+00 0. -1.
        994   -1    0    0    0    0 -0.00000000000E+00 -0.00000000000E+00  0.11368683772E-12  0.17120000000E+03  0.17120000000E+03 0.  0.
         13    1    1    2    0    0 -0.35575862453E+01 -0.80554574590E+02  0.25056014540E+03  0.26321491891E+03  0.10566000000E+00 0. -1.
        994    1    1    2    0    0 -0.27854117215E+01  0.77248968688E+02  0.32078155315E+02  0.19056130176E+03  0.17120000000E+03 0.  0.
        998    1    1    2    0    0  0.63429979668E+01  0.33056059020E+01  0.12173616956E+04  0.12174237793E+04  0.10000000000E+02 0. -1.
</event>
<event>
 5    1  0.1020718E-008  0.2084040E+03  0.7957747E-01  0.4891073E+00
         13   -1    0    0    0    0  0.00000000000E+00  0.00000000000E+00  0.14999999963E+04  0.15000000000E+04  0.10566000000E+00 0.  1.
        994   -1    0    0    0    0 -0.00000000000E+00 -0.00000000000E+00  0.11368683772E-12  0.17120000000E+03  0.17120000000E+03 0.  0.
         13    1    1    2    0    0 -0.32363656173E+02 -0.10907305952E+03  0.68883924469E+02  0.13300129611E+03  0.10566000000E+00 0.  1.
        994    1    1    2    0    0 -0.24243035249E+02  0.96077171604E+02  0.13213535692E+03  0.23788177780E+03  0.17120000000E+03 0.  0.
        998    1    1    2    0    0  0.56606691422E+02  0.12995887913E+02  0.12989807149E+04  0.13003169261E+04  0.10000000000E+02 0.  1.
</event>
<event>
 5    1  0.1020718E-008  0.3692478E+03  0.7957747E-01  0.3499355E+00
         13   -1    0    0    0    0  0.00000000000E+00  0.00000000000E+00  0.14999999963E+04  0.15000000000E+04  0.10566000000E+00 0.  1.
        994   -1    0    0    0    0 -0.00000000000E+00 -0.00000000000E+00  0.11368683772E-12  0.17120000000E+03  0.17120000000E+03 0.  0.
         13    1    1    2    0    0  0.10641251674E+03 -0.29002191443E+02  0.45301344594E+03  0.46624665596E+03  0.10566000000E+00 0.  1.
        994    1    1    2    0    0 -0.12333679395E+03 -0.33652080493E+02  0.68664032277E+02  0.22442953592E+03  0.17120000000E+03 0.  0.
        998    1    1    2    0    0  0.16924277204E+02  0.62654271936E+02  0.97832251806E+03  0.98052380813E+03  0.10000000000E+02 0.  1.
</event>
<event>
 5    1  0.1020718E-008  0.3699553E+03  0.7957747E-01  0.3496096E+00
         13   -1    0    0    0    0  0.00000000000E+00  0.00000000000E+00  0.14999999963E+04  0.15000000000E+04  0.10566000000E+00 0. -1.
        994   -1    0    0    0    0 -0.00000000000E+00 -0.00000000000E+00  0.11368683772E-12  0.17120000000E+03  0.17120000000E+03 0.  0.
         13    1    1    2    0    0 -0.43037594961E+01 -0.18616520120E+02  0.12069631915E+02  0.22600538617E+02  0.10566000000E+00 0. -1.
        994    1    1    2    0    0  0.27957147783E+01  0.88004343730E+01  0.11213293168E+02  0.17181513790E+03  0.17120000000E+03 0.  0.
        998    1    1    2    0    0  0.15080447178E+01  0.98160857468E+01  0.14767170712E+04  0.14767843235E+04  0.10000000000E+02 0. -1.
</event>
<event>
 5    1  0.1020718E-008  0.3841286E+03  0.7957747E-01  0.3433376E+00
         13   -1    0    0    0    0  0.00000000000E+00  0.00000000000E+00  0.14999999963E+04  0.15000000000E+04  0.10566000000E+00 0.  1.
        994   -1    0    0    0    0 -0.00000000000E+00 -0.00000000000E+00  0.11368683772E-12  0.17120000000E+03  0.17120000000E+03 0.  0.
         13    1    1    2    0    0  0.32192807505E+01 -0.13003757189E+02  0.43643733866E+02  0.45653566557E+02  0.10566000000E+00 0.  1.
        994    1    1    2    0    0  0.36351303946E+01  0.70873681786E+01  0.22726678760E+01  0.17140026249E+03  0.17120000000E+03 0.  0.
        998    1    1    2    0    0 -0.68544111451E+01  0.59163890100E+01  0.14540835945E+04  0.14541461710E+04  0.10000000000E+02 0.  1.
</event>
<event>
 5    1  0.1020718E-008  0.3704937E+03  0.7957747E-01  0.3493625E+00
         13   -1    0    0    0    0  0.00000000000E+00  0.00000000000E+00  0.14999999963E+04  0.15000000000E+04  0.10566000000E+00 0.  1.
        994   -1    0    0    0    0 -0.00000000000E+00 -0.00000000000E+00  0.11368683772E-12  0.17120000000E+03  0.17120000000E+03 0.  0.
         13    1    1    2    0    0  0.24054664363E+02  0.10431749959E+03  0.45049717643E+03  0.46304263814E+03  0.10566000000E+00 0.  1.
        994    1    1    2    0    0 -0.38278789368E+02 -0.97022728284E+02  0.47556115461E+02  0.20603324886E+03  0.17120000000E+03 0.  0.
        998    1    1    2    0    0  0.14224125005E+02 -0.72947713089E+01  0.10019467044E+04  0.10021241130E+04  0.10000000000E+02 0.  1.
</event>
<event>
 5    1  0.1020718E-008  0.3853491E+03  0.7957747E-01  0.3428193E+00
         13   -1    0    0    0    0  0.00000000000E+00  0.00000000000E+00  0.14999999963E+04  0.15000000000E+04  0.10566000000E+00 0. -1.
        994   -1    0    0    0    0 -0.00000000000E+00 -0.00000000000E+00  0.11368683772E-12  0.17120000000E+03  0.17120000000E+03 0.  0.
         13    1    1    2    0    0  0.12108556091E+02  0.14626971399E+01  0.48979422362E+02  0.50475257230E+02  0.10566000000E+00 0. -1.
        994    1    1    2    0    0 -0.16928840998E+02  0.75581390074E+01  0.25867927166E+01  0.17222033161E+03  0.17120000000E+03 0.  0.
        998    1    1    2    0    0  0.48202849067E+01 -0.90208361473E+01  0.14484337812E+04  0.14485044112E+04  0.10000000000E+02 0. -1.
</event>
<event>
 5    1  0.1020718E-008  0.3842290E+03  0.7957747E-01  0.3432949E+00
         13   -1    0    0    0    0  0.00000000000E+00  0.00000000000E+00  0.14999999963E+04  0.15000000000E+04  0.10566000000E+00 0. -1.
        994   -1    0    0    0    0 -0.00000000000E+00 -0.00000000000E+00  0.11368683772E-12  0.17120000000E+03  0.17120000000E+03 0.  0.
         13    1    1    2    0    0  0.57391720645E+01 -0.22552084711E+02  0.12729998998E+03  0.12940955619E+03  0.10566000000E+00 0. -1.
        994    1    1    2    0    0 -0.46134557397E+01  0.20319327311E+02  0.34461141875E+01  0.17249775285E+03  0.17120000000E+03 0.  0.
        998    1    1    2    0    0 -0.11257163248E+01  0.22327573999E+01  0.13692538921E+04  0.13692926910E+04  0.10000000000E+02 0.  0.
</event>
<event>
 5    1  0.1020718E-008  0.3845986E+03  0.7957747E-01  0.3431377E+00
         13   -1    0    0    0    0  0.00000000000E+00  0.00000000000E+00  0.14999999963E+04  0.15000000000E+04  0.10566000000E+00 0. -1.
        994   -1    0    0    0    0 -0.00000000000E+00 -0.00000000000E+00  0.11368683772E-12  0.17120000000E+03  0.17120000000E+03 0.  0.
         13    1    1    2    0    0 -0.10919125552E+02 -0.23848100729E+02  0.13827389592E+03  0.14073962011E+03  0.10566000000E+00 0. -1.
        994    1    1    2    0    0  0.25531603586E+02  0.46293893607E+02  0.11088102621E+02  0.17951984121E+03  0.17120000000E+03 0.  0.
        998    1    1    2    0    0 -0.14612478034E+02 -0.22445792878E+02  0.13506379977E+04  0.13509405387E+04  0.10000000000E+02 0. -1.
</event>
<event>
 5    1  0.1020718E-008  0.3811651E+03  0.7957747E-01  0.3446101E+00
         13   -1    0    0    0    0  0.00000000000E+00  0.00000000000E+00  0.14999999963E+04  0.15000000000E+04  0.10566000000E+00 0. -1.
        994   -1    0    0    0    0 -0.00000000000E+00 -0.00000000000E+00  0.11368683772E-12  0.17120000000E+03  0.17120000000E+03 0.  0.
         13    1    1    2    0    0 -0.12717873027E+02 -0.89353842087E+01  0.32582363855E+02  0.36099958223E+02  0.10566000000E+00 0. -1.
        994    1    1    2    0    0  0.94854892013E+01  0.69599401560E+01  0.40072150937E+01  0.17165055504E+03  0.17120000000E+03 0.  0.
        998    1    1    2    0    0  0.32323838252E+01  0.19754440527E+01  0.14634104173E+04  0.14634494867E+04  0.10000000000E+02 0. -1.
</event>
<event>
 5    1  0.1020718E-008  0.3829509E+03  0.7957747E-01  0.3438410E+00
         13   -1    0    0    0    0  0.00000000000E+00  0.00000000000E+00  0.14999999963E+04  0.15000000000E+04  0.10566000000E+00 0. -1.
        994   -1    0    0    0    0 -0.00000000000E+00 -0.00000000000E+00  0.11368683772E-12  0.17120000000E+03  0.17120000000E+03 0.  0.
         13    1    1    2    0    0  0.15439161162E+02 -0.89009384236E+01  0.60235812361E+02  0.62816866024E+02  0.10566000000E+00 0. -1.
        994    1    1    2    0    0 -0.93918358642E+01 -0.67531311150E+00  0.29445160022E+01  0.17148403075E+03  0.17120000000E+03 0.  0.
        998    1    1    2    0    0 -0.60473252975E+01  0.95762515351E+01  0.14368196679E+04  0.14368991032E+04  0.10000000000E+02 0. -1.
</event>
<event>
 5    1  0.1020718E-008  0.3720766E+03  0.7957747E-01  0.3486401E+00
         13   -1    0    0    0    0  0.00000000000E+00  0.00000000000E+00  0.14999999963E+04  0.15000000000E+04  0.10566000000E+00 0. -1.
        994   -1    0    0    0    0 -0.00000000000E+00 -0.00000000000E+00  0.11368683772E-12  0.17120000000E+03  0.17120000000E+03 0.  0.
         13    1    1    2    0    0 -0.15420281436E+02  0.35270100961E+02  0.55318753604E+02  0.67393922320E+02  0.10566000000E+00 0. -1.
        994    1    1    2    0    0  0.15244652798E+02 -0.33610275810E+02  0.16852943533E+02  0.17594178522E+03  0.17120000000E+03 0.  0.
        998    1    1    2    0    0  0.17562863813E+00 -0.16598251517E+01  0.14278282991E+04  0.14278642925E+04  0.10000000000E+02 0. -1.
</event>
<event>
 5    1  0.1020718E-008  0.3815618E+03  0.7957747E-01  0.3444386E+00
         13   -1    0    0    0    0  0.00000000000E+00  0.00000000000E+00  0.14999999963E+04  0.15000000000E+04  0.10566000000E+00 0. -1.
        994   -1    0    0    0    0 -0.00000000000E+00 -0.00000000000E+00  0.11368683772E-12  0.17120000000E+03  0.17120000000E+03 0.  0.
         13    1    1    2    0    0 -0.33534023861E+02 -0.24528966956E+02  0.20211252570E+03  0.20633876316E+03  0.10566000000E+00 0. -1.
        994    1    1    2    0    0  0.40785868794E+02  0.36499766438E+02  0.13374705260E+02  0.18023330099E+03  0.17120000000E+03 0.  0.
        998    1    1    2    0    0 -0.72518449323E+01 -0.11970799482E+02  0.12845127653E+04  0.12846279359E+04  0.10000000000E+02 0. -1.
</event>
<event>
 5    1  0.1020718E-008  0.3786388E+03  0.7957747E-01  0.3457107E+00
         13   -1    0    0    0    0  0.00000000000E+00  0.00000000000E+00  0.14999999963E+04  0.15000000000E+04  0.10566000000E+00 0.  1.
        994   -1    0    0    0    0 -0.00000000000E+00 -0.00000000000E+00  0.11368683772E-12  0.17120000000E+03  0.17120000000E+03 0.  0.
         13    1    1    2    0    0  0.23440170311E+02 -0.35791006585E+02  0.20385576291E+03  0.20829695382E+03  0.10566000000E+00 0.  1.
        994    1    1    2    0    0 -0.13213163838E+02  0.73926273700E+01  0.55919929241E+01  0.17195914929E+03  0.17120000000E+03 0.  0.
        998    1    1    2    0    0 -0.10227006473E+02  0.28398379216E+02  0.12905522404E+04  0.12909438969E+04  0.10000000000E+02 0.  1.
</event>
<event>
 5    1  0.1020718E-008  0.4103631E+03  0.7957747E-01  0.3328747E+00
         13   -1    0    0    0    0  0.00000000000E+00  0.00000000000E+00  0.14999999963E+04  0.15000000000E+04  0.10566000000E+00 0. -1.
        994   -1    0    0    0    0 -0.00000000000E+00 -0.00000000000E+00  0.11368683772E-12  0.17120000000E+03  0.17120000000E+03 0.  0.
         13    1    1    2    0    0 -0.11072644141E+03 -0.67532349379E+02  0.20358651653E+03  0.24138857453E+03  0.10566000000E+00 0. -1.
        994    1    1    2    0    0  0.11191247639E+03  0.59586322427E+02  0.10353246673E+03  0.23686144444E+03  0.17120000000E+03 0.  0.
        998    1    1    2    0    0 -0.11860349853E+01  0.79460269516E+01  0.11928810130E+04  0.11929499810E+04  0.10000000000E+02 0. -1.
</event>
<event>
 5    1  0.1020718E-008  0.3847682E+03  0.7957747E-01  0.3430656E+00
         13   -1    0    0    0    0  0.00000000000E+00  0.00000000000E+00  0.14999999963E+04  0.15000000000E+04  0.10566000000E+00 0.  1.
        994   -1    0    0    0    0 -0.00000000000E+00 -0.00000000000E+00  0.11368683772E-12  0.17120000000E+03  0.17120000000E+03 0.  0.
         13    1    1    2    0    0  0.10175837698E+02 -0.13160148260E+02  0.74925892215E+02  0.76750489662E+02  0.10566000000E+00 0.  1.
        994    1    1    2    0    0 -0.14464020311E+02  0.13250365975E+02  0.30126640997E+01  0.17234644246E+03  0.17120000000E+03 0.  0.
        998    1    1    2    0    0  0.42881826132E+01 -0.90217714796E-01  0.14220614400E+04  0.14221030679E+04  0.10000000000E+02 0.  1.
</event>
<event>
 5    1  0.1020718E-008  0.3767576E+03  0.7957747E-01  0.3465399E+00
         13   -1    0    0    0    0  0.00000000000E+00  0.00000000000E+00  0.14999999963E+04  0.15000000000E+04  0.10566000000E+00 0.  1.
        994   -1    0    0    0    0 -0.00000000000E+00 -0.00000000000E+00  0.11368683772E-12  0.17120000000E+03  0.17120000000E+03 0.  0.
         13    1    1    2    0    0 -0.16936332640E+02 -0.40424295011E+02  0.20769487915E+03  0.21226902030E+03  0.10566000000E+00 0.  1.
        994    1    1    2    0    0  0.54880492097E+01 -0.12297046242E+02  0.63919158613E+01  0.17184770181E+03  0.17120000000E+03 0.  0.
        998    1    1    2    0    0  0.11448283430E+02  0.52721341253E+02  0.12859132013E+04  0.12870832779E+04  0.10000000000E+02 0.  1.
</event>
<event>
 5    1  0.1020718E-008  0.3752961E+03  0.7957747E-01  0.3471900E+00
         13   -1    0    0    0    0  0.00000000000E+00  0.00000000000E+00  0.14999999963E+04  0.15000000000E+04  0.10566000000E+00 0.  1.
        994   -1    0    0    0    0 -0.00000000000E+00 -0.00000000000E+00  0.11368683772E-12  0.17120000000E+03  0.17120000000E+03 0.  0.
         13    1    1    2    0    0  0.74523496138E+02  0.84348092100E+02  0.56809607819E+03  0.57913859942E+03  0.10566000000E+00 0.  1.
        994    1    1    2    0    0 -0.72019271427E+01 -0.51126668184E+02  0.23324579763E+02  0.18033102888E+03  0.17120000000E+03 0.  0.
        998    1    1    2    0    0 -0.67321568996E+02 -0.33221423916E+02  0.90857933833E+03  0.91173037171E+03  0.10000000000E+02 0.  1.
</event>
<event>
 5    1  0.1020718E-008  0.3855748E+03  0.7957747E-01  0.3427238E+00
         13   -1    0    0    0    0  0.00000000000E+00  0.00000000000E+00  0.14999999963E+04  0.15000000000E+04  0.10566000000E+00 0.  1.
        994   -1    0    0    0    0 -0.00000000000E+00 -0.00000000000E+00  0.11368683772E-12  0.17120000000E+03  0.17120000000E+03 0.  0.
         13    1    1    2    0    0  0.97473738734E+01  0.12078431496E+02  0.78521757319E+02  0.80041097827E+02  0.10566000000E+00 0.  1.
        994    1    1    2    0    0 -0.87057185075E+01 -0.29975784151E+02  0.45498458903E+01  0.17408181487E+03  0.17120000000E+03 0.  0.
        998    1    1    2    0    0 -0.10416553659E+01  0.17897352655E+02  0.14169283931E+04  0.14170770873E+04  0.10000000000E+02 0.  1.
</event>
<event>
 5    1  0.1020718E-008  0.3756238E+03  0.7957747E-01  0.3470438E+00
         13   -1    0    0    0    0  0.00000000000E+00  0.00000000000E+00  0.14999999963E+04  0.15000000000E+04  0.10566000000E+00 0. -1.
        994   -1    0    0    0    0 -0.00000000000E+00 -0.00000000000E+00  0.11368683772E-12  0.17120000000E+03  0.17120000000E+03 0.  0.
         13    1    1    2    0    0 -0.32774989961E+02 -0.46007357015E+01  0.78170504352E+02  0.84888195002E+02  0.10566000000E+00 0. -1.
        994    1    1    2    0    0  0.37187403784E+02  0.14026404771E+02  0.11735846104E+02  0.17614429629E+03  0.17120000000E+03 0.  0.
        998    1    1    2    0    0 -0.44124138223E+01 -0.94256690691E+01  0.14100936458E+04  0.14101675087E+04  0.10000000000E+02 0. -1.
</event>
<event>
 5    1  0.1020718E-008  0.3855578E+03  0.7957747E-01  0.3427310E+00
         13   -1    0    0    0    0  0.00000000000E+00  0.00000000000E+00  0.14999999963E+04  0.15000000000E+04  0.10566000000E+00 0.  1.
        994   -1    0    0    0    0 -0.00000000000E+00 -0.00000000000E+00  0.11368683772E-12  0.17120000000E+03  0.17120000000E+03 0.  0.
         13    1    1    2    0    0 -0.62055302782E+01 -0.96893873632E+01  0.48346820281E+02  0.49697273857E+02  0.10566000000E+00 0.  1.
        994    1    1    2    0    0  0.89444939296E+01  0.67755326339E+01  0.17668867543E+01  0.17157643691E+03  0.17120000000E+03 0.  0.
        998    1    1    2    0    0 -0.27389636514E+01  0.29138547294E+01  0.14498862892E+04  0.14499262892E+04  0.10000000000E+02 0.  1.
</event>
<event>
 5    1  0.1020718E-008  0.3801077E+03  0.7957747E-01  0.3450690E+00
         13   -1    0    0    0    0  0.00000000000E+00  0.00000000000E+00  0.14999999963E+04  0.15000000000E+04  0.10566000000E+00 0. -1.
        994   -1    0    0    0    0 -0.00000000000E+00 -0.00000000000E+00  0.11368683772E-12  0.17120000000E+03  0.17120000000E+03 0.  0.
         13    1    1    2    0    0  0.49444328253E+01  0.98469710106E+01  0.12988322233E+02  0.17032848632E+02  0.10566000000E+00 0. -1.
        994    1    1    2    0    0 -0.41092521552E+01 -0.11222361695E+02  0.45562229781E+01  0.17167709959E+03  0.17120000000E+03 0.  0.
        998    1    1    2    0    0 -0.83518067016E+00  0.13753906847E+01  0.14824554511E+04  0.14824900518E+04  0.10000000000E+02 0. -1.
</event>
<event>
 5    1  0.1020718E-008  0.3843648E+03  0.7957747E-01  0.3432371E+00
         13   -1    0    0    0    0  0.00000000000E+00  0.00000000000E+00  0.14999999963E+04  0.15000000000E+04  0.10566000000E+00 0. -1.
        994   -1    0    0    0    0 -0.00000000000E+00 -0.00000000000E+00  0.11368683772E-12  0.17120000000E+03  0.17120000000E+03 0.  0.
         13    1    1    2    0    0  0.22369730653E+02  0.66404402633E+00  0.11810628145E+03  0.12020794769E+03  0.10566000000E+00 0. -1.
        994    1    1    2    0    0 -0.26540516166E+02  0.25652312512E+02  0.64486365578E+01  0.17525257501E+03  0.17120000000E+03 0.  0.
        998    1    1    2    0    0  0.41707855134E+01 -0.26316356538E+02  0.13754450783E+04  0.13757394773E+04  0.10000000000E+02 0. -1.
</event>
<event>
 5    1  0.1066547E-008  0.3857417E+03  0.7957747E-01  0.3426533E+00
         13   -1    0    0    0    0  0.00000000000E+00  0.00000000000E+00  0.14999999963E+04  0.15000000000E+04  0.10566000000E+00 0. -1.
        994   -1    0    0    0    0 -0.00000000000E+00 -0.00000000000E+00  0.11368683772E-12  0.17120000000E+03  0.17120000000E+03 0.  0.
         13    1    1    2    0    0 -0.10023309369E+02  0.59889621387E+01  0.51937767821E+02  0.53234174066E+02  0.10566000000E+00 0. -1.
        994    1    1    2    0    0  0.13693503079E+02 -0.66904933992E+01  0.20247666049E+01  0.17188895953E+03  0.17120000000E+03 0.  0.
        998    1    1    2    0    0 -0.36701937096E+01  0.70153126048E+00  0.14460374619E+04  0.14460768664E+04  0.10000000000E+02 0. -1.
</event>
<event>
 5    1  0.1020718E-008  0.3795365E+03  0.7957747E-01  0.3453179E+00
         13   -1    0    0    0    0  0.00000000000E+00  0.00000000000E+00  0.14999999963E+04  0.15000000000E+04  0.10566000000E+00 0.  1.
        994   -1    0    0    0    0 -0.00000000000E+00 -0.00000000000E+00  0.11368683772E-12  0.17120000000E+03  0.17120000000E+03 0.  0.
         13    1    1    2    0    0  0.59386822994E+01  0.18378470102E+02  0.39488808236E+02  0.43959222590E+02  0.10566000000E+00 0.  1.
        994    1    1    2    0    0 -0.24551964911E+02 -0.17522350822E+02  0.74194491882E+01  0.17399517231E+03  0.17120000000E+03 0.  0.
        998    1    1    2    0    0  0.18613282612E+02 -0.85611928078E+00  0.14530917389E+04  0.14532456051E+04  0.10000000000E+02 0.  1.
</event>
<event>
 5    1  0.1020718E-008  0.3859475E+03  0.7957747E-01  0.3425664E+00
         13   -1    0    0    0    0  0.00000000000E+00  0.00000000000E+00  0.14999999963E+04  0.15000000000E+04  0.10566000000E+00 0.  1.
        994   -1    0    0    0    0 -0.00000000000E+00 -0.00000000000E+00  0.11368683772E-12  0.17120000000E+03  0.17120000000E+03 0.  0.
         13    1    1    2    0    0  0.43470348704E+01 -0.12671956092E+02  0.79948511713E+02  0.81063252295E+02  0.10566000000E+00 0.  1.
        994    1    1    2    0    0  0.58685075255E+01  0.85603206859E+01  0.15137138678E+01  0.17152098939E+03  0.17120000000E+03 0.  0.
        998    1    1    2    0    0 -0.10215542396E+02  0.41116354064E+01  0.14185377707E+04  0.14186157583E+04  0.10000000000E+02 0.  1.
</event>
<event>
 5    1  0.1020718E-008  0.3722851E+03  0.7957747E-01  0.3485455E+00
         13   -1    0    0    0    0  0.00000000000E+00  0.00000000000E+00  0.14999999963E+04  0.15000000000E+04  0.10566000000E+00 0.  1.
        994   -1    0    0    0    0 -0.00000000000E+00 -0.00000000000E+00  0.11368683772E-12  0.17120000000E+03  0.17120000000E+03 0.  0.
         13    1    1    2    0    0  0.19571437148E+02 -0.10831361818E+02  0.27115747642E+02  0.35151592924E+02  0.10566000000E+00 0.  1.
        994    1    1    2    0    0 -0.21626219466E+02  0.77490651137E+01  0.98921518599E+01  0.17301744434E+03  0.17120000000E+03 0.  0.
        998    1    1    2    0    0  0.20547823177E+01  0.30822967047E+01  0.14629920968E+04  0.14630309627E+04  0.10000000000E+02 0.  1.
</event>
<event>
 5    1  0.1020718E-008  0.3828370E+03  0.7957747E-01  0.3438898E+00
         13   -1    0    0    0    0  0.00000000000E+00  0.00000000000E+00  0.14999999963E+04  0.15000000000E+04  0.10566000000E+00 0.  1.
        994   -1    0    0    0    0 -0.00000000000E+00 -0.00000000000E+00  0.11368683772E-12  0.17120000000E+03  0.17120000000E+03 0.  0.
         13    1    1    2    0    0  0.24601223527E+02 -0.44508209527E+01  0.13100667037E+03  0.13337086957E+03  0.10566000000E+00 0.  1.
        994    1    1    2    0    0  0.10108137688E+01 -0.10891420052E+02  0.31042038899E+01  0.17157715715E+03  0.17120000000E+03 0.  0.
        998    1    1    2    0    0 -0.25612037295E+02  0.15342241004E+02  0.13658891220E+04  0.13662519733E+04  0.10000000000E+02 0.  1.
</event>
<event>
 5    1  0.1020718E-008  0.3814841E+03  0.7957747E-01  0.3444722E+00
         13   -1    0    0    0    0  0.00000000000E+00  0.00000000000E+00  0.14999999963E+04  0.15000000000E+04  0.10566000000E+00 0. -1.
        994   -1    0    0    0    0 -0.00000000000E+00 -0.00000000000E+00  0.11368683772E-12  0.17120000000E+03  0.17120000000E+03 0.  0.
         13    1    1    2    0    0 -0.39345963679E+01  0.38064393931E+02  0.18608403267E+03  0.18997804482E+03  0.10566000000E+00 0. -1.
        994    1    1    2    0    0  0.33552974180E+02 -0.39388820910E+02  0.12343827530E+02  0.17927378885E+03  0.17120000000E+03 0.  0.
        998    1    1    2    0    0 -0.29618377812E+02  0.13244269792E+01  0.13015721361E+04  0.13019481663E+04  0.10000000000E+02 0. -1.
</event>
<event>
 5    1  0.1020718E-008  0.3821172E+03  0.7957747E-01  0.3441991E+00
         13   -1    0    0    0    0  0.00000000000E+00  0.00000000000E+00  0.14999999963E+04  0.15000000000E+04  0.10566000000E+00 0. -1.
        994   -1    0    0    0    0 -0.00000000000E+00 -0.00000000000E+00  0.11368683772E-12  0.17120000000E+03  0.17120000000E+03 0.  0.
         13    1    1    2    0    0  0.19726686913E+02 -0.28918460336E+02  0.17489945031E+03  0.17836829429E+03  0.10566000000E+00 0. -1.
        994    1    1    2    0    0 -0.17019798238E+02  0.33254237812E+02  0.77147575774E+01  0.17539804830E+03  0.17120000000E+03 0.  0.
        998    1    1    2    0    0 -0.27068886745E+01 -0.43357774769E+01  0.13173857884E+04  0.13174336574E+04  0.10000000000E+02 0. -1.
</event>
<event>
 5    1  0.1020718E-008  0.3788660E+03  0.7957747E-01  0.3456111E+00
         13   -1    0    0    0    0  0.00000000000E+00  0.00000000000E+00  0.14999999963E+04  0.15000000000E+04  0.10566000000E+00 0. -1.
        994   -1    0    0    0    0 -0.00000000000E+00 -0.00000000000E+00  0.11368683772E-12  0.17120000000E+03  0.17120000000E+03 0.  0.
         13    1    1    2    0    0  0.16443482578E+02  0.17954008975E+02  0.61621856185E+02  0.66257066652E+02  0.10566000000E+00 0. -1.
        994    1    1    2    0    0 -0.78396921799E+01 -0.11649281857E+02  0.53685378176E+01  0.17185874356E+03  0.17120000000E+03 0.  0.
        998    1    1    2    0    0 -0.86037903977E+01 -0.63047271174E+01  0.14330096023E+04  0.14330841898E+04  0.10000000000E+02 0. -1.
</event>
<event>
 5    1  0.1020718E-008  0.3827611E+03  0.7957747E-01  0.3439224E+00
         13   -1    0    0    0    0  0.00000000000E+00  0.00000000000E+00  0.14999999963E+04  0.15000000000E+04  0.10566000000E+00 0. -1.
        994   -1    0    0    0    0 -0.00000000000E+00 -0.00000000000E+00  0.11368683772E-12  0.17120000000E+03  0.17120000000E+03 0.  0.
         13    1    1    2    0    0  0.13455213707E+02  0.64421967930E+01  0.40922755311E+02  0.43557177844E+02  0.10566000000E+00 0. -1.
        994    1    1    2    0    0  0.10464176736E+01 -0.70622999943E+01  0.29146805140E+01  0.17137358733E+03  0.17120000000E+03 0.  0.
        998    1    1    2    0    0 -0.14501631381E+02  0.62010320135E+00  0.14561625605E+04  0.14562692348E+04  0.10000000000E+02 0. -1.
</event>
<event>
 5    1  0.1020718E-008  0.3834575E+03  0.7957747E-01  0.3436241E+00
         13   -1    0    0    0    0  0.00000000000E+00  0.00000000000E+00  0.14999999963E+04  0.15000000000E+04  0.10566000000E+00 0. -1.
        994   -1    0    0    0    0 -0.00000000000E+00 -0.00000000000E+00  0.11368683772E-12  0.17120000000E+03  0.17120000000E+03 0.  0.
         13    1    1    2    0    0 -0.31465121964E+02 -0.82617243065E+02  0.18297967548E+03  0.20321721274E+03  0.10566000000E+00 0. -1.
        994    1    1    2    0    0 -0.83399613455E+02  0.12688578203E+03  0.10865051049E+03  0.25331772665E+03  0.17120000000E+03 0.  0.
        998    1    1    2    0    0  0.11486473542E+03 -0.44268538969E+02  0.12083698103E+04  0.12146650606E+04  0.10000000000E+02 0. -1.
</event>
<event>
 5    1  0.1020718E-008  0.3821319E+03  0.7957747E-01  0.3441928E+00
         13   -1    0    0    0    0  0.00000000000E+00  0.00000000000E+00  0.14999999963E+04  0.15000000000E+04  0.10566000000E+00 0. -1.
        994   -1    0    0    0    0 -0.00000000000E+00 -0.00000000000E+00  0.11368683772E-12  0.17120000000E+03  0.17120000000E+03 0.  0.
         13    1    1    2    0    0 -0.91188706301E+01  0.59873483978E+01  0.18786164291E+02  0.21724025299E+02  0.10566000000E+00 0. -1.
        994    1    1    2    0    0 -0.70228259259E+01 -0.53433919774E+01  0.33193878426E+01  0.17145941286E+03  0.17120000000E+03 0.  0.
        998    1    1    2    0    0  0.16141696556E+02 -0.64395642047E+00  0.14778944441E+04  0.14780165618E+04  0.10000000000E+02 0. -1.
</event>
<event>
 5    1  0.1233566E-008  0.3858104E+03  0.7957747E-01  0.3426242E+00
         13   -1    0    0    0    0  0.00000000000E+00  0.00000000000E+00  0.14999999963E+04  0.15000000000E+04  0.10566000000E+00 0. -1.
        994   -1    0    0    0    0 -0.00000000000E+00 -0.00000000000E+00  0.11368683772E-12  0.17120000000E+03  0.17120000000E+03 0.  0.
         13    1    1    2    0    0  0.13039075288E+02 -0.55995382900E+01  0.68350258271E+02  0.69807888402E+02  0.10566000000E+00 0. -1.
        994    1    1    2    0    0 -0.32102858417E+02  0.16179414796E+02  0.54788251715E+01  0.17501949750E+03  0.17120000000E+03 0.  0.
        998    1    1    2    0    0  0.19063783129E+02 -0.10579876506E+02  0.14261709128E+04  0.14263726141E+04  0.10000000000E+02 0. -1.
</event>
<event>
 5    1  0.1020718E-008  0.3858809E+03  0.7957747E-01  0.3425945E+00
         13   -1    0    0    0    0  0.00000000000E+00  0.00000000000E+00  0.14999999963E+04  0.15000000000E+04  0.10566000000E+00 0. -1.
        994   -1    0    0    0    0 -0.00000000000E+00 -0.00000000000E+00  0.11368683772E-12  0.17120000000E+03  0.17120000000E+03 0.  0.
         13    1    1    2    0    0 -0.10792883814E+02 -0.25625256602E+01  0.48995583040E+02  0.50235756193E+02  0.10566000000E+00 0. -1.
        994    1    1    2    0    0  0.16389983212E+02  0.47389961850E+01  0.21485846276E+01  0.17206146010E+03  0.17120000000E+03 0.  0.
        998    1    1    2    0    0 -0.55970993983E+01 -0.21764705248E+01  0.14488558286E+04  0.14489027837E+04  0.10000000000E+02 0. -1.
</event>
<event>
 5    1  0.1020718E-008  0.3739798E+03  0.7957747E-01  0.3477798E+00
         13   -1    0    0    0    0  0.00000000000E+00  0.00000000000E+00  0.14999999963E+04  0.15000000000E+04  0.10566000000E+00 0.  1.
        994   -1    0    0    0    0 -0.00000000000E+00 -0.00000000000E+00  0.11368683772E-12  0.17120000000E+03  0.17120000000E+03 0.  0.
         13    1    1    2    0    0 -0.16160397535E+02  0.32052251867E+02  0.81468058132E+02  0.89025619673E+02  0.10566000000E+00 0.  1.
        994    1    1    2    0    0  0.18336458653E+02 -0.34927586883E+02  0.12530094813E+02  0.17613235171E+03  0.17120000000E+03 0.  0.
        998    1    1    2    0    0 -0.21760611178E+01  0.28753350164E+01  0.14060018433E+04  0.14060420286E+04  0.10000000000E+02 0.  1.
</event>
<event>
 5    1  0.1020718E-008  0.3811281E+03  0.7957747E-01  0.3446261E+00
         13   -1    0    0    0    0  0.00000000000E+00  0.00000000000E+00  0.14999999963E+04  0.15000000000E+04  0.10566000000E+00 0.  1.
        994   -1    0    0    0    0 -0.00000000000E+00 -0.00000000000E+00  0.11368683772E-12  0.17120000000E+03  0.17120000000E+03 0.  0.
         13    1    1    2    0    0  0.15148666436E+02 -0.30514961264E+02  0.14712067436E+03  0.15101373760E+03  0.10566000000E+00 0.  1.
        994    1    1    2    0    0 -0.15448631214E+02  0.30632720424E+02  0.74947759205E+01  0.17476451423E+03  0.17120000000E+03 0.  0.
        998    1    1    2    0    0  0.29996477832E+00 -0.11775916046E+00  0.13453845460E+04  0.13454217482E+04  0.10000000000E+02 0.  0.
</event>
<event>
 5    1  0.1020718E-008  0.3847555E+03  0.7957747E-01  0.3430710E+00
         13   -1    0    0    0    0  0.00000000000E+00  0.00000000000E+00  0.14999999963E+04  0.15000000000E+04  0.10566000000E+00 0. -1.
        994   -1    0    0    0    0 -0.00000000000E+00 -0.00000000000E+00  0.11368683772E-12  0.17120000000E+03  0.17120000000E+03 0.  0.
         13    1    1    2    0    0 -0.12140965209E+01 -0.15861540422E+02  0.69520439769E+02  0.71317355564E+02  0.10566000000E+00 0. -1.
        994    1    1    2    0    0  0.31904930201E+01  0.16085232942E+02  0.26371181698E+01  0.17200380332E+03  0.17120000000E+03 0.  0.
        998    1    1    2    0    0 -0.19763964992E+01 -0.22369252006E+00  0.14278424383E+04  0.14278788411E+04  0.10000000000E+02 0. -1.
</event>
<event>
 5    1  0.1020718E-008  0.3913457E+03  0.7957747E-01  0.3403197E+00
         13   -1    0    0    0    0  0.00000000000E+00  0.00000000000E+00  0.14999999963E+04  0.15000000000E+04  0.10566000000E+00 0.  1.
        994   -1    0    0    0    0 -0.00000000000E+00 -0.00000000000E+00  0.11368683772E-12  0.17120000000E+03  0.17120000000E+03 0.  0.
         13    1    1    2    0    0  0.57801334547E+02 -0.15811120425E+02  0.83740744383E+02  0.10297334237E+03  0.10566000000E+00 0.  1.
        994    1    1    2    0    0  0.96500878135E+01 -0.23415757705E+02  0.25133806143E+02  0.17487872974E+03  0.17120000000E+03 0.  0.
        998    1    1    2    0    0 -0.67451422361E+02  0.39226878130E+02  0.13911254458E+04  0.13933479279E+04  0.10000000000E+02 0.  1.
</event>
<event>
 5    1  0.1020718E-008  0.3730554E+03  0.7957747E-01  0.3481965E+00
         13   -1    0    0    0    0  0.00000000000E+00  0.00000000000E+00  0.14999999963E+04  0.15000000000E+04  0.10566000000E+00 0.  1.
        994   -1    0    0    0    0 -0.00000000000E+00 -0.00000000000E+00  0.11368683772E-12  0.17120000000E+03  0.17120000000E+03 0.  0.
         13    1    1    2    0    0 -0.54706192867E+02 -0.28477775461E+02  0.15403858654E+03  0.16592663602E+03  0.10566000000E+00 0.  1.
        994    1    1    2    0    0  0.23707778683E+02  0.13387925826E+02  0.15187628929E+02  0.17401551483E+03  0.17120000000E+03 0.  0.
        998    1    1    2    0    0  0.30998414184E+02  0.15089849635E+02  0.13307737808E+04  0.13312578492E+04  0.10000000000E+02 0.  1.
</event>
<event>
 5    1  0.1020718E-008  0.3828301E+03  0.7957747E-01  0.3438928E+00
         13   -1    0    0    0    0  0.00000000000E+00  0.00000000000E+00  0.14999999963E+04  0.15000000000E+04  0.10566000000E+00 0.  1.
        994   -1    0    0    0    0 -0.00000000000E+00 -0.00000000000E+00  0.11368683772E-12  0.17120000000E+03  0.17120000000E+03 0.  0.
         13    1    1    2    0    0  0.42476842948E+01  0.27649399451E+02  0.14106150659E+02  0.31329327511E+02  0.10566000000E+00 0.  1.
        994    1    1    2    0    0 -0.34375461364E+01 -0.27996663037E+02  0.20809066638E+02  0.17475150105E+03  0.17120000000E+03 0.  0.
        998    1    1    2    0    0 -0.81013815842E+00  0.34726358625E+00  0.14650847790E+04  0.14651191714E+04  0.10000000000E+02 0.  1.
</event>
<event>
 5    1  0.1020718E-008  0.3803594E+03  0.7957747E-01  0.3449595E+00
         13   -1    0    0    0    0  0.00000000000E+00  0.00000000000E+00  0.14999999963E+04  0.15000000000E+04  0.10566000000E+00 0.  1.
        994   -1    0    0    0    0 -0.00000000000E+00 -0.00000000000E+00  0.11368683772E-12  0.17120000000E+03  0.17120000000E+03 0.  0.
         13    1    1    2    0    0 -0.21144235806E+02 -0.24510061998E+02  0.18413125633E+03  0.18695494796E+03  0.10566000000E+00 0.  1.
        994    1    1    2    0    0 -0.12467261321E+02 -0.22340575892E+02  0.61403753220E+01  0.17320992508E+03  0.17120000000E+03 0.  0.
        998    1    1    2    0    0  0.33611497127E+02  0.46850637891E+02  0.13097283646E+04  0.13110351270E+04  0.10000000000E+02 0.  1.
</event>
<event>
 5    1  0.1020718E-008  0.3749422E+03  0.7957747E-01  0.3473481E+00
         13   -1    0    0    0    0  0.00000000000E+00  0.00000000000E+00  0.14999999963E+04  0.15000000000E+04  0.10566000000E+00 0. -1.
        994   -1    0    0    0    0 -0.00000000000E+00 -0.00000000000E+00  0.11368683772E-12  0.17120000000E+03  0.17120000000E+03 0.  0.
         13    1    1    2    0    0 -0.29043926196E+02  0.13064152620E+01  0.58209567179E+02  0.65066283472E+02  0.10566000000E+00 0. -1.
        994    1    1    2    0    0  0.30156579269E+02  0.19304734703E+01  0.98192495069E+01  0.17412352989E+03  0.17120000000E+03 0.  0.
        998    1    1    2    0    0 -0.11126530729E+01 -0.32368887323E+01  0.14319711796E+04  0.14320101866E+04  0.10000000000E+02 0. -1.
</event>
<event>
 5    1  0.1020718E-008  0.3785986E+03  0.7957747E-01  0.3457283E+00
         13   -1    0    0    0    0  0.00000000000E+00  0.00000000000E+00  0.14999999963E+04  0.15000000000E+04  0.10566000000E+00 0. -1.
        994   -1    0    0    0    0 -0.00000000000E+00 -0.00000000000E+00  0.11368683772E-12  0.17120000000E+03  0.17120000000E+03 0.  0.
         13    1    1    2    0    0 -0.18769728605E+02 -0.48403567506E+01  0.36652659985E+02  0.41462759355E+02  0.10566000000E+00 0. -1.
        994    1    1    2    0    0  0.15598239527E+02 -0.49289201778E+00  0.56605975753E+01  0.17200299528E+03  0.17120000000E+03 0.  0.
        998    1    1    2    0    0  0.31714890774E+01  0.53332487684E+01  0.14576867387E+04  0.14577342454E+04  0.10000000000E+02 0. -1.
</event>
<event>
 5    1  0.1020718E-008  0.3812673E+03  0.7957747E-01  0.3445659E+00
         13   -1    0    0    0    0  0.00000000000E+00  0.00000000000E+00  0.14999999963E+04  0.15000000000E+04  0.10566000000E+00 0.  1.
        994   -1    0    0    0    0 -0.00000000000E+00 -0.00000000000E+00  0.11368683772E-12  0.17120000000E+03  0.17120000000E+03 0.  0.
         13    1    1    2    0    0 -0.73417568620E+01 -0.10251325466E+02  0.20042740682E+02  0.23679393694E+02  0.10566000000E+00 0.  1.
        994    1    1    2    0    0  0.23052590319E+02  0.21299166621E+02  0.67810240667E+01  0.17418524251E+03  0.17120000000E+03 0.  0.
        998    1    1    2    0    0 -0.15710833457E+02 -0.11047841155E+02  0.14731762315E+04  0.14733353638E+04  0.10000000000E+02 0.  1.
</event>
<event>
 5    1  0.1020718E-008  0.3844563E+03  0.7957747E-01  0.3431981E+00
         13   -1    0    0    0    0  0.00000000000E+00  0.00000000000E+00  0.14999999963E+04  0.15000000000E+04  0.10566000000E+00 0.  1.
        994   -1    0    0    0    0 -0.00000000000E+00 -0.00000000000E+00  0.11368683772E-12  0.17120000000E+03  0.17120000000E+03 0.  0.
         13    1    1    2    0    0 -0.64864910998E+01  0.13202606645E+02  0.56291956502E+02  0.58182290432E+02  0.10566000000E+00 0.  1.
        994    1    1    2    0    0  0.54199395015E+01 -0.95018333002E+01  0.22946289511E+01  0.17156446573E+03  0.17120000000E+03 0.  0.
        998    1    1    2    0    0  0.10665515983E+01 -0.37007733445E+01  0.14414134108E+04  0.14414532438E+04  0.10000000000E+02 0.  1.
</event>
<event>
 5    1  0.1020718E-008  0.3809774E+03  0.7957747E-01  0.3446914E+00
         13   -1    0    0    0    0  0.00000000000E+00  0.00000000000E+00  0.14999999963E+04  0.15000000000E+04  0.10566000000E+00 0.  1.
        994   -1    0    0    0    0 -0.00000000000E+00 -0.00000000000E+00  0.11368683772E-12  0.17120000000E+03  0.17120000000E+03 0.  0.
         13    1    1    2    0    0  0.30478145938E+02  0.63983683076E+01  0.12115629480E+03  0.12509482575E+03  0.10566000000E+00 0.  1.
        994    1    1    2    0    0 -0.29866654568E+02 -0.19600034185E+02  0.79046897693E+01  0.17506599474E+03  0.17120000000E+03 0.  0.
        998    1    1    2    0    0 -0.61149137008E+00  0.13201665877E+02  0.13709390117E+04  0.13710391795E+04  0.10000000000E+02 0.  1.
</event>
<event>
 5    1  0.1020718E-008  0.3859028E+03  0.7957747E-01  0.3425852E+00
         13   -1    0    0    0    0  0.00000000000E+00  0.00000000000E+00  0.14999999963E+04  0.15000000000E+04  0.10566000000E+00 0. -1.
        994   -1    0    0    0    0 -0.00000000000E+00 -0.00000000000E+00  0.11368683772E-12  0.17120000000E+03  0.17120000000E+03 0.  0.
         13    1    1    2    0    0 -0.35702330459E+01  0.12341209230E+02  0.60248135502E+02  0.61602767834E+02  0.10566000000E+00 0. -1.
        994    1    1    2    0    0  0.39219021011E+02 -0.22636461582E+02  0.79354580811E+01  0.17726520385E+03  0.17120000000E+03 0.  0.
        998    1    1    2    0    0 -0.35648787965E+02  0.10295252351E+02  0.14318164027E+04  0.14323320283E+04  0.10000000000E+02 0. -1.
</event>
<event>
 5    1  0.1020718E-008  0.3829359E+03  0.7957747E-01  0.3438474E+00
         13   -1    0    0    0    0  0.00000000000E+00  0.00000000000E+00  0.14999999963E+04  0.15000000000E+04  0.10566000000E+00 0. -1.
        994   -1    0    0    0    0 -0.00000000000E+00 -0.00000000000E+00  0.11368683772E-12  0.17120000000E+03  0.17120000000E+03 0.  0.
         13    1    1    2    0    0  0.24133570692E+02 -0.55459066455E+01  0.11777802481E+03  0.12035306646E+03  0.10566000000E+00 0. -1.
        994    1    1    2    0    0 -0.93056832341E+01  0.91900663695E+01  0.32249535065E+01  0.17172912795E+03  0.17120000000E+03 0.  0.
        998    1    1    2    0    0 -0.14827887458E+02 -0.36441597240E+01  0.13789970180E+04  0.13791178056E+04  0.10000000000E+02 0. -1.
</event>
<event>
 5    1  0.1020718E-008  0.3765967E+03  0.7957747E-01  0.3466112E+00
         13   -1    0    0    0    0  0.00000000000E+00  0.00000000000E+00  0.14999999963E+04  0.15000000000E+04  0.10566000000E+00 0. -1.
        994   -1    0    0    0    0 -0.00000000000E+00 -0.00000000000E+00  0.11368683772E-12  0.17120000000E+03  0.17120000000E+03 0.  0.
         13    1    1    2    0    0  0.35343165179E+02  0.24802093768E+02  0.14503378765E+03  0.15132446565E+03  0.10566000000E+00 0. -1.
        994    1    1    2    0    0 -0.29191971189E+02 -0.28948996067E+02  0.11597088610E+02  0.17644871215E+03  0.17120000000E+03 0.  0.
        998    1    1    2    0    0 -0.61511939902E+01  0.41469022986E+01  0.13433691200E+04  0.13434268222E+04  0.10000000000E+02 0. -1.
</event>
<event>
 5    1  0.1020718E-008  0.3851363E+03  0.7957747E-01  0.3429094E+00
         13   -1    0    0    0    0  0.00000000000E+00  0.00000000000E+00  0.14999999963E+04  0.15000000000E+04  0.10566000000E+00 0.  1.
        994   -1    0    0    0    0 -0.00000000000E+00 -0.00000000000E+00  0.11368683772E-12  0.17120000000E+03  0.17120000000E+03 0.  0.
         13    1    1    2    0    0  0.10565035816E+01 -0.10620262671E+02  0.36328969046E+02  0.37864380821E+02  0.10566000000E+00 0.  1.
        994    1    1    2    0    0 -0.28093792518E+01  0.70896987126E+01  0.17536610376E+01  0.17137873779E+03  0.17120000000E+03 0.  0.
        998    1    1    2    0    0  0.17528756702E+01  0.35305639585E+01  0.14619173662E+04  0.14619568814E+04  0.10000000000E+02 0.  1.
</event>
<event>
 5    1  0.1020718E-008  0.3850316E+03  0.7957747E-01  0.3429538E+00
         13   -1    0    0    0    0  0.00000000000E+00  0.00000000000E+00  0.14999999963E+04  0.15000000000E+04  0.10566000000E+00 0.  1.
        994   -1    0    0    0    0 -0.00000000000E+00 -0.00000000000E+00  0.11368683772E-12  0.17120000000E+03  0.17120000000E+03 0.  0.
         13    1    1    2    0    0  0.92724650654E+01  0.10996678721E+02  0.62808740819E+02  0.64434886813E+02  0.10566000000E+00 0.  1.
        994    1    1    2    0    0 -0.70836908557E+01 -0.10744593899E+02  0.21592903132E+01  0.17169661473E+03  0.17120000000E+03 0.  0.
        998    1    1    2    0    0 -0.21887742097E+01 -0.25208482199E+00  0.14350319651E+04  0.14350684985E+04  0.10000000000E+02 0.  1.
</event>
<event>
 5    1  0.1020718E-008  0.3745563E+03  0.7957747E-01  0.3475210E+00
         13   -1    0    0    0    0  0.00000000000E+00  0.00000000000E+00  0.14999999963E+04  0.15000000000E+04  0.10566000000E+00 0.  1.
        994   -1    0    0    0    0 -0.00000000000E+00 -0.00000000000E+00  0.11368683772E-12  0.17120000000E+03  0.17120000000E+03 0.  0.
         13    1    1    2    0    0  0.39953838823E+02 -0.11535069470E+02  0.13974059061E+03  0.14579715667E+03  0.10566000000E+00 0.  1.
        994    1    1    2    0    0  0.24577277137E+01  0.44425419350E+01  0.69945247480E+01  0.17141802700E+03  0.17120000000E+03 0.  0.
        998    1    1    2    0    0 -0.42411566537E+02  0.70925275355E+01  0.13532648809E+04  0.13539848163E+04  0.10000000000E+02 0.  1.
</event>
<event>
 5    1  0.1020718E-008  0.3802518E+03  0.7957747E-01  0.3450063E+00
         13   -1    0    0    0    0  0.00000000000E+00  0.00000000000E+00  0.14999999963E+04  0.15000000000E+04  0.10566000000E+00 0. -1.
        994   -1    0    0    0    0 -0.00000000000E+00 -0.00000000000E+00  0.11368683772E-12  0.17120000000E+03  0.17120000000E+03 0.  0.
         13    1    1    2    0    0 -0.25632821323E+02 -0.14463137788E+02  0.95230186739E+02  0.99674588105E+02  0.10566000000E+00 0. -1.
        994    1    1    2    0    0  0.40671828347E+02  0.10666635899E+02  0.99340301656E+01  0.17656754996E+03  0.17120000000E+03 0.  0.
        998    1    1    2    0    0 -0.15039007023E+02  0.37965018893E+01  0.13948357794E+04  0.13949578619E+04  0.10000000000E+02 0. -1.
</event>
<event>
 5    1  0.1020718E-008  0.3794288E+03  0.7957747E-01  0.3453649E+00
         13   -1    0    0    0    0  0.00000000000E+00  0.00000000000E+00  0.14999999963E+04  0.15000000000E+04  0.10566000000E+00 0. -1.
        994   -1    0    0    0    0 -0.00000000000E+00 -0.00000000000E+00  0.11368683772E-12  0.17120000000E+03  0.17120000000E+03 0.  0.
         13    1    1    2    0    0 -0.16815220672E+02  0.81409007288E+01  0.37646484071E+02  0.42027310619E+02  0.10566000000E+00 0. -1.
        994    1    1    2    0    0  0.11238208501E+02 -0.72516367254E+01  0.50211120804E+01  0.17179503815E+03  0.17120000000E+03 0.  0.
        998    1    1    2    0    0  0.55770121706E+01 -0.88926400341E+00  0.14573324001E+04  0.14573776512E+04  0.10000000000E+02 0. -1.
</event>
<event>
 5    1  0.1020718E-008  0.3840420E+03  0.7957747E-01  0.3433746E+00
         13   -1    0    0    0    0  0.00000000000E+00  0.00000000000E+00  0.14999999963E+04  0.15000000000E+04  0.10566000000E+00 0.  1.
        994   -1    0    0    0    0 -0.00000000000E+00 -0.00000000000E+00  0.11368683772E-12  0.17120000000E+03  0.17120000000E+03 0.  0.
         13    1    1    2    0    0 -0.15683673287E+02 -0.21828649509E+01  0.65773415830E+02  0.67652759745E+02  0.10566000000E+00 0.  1.
        994    1    1    2    0    0 -0.83359374973E+01  0.19975283583E+00  0.23359304924E+01  0.17141885639E+03  0.17120000000E+03 0.  0.
        998    1    1    2    0    0  0.24019610784E+02  0.19831121151E+01  0.14318906500E+04  0.14321283839E+04  0.10000000000E+02 0.  1.
</event>
<event>
 5    1  0.1020718E-008  0.3860618E+03  0.7957747E-01  0.3425181E+00
         13   -1    0    0    0    0  0.00000000000E+00  0.00000000000E+00  0.14999999963E+04  0.15000000000E+04  0.10566000000E+00 0.  1.
        994   -1    0    0    0    0 -0.00000000000E+00 -0.00000000000E+00  0.11368683772E-12  0.17120000000E+03  0.17120000000E+03 0.  0.
         13    1    1    2    0    0  0.96213800486E+01 -0.79088106489E+01  0.70755672053E+02  0.71843555950E+02  0.10566000000E+00 0.  1.
        994    1    1    2    0    0 -0.75131922649E+01  0.49557390564E+01  0.13693996915E+01  0.17144189296E+03  0.17120000000E+03 0.  0.
        998    1    1    2    0    0 -0.21081877837E+01  0.29530715925E+01  0.14278749245E+04  0.14279145511E+04  0.10000000000E+02 0.  1.
</event>
<event>
 5    1  0.1020718E-008  0.3781780E+03  0.7957747E-01  0.3459130E+00
         13   -1    0    0    0    0  0.00000000000E+00  0.00000000000E+00  0.14999999963E+04  0.15000000000E+04  0.10566000000E+00 0.  1.
        994   -1    0    0    0    0 -0.00000000000E+00 -0.00000000000E+00  0.11368683772E-12  0.17120000000E+03  0.17120000000E+03 0.  0.
         13    1    1    2    0    0 -0.29451306636E+02  0.29146398217E+02  0.20308026474E+03  0.20726431695E+03  0.10566000000E+00 0.  1.
        994    1    1    2    0    0 -0.68553018687E+00  0.34529029541E+01  0.50974016259E+01  0.17131204276E+03  0.17120000000E+03 0.  0.
        998    1    1    2    0    0  0.30136836823E+02 -0.32599301171E+02  0.12918223299E+04  0.12926236403E+04  0.10000000000E+02 0.  1.
</event>
<event>
 5    1  0.1020718E-008  0.3747811E+03  0.7957747E-01  0.3474203E+00
         13   -1    0    0    0    0  0.00000000000E+00  0.00000000000E+00  0.14999999963E+04  0.15000000000E+04  0.10566000000E+00 0.  1.
        994   -1    0    0    0    0 -0.00000000000E+00 -0.00000000000E+00  0.11368683772E-12  0.17120000000E+03  0.17120000000E+03 0.  0.
         13    1    1    2    0    0 -0.19613912871E+02  0.20478039166E+03  0.76502630882E+03  0.79220261217E+03  0.10566000000E+00 0.  1.
        994    1    1    2    0    0  0.54373908107E+01 -0.23012670649E+03  0.21596248452E+03  0.35907812656E+03  0.17120000000E+03 0.  0.
        998    1    1    2    0    0  0.14176522060E+02  0.25346314822E+02  0.51901120294E+03  0.51991926126E+03  0.10000000000E+02 0.  1.
</event>
<event>
 5    1  0.1020718E-008  0.3785446E+03  0.7957747E-01  0.3457520E+00
         13   -1    0    0    0    0  0.00000000000E+00  0.00000000000E+00  0.14999999963E+04  0.15000000000E+04  0.10566000000E+00 0. -1.
        994   -1    0    0    0    0 -0.00000000000E+00 -0.00000000000E+00  0.11368683772E-12  0.17120000000E+03  0.17120000000E+03 0.  0.
         13    1    1    2    0    0  0.43711856697E+02 -0.78844061205E+00  0.89424735802E+02  0.99539653364E+02  0.10566000000E+00 0. -1.
        994    1    1    2    0    0  0.12789698815E+03  0.20664027802E+02  0.78815246004E+02  0.22870488544E+03  0.17120000000E+03 0.  0.
        998    1    1    2    0    0 -0.17160884485E+03 -0.19875587190E+02  0.13317600145E+04  0.13429554612E+04  0.10000000000E+02 0. -1.
</event>
<event>
 5    1  0.1020718E-008  0.3800220E+03  0.7957747E-01  0.3451063E+00
         13   -1    0    0    0    0  0.00000000000E+00  0.00000000000E+00  0.14999999963E+04  0.15000000000E+04  0.10566000000E+00 0. -1.
        994   -1    0    0    0    0 -0.00000000000E+00 -0.00000000000E+00  0.11368683772E-12  0.17120000000E+03  0.17120000000E+03 0.  0.
         13    1    1    2    0    0 -0.10286676617E+03 -0.88177043447E+01  0.55331319119E+03  0.56286305812E+03  0.10566000000E+00 0. -1.
        994    1    1    2    0    0  0.13107553160E+03 -0.79653165645E+01  0.64099900304E+02  0.22508327008E+03  0.17120000000E+03 0.  0.
        998    1    1    2    0    0 -0.28208765431E+02  0.16783020909E+02  0.88258690479E+03  0.88325367180E+03  0.10000000000E+02 0. -1.
</event>
<event>
 5    1  0.1020718E-008  0.3849796E+03  0.7957747E-01  0.3429759E+00
         13   -1    0    0    0    0  0.00000000000E+00  0.00000000000E+00  0.14999999963E+04  0.15000000000E+04  0.10566000000E+00 0. -1.
        994   -1    0    0    0    0 -0.00000000000E+00 -0.00000000000E+00  0.11368683772E-12  0.17120000000E+03  0.17120000000E+03 0.  0.
         13    1    1    2    0    0 -0.37861850226E+00 -0.13437115364E+02  0.55677826969E+02  0.57277665816E+02  0.10566000000E+00 0. -1.
        994    1    1    2    0    0 -0.23937791564E+01  0.70752702489E+01  0.18237533331E+01  0.17137256404E+03  0.17120000000E+03 0.  0.
        998    1    1    2    0    0  0.27723976587E+01  0.63618451155E+01  0.14424984160E+04  0.14425497701E+04  0.10000000000E+02 0. -1.
</event>
<event>
 5    1  0.1020718E-008  0.3769422E+03  0.7957747E-01  0.3464582E+00
         13   -1    0    0    0    0  0.00000000000E+00  0.00000000000E+00  0.14999999963E+04  0.15000000000E+04  0.10566000000E+00 0.  1.
        994   -1    0    0    0    0 -0.00000000000E+00 -0.00000000000E+00  0.11368683772E-12  0.17120000000E+03  0.17120000000E+03 0.  0.
         13    1    1    2    0    0 -0.17741663895E+02 -0.16283107871E+02  0.50699536665E+02  0.56128071602E+02  0.10566000000E+00 0.  1.
        994    1    1    2    0    0  0.13251329690E+02 -0.78948465570E+01  0.64886304152E+01  0.17201589655E+03  0.17120000000E+03 0.  0.
        998    1    1    2    0    0  0.44903342048E+01  0.24177954428E+02  0.14428118292E+04  0.14430560318E+04  0.10000000000E+02 0.  1.
</event>
<event>
 5    1  0.1589245E-008  0.3856912E+03  0.7957747E-01  0.3426746E+00
         13   -1    0    0    0    0  0.00000000000E+00  0.00000000000E+00  0.14999999963E+04  0.15000000000E+04  0.10566000000E+00 0. -1.
        994   -1    0    0    0    0 -0.00000000000E+00 -0.00000000000E+00  0.11368683772E-12  0.17120000000E+03  0.17120000000E+03 0.  0.
         13    1    1    2    0    0 -0.89933103530E+01 -0.58091282389E+01  0.44933451672E+02  0.46191469399E+02  0.10566000000E+00 0. -1.
        994    1    1    2    0    0  0.48252675626E+01  0.49696644241E+01  0.14447931157E+01  0.17134616482E+03  0.17120000000E+03 0.  0.
        998    1    1    2    0    0  0.41680427905E+01  0.83946381483E+00  0.14536217515E+04  0.14536623658E+04  0.10000000000E+02 0. -1.
</event>
<event>
 5    1  0.1020718E-008  0.3723075E+03  0.7957747E-01  0.3485353E+00
         13   -1    0    0    0    0  0.00000000000E+00  0.00000000000E+00  0.14999999963E+04  0.15000000000E+04  0.10566000000E+00 0.  1.
        994   -1    0    0    0    0 -0.00000000000E+00 -0.00000000000E+00  0.11368683772E-12  0.17120000000E+03  0.17120000000E+03 0.  0.
         13    1    1    2    0    0  0.16231630703E+02  0.40048145846E+02  0.10019351997E+03  0.10911495053E+03  0.10566000000E+00 0.  1.
        994    1    1    2    0    0 -0.21342482398E+02 -0.52792351246E+02  0.19274175306E+02  0.18144825086E+03  0.17120000000E+03 0.  0.
        998    1    1    2    0    0  0.51108516943E+01  0.12744205400E+02  0.13805323010E+04  0.13806367986E+04  0.10000000000E+02 0.  1.
</event>
<event>
 5    1  0.2232687E-008  0.3865212E+03  0.7957747E-01  0.3423246E+00
         13   -1    0    0    0    0  0.00000000000E+00  0.00000000000E+00  0.14999999963E+04  0.15000000000E+04  0.10566000000E+00 0.  1.
        994   -1    0    0    0    0 -0.00000000000E+00 -0.00000000000E+00  0.11368683772E-12  0.17120000000E+03  0.17120000000E+03 0.  0.
         13    1    1    2    0    0 -0.37596033938E+01 -0.94565078653E+01  0.58160762411E+02  0.59044437562E+02  0.10566000000E+00 0.  1.
        994    1    1    2    0    0  0.87103693017E+01  0.89718738926E+01  0.13886544648E+01  0.17166168302E+03  0.17120000000E+03 0.  0.
        998    1    1    2    0    0 -0.49507659079E+01  0.48463397267E+00  0.14404505794E+04  0.14404938794E+04  0.10000000000E+02 0.  1.
</event>
<event>
 5    1  0.1020718E-008  0.3837988E+03  0.7957747E-01  0.3434783E+00
         13   -1    0    0    0    0  0.00000000000E+00  0.00000000000E+00  0.14999999963E+04  0.15000000000E+04  0.10566000000E+00 0. -1.
        994   -1    0    0    0    0 -0.00000000000E+00 -0.00000000000E+00  0.11368683772E-12  0.17120000000E+03  0.17120000000E+03 0.  0.
         13    1    1    2    0    0  0.57978677558E+01  0.89697327345E+01  0.25578930393E+02  0.27719383470E+02  0.10566000000E+00 0. -1.
        994    1    1    2    0    0 -0.59805183413E+01  0.38637373016E+01  0.23950999152E+01  0.17136473257E+03  0.17120000000E+03 0.  0.
        998    1    1    2    0    0  0.18265058553E+00 -0.12833470036E+02  0.14720259660E+04  0.14721158840E+04  0.10000000000E+02 0. -1.
</event>
<event>
 5    1  0.1020718E-008  0.3833221E+03  0.7957747E-01  0.3436819E+00
         13   -1    0    0    0    0  0.00000000000E+00  0.00000000000E+00  0.14999999963E+04  0.15000000000E+04  0.10566000000E+00 0.  1.
        994   -1    0    0    0    0 -0.00000000000E+00 -0.00000000000E+00  0.11368683772E-12  0.17120000000E+03  0.17120000000E+03 0.  0.
         13    1    1    2    0    0  0.16876783712E+02 -0.15760809409E+01  0.58111459792E+02  0.60533154410E+02  0.10566000000E+00 0.  1.
        994    1    1    2    0    0 -0.10139500708E+02 -0.81259832059E+01  0.30239514201E+01  0.17171903028E+03  0.17120000000E+03 0.  0.
        998    1    1    2    0    0 -0.67372830044E+01  0.97020641468E+01  0.14388645851E+04  0.14389478153E+04  0.10000000000E+02 0.  1.
</event>
<event>
 5    1  0.1020718E-008  0.3750699E+03  0.7957747E-01  0.3472910E+00
         13   -1    0    0    0    0  0.00000000000E+00  0.00000000000E+00  0.14999999963E+04  0.15000000000E+04  0.10566000000E+00 0.  1.
        994   -1    0    0    0    0 -0.00000000000E+00 -0.00000000000E+00  0.11368683772E-12  0.17120000000E+03  0.17120000000E+03 0.  0.
         13    1    1    2    0    0  0.15901795876E+02  0.35929700775E+02  0.11058982172E+03  0.11736238896E+03  0.10566000000E+00 0.  1.
        994    1    1    2    0    0  0.11429433393E+02 -0.38694628916E+02  0.12195228418E+02  0.17631242115E+03  0.17120000000E+03 0.  0.
        998    1    1    2    0    0 -0.27331229269E+02  0.27649281411E+01  0.13772149461E+04  0.13775251899E+04  0.10000000000E+02 0.  1.
</event>
<event>
 5    1  0.1020718E-008  0.3838955E+03  0.7957747E-01  0.3434370E+00
         13   -1    0    0    0    0  0.00000000000E+00  0.00000000000E+00  0.14999999963E+04  0.15000000000E+04  0.10566000000E+00 0.  1.
        994   -1    0    0    0    0 -0.00000000000E+00 -0.00000000000E+00  0.11368683772E-12  0.17120000000E+03  0.17120000000E+03 0.  0.
         13    1    1    2    0    0  0.44042746607E+01 -0.16786477451E+02  0.70856008840E+02  0.72950453140E+02  0.10566000000E+00 0.  1.
        994    1    1    2    0    0  0.92345422329E+00  0.61829008241E+01  0.23084811607E+01  0.17132965335E+03  0.17120000000E+03 0.  0.
        998    1    1    2    0    0 -0.53277288840E+01  0.10603576627E+02  0.14268355063E+04  0.14269198935E+04  0.10000000000E+02 0.  1.
</event>
<event>
 5    1  0.1020718E-008  0.3709672E+03  0.7957747E-01  0.3491457E+00
         13   -1    0    0    0    0  0.00000000000E+00  0.00000000000E+00  0.14999999963E+04  0.15000000000E+04  0.10566000000E+00 0. -1.
        994   -1    0    0    0    0 -0.00000000000E+00 -0.00000000000E+00  0.11368683772E-12  0.17120000000E+03  0.17120000000E+03 0.  0.
         13    1    1    2    0    0 -0.12100414046E+02  0.22074174724E+02  0.31515726425E+02  0.40335361483E+02  0.10566000000E+00 0. -1.
        994    1    1    2    0    0  0.15069454385E+02 -0.26165805715E+02  0.11912818538E+02  0.17425008778E+03  0.17120000000E+03 0.  0.
        998    1    1    2    0    0 -0.29690403393E+01  0.40916309910E+01  0.14565714513E+04  0.14566145507E+04  0.10000000000E+02 0. -1.
</event>
<event>
 5    1  0.1020718E-008  0.3697945E+03  0.7957747E-01  0.3496836E+00
         13   -1    0    0    0    0  0.00000000000E+00  0.00000000000E+00  0.14999999963E+04  0.15000000000E+04  0.10566000000E+00 0.  1.
        994   -1    0    0    0    0 -0.00000000000E+00 -0.00000000000E+00  0.11368683772E-12  0.17120000000E+03  0.17120000000E+03 0.  0.
         13    1    1    2    0    0 -0.13740224228E+03  0.62928330912E+02  0.61069482819E+03  0.62911647201E+03  0.10566000000E+00 0.  1.
        994    1    1    2    0    0  0.14397659861E+03 -0.64343895297E+02  0.10107573570E+03  0.25376197934E+03  0.17120000000E+03 0.  0.
        998    1    1    2    0    0 -0.65743563329E+01  0.14155643850E+01  0.78822943240E+03  0.78832154866E+03  0.10000000000E+02 0. -1.
</event>
<event>
 5    1  0.1020718E-008  0.3813907E+03  0.7957747E-01  0.3445125E+00
         13   -1    0    0    0    0  0.00000000000E+00  0.00000000000E+00  0.14999999963E+04  0.15000000000E+04  0.10566000000E+00 0.  1.
        994   -1    0    0    0    0 -0.00000000000E+00 -0.00000000000E+00  0.11368683772E-12  0.17120000000E+03  0.17120000000E+03 0.  0.
         13    1    1    2    0    0 -0.38970723794E+02 -0.10092831231E+02  0.20486334966E+03  0.20878119109E+03  0.10566000000E+00 0.  1.
        994    1    1    2    0    0  0.39916776554E+02  0.70813872695E+01  0.89210812748E+01  0.17616049724E+03  0.17120000000E+03 0.  0.
        998    1    1    2    0    0 -0.94605276002E+00  0.30114439617E+01  0.12862155653E+04  0.12862583117E+04  0.10000000000E+02 0.  0.
</event>
<event>
 5    1  0.1020718E-008  0.3783941E+03  0.7957747E-01  0.3458181E+00
         13   -1    0    0    0    0  0.00000000000E+00  0.00000000000E+00  0.14999999963E+04  0.15000000000E+04  0.10566000000E+00 0. -1.
        994   -1    0    0    0    0 -0.00000000000E+00 -0.00000000000E+00  0.11368683772E-12  0.17120000000E+03  0.17120000000E+03 0.  0.
         13    1    1    2    0    0 -0.97525743951E+01  0.29152787675E+02  0.10609558988E+03  0.11045941830E+03  0.10566000000E+00 0. -1.
        994    1    1    2    0    0  0.31936987300E+02  0.16072207859E+02  0.92540129498E+01  0.17513812771E+03  0.17120000000E+03 0.  0.
        998    1    1    2    0    0 -0.22184412905E+02 -0.45224995535E+02  0.13846503935E+04  0.13856024540E+04  0.10000000000E+02 0. -1.
</event>
<event>
 5    1  0.1020718E-008  0.3803416E+03  0.7957747E-01  0.3449673E+00
         13   -1    0    0    0    0  0.00000000000E+00  0.00000000000E+00  0.14999999963E+04  0.15000000000E+04  0.10566000000E+00 0.  1.
        994   -1    0    0    0    0 -0.00000000000E+00 -0.00000000000E+00  0.11368683772E-12  0.17120000000E+03  0.17120000000E+03 0.  0.
         13    1    1    2    0    0 -0.28160055863E+02 -0.15382174791E+02  0.11902556050E+03  0.12327487685E+03  0.10566000000E+00 0.  1.
        994    1    1    2    0    0  0.29803799745E+02  0.14058970405E+02  0.75953644748E+01  0.17450802471E+03  0.17120000000E+03 0.  0.
        998    1    1    2    0    0 -0.16437438815E+01  0.13232043859E+01  0.13733790713E+04  0.13734170984E+04  0.10000000000E+02 0.  1.
</event>
<event>
 5    1  0.1020718E-008  0.3824234E+03  0.7957747E-01  0.3440674E+00
         13   -1    0    0    0    0  0.00000000000E+00  0.00000000000E+00  0.14999999963E+04  0.15000000000E+04  0.10566000000E+00 0. -1.
        994   -1    0    0    0    0 -0.00000000000E+00 -0.00000000000E+00  0.11368683772E-12  0.17120000000E+03  0.17120000000E+03 0.  0.
         13    1    1    2    0    0  0.59209964764E+01 -0.81723740573E+01  0.16307757630E+02  0.19178113045E+02  0.10566000000E+00 0. -1.
        994    1    1    2    0    0 -0.40532909782E+01  0.58376966811E+01  0.30823086516E+01  0.17137516885E+03  0.17120000000E+03 0.  0.
        998    1    1    2    0    0 -0.18677054982E+01  0.23346773763E+01  0.14806099300E+04  0.14806467181E+04  0.10000000000E+02 0. -1.
</event>
<event>
 5    1  0.1020718E-008  0.3834129E+03  0.7957747E-01  0.3436431E+00
         13   -1    0    0    0    0  0.00000000000E+00  0.00000000000E+00  0.14999999963E+04  0.15000000000E+04  0.10566000000E+00 0. -1.
        994   -1    0    0    0    0 -0.00000000000E+00 -0.00000000000E+00  0.11368683772E-12  0.17120000000E+03  0.17120000000E+03 0.  0.
         13    1    1    2    0    0 -0.13315000221E+02 -0.14413578408E+02  0.73550441606E+02  0.76123052342E+02  0.10566000000E+00 0. -1.
        994    1    1    2    0    0  0.16227950071E+02  0.19352454732E+02  0.45315454779E+01  0.17311221439E+03  0.17120000000E+03 0.  0.
        998    1    1    2    0    0 -0.29129498501E+01 -0.49388763240E+01  0.14219180092E+04  0.14219647333E+04  0.10000000000E+02 0. -1.
</event>
<event>
 5    1  0.1020718E-008  0.3849345E+03  0.7957747E-01  0.3429950E+00
         13   -1    0    0    0    0  0.00000000000E+00  0.00000000000E+00  0.14999999963E+04  0.15000000000E+04  0.10566000000E+00 0. -1.
        994   -1    0    0    0    0 -0.00000000000E+00 -0.00000000000E+00  0.11368683772E-12  0.17120000000E+03  0.17120000000E+03 0.  0.
         13    1    1    2    0    0  0.16569498478E+02  0.52544579128E+01  0.84554792806E+02  0.86323124122E+02  0.10566000000E+00 0. -1.
        994    1    1    2    0    0 -0.20111807230E+02 -0.74840620240E+01  0.31788799139E+01  0.17256894637E+03  0.17120000000E+03 0.  0.
        998    1    1    2    0    0  0.35423087522E+01  0.22296041112E+01  0.14122663236E+04  0.14123079295E+04  0.10000000000E+02 0. -1.
</event>
<event>
 5    1  0.1020718E-008  0.3837316E+03  0.7957747E-01  0.3435070E+00
         13   -1    0    0    0    0  0.00000000000E+00  0.00000000000E+00  0.14999999963E+04  0.15000000000E+04  0.10566000000E+00 0.  1.
        994   -1    0    0    0    0 -0.00000000000E+00 -0.00000000000E+00  0.11368683772E-12  0.17120000000E+03  0.17120000000E+03 0.  0.
         13    1    1    2    0    0 -0.45070615015E+01  0.26831485939E+02  0.14861971981E+03  0.15108962413E+03  0.10566000000E+00 0.  1.
        994    1    1    2    0    0  0.83049964414E+01 -0.26766356318E+02  0.48591036369E+01  0.17354671326E+03  0.17120000000E+03 0.  0.
        998    1    1    2    0    0 -0.37979349399E+01 -0.65129621191E-01  0.13465211728E+04  0.13465636626E+04  0.10000000000E+02 0.  0.
</event>
<event>
 5    1  0.1020718E-008  0.3843000E+03  0.7957747E-01  0.3432646E+00
         13   -1    0    0    0    0  0.00000000000E+00  0.00000000000E+00  0.14999999963E+04  0.15000000000E+04  0.10566000000E+00 0.  1.
        994   -1    0    0    0    0 -0.00000000000E+00 -0.00000000000E+00  0.11368683772E-12  0.17120000000E+03  0.17120000000E+03 0.  0.
         13    1    1    2    0    0 -0.51136389434E+01 -0.12787321123E+02  0.47246620158E+02  0.49212997929E+02  0.10566000000E+00 0.  1.
        994    1    1    2    0    0  0.48350519964E+01  0.94503144219E+01  0.23495949140E+01  0.17154488266E+03  0.17120000000E+03 0.  0.
        998    1    1    2    0    0  0.27858694707E+00  0.33370067011E+01  0.14504037812E+04  0.14504421194E+04  0.10000000000E+02 0.  1.
</event>
<event>
 5    1  0.1614877E-008  0.3863045E+03  0.7957747E-01  0.3424159E+00
         13   -1    0    0    0    0  0.00000000000E+00  0.00000000000E+00  0.14999999963E+04  0.15000000000E+04  0.10566000000E+00 0. -1.
        994   -1    0    0    0    0 -0.00000000000E+00 -0.00000000000E+00  0.11368683772E-12  0.17120000000E+03  0.17120000000E+03 0.  0.
         13    1    1    2    0    0  0.26169919328E+01  0.10994554496E+02  0.66427553704E+02  0.67382192978E+02  0.10566000000E+00 0. -1.
        994    1    1    2    0    0 -0.51710706918E+01 -0.57921026103E+01  0.11813232344E+01  0.17138005704E+03  0.17120000000E+03 0.  0.
        998    1    1    2    0    0  0.25540787590E+01 -0.52024518860E+01  0.14323911193E+04  0.14324377500E+04  0.10000000000E+02 0. -1.
</event>
<event>
 5    1  0.1020718E-008  0.3773551E+03  0.7957747E-01  0.3462756E+00
         13   -1    0    0    0    0  0.00000000000E+00  0.00000000000E+00  0.14999999963E+04  0.15000000000E+04  0.10566000000E+00 0. -1.
        994   -1    0    0    0    0 -0.00000000000E+00 -0.00000000000E+00  0.11368683772E-12  0.17120000000E+03  0.17120000000E+03 0.  0.
         13    1    1    2    0    0 -0.17955662512E+02  0.82976946337E+01  0.33170663815E+02  0.38620741247E+02  0.10566000000E+00 0. -1.
        994    1    1    2    0    0  0.13846941077E+02 -0.10600978984E+02  0.65005483698E+01  0.17220863992E+03  0.17120000000E+03 0.  0.
        998    1    1    2    0    0  0.41087214343E+01  0.23032843504E+01  0.14603287841E+04  0.14603706188E+04  0.10000000000E+02 0. -1.
</event>
<event>
 5    1  0.1020718E-008  0.3797055E+03  0.7957747E-01  0.3452442E+00
         13   -1    0    0    0    0  0.00000000000E+00  0.00000000000E+00  0.14999999963E+04  0.15000000000E+04  0.10566000000E+00 0.  1.
        994   -1    0    0    0    0 -0.00000000000E+00 -0.00000000000E+00  0.11368683772E-12  0.17120000000E+03  0.17120000000E+03 0.  0.
         13    1    1    2    0    0  0.14133967951E+02 -0.13243248767E+02  0.41165508746E+02  0.45494647622E+02  0.10566000000E+00 0.  1.
        994    1    1    2    0    0 -0.15228260474E+02  0.12790629351E+02  0.56063957625E+01  0.17244237237E+03  0.17120000000E+03 0.  0.
        998    1    1    2    0    0  0.10942925225E+01  0.45261941613E+00  0.14532280918E+04  0.14532629800E+04  0.10000000000E+02 0.  1.
</event>
<event>
 5    1  0.1020718E-008  0.3823924E+03  0.7957747E-01  0.3440807E+00
         13   -1    0    0    0    0  0.00000000000E+00  0.00000000000E+00  0.14999999963E+04  0.15000000000E+04  0.10566000000E+00 0.  1.
        994   -1    0    0    0    0 -0.00000000000E+00 -0.00000000000E+00  0.11368683772E-12  0.17120000000E+03  0.17120000000E+03 0.  0.
         13    1    1    2    0    0 -0.36889231724E+02 -0.46980799926E+01  0.22178522221E+03  0.22488126495E+03  0.10566000000E+00 0.  1.
        994    1    1    2    0    0  0.28751159814E+02 -0.42377324343E+01  0.57366085368E+01  0.17374388117E+03  0.17120000000E+03 0.  0.
        998    1    1    2    0    0  0.81380719103E+01  0.89358124270E+01  0.12724781655E+04  0.12725748539E+04  0.10000000000E+02 0.  1.
</event>
<event>
 5    1  0.1020718E-008  0.3686323E+03  0.7957747E-01  0.3502200E+00
         13   -1    0    0    0    0  0.00000000000E+00  0.00000000000E+00  0.14999999963E+04  0.15000000000E+04  0.10566000000E+00 0. -1.
        994   -1    0    0    0    0 -0.00000000000E+00 -0.00000000000E+00  0.11368683772E-12  0.17120000000E+03  0.17120000000E+03 0.  0.
         13    1    1    2    0    0 -0.20279695786E+02 -0.19919390036E+01  0.16225247487E+02  0.26048103620E+02  0.10566000000E+00 0. -1.
        994    1    1    2    0    0  0.21183964488E+02  0.27109263520E+01  0.11571864000E+02  0.17291459600E+03  0.17120000000E+03 0.  0.
        998    1    1    2    0    0 -0.90426870223E+00 -0.71898734838E+00  0.14722028848E+04  0.14722373004E+04  0.10000000000E+02 0. -1.
</event>
<event>
 5    1  0.1020718E-008  0.3728725E+03  0.7957747E-01  0.3482793E+00
         13   -1    0    0    0    0  0.00000000000E+00  0.00000000000E+00  0.14999999963E+04  0.15000000000E+04  0.10566000000E+00 0. -1.
        994   -1    0    0    0    0 -0.00000000000E+00 -0.00000000000E+00  0.11368683772E-12  0.17120000000E+03  0.17120000000E+03 0.  0.
         13    1    1    2    0    0 -0.44916867055E+02  0.23426180346E+02  0.14888907282E+03  0.15727135162E+03  0.10566000000E+00 0. -1.
        994    1    1    2    0    0  0.39282977901E+02 -0.29221844574E+02  0.16027247567E+02  0.17878305629E+03  0.17120000000E+03 0.  0.
        998    1    1    2    0    0  0.56338891533E+01  0.57956642278E+01  0.13350836759E+04  0.13351455921E+04  0.10000000000E+02 0. -1.
</event>
<event>
 5    1  0.1020718E-008  0.3708815E+03  0.7957747E-01  0.3491849E+00
         13   -1    0    0    0    0  0.00000000000E+00  0.00000000000E+00  0.14999999963E+04  0.15000000000E+04  0.10566000000E+00 0. -1.
        994   -1    0    0    0    0 -0.00000000000E+00 -0.00000000000E+00  0.11368683772E-12  0.17120000000E+03  0.17120000000E+03 0.  0.
         13    1    1    2    0    0  0.59863206923E+02  0.83118481337E+01  0.21957310640E+03  0.22773899662E+03  0.10566000000E+00 0. -1.
        994    1    1    2    0    0 -0.21113882672E+02 -0.13953057532E+02  0.11020040483E+02  0.17341097182E+03  0.17120000000E+03 0.  0.
        998    1    1    2    0    0 -0.38749324251E+02  0.56412093980E+01  0.12694068494E+04  0.12700500316E+04  0.10000000000E+02 0. -1.
</event>
<event>
 5    1  0.1020718E-008  0.3758393E+03  0.7957747E-01  0.3469478E+00
         13   -1    0    0    0    0  0.00000000000E+00  0.00000000000E+00  0.14999999963E+04  0.15000000000E+04  0.10566000000E+00 0.  1.
        994   -1    0    0    0    0 -0.00000000000E+00 -0.00000000000E+00  0.11368683772E-12  0.17120000000E+03  0.17120000000E+03 0.  0.
         13    1    1    2    0    0 -0.12285309455E+02  0.17432358079E+02  0.33340533306E+02  0.39578002246E+02  0.10566000000E+00 0.  1.
        994    1    1    2    0    0  0.72595082033E+01 -0.19253215090E+02  0.76847797256E+01  0.17260325197E+03  0.17120000000E+03 0.  0.
        998    1    1    2    0    0  0.50258012522E+01  0.18208570115E+01  0.14589746832E+04  0.14590187458E+04  0.10000000000E+02 0.  1.
</event>
<event>
 5    1  0.1020718E-008  0.3731761E+03  0.7957747E-01  0.3481420E+00
         13   -1    0    0    0    0  0.00000000000E+00  0.00000000000E+00  0.14999999963E+04  0.15000000000E+04  0.10566000000E+00 0.  1.
        994   -1    0    0    0    0 -0.00000000000E+00 -0.00000000000E+00  0.11368683772E-12  0.17120000000E+03  0.17120000000E+03 0.  0.
         13    1    1    2    0    0 -0.85078848069E+01 -0.20271024854E+02  0.28221505761E+02  0.35773776764E+02  0.10566000000E+00 0.  1.
        994    1    1    2    0    0  0.97022239272E+01  0.17515562045E+02  0.89908136472E+01  0.17260128271E+03  0.17120000000E+03 0.  0.
        998    1    1    2    0    0 -0.11943391203E+01  0.27554628098E+01  0.14627876769E+04  0.14628249405E+04  0.10000000000E+02 0.  1.
</event>
<event>
 5    1  0.1020718E-008  0.3763560E+03  0.7957747E-01  0.3467180E+00
         13   -1    0    0    0    0  0.00000000000E+00  0.00000000000E+00  0.14999999963E+04  0.15000000000E+04  0.10566000000E+00 0.  1.
        994   -1    0    0    0    0 -0.00000000000E+00 -0.00000000000E+00  0.11368683772E-12  0.17120000000E+03  0.17120000000E+03 0.  0.
         13    1    1    2    0    0  0.84814899019E+01 -0.18963320010E+02  0.33595629784E+02  0.39499628877E+02  0.10566000000E+00 0.  1.
        994    1    1    2    0    0  0.40417065026E+02  0.33068938036E+02  0.15268122237E+02  0.17963754999E+03  0.17120000000E+03 0.  0.
        998    1    1    2    0    0 -0.48898554928E+02 -0.14105618026E+02  0.14511362443E+04  0.14520628211E+04  0.10000000000E+02 0.  1.
</event>
<event>
 5    1  0.1020718E-008  0.3787886E+03  0.7957747E-01  0.3456450E+00
         13   -1    0    0    0    0  0.00000000000E+00  0.00000000000E+00  0.14999999963E+04  0.15000000000E+04  0.10566000000E+00 0.  1.
        994   -1    0    0    0    0 -0.00000000000E+00 -0.00000000000E+00  0.11368683772E-12  0.17120000000E+03  0.17120000000E+03 0.  0.
         13    1    1    2    0    0  0.39602151757E+02  0.61077855846E+02  0.41061777178E+03  0.41702014408E+03  0.10566000000E+00 0.  1.
        994    1    1    2    0    0 -0.36658887226E+02 -0.61279201375E+02  0.22054996640E+02  0.18680170612E+03  0.17120000000E+03 0.  0.
        998    1    1    2    0    0 -0.29432645303E+01  0.20134552888E+00  0.10673272279E+04  0.10673781498E+04  0.10000000000E+02 0.  0.
</event>
<event>
 5    1  0.1020718E-008  0.3693065E+03  0.7957747E-01  0.3499084E+00
         13   -1    0    0    0    0  0.00000000000E+00  0.00000000000E+00  0.14999999963E+04  0.15000000000E+04  0.10566000000E+00 0. -1.
        994   -1    0    0    0    0 -0.00000000000E+00 -0.00000000000E+00  0.11368683772E-12  0.17120000000E+03  0.17120000000E+03 0.  0.
         13    1    1    2    0    0  0.90880918619E+01 -0.74431766154E+02  0.29759453860E+03  0.30689607654E+03  0.10566000000E+00 0. -1.
        994    1    1    2    0    0 -0.17519728243E+02  0.37086820148E+02  0.15485625883E+02  0.17672469470E+03  0.17120000000E+03 0.  0.
        998    1    1    2    0    0  0.84316363812E+01  0.37344946006E+02  0.11869198318E+04  0.11875792288E+04  0.10000000000E+02 0. -1.
</event>
<event>
 5    1  0.1020718E-008  0.3752073E+03  0.7957747E-01  0.3472296E+00
         13   -1    0    0    0    0  0.00000000000E+00  0.00000000000E+00  0.14999999963E+04  0.15000000000E+04  0.10566000000E+00 0.  1.
        994   -1    0    0    0    0 -0.00000000000E+00 -0.00000000000E+00  0.11368683772E-12  0.17120000000E+03  0.17120000000E+03 0.  0.
         13    1    1    2    0    0 -0.19953698909E+02  0.24008980016E+02  0.69495213628E+02  0.76185150146E+02  0.10566000000E+00 0.  1.
        994    1    1    2    0    0  0.16281788203E+02 -0.23428053776E+02  0.93421944860E+01  0.17381221743E+03  0.17120000000E+03 0.  0.
        998    1    1    2    0    0  0.36719107061E+01 -0.58092623991E+00  0.14211625882E+04  0.14212026324E+04  0.10000000000E+02 0.  1.
</event>
<event>
 5    1  0.1020718E-008  0.3777313E+03  0.7957747E-01  0.3461097E+00
         13   -1    0    0    0    0  0.00000000000E+00  0.00000000000E+00  0.14999999963E+04  0.15000000000E+04  0.10566000000E+00 0.  1.
        994   -1    0    0    0    0 -0.00000000000E+00 -0.00000000000E+00  0.11368683772E-12  0.17120000000E+03  0.17120000000E+03 0.  0.
         13    1    1    2    0    0 -0.60626690606E+02  0.36228600619E+02  0.33864891353E+03  0.34593526116E+03  0.10566000000E+00 0.  1.
        994    1    1    2    0    0  0.50186846388E+02 -0.74028983931E+02  0.32716899621E+02  0.19590519527E+03  0.17120000000E+03 0.  0.
        998    1    1    2    0    0  0.10439844218E+02  0.37800383312E+02  0.11286341831E+04  0.11293595436E+04  0.10000000000E+02 0.  1.
</event>
<event>
 5    1  0.1020718E-008  0.3817315E+03  0.7957747E-01  0.3443654E+00
         13   -1    0    0    0    0  0.00000000000E+00  0.00000000000E+00  0.14999999963E+04  0.15000000000E+04  0.10566000000E+00 0.  1.
        994   -1    0    0    0    0 -0.00000000000E+00 -0.00000000000E+00  0.11368683772E-12  0.17120000000E+03  0.17120000000E+03 0.  0.
         13    1    1    2    0    0 -0.50187831741E+02  0.57716034284E+01  0.30269479659E+03  0.30688154215E+03  0.10566000000E+00 0.  1.
        994    1    1    2    0    0  0.53640147485E+02 -0.73522591943E+01  0.13067012821E+02  0.18003196372E+03  0.17120000000E+03 0.  0.
        998    1    1    2    0    0 -0.34523157438E+01  0.15806557658E+01  0.11842381869E+04  0.11842864941E+04  0.10000000000E+02 0.  1.
</event>
<event>
 5    1  0.1020718E-008  0.3847258E+03  0.7957747E-01  0.3430836E+00
         13   -1    0    0    0    0  0.00000000000E+00  0.00000000000E+00  0.14999999963E+04  0.15000000000E+04  0.10566000000E+00 0. -1.
        994   -1    0    0    0    0 -0.00000000000E+00 -0.00000000000E+00  0.11368683772E-12  0.17120000000E+03  0.17120000000E+03 0.  0.
         13    1    1    2    0    0  0.83788733767E+01 -0.18000971879E+02  0.86666574272E+02  0.88912017004E+02  0.10566000000E+00 0. -1.
        994    1    1    2    0    0  0.97350849680E+01  0.61430045986E+02  0.14604946788E+02  0.18273250094E+03  0.17120000000E+03 0.  0.
        998    1    1    2    0    0 -0.18113958345E+02 -0.43429074108E+02  0.13987284752E+04  0.13995554821E+04  0.10000000000E+02 0. -1.
</event>
<event>
 5    1  0.1020718E-008  0.3855312E+03  0.7957747E-01  0.3427423E+00
         13   -1    0    0    0    0  0.00000000000E+00  0.00000000000E+00  0.14999999963E+04  0.15000000000E+04  0.10566000000E+00 0.  1.
        994   -1    0    0    0    0 -0.00000000000E+00 -0.00000000000E+00  0.11368683772E-12  0.17120000000E+03  0.17120000000E+03 0.  0.
         13    1    1    2    0    0  0.36513446729E+01 -0.10164300753E+02  0.42517404624E+02  0.43867826339E+02  0.10566000000E+00 0.  1.
        994    1    1    2    0    0 -0.26847889091E+01  0.82249667030E+01  0.16124457616E+01  0.17142607197E+03  0.17120000000E+03 0.  0.
        998    1    1    2    0    0 -0.96655576384E+00  0.19393340499E+01  0.14558701459E+04  0.14559061017E+04  0.10000000000E+02 0.  1.
</event>
<event>
 5    1  0.1020718E-008  0.3759679E+03  0.7957747E-01  0.3468905E+00
         13   -1    0    0    0    0  0.00000000000E+00  0.00000000000E+00  0.14999999963E+04  0.15000000000E+04  0.10566000000E+00 0. -1.
        994   -1    0    0    0    0 -0.00000000000E+00 -0.00000000000E+00  0.11368683772E-12  0.17120000000E+03  0.17120000000E+03 0.  0.
         13    1    1    2    0    0 -0.42707995920E+02 -0.22315576539E+01  0.13573901191E+03  0.14231670065E+03  0.10566000000E+00 0. -1.
        994    1    1    2    0    0  0.39763437401E+02 -0.11795087878E+01  0.11563204238E+02  0.17614105111E+03  0.17120000000E+03 0.  0.
        998    1    1    2    0    0  0.29445585193E+01  0.34110664417E+01  0.13526977801E+04  0.13527422482E+04  0.10000000000E+02 0. -1.
</event>
<event>
 5    1  0.1020718E-008  0.3853437E+03  0.7957747E-01  0.3428216E+00
         13   -1    0    0    0    0  0.00000000000E+00  0.00000000000E+00  0.14999999963E+04  0.15000000000E+04  0.10566000000E+00 0. -1.
        994   -1    0    0    0    0 -0.00000000000E+00 -0.00000000000E+00  0.11368683772E-12  0.17120000000E+03  0.17120000000E+03 0.  0.
         13    1    1    2    0    0  0.14029418402E+02  0.21202548183E+01  0.71083580631E+02  0.72485906634E+02  0.10566000000E+00 0. -1.
        994    1    1    2    0    0 -0.61738068665E+01  0.36733600596E+01  0.16291356515E+01  0.17135840670E+03  0.17120000000E+03 0.  0.
        998    1    1    2    0    0 -0.78556115356E+01 -0.57936148779E+01  0.14272872800E+04  0.14273556867E+04  0.10000000000E+02 0.  0.
</event>
<event>
 5    1  0.1020718E-008  0.3831875E+03  0.7957747E-01  0.3437396E+00
         13   -1    0    0    0    0  0.00000000000E+00  0.00000000000E+00  0.14999999963E+04  0.15000000000E+04  0.10566000000E+00 0.  1.
        994   -1    0    0    0    0 -0.00000000000E+00 -0.00000000000E+00  0.11368683772E-12  0.17120000000E+03  0.17120000000E+03 0.  0.
         13    1    1    2    0    0  0.12302653937E+02 -0.55377164889E+01  0.37416453074E+02  0.39774661815E+02  0.10566000000E+00 0.  1.
        994    1    1    2    0    0  0.76516600688E+01  0.14591713354E+01  0.27334339741E+01  0.17139891699E+03  0.17120000000E+03 0.  0.
        998    1    1    2    0    0 -0.19954314006E+02  0.40785451535E+01  0.14598501092E+04  0.14600264212E+04  0.10000000000E+02 0.  1.
</event>
<event>
 5    1  0.1020718E-008  0.3819977E+03  0.7957747E-01  0.3442506E+00
         13   -1    0    0    0    0  0.00000000000E+00  0.00000000000E+00  0.14999999963E+04  0.15000000000E+04  0.10566000000E+00 0.  1.
        994   -1    0    0    0    0 -0.00000000000E+00 -0.00000000000E+00  0.11368683772E-12  0.17120000000E+03  0.17120000000E+03 0.  0.
         13    1    1    2    0    0  0.13221571082E+02 -0.28828983114E+02  0.14161108409E+03  0.14511936642E+03  0.10566000000E+00 0.  1.
        994    1    1    2    0    0 -0.12134446271E+02  0.34591433651E+02  0.76037616077E+01  0.17524573963E+03  0.17120000000E+03 0.  0.
        998    1    1    2    0    0 -0.10871248116E+01 -0.57624505372E+01  0.13507851506E+04  0.13508348939E+04  0.10000000000E+02 0.  1.
</event>
<event>
 5    1  0.1020718E-008  0.3850842E+03  0.7957747E-01  0.3429315E+00
         13   -1    0    0    0    0  0.00000000000E+00  0.00000000000E+00  0.14999999963E+04  0.15000000000E+04  0.10566000000E+00 0. -1.
        994   -1    0    0    0    0 -0.00000000000E+00 -0.00000000000E+00  0.11368683772E-12  0.17120000000E+03  0.17120000000E+03 0.  0.
         13    1    1    2    0    0  0.85632887431E+01  0.12770856279E+02  0.72497049179E+02  0.74109769854E+02  0.10566000000E+00 0. -1.
        994    1    1    2    0    0 -0.21932048124E+02 -0.27609106168E+01  0.31965203032E+01  0.17265078947E+03  0.17120000000E+03 0.  0.
        998    1    1    2    0    0  0.13368759381E+02 -0.10009945662E+02  0.14243064268E+04  0.14244394407E+04  0.10000000000E+02 0. -1.
</event>
<event>
 5    1  0.1020718E-008  0.3808670E+03  0.7957747E-01  0.3447392E+00
         13   -1    0    0    0    0  0.00000000000E+00  0.00000000000E+00  0.14999999963E+04  0.15000000000E+04  0.10566000000E+00 0. -1.
        994   -1    0    0    0    0 -0.00000000000E+00 -0.00000000000E+00  0.11368683772E-12  0.17120000000E+03  0.17120000000E+03 0.  0.
         13    1    1    2    0    0  0.36415162148E+02 -0.30719942325E+01  0.15687992798E+03  0.16108017926E+03  0.10566000000E+00 0. -1.
        994    1    1    2    0    0 -0.41254962331E+02  0.48691419325E+01  0.94699525897E+01  0.17642222213E+03  0.17120000000E+03 0.  0.
        998    1    1    2    0    0  0.48398001837E+01 -0.17971477000E+01  0.13336501157E+04  0.13336975986E+04  0.10000000000E+02 0. -1.
</event>
<event>
 5    1  0.1020718E-008  0.3859770E+03  0.7957747E-01  0.3425539E+00
         13   -1    0    0    0    0  0.00000000000E+00  0.00000000000E+00  0.14999999963E+04  0.15000000000E+04  0.10566000000E+00 0. -1.
        994   -1    0    0    0    0 -0.00000000000E+00 -0.00000000000E+00  0.11368683772E-12  0.17120000000E+03  0.17120000000E+03 0.  0.
         13    1    1    2    0    0  0.10005851724E+02 -0.37694512226E+01  0.51858986485E+02  0.52949895887E+02  0.10566000000E+00 0. -1.
        994    1    1    2    0    0 -0.50184769990E+01 -0.43495824210E+01  0.12904577051E+01  0.17133361976E+03  0.17120000000E+03 0.  0.
        998    1    1    2    0    0 -0.49873747253E+01  0.81190336436E+01  0.14468505521E+04  0.14469164844E+04  0.10000000000E+02 0. -1.
</event>
<event>
 5    1  0.1020718E-008  0.3741568E+03  0.7957747E-01  0.3477003E+00
         13   -1    0    0    0    0  0.00000000000E+00  0.00000000000E+00  0.14999999963E+04  0.15000000000E+04  0.10566000000E+00 0.  1.
        994   -1    0    0    0    0 -0.00000000000E+00 -0.00000000000E+00  0.11368683772E-12  0.17120000000E+03  0.17120000000E+03 0.  0.
         13    1    1    2    0    0 -0.39630653542E+02  0.24336110152E+02  0.14106878752E+03  0.14853702883E+03  0.10566000000E+00 0.  1.
        994    1    1    2    0    0  0.41559556404E+02 -0.87428810425E+01  0.13285742296E+02  0.17688862498E+03  0.17120000000E+03 0.  0.
        998    1    1    2    0    0 -0.19289028614E+01 -0.15593229109E+02  0.13456454665E+04  0.13457743462E+04  0.10000000000E+02 0.  1.
</event>
<event>
 5    1  0.1020718E-008  0.3181383E+03  0.7957747E-01  0.3774474E+00
         13   -1    0    0    0    0  0.00000000000E+00  0.00000000000E+00  0.14999999963E+04  0.15000000000E+04  0.10566000000E+00 0. -1.
        994   -1    0    0    0    0 -0.00000000000E+00 -0.00000000000E+00  0.11368683772E-12  0.17120000000E+03  0.17120000000E+03 0.  0.
         13    1    1    2    0    0  0.15015729491E+03 -0.81932548551E+02  0.87944674802E+03  0.89592787070E+03  0.10566000000E+00 0. -1.
        994    1    1    2    0    0 -0.97542145388E+02  0.65688857806E+02  0.66045345664E+02  0.21794706663E+03  0.17120000000E+03 0.  0.
        998    1    1    2    0    0 -0.52615149521E+02  0.16243690744E+02  0.55450790259E+03  0.55732506267E+03  0.10000000000E+02 0. -1.
</event>
<event>
 5    1  0.1020718E-008  0.3731512E+03  0.7957747E-01  0.3481533E+00
         13   -1    0    0    0    0  0.00000000000E+00  0.00000000000E+00  0.14999999963E+04  0.15000000000E+04  0.10566000000E+00 0.  1.
        994   -1    0    0    0    0 -0.00000000000E+00 -0.00000000000E+00  0.11368683772E-12  0.17120000000E+03  0.17120000000E+03 0.  0.
         13    1    1    2    0    0 -0.14528281351E+02  0.26254977807E+02  0.29705165633E+02  0.42223250088E+02  0.10566000000E+00 0.  1.
        994    1    1    2    0    0  0.14622458363E+02 -0.30110962791E+02  0.16586084518E+02  0.17522849246E+03  0.17120000000E+03 0.  0.
        998    1    1    2    0    0 -0.94177012637E-01  0.38559849842E+01  0.14537087461E+04  0.14537482575E+04  0.10000000000E+02 0.  1.
</event>
<event>
 5    1  0.1020718E-008  0.3858669E+03  0.7957747E-01  0.3426004E+00
         13   -1    0    0    0    0  0.00000000000E+00  0.00000000000E+00  0.14999999963E+04  0.15000000000E+04  0.10566000000E+00 0.  1.
        994   -1    0    0    0    0 -0.00000000000E+00 -0.00000000000E+00  0.11368683772E-12  0.17120000000E+03  0.17120000000E+03 0.  0.
         13    1    1    2    0    0  0.11376457212E+01  0.12458297717E+02  0.67836019806E+02  0.68979998311E+02  0.10566000000E+00 0.  1.
        994    1    1    2    0    0  0.75777641219E+01 -0.51236595879E+01  0.14748131104E+01  0.17145054526E+03  0.17120000000E+03 0.  0.
        998    1    1    2    0    0 -0.87154098431E+01 -0.73346381291E+01  0.14306891634E+04  0.14307694564E+04  0.10000000000E+02 0.  1.
</event>
<event>
 5    1  0.1020718E-008  0.3799048E+03  0.7957747E-01  0.3451573E+00
         13   -1    0    0    0    0  0.00000000000E+00  0.00000000000E+00  0.14999999963E+04  0.15000000000E+04  0.10566000000E+00 0.  1.
        994   -1    0    0    0    0 -0.00000000000E+00 -0.00000000000E+00  0.11368683772E-12  0.17120000000E+03  0.17120000000E+03 0.  0.
         13    1    1    2    0    0 -0.95114311634E+01  0.99778801393E+01  0.20567536920E+02  0.24760051572E+02  0.10566000000E+00 0.  1.
        994    1    1    2    0    0  0.12140681743E+02 -0.12017247319E+02  0.51576080125E+01  0.17212742753E+03  0.17120000000E+03 0.  0.
        998    1    1    2    0    0 -0.26292505797E+01  0.20393671796E+01  0.14742748513E+04  0.14743125209E+04  0.10000000000E+02 0.  1.
</event>
<event>
 5    1  0.1020718E-008  0.3804060E+03  0.7957747E-01  0.3449393E+00
         13   -1    0    0    0    0  0.00000000000E+00  0.00000000000E+00  0.14999999963E+04  0.15000000000E+04  0.10566000000E+00 0. -1.
        994   -1    0    0    0    0 -0.00000000000E+00 -0.00000000000E+00  0.11368683772E-12  0.17120000000E+03  0.17120000000E+03 0.  0.
         13    1    1    2    0    0 -0.65836858603E+01 -0.18806078142E+02  0.50946222846E+02  0.54704134039E+02  0.10566000000E+00 0. -1.
        994    1    1    2    0    0 -0.12181239967E+01  0.40118727942E+01  0.39870311716E+01  0.17129773894E+03  0.17120000000E+03 0.  0.
        998    1    1    2    0    0  0.78018098570E+01  0.14794205348E+02  0.14450667423E+04  0.14451981270E+04  0.10000000000E+02 0. -1.
</event>
<event>
 5    1  0.1020718E-008  0.3777774E+03  0.7957747E-01  0.3460894E+00
         13   -1    0    0    0    0  0.00000000000E+00  0.00000000000E+00  0.14999999963E+04  0.15000000000E+04  0.10566000000E+00 0. -1.
        994   -1    0    0    0    0 -0.00000000000E+00 -0.00000000000E+00  0.11368683772E-12  0.17120000000E+03  0.17120000000E+03 0.  0.
         13    1    1    2    0    0 -0.37699285027E+02  0.77671881619E+00  0.15828704362E+03  0.16271643656E+03  0.10566000000E+00 0. -1.
        994    1    1    2    0    0 -0.62321078694E+01  0.42673057729E+01  0.54514806570E+01  0.17145322309E+03  0.17120000000E+03 0.  0.
        998    1    1    2    0    0  0.43931392897E+02 -0.50440245891E+01  0.13362614720E+04  0.13370303404E+04  0.10000000000E+02 0. -1.
</event>
<event>
 5    1  0.1092438E-008  0.3861184E+03  0.7957747E-01  0.3424943E+00
         13   -1    0    0    0    0  0.00000000000E+00  0.00000000000E+00  0.14999999963E+04  0.15000000000E+04  0.10566000000E+00 0.  1.
        994   -1    0    0    0    0 -0.00000000000E+00 -0.00000000000E+00  0.11368683772E-12  0.17120000000E+03  0.17120000000E+03 0.  0.
         13    1    1    2    0    0 -0.97734391780E+01  0.70430874533E+01  0.67938941619E+02  0.68998812646E+02  0.10566000000E+00 0.  1.
        994    1    1    2    0    0  0.86784091856E+01 -0.30323777265E+01  0.13528316436E+01  0.17145197652E+03  0.17120000000E+03 0.  0.
        998    1    1    2    0    0  0.10950299924E+01 -0.40107097268E+01  0.14307082230E+04  0.14307492108E+04  0.10000000000E+02 0.  1.
</event>
<event>
 5    1  0.1020718E-008  0.3830396E+03  0.7957747E-01  0.3438029E+00
         13   -1    0    0    0    0  0.00000000000E+00  0.00000000000E+00  0.14999999963E+04  0.15000000000E+04  0.10566000000E+00 0. -1.
        994   -1    0    0    0    0 -0.00000000000E+00 -0.00000000000E+00  0.11368683772E-12  0.17120000000E+03  0.17120000000E+03 0.  0.
         13    1    1    2    0    0 -0.45487178229E+01 -0.21069689295E+02  0.82195973746E+02  0.84975360575E+02  0.10566000000E+00 0. -1.
        994    1    1    2    0    0  0.94037512516E+01  0.24969508425E+02  0.49663498377E+01  0.17333785368E+03  0.17120000000E+03 0.  0.
        998    1    1    2    0    0 -0.48550334287E+01 -0.38998191302E+01  0.14128376727E+04  0.14128867857E+04  0.10000000000E+02 0. -1.
</event>
<event>
 5    1  0.1020718E-008  0.3693509E+03  0.7957747E-01  0.3498879E+00
         13   -1    0    0    0    0  0.00000000000E+00  0.00000000000E+00  0.14999999963E+04  0.15000000000E+04  0.10566000000E+00 0. -1.
        994   -1    0    0    0    0 -0.00000000000E+00 -0.00000000000E+00  0.11368683772E-12  0.17120000000E+03  0.17120000000E+03 0.  0.
         13    1    1    2    0    0  0.52283016095E+01 -0.44073098791E+02  0.93231603477E+02  0.10325655536E+03  0.10566000000E+00 0. -1.
        994    1    1    2    0    0  0.25771742705E+02  0.18868958951E+02  0.14162906891E+02  0.17472907104E+03  0.17120000000E+03 0.  0.
        998    1    1    2    0    0 -0.31000044315E+02  0.25204139840E+02  0.13926054859E+04  0.13932143736E+04  0.10000000000E+02 0. -1.
</event>
<event>
 5    1  0.1020718E-008  0.3839989E+03  0.7957747E-01  0.3433929E+00
         13   -1    0    0    0    0  0.00000000000E+00  0.00000000000E+00  0.14999999963E+04  0.15000000000E+04  0.10566000000E+00 0.  1.
        994   -1    0    0    0    0 -0.00000000000E+00 -0.00000000000E+00  0.11368683772E-12  0.17120000000E+03  0.17120000000E+03 0.  0.
         13    1    1    2    0    0  0.20488733009E+01  0.11069021501E+02  0.29831078535E+02  0.31884565693E+02  0.10566000000E+00 0.  1.
        994    1    1    2    0    0  0.12773726792E+02 -0.45478446144E+01  0.27347849601E+01  0.17175788202E+03  0.17120000000E+03 0.  0.
        998    1    1    2    0    0 -0.14822600093E+02 -0.65211768870E+01  0.14674341328E+04  0.14675575523E+04  0.10000000000E+02 0.  1.
</event>
<event>
 5    1  0.1020718E-008  0.3844193E+03  0.7957747E-01  0.3432139E+00
         13   -1    0    0    0    0  0.00000000000E+00  0.00000000000E+00  0.14999999963E+04  0.15000000000E+04  0.10566000000E+00 0. -1.
        994   -1    0    0    0    0 -0.00000000000E+00 -0.00000000000E+00  0.11368683772E-12  0.17120000000E+03  0.17120000000E+03 0.  0.
         13    1    1    2    0    0  0.10244205308E+02  0.20804116451E+02  0.13220810225E+03  0.13422648199E+03  0.10566000000E+00 0. -1.
        994    1    1    2    0    0 -0.16628415835E+02 -0.15339746892E+02  0.36068818693E+01  0.17272597270E+03  0.17120000000E+03 0.  0.
        998    1    1    2    0    0  0.63842105272E+01 -0.54643695591E+01  0.13641850122E+04  0.13642475453E+04  0.10000000000E+02 0. -1.
</event>
<event>
 5    1  0.1020718E-008  0.3818299E+03  0.7957747E-01  0.3443229E+00
         13   -1    0    0    0    0  0.00000000000E+00  0.00000000000E+00  0.14999999963E+04  0.15000000000E+04  0.10566000000E+00 0. -1.
        994   -1    0    0    0    0 -0.00000000000E+00 -0.00000000000E+00  0.11368683772E-12  0.17120000000E+03  0.17120000000E+03 0.  0.
         13    1    1    2    0    0  0.29427641691E+02  0.21538038166E+02  0.18196494566E+03  0.18558320452E+03  0.10566000000E+00 0. -1.
        994    1    1    2    0    0 -0.31660608564E+02 -0.19883445209E+02  0.78706913487E+01  0.17541132606E+03  0.17120000000E+03 0.  0.
        998    1    1    2    0    0  0.22329668726E+01 -0.16545929575E+01  0.13101643593E+04  0.13102054694E+04  0.10000000000E+02 0. -1.
</event>
<event>
 5    1  0.1020718E-008  0.3827608E+03  0.7957747E-01  0.3439225E+00
         13   -1    0    0    0    0  0.00000000000E+00  0.00000000000E+00  0.14999999963E+04  0.15000000000E+04  0.10566000000E+00 0. -1.
        994   -1    0    0    0    0 -0.00000000000E+00 -0.00000000000E+00  0.11368683772E-12  0.17120000000E+03  0.17120000000E+03 0.  0.
         13    1    1    2    0    0 -0.15935621172E+02  0.25314521422E+02  0.16582516014E+02  0.34201754610E+02  0.10566000000E+00 0. -1.
        994    1    1    2    0    0  0.37634074630E+02 -0.31273661669E+02  0.26669126852E+02  0.18004179463E+03  0.17120000000E+03 0.  0.
        998    1    1    2    0    0 -0.21698453457E+02  0.59591402461E+01  0.14567483534E+04  0.14569564508E+04  0.10000000000E+02 0. -1.
</event>
<event>
 5    1  0.1020718E-008  0.3851129E+03  0.7957747E-01  0.3429193E+00
         13   -1    0    0    0    0  0.00000000000E+00  0.00000000000E+00  0.14999999963E+04  0.15000000000E+04  0.10566000000E+00 0. -1.
        994   -1    0    0    0    0 -0.00000000000E+00 -0.00000000000E+00  0.11368683772E-12  0.17120000000E+03  0.17120000000E+03 0.  0.
         13    1    1    2    0    0  0.88278622028E+01  0.10248477266E+02  0.56221008634E+02  0.57825387273E+02  0.10566000000E+00 0. -1.
        994    1    1    2    0    0 -0.10828969662E+02 -0.10060817771E+02  0.22926747533E+01  0.17185221266E+03  0.17120000000E+03 0.  0.
        998    1    1    2    0    0  0.20011074594E+01 -0.18765949570E+00  0.14414863129E+04  0.14415224001E+04  0.10000000000E+02 0. -1.
</event>
<event>
 5    1  0.1020718E-008  0.3837883E+03  0.7957747E-01  0.3434827E+00
         13   -1    0    0    0    0  0.00000000000E+00  0.00000000000E+00  0.14999999963E+04  0.15000000000E+04  0.10566000000E+00 0.  1.
        994   -1    0    0    0    0 -0.00000000000E+00 -0.00000000000E+00  0.11368683772E-12  0.17120000000E+03  0.17120000000E+03 0.  0.
         13    1    1    2    0    0  0.15621254289E+02  0.65046099192E+01  0.62739778360E+02  0.64981724266E+02  0.10566000000E+00 0.  1.
        994    1    1    2    0    0 -0.14550416098E+02 -0.43518171729E+00  0.29328352233E+01  0.17184279302E+03  0.17120000000E+03 0.  0.
        998    1    1    2    0    0 -0.10708381908E+01 -0.60694282019E+01  0.14343273827E+04  0.14343754827E+04  0.10000000000E+02 0.  1.
</event>
<event>
 5    1  0.1248695E-008  0.3823882E+03  0.7957747E-01  0.3440825E+00
         13   -1    0    0    0    0  0.00000000000E+00  0.00000000000E+00  0.14999999963E+04  0.15000000000E+04  0.10566000000E+00 0. -1.
        994   -1    0    0    0    0 -0.00000000000E+00 -0.00000000000E+00  0.11368683772E-12  0.17120000000E+03  0.17120000000E+03 0.  0.
         13    1    1    2    0    0  0.62211765981E+01  0.10024261543E+02  0.22440649171E+02  0.25353160691E+02  0.10566000000E+00 0. -1.
        994    1    1    2    0    0 -0.67650511313E+01 -0.84822266009E+01  0.33229580834E+01  0.17157562803E+03  0.17120000000E+03 0.  0.
        998    1    1    2    0    0  0.54387453321E+00 -0.15420349425E+01  0.14742363890E+04  0.14742712113E+04  0.10000000000E+02 0. -1.
</event>
<event>
 5    1  0.1020718E-008  0.3760369E+03  0.7957747E-01  0.3468598E+00
         13   -1    0    0    0    0  0.00000000000E+00  0.00000000000E+00  0.14999999963E+04  0.15000000000E+04  0.10566000000E+00 0.  1.
        994   -1    0    0    0    0 -0.00000000000E+00 -0.00000000000E+00  0.11368683772E-12  0.17120000000E+03  0.17120000000E+03 0.  0.
         13    1    1    2    0    0  0.60933923006E+02  0.25983023316E+02  0.13958001971E+03  0.15450130595E+03  0.10566000000E+00 0.  1.
        994    1    1    2    0    0 -0.55453568713E+02 -0.26142449120E+02  0.27716128063E+02  0.18394605101E+03  0.17120000000E+03 0.  0.
        998    1    1    2    0    0 -0.54803542934E+01  0.15942580451E+00  0.13327038485E+04  0.13327526430E+04  0.10000000000E+02 0.  1.
</event>
<event>
 5    1  0.1020718E-008  0.3816605E+03  0.7957747E-01  0.3443960E+00
         13   -1    0    0    0    0  0.00000000000E+00  0.00000000000E+00  0.14999999963E+04  0.15000000000E+04  0.10566000000E+00 0.  1.
        994   -1    0    0    0    0 -0.00000000000E+00 -0.00000000000E+00  0.11368683772E-12  0.17120000000E+03  0.17120000000E+03 0.  0.
         13    1    1    2    0    0  0.16022480118E+02  0.93218858364E+01  0.55908983135E+02  0.58901977759E+02  0.10566000000E+00 0.  1.
        994    1    1    2    0    0  0.11472651902E+02 -0.15291094859E+01  0.37427873356E+01  0.17163160657E+03  0.17120000000E+03 0.  0.
        998    1    1    2    0    0 -0.27495132020E+02 -0.77927763505E+01  0.14403482258E+04  0.14406664157E+04  0.10000000000E+02 0.  1.
</event>
<event>
 5    1  0.1020718E-008  0.3809400E+03  0.7957747E-01  0.3447076E+00
         13   -1    0    0    0    0  0.00000000000E+00  0.00000000000E+00  0.14999999963E+04  0.15000000000E+04  0.10566000000E+00 0.  1.
        994   -1    0    0    0    0 -0.00000000000E+00 -0.00000000000E+00  0.11368683772E-12  0.17120000000E+03  0.17120000000E+03 0.  0.
         13    1    1    2    0    0  0.11246837985E+02  0.28489889836E+02  0.13502321838E+03  0.13845376793E+03  0.10566000000E+00 0.  1.
        994    1    1    2    0    0  0.86670781526E+01 -0.12877728951E+02  0.44627869221E+01  0.17196020067E+03  0.17120000000E+03 0.  0.
        998    1    1    2    0    0 -0.19913916137E+02 -0.15612160885E+02  0.13605139910E+04  0.13607860314E+04  0.10000000000E+02 0.  1.
</event>
<event>
 5    1  0.1020718E-008  0.3809294E+03  0.7957747E-01  0.3447122E+00
         13   -1    0    0    0    0  0.00000000000E+00  0.00000000000E+00  0.14999999963E+04  0.15000000000E+04  0.10566000000E+00 0. -1.
        994   -1    0    0    0    0 -0.00000000000E+00 -0.00000000000E+00  0.11368683772E-12  0.17120000000E+03  0.17120000000E+03 0.  0.
         13    1    1    2    0    0 -0.57462390385E+01 -0.90423896426E+01  0.13752329338E+02  0.17433353085E+02  0.10566000000E+00 0. -1.
        994    1    1    2    0    0  0.36488132040E+01  0.18414322310E+02  0.48400295422E+01  0.17229412930E+03  0.17120000000E+03 0.  0.
        998    1    1    2    0    0  0.20974258346E+01 -0.93719326677E+01  0.14814076374E+04  0.14814725176E+04  0.10000000000E+02 0. -1.
</event>
<event>
 5    1  0.1020718E-008  0.3849757E+03  0.7957747E-01  0.3429775E+00
         13   -1    0    0    0    0  0.00000000000E+00  0.00000000000E+00  0.14999999963E+04  0.15000000000E+04  0.10566000000E+00 0.  1.
        994   -1    0    0    0    0 -0.00000000000E+00 -0.00000000000E+00  0.11368683772E-12  0.17120000000E+03  0.17120000000E+03 0.  0.
         13    1    1    2    0    0 -0.29209092035E+01  0.13726543244E+02  0.55041166364E+02  0.56802208221E+02  0.10566000000E+00 0.  1.
        994    1    1    2    0    0 -0.34368777889E+02 -0.33719843408E+02  0.93041578674E+01  0.17808494627E+03  0.17120000000E+03 0.  0.
        998    1    1    2    0    0  0.37289687092E+02  0.19993300164E+02  0.14356546720E+04  0.14363128455E+04  0.10000000000E+02 0.  1.
</event>
<event>
 5    1  0.1020718E-008  0.3841040E+03  0.7957747E-01  0.3433481E+00
         13   -1    0    0    0    0  0.00000000000E+00  0.00000000000E+00  0.14999999963E+04  0.15000000000E+04  0.10566000000E+00 0. -1.
        994   -1    0    0    0    0 -0.00000000000E+00 -0.00000000000E+00  0.11368683772E-12  0.17120000000E+03  0.17120000000E+03 0.  0.
         13    1    1    2    0    0 -0.34851974439E+01  0.18858470714E+02  0.83981361955E+02  0.86143304085E+02  0.10566000000E+00 0. -1.
        994    1    1    2    0    0  0.61445821219E+01 -0.19153588699E+02  0.34112727207E+01  0.17241140517E+03  0.17120000000E+03 0.  0.
        998    1    1    2    0    0 -0.26593846780E+01  0.29511798557E+00  0.14126073616E+04  0.14126452907E+04  0.10000000000E+02 0. -1.
</event>
<event>
 5    1  0.1020718E-008  0.3848617E+03  0.7957747E-01  0.3430259E+00
         13   -1    0    0    0    0  0.00000000000E+00  0.00000000000E+00  0.14999999963E+04  0.15000000000E+04  0.10566000000E+00 0.  1.
        994   -1    0    0    0    0 -0.00000000000E+00 -0.00000000000E+00  0.11368683772E-12  0.17120000000E+03  0.17120000000E+03 0.  0.
         13    1    1    2    0    0  0.14303102031E+02  0.65975250827E+01  0.74815694411E+02  0.76455904672E+02  0.10566000000E+00 0.  1.
        994    1    1    2    0    0 -0.88471768984E+01  0.33491047105E+01  0.19932977838E+01  0.17147274500E+03  0.17120000000E+03 0.  0.
        998    1    1    2    0    0 -0.54559251324E+01 -0.99466297932E+01  0.14231910041E+04  0.14232713503E+04  0.10000000000E+02 0.  1.
</event>
<event>
 5    1  0.1020718E-008  0.3812972E+03  0.7957747E-01  0.3445530E+00
         13   -1    0    0    0    0  0.00000000000E+00  0.00000000000E+00  0.14999999963E+04  0.15000000000E+04  0.10566000000E+00 0. -1.
        994   -1    0    0    0    0 -0.00000000000E+00 -0.00000000000E+00  0.11368683772E-12  0.17120000000E+03  0.17120000000E+03 0.  0.
         13    1    1    2    0    0  0.42589693275E+01  0.14850021125E+02  0.32174664957E+02  0.35691486047E+02  0.10566000000E+00 0. -1.
        994    1    1    2    0    0 -0.23000428401E+00 -0.18487997202E+02  0.46185091052E+01  0.17225745142E+03  0.17120000000E+03 0.  0.
        998    1    1    2    0    0 -0.40289650435E+01  0.36379760770E+01  0.14632068222E+04  0.14632510625E+04  0.10000000000E+02 0. -1.
</event>
<event>
 5    1  0.1020718E-008  0.3859110E+03  0.7957747E-01  0.3425818E+00
         13   -1    0    0    0    0  0.00000000000E+00  0.00000000000E+00  0.14999999963E+04  0.15000000000E+04  0.10566000000E+00 0. -1.
        994   -1    0    0    0    0 -0.00000000000E+00 -0.00000000000E+00  0.11368683772E-12  0.17120000000E+03  0.17120000000E+03 0.  0.
         13    1    1    2    0    0 -0.98852315778E+01  0.36499192156E+01  0.46534218657E+02  0.47712518102E+02  0.10566000000E+00 0. -1.
        994    1    1    2    0    0  0.68026588274E+01 -0.12695186153E+02  0.18590353104E+01  0.17181484200E+03  0.17120000000E+03 0.  0.
        998    1    1    2    0    0  0.30825727504E+01  0.90452669378E+01  0.14516067423E+04  0.14516726399E+04  0.10000000000E+02 0. -1.
</event>
<event>
 5    1  0.1020718E-008  0.3853767E+03  0.7957747E-01  0.3428076E+00
         13   -1    0    0    0    0  0.00000000000E+00  0.00000000000E+00  0.14999999963E+04  0.15000000000E+04  0.10566000000E+00 0. -1.
        994   -1    0    0    0    0 -0.00000000000E+00 -0.00000000000E+00  0.11368683772E-12  0.17120000000E+03  0.17120000000E+03 0.  0.
         13    1    1    2    0    0  0.44324639774E+02 -0.21828314604E+03  0.12141060640E+04  0.12343685638E+04  0.10566000000E+00 0. -1.
        994    1    1    2    0    0 -0.51075017533E+02  0.22044320537E+03  0.19307638535E+03  0.34320809254E+03  0.17120000000E+03 0.  0.
        998    1    1    2    0    0  0.67503777597E+01 -0.21600593288E+01  0.92817546905E+02  0.93623343615E+02  0.10000000000E+02 0.  1.
</event>
<event>
 5    1  0.1020718E-008  0.3785796E+03  0.7957747E-01  0.3457367E+00
         13   -1    0    0    0    0  0.00000000000E+00  0.00000000000E+00  0.14999999963E+04  0.15000000000E+04  0.10566000000E+00 0.  1.
        994   -1    0    0    0    0 -0.00000000000E+00 -0.00000000000E+00  0.11368683772E-12  0.17120000000E+03  0.17120000000E+03 0.  0.
         13    1    1    2    0    0 -0.10149068255E+03  0.36537167175E+02  0.46929224612E+03  0.48152938297E+03  0.10566000000E+00 0.  1.
        994    1    1    2    0    0  0.38233232791E+02  0.12231972814E+02  0.21380319629E+02  0.17713824916E+03  0.17120000000E+03 0.  0.
        998    1    1    2    0    0  0.63257449757E+02 -0.48769139988E+02  0.10093274305E+04  0.10125323679E+04  0.10000000000E+02 0.  1.
</event>
<event>
 5    1  0.1020718E-008  0.3769748E+03  0.7957747E-01  0.3464437E+00
         13   -1    0    0    0    0  0.00000000000E+00  0.00000000000E+00  0.14999999963E+04  0.15000000000E+04  0.10566000000E+00 0.  1.
        994   -1    0    0    0    0 -0.00000000000E+00 -0.00000000000E+00  0.11368683772E-12  0.17120000000E+03  0.17120000000E+03 0.  0.
         13    1    1    2    0    0  0.47363806846E+02 -0.56308090422E+02  0.40071889443E+03  0.40741818168E+03  0.10566000000E+00 0.  1.
        994    1    1    2    0    0 -0.49124045790E+02  0.37587542264E+02  0.18698377177E+02  0.18298924700E+03  0.17120000000E+03 0.  0.
        998    1    1    2    0    0  0.17602389435E+01  0.18720548157E+02  0.10805827247E+04  0.10807925713E+04  0.10000000000E+02 0.  1.
</event>
<event>
 5    1  0.1020718E-008  0.3825760E+03  0.7957747E-01  0.3440018E+00
         13   -1    0    0    0    0  0.00000000000E+00  0.00000000000E+00  0.14999999963E+04  0.15000000000E+04  0.10566000000E+00 0.  1.
        994   -1    0    0    0    0 -0.00000000000E+00 -0.00000000000E+00  0.11368683772E-12  0.17120000000E+03  0.17120000000E+03 0.  0.
         13    1    1    2    0    0  0.22779649941E+02  0.30644116759E+02  0.21479589318E+03  0.21816338198E+03  0.10566000000E+00 0.  1.
        994    1    1    2    0    0 -0.23199728289E+02 -0.34917063169E+02  0.86857139192E+01  0.17647184002E+03  0.17120000000E+03 0.  0.
        998    1    1    2    0    0  0.42007834782E+00  0.42729464102E+01  0.12765183892E+04  0.12765647780E+04  0.10000000000E+02 0.  1.
</event>
<event>
 5    1  0.1020718E-008  0.3708500E+03  0.7957747E-01  0.3491994E+00
         13   -1    0    0    0    0  0.00000000000E+00  0.00000000000E+00  0.14999999963E+04  0.15000000000E+04  0.10566000000E+00 0. -1.
        994   -1    0    0    0    0 -0.00000000000E+00 -0.00000000000E+00  0.11368683772E-12  0.17120000000E+03  0.17120000000E+03 0.  0.
         13    1    1    2    0    0 -0.14775476978E+01 -0.68672042522E+02  0.38301885476E+03  0.38912913902E+03  0.10566000000E+00 0. -1.
        994    1    1    2    0    0 -0.44861579285E+01 -0.49398629675E+01  0.89790107782E+01  0.17156512027E+03  0.17120000000E+03 0.  0.
        998    1    1    2    0    0  0.59637056263E+01  0.73611905489E+02  0.11080021307E+04  0.11105057407E+04  0.10000000000E+02 0. -1.
</event>
<event>
 5    1  0.1020718E-008  0.3860382E+03  0.7957747E-01  0.3425281E+00
         13   -1    0    0    0    0  0.00000000000E+00  0.00000000000E+00  0.14999999963E+04  0.15000000000E+04  0.10566000000E+00 0.  1.
        994   -1    0    0    0    0 -0.00000000000E+00 -0.00000000000E+00  0.11368683772E-12  0.17120000000E+03  0.17120000000E+03 0.  0.
         13    1    1    2    0    0 -0.86490231075E+01  0.63862572848E+01  0.52458783749E+02  0.53549276739E+02  0.10566000000E+00 0.  1.
        994    1    1    2    0    0  0.33993019758E+01 -0.75710564713E+01  0.13413630757E+01  0.17140628753E+03  0.17120000000E+03 0.  0.
        998    1    1    2    0    0  0.52497211317E+01  0.11847991865E+01  0.14461998495E+04  0.14462444357E+04  0.10000000000E+02 0.  1.
</event>
<event>
 5    1  0.1020718E-008  0.3849068E+03  0.7957747E-01  0.3430067E+00
         13   -1    0    0    0    0  0.00000000000E+00  0.00000000000E+00  0.14999999963E+04  0.15000000000E+04  0.10566000000E+00 0. -1.
        994   -1    0    0    0    0 -0.00000000000E+00 -0.00000000000E+00  0.11368683772E-12  0.17120000000E+03  0.17120000000E+03 0.  0.
         13    1    1    2    0    0  0.92896021532E+01  0.11847497316E+02  0.67923026512E+02  0.69571607682E+02  0.10566000000E+00 0. -1.
        994    1    1    2    0    0 -0.50549544445E+01 -0.75794432534E+01  0.19494971563E+01  0.17145332036E+03  0.17120000000E+03 0.  0.
        998    1    1    2    0    0 -0.42346477087E+01 -0.42680540624E+01  0.14301274726E+04  0.14301750720E+04  0.10000000000E+02 0. -1.
</event>
<event>
 5    1  0.1020718E-008  0.3806830E+03  0.7957747E-01  0.3448190E+00
         13   -1    0    0    0    0  0.00000000000E+00  0.00000000000E+00  0.14999999963E+04  0.15000000000E+04  0.10566000000E+00 0. -1.
        994   -1    0    0    0    0 -0.00000000000E+00 -0.00000000000E+00  0.11368683772E-12  0.17120000000E+03  0.17120000000E+03 0.  0.
         13    1    1    2    0    0  0.46055514118E+02 -0.94714950277E+01  0.23718073397E+03  0.24179646674E+03  0.10566000000E+00 0. -1.
        994    1    1    2    0    0 -0.51156992327E+02  0.78105482502E+01  0.12773229242E+02  0.17930598962E+03  0.17120000000E+03 0.  0.
        998    1    1    2    0    0  0.51014782088E+01  0.16609467775E+01  0.12500460331E+04  0.12500975436E+04  0.10000000000E+02 0. -1.
</event>
<event>
 5    1  0.1020718E-008  0.3798463E+03  0.7957747E-01  0.3451828E+00
         13   -1    0    0    0    0  0.00000000000E+00  0.00000000000E+00  0.14999999963E+04  0.15000000000E+04  0.10566000000E+00 0. -1.
        994   -1    0    0    0    0 -0.00000000000E+00 -0.00000000000E+00  0.11368683772E-12  0.17120000000E+03  0.17120000000E+03 0.  0.
         13    1    1    2    0    0 -0.25090117565E+00  0.20770543605E+02  0.51388440073E+02  0.55427983639E+02  0.10566000000E+00 0. -1.
        994    1    1    2    0    0 -0.10049585001E+02 -0.46428570927E+01  0.46207171483E+01  0.17161975792E+03  0.17120000000E+03 0.  0.
        998    1    1    2    0    0  0.10300486176E+02 -0.16127686512E+02  0.14439908391E+04  0.14441522584E+04  0.10000000000E+02 0. -1.
</event>
<event>
 5    1  0.1020718E-008  0.3843491E+03  0.7957747E-01  0.3432437E+00
         13   -1    0    0    0    0  0.00000000000E+00  0.00000000000E+00  0.14999999963E+04  0.15000000000E+04  0.10566000000E+00 0.  1.
        994   -1    0    0    0    0 -0.00000000000E+00 -0.00000000000E+00  0.11368683772E-12  0.17120000000E+03  0.17120000000E+03 0.  0.
         13    1    1    2    0    0  0.16459391320E+02  0.10956912841E+02  0.92067681412E+02  0.94167057012E+02  0.10566000000E+00 0.  1.
        994    1    1    2    0    0 -0.21542249987E+02 -0.11530607187E+02  0.39236600113E+01  0.17297935872E+03  0.17120000000E+03 0.  0.
        998    1    1    2    0    0  0.50828586665E+01  0.57369434606E+00  0.14040086549E+04  0.14040535843E+04  0.10000000000E+02 0.  1.
</event>
<event>
 5    1  0.1020718E-008  0.3809202E+03  0.7957747E-01  0.3447162E+00
         13   -1    0    0    0    0  0.00000000000E+00  0.00000000000E+00  0.14999999963E+04  0.15000000000E+04  0.10566000000E+00 0.  1.
        994   -1    0    0    0    0 -0.00000000000E+00 -0.00000000000E+00  0.11368683772E-12  0.17120000000E+03  0.17120000000E+03 0.  0.
         13    1    1    2    0    0  0.26053579757E+02  0.52094034224E+01  0.83611179206E+02  0.87731222232E+02  0.10566000000E+00 0.  1.
        994    1    1    2    0    0 -0.42455261260E+02 -0.35504616510E+01  0.97423263603E+01  0.17669014661E+03  0.17120000000E+03 0.  0.
        998    1    1    2    0    0  0.16401681503E+02 -0.16589417714E+01  0.14066464907E+04  0.14067786312E+04  0.10000000000E+02 0.  1.
</event>
<event>
 5    1  0.1020718E-008  0.3808434E+03  0.7957747E-01  0.3447494E+00
         13   -1    0    0    0    0  0.00000000000E+00  0.00000000000E+00  0.14999999963E+04  0.15000000000E+04  0.10566000000E+00 0. -1.
        994   -1    0    0    0    0 -0.00000000000E+00 -0.00000000000E+00  0.11368683772E-12  0.17120000000E+03  0.17120000000E+03 0.  0.
         13    1    1    2    0    0  0.66086539329E+01  0.10632546128E+02  0.19504561871E+02  0.23176808274E+02  0.10566000000E+00 0. -1.
        994    1    1    2    0    0 -0.13742201789E+02 -0.40567990247E+01  0.43927089313E+01  0.17185471079E+03  0.17120000000E+03 0.  0.
        998    1    1    2    0    0  0.71335478565E+01 -0.65757471031E+01  0.14761027255E+04  0.14761684809E+04  0.10000000000E+02 0. -1.
</event>
<event>
 5    1  0.1020718E-008  0.3851921E+03  0.7957747E-01  0.3428858E+00
         13   -1    0    0    0    0  0.00000000000E+00  0.00000000000E+00  0.14999999963E+04  0.15000000000E+04  0.10566000000E+00 0. -1.
        994   -1    0    0    0    0 -0.00000000000E+00 -0.00000000000E+00  0.11368683772E-12  0.17120000000E+03  0.17120000000E+03 0.  0.
         13    1    1    2    0    0 -0.40122469185E+01  0.11785714858E+02  0.52373557913E+02  0.53833093284E+02  0.10566000000E+00 0. -1.
        994    1    1    2    0    0  0.84076604838E+01  0.35218683708E+00  0.17675412204E+01  0.17141580147E+03  0.17120000000E+03 0.  0.
        998    1    1    2    0    0 -0.43954135653E+01 -0.12137901695E+02  0.14458588971E+04  0.14459511052E+04  0.10000000000E+02 0. -1.
</event>
<event>
 5    1  0.1020718E-008  0.3845733E+03  0.7957747E-01  0.3431484E+00
         13   -1    0    0    0    0  0.00000000000E+00  0.00000000000E+00  0.14999999963E+04  0.15000000000E+04  0.10566000000E+00 0. -1.
        994   -1    0    0    0    0 -0.00000000000E+00 -0.00000000000E+00  0.11368683772E-12  0.17120000000E+03  0.17120000000E+03 0.  0.
         13    1    1    2    0    0  0.61911628882E+01  0.12123144798E+02  0.50638502971E+02  0.52436345076E+02  0.10566000000E+00 0. -1.
        994    1    1    2    0    0 -0.55249700060E+01 -0.48903715140E+01  0.20214563193E+01  0.17137084732E+03  0.17120000000E+03 0.  0.
        998    1    1    2    0    0 -0.66619288215E+00 -0.72327732841E+01  0.14473400370E+04  0.14473928076E+04  0.10000000000E+02 0. -1.
</event>
<event>
 5    1  0.1020718E-008  0.3700843E+03  0.7957747E-01  0.3495504E+00
         13   -1    0    0    0    0  0.00000000000E+00  0.00000000000E+00  0.14999999963E+04  0.15000000000E+04  0.10566000000E+00 0. -1.
        994   -1    0    0    0    0 -0.00000000000E+00 -0.00000000000E+00  0.11368683772E-12  0.17120000000E+03  0.17120000000E+03 0.  0.
         13    1    1    2    0    0  0.15447486690E+02  0.21495458575E+01  0.74508719001E+01  0.17285023822E+02  0.10566000000E+00 0. -1.
        994    1    1    2    0    0 -0.74034468535E+02  0.11509879034E+03  0.77049868452E+02  0.23232510905E+03  0.17120000000E+03 0.  0.
        998    1    1    2    0    0  0.58586981845E+02 -0.11724833619E+03  0.14154992559E+04  0.14215898671E+04  0.10000000000E+02 0. -1.
</event>
<event>
 5    1  0.1020718E-008  0.3875373E+03  0.7957747E-01  0.3418982E+00
         13   -1    0    0    0    0  0.00000000000E+00  0.00000000000E+00  0.14999999963E+04  0.15000000000E+04  0.10566000000E+00 0.  1.
        994   -1    0    0    0    0 -0.00000000000E+00 -0.00000000000E+00  0.11368683772E-12  0.17120000000E+03  0.17120000000E+03 0.  0.
         13    1    1    2    0    0 -0.11319559129E+03 -0.65840982387E+02  0.37170159311E+03  0.39409435715E+03  0.10566000000E+00 0.  1.
        994    1    1    2    0    0  0.11370067733E+03  0.10381185823E+01  0.70497929875E+02  0.21727475655E+03  0.17120000000E+03 0.  0.
        998    1    1    2    0    0 -0.50508603636E+00  0.64802863805E+02  0.10578004733E+04  0.10598308863E+04  0.10000000000E+02 0.  1.
</event>
<event>
 5    1  0.1020718E-008  0.3709682E+03  0.7957747E-01  0.3491453E+00
         13   -1    0    0    0    0  0.00000000000E+00  0.00000000000E+00  0.14999999963E+04  0.15000000000E+04  0.10566000000E+00 0. -1.
        994   -1    0    0    0    0 -0.00000000000E+00 -0.00000000000E+00  0.11368683772E-12  0.17120000000E+03  0.17120000000E+03 0.  0.
         13    1    1    2    0    0  0.50775084557E+02 -0.13771418733E+02  0.14389787092E+03  0.15321347723E+03  0.10566000000E+00 0. -1.
        994    1    1    2    0    0 -0.44186754041E+02  0.20930737826E+02  0.17047512926E+02  0.17885922597E+03  0.17120000000E+03 0.  0.
        998    1    1    2    0    0 -0.65883305167E+01 -0.71593190924E+01  0.13390546124E+04  0.13391272968E+04  0.10000000000E+02 0. -1.
</event>
<event>
 5    1  0.1020718E-008  0.3840704E+03  0.7957747E-01  0.3433624E+00
         13   -1    0    0    0    0  0.00000000000E+00  0.00000000000E+00  0.14999999963E+04  0.15000000000E+04  0.10566000000E+00 0. -1.
        994   -1    0    0    0    0 -0.00000000000E+00 -0.00000000000E+00  0.11368683772E-12  0.17120000000E+03  0.17120000000E+03 0.  0.
         13    1    1    2    0    0 -0.46320330391E+01 -0.16879353624E+02  0.72052714415E+02  0.74148318440E+02  0.10566000000E+00 0. -1.
        994    1    1    2    0    0 -0.12334731986E+02  0.17258478077E+02  0.35781524216E+01  0.17254635277E+03  0.17120000000E+03 0.  0.
        998    1    1    2    0    0  0.16966765025E+02 -0.37912445276E+00  0.14243691294E+04  0.14245053288E+04  0.10000000000E+02 0. -1.
</event>
<event>
 5    1  0.1020718E-008  0.3790065E+03  0.7957747E-01  0.3455496E+00
         13   -1    0    0    0    0  0.00000000000E+00  0.00000000000E+00  0.14999999963E+04  0.15000000000E+04  0.10566000000E+00 0.  1.
        994   -1    0    0    0    0 -0.00000000000E+00 -0.00000000000E+00  0.11368683772E-12  0.17120000000E+03  0.17120000000E+03 0.  0.
         13    1    1    2    0    0 -0.26882755046E+02  0.49469489371E-02  0.74273393445E+02  0.78988800986E+02  0.10566000000E+00 0.  1.
        994    1    1    2    0    0  0.23069097736E+02  0.20872632907E+01  0.64370705902E+01  0.17287977272E+03  0.17120000000E+03 0.  0.
        998    1    1    2    0    0  0.38136573103E+01 -0.20922102396E+01  0.14192895322E+04  0.14193314263E+04  0.10000000000E+02 0.  1.
</event>
<event>
 5    1  0.1020718E-008  0.3741156E+03  0.7957747E-01  0.3477188E+00
         13   -1    0    0    0    0  0.00000000000E+00  0.00000000000E+00  0.14999999963E+04  0.15000000000E+04  0.10566000000E+00 0.  1.
        994   -1    0    0    0    0 -0.00000000000E+00 -0.00000000000E+00  0.11368683772E-12  0.17120000000E+03  0.17120000000E+03 0.  0.
         13    1    1    2    0    0  0.20154837054E+02 -0.23394500904E+02  0.30903053315E+02  0.43686725644E+02  0.10566000000E+00 0.  1.
        994    1    1    2    0    0 -0.23207844241E+02  0.11312515627E+02  0.15499725266E+02  0.17382824433E+03  0.17120000000E+03 0.  0.
        998    1    1    2    0    0  0.30530071867E+01  0.12081985277E+02  0.14535972177E+04  0.14536850300E+04  0.10000000000E+02 0.  1.
</event>
<event>
 5    1  0.1020718E-008  0.3844612E+03  0.7957747E-01  0.3431960E+00
         13   -1    0    0    0    0  0.00000000000E+00  0.00000000000E+00  0.14999999963E+04  0.15000000000E+04  0.10566000000E+00 0.  1.
        994   -1    0    0    0    0 -0.00000000000E+00 -0.00000000000E+00  0.11368683772E-12  0.17120000000E+03  0.17120000000E+03 0.  0.
         13    1    1    2    0    0 -0.15198687107E+02 -0.82703263949E+01  0.76833969962E+02  0.78758291580E+02  0.10566000000E+00 0.  1.
        994    1    1    2    0    0  0.16583423493E+02  0.69694992304E+00  0.28059912115E+01  0.17202560641E+03  0.17120000000E+03 0.  0.
        998    1    1    2    0    0 -0.13847363861E+01  0.75733764719E+01  0.14203600351E+04  0.14204161020E+04  0.10000000000E+02 0.  1.
</event>
<event>
 5    1  0.1020718E-008  0.3850730E+03  0.7957747E-01  0.3429363E+00
         13   -1    0    0    0    0  0.00000000000E+00  0.00000000000E+00  0.14999999963E+04  0.15000000000E+04  0.10566000000E+00 0.  1.
        994   -1    0    0    0    0 -0.00000000000E+00 -0.00000000000E+00  0.11368683772E-12  0.17120000000E+03  0.17120000000E+03 0.  0.
         13    1    1    2    0    0 -0.15193477808E+02 -0.22720828720E+01  0.75944524743E+02  0.77482811842E+02  0.10566000000E+00 0.  1.
        994    1    1    2    0    0  0.70947502118E+01 -0.31245347416E+01  0.17915279204E+01  0.17138479445E+03  0.17120000000E+03 0.  0.
        998    1    1    2    0    0  0.80987275959E+01  0.53966176136E+01  0.14222639436E+04  0.14223323937E+04  0.10000000000E+02 0.  1.
</event>
<event>
 5    1  0.1020718E-008  0.3813686E+03  0.7957747E-01  0.3445221E+00
         13   -1    0    0    0    0  0.00000000000E+00  0.00000000000E+00  0.14999999963E+04  0.15000000000E+04  0.10566000000E+00 0. -1.
        994   -1    0    0    0    0 -0.00000000000E+00 -0.00000000000E+00  0.11368683772E-12  0.17120000000E+03  0.17120000000E+03 0.  0.
         13    1    1    2    0    0 -0.58772959818E+01  0.24736170074E+02  0.90343236628E+02  0.93852715925E+02  0.10566000000E+00 0. -1.
        994    1    1    2    0    0  0.10202452977E+02 -0.18734972497E+02  0.49598227336E+01  0.17259527538E+03  0.17120000000E+03 0.  0.
        998    1    1    2    0    0 -0.43251569952E+01 -0.60011975766E+01  0.14046969369E+04  0.14047520087E+04  0.10000000000E+02 0. -1.
</event>
<event>
 5    1  0.1020718E-008  0.2615757E+03  0.7957747E-01  0.4215330E+00
         13   -1    0    0    0    0  0.00000000000E+00  0.00000000000E+00  0.14999999963E+04  0.15000000000E+04  0.10566000000E+00 0. -1.
        994   -1    0    0    0    0 -0.00000000000E+00 -0.00000000000E+00  0.11368683772E-12  0.17120000000E+03  0.17120000000E+03 0.  0.
         13    1    1    2    0    0 -0.56940970946E+02 -0.22740977495E+03  0.54978475429E+03  0.59767948528E+03  0.10566000000E+00 0. -1.
        994    1    1    2    0    0  0.53759085115E+01  0.85871203413E+02  0.11224887647E+03  0.22206308616E+03  0.17120000000E+03 0.  0.
        998    1    1    2    0    0  0.51565062434E+02  0.14153857154E+03  0.83796636552E+03  0.85145742855E+03  0.10000000000E+02 0. -1.
</event>
<event>
 5    1  0.1020718E-008  0.3792095E+03  0.7957747E-01  0.3454608E+00
         13   -1    0    0    0    0  0.00000000000E+00  0.00000000000E+00  0.14999999963E+04  0.15000000000E+04  0.10566000000E+00 0. -1.
        994   -1    0    0    0    0 -0.00000000000E+00 -0.00000000000E+00  0.11368683772E-12  0.17120000000E+03  0.17120000000E+03 0.  0.
         13    1    1    2    0    0 -0.12762306821E+02 -0.15533613891E+02  0.49545740229E+02  0.53469254481E+02  0.10566000000E+00 0. -1.
        994    1    1    2    0    0 -0.52477555229E+01 -0.30274169712E+02  0.77033659911E+01  0.17410584751E+03  0.17120000000E+03 0.  0.
        998    1    1    2    0    0  0.18010062344E+02  0.45807783603E+02  0.14427508901E+04  0.14436248980E+04  0.10000000000E+02 0. -1.
</event>
<event>
 5    1  0.1020718E-008  0.3838305E+03  0.7957747E-01  0.3434647E+00
         13   -1    0    0    0    0  0.00000000000E+00  0.00000000000E+00  0.14999999963E+04  0.15000000000E+04  0.10566000000E+00 0. -1.
        994   -1    0    0    0    0 -0.00000000000E+00 -0.00000000000E+00  0.11368683772E-12  0.17120000000E+03  0.17120000000E+03 0.  0.
         13    1    1    2    0    0 -0.71007986421E+01  0.18773021692E+02  0.87677490400E+02  0.89945545591E+02  0.10566000000E+00 0. -1.
        994    1    1    2    0    0  0.11225042413E+02 -0.14862120672E+02  0.33578516635E+01  0.17224285000E+03  0.17120000000E+03 0.  0.
        998    1    1    2    0    0 -0.41242437711E+01 -0.39109010198E+01  0.14089646542E+04  0.14090116044E+04  0.10000000000E+02 0. -1.
</event>
<event>
 5    1  0.1020718E-008  0.3780803E+03  0.7957747E-01  0.3459560E+00
         13   -1    0    0    0    0  0.00000000000E+00  0.00000000000E+00  0.14999999963E+04  0.15000000000E+04  0.10566000000E+00 0. -1.
        994   -1    0    0    0    0 -0.00000000000E+00 -0.00000000000E+00  0.11368683772E-12  0.17120000000E+03  0.17120000000E+03 0.  0.
         13    1    1    2    0    0  0.70566637561E+02  0.31096916234E+02  0.39889676934E+03  0.40628230615E+03  0.10566000000E+00 0. -1.
        994    1    1    2    0    0 -0.76073440611E+02 -0.33556031629E+02  0.28727366594E+02  0.19247825128E+03  0.17120000000E+03 0.  0.
        998    1    1    2    0    0  0.55068030497E+01  0.24591153951E+01  0.10723758603E+04  0.10724394426E+04  0.10000000000E+02 0. -1.
</event>
<event>
 5    1  0.1020718E-008  0.3706765E+03  0.7957747E-01  0.3492788E+00
         13   -1    0    0    0    0  0.00000000000E+00  0.00000000000E+00  0.14999999963E+04  0.15000000000E+04  0.10566000000E+00 0. -1.
        994   -1    0    0    0    0 -0.00000000000E+00 -0.00000000000E+00  0.11368683772E-12  0.17120000000E+03  0.17120000000E+03 0.  0.
         13    1    1    2    0    0  0.70831106483E+02  0.16266715131E+02  0.24204089324E+03  0.25271615863E+03  0.10566000000E+00 0. -1.
        994    1    1    2    0    0 -0.74897292108E+02 -0.10798370131E+02  0.28936435688E+02  0.18940160103E+03  0.17120000000E+03 0.  0.
        998    1    1    2    0    0  0.40661856252E+01 -0.54683449994E+01  0.12290226674E+04  0.12290822403E+04  0.10000000000E+02 0. -1.
</event>
<event>
 5    1  0.1020718E-008  0.3801364E+03  0.7957747E-01  0.3450565E+00
         13   -1    0    0    0    0  0.00000000000E+00  0.00000000000E+00  0.14999999963E+04  0.15000000000E+04  0.10566000000E+00 0. -1.
        994   -1    0    0    0    0 -0.00000000000E+00 -0.00000000000E+00  0.11368683772E-12  0.17120000000E+03  0.17120000000E+03 0.  0.
         13    1    1    2    0    0 -0.97362787916E+01  0.24761396744E+02  0.14828477486E+02  0.30460085391E+02  0.10566000000E+00 0. -1.
        994    1    1    2    0    0  0.90422946338E+01 -0.13071698589E+02  0.17318649736E+02  0.17280627311E+03  0.17120000000E+03 0.  0.
        998    1    1    2    0    0  0.69398415781E+00 -0.11689698155E+02  0.14678528691E+04  0.14679336415E+04  0.10000000000E+02 0. -1.
</event>
<event>
 5    1  0.1020718E-008  0.3806722E+03  0.7957747E-01  0.3448237E+00
         13   -1    0    0    0    0  0.00000000000E+00  0.00000000000E+00  0.14999999963E+04  0.15000000000E+04  0.10566000000E+00 0. -1.
        994   -1    0    0    0    0 -0.00000000000E+00 -0.00000000000E+00  0.11368683772E-12  0.17120000000E+03  0.17120000000E+03 0.  0.
         13    1    1    2    0    0  0.66225801345E+01  0.17006635275E+02  0.43270545134E+02  0.46962063958E+02  0.10566000000E+00 0. -1.
        994    1    1    2    0    0 -0.47305286610E+01 -0.57184032948E+01  0.39779679197E+01  0.17140694929E+03  0.17120000000E+03 0.  0.
        998    1    1    2    0    0 -0.18920514735E+01 -0.11288231980E+02  0.14527514832E+04  0.14528309867E+04  0.10000000000E+02 0. -1.
</event>
<event>
 5    1  0.1020718E-008  0.3855104E+03  0.7957747E-01  0.3427511E+00
         13   -1    0    0    0    0  0.00000000000E+00  0.00000000000E+00  0.14999999963E+04  0.15000000000E+04  0.10566000000E+00 0.  1.
        994   -1    0    0    0    0 -0.00000000000E+00 -0.00000000000E+00  0.11368683772E-12  0.17120000000E+03  0.17120000000E+03 0.  0.
         13    1    1    2    0    0 -0.14170844126E+02 -0.85826576727E+00  0.72246317683E+02  0.73628058687E+02  0.10566000000E+00 0.  1.
        994    1    1    2    0    0  0.12007564722E+02 -0.19549806011E+01  0.18630390689E+01  0.17164182030E+03  0.17120000000E+03 0.  0.
        998    1    1    2    0    0  0.21632794043E+01  0.28132463684E+01  0.14258906395E+04  0.14259301210E+04  0.10000000000E+02 0.  1.
</event>
<event>
 5    1  0.1020718E-008  0.3754505E+03  0.7957747E-01  0.3471210E+00
         13   -1    0    0    0    0  0.00000000000E+00  0.00000000000E+00  0.14999999963E+04  0.15000000000E+04  0.10566000000E+00 0.  1.
        994   -1    0    0    0    0 -0.00000000000E+00 -0.00000000000E+00  0.11368683772E-12  0.17120000000E+03  0.17120000000E+03 0.  0.
         13    1    1    2    0    0 -0.64937376849E+02 -0.27251483159E+02  0.15715301698E+03  0.17221088281E+03  0.10566000000E+00 0.  1.
        994    1    1    2    0    0  0.80004611808E+02 -0.94798185608E+01  0.37362302447E+02  0.19286261046E+03  0.17120000000E+03 0.  0.
        998    1    1    2    0    0 -0.15067234959E+02  0.36731301720E+02  0.13054846768E+04  0.13061265067E+04  0.10000000000E+02 0.  1.
</event>
<event>
 5    1  0.1020718E-008  0.3855636E+03  0.7957747E-01  0.3427285E+00
         13   -1    0    0    0    0  0.00000000000E+00  0.00000000000E+00  0.14999999963E+04  0.15000000000E+04  0.10566000000E+00 0. -1.
        994   -1    0    0    0    0 -0.00000000000E+00 -0.00000000000E+00  0.11368683772E-12  0.17120000000E+03  0.17120000000E+03 0.  0.
         13    1    1    2    0    0  0.87992032902E+01 -0.61257149698E+01  0.51150989123E+02  0.52262656025E+02  0.10566000000E+00 0. -1.
        994    1    1    2    0    0  0.26531567774E+02  0.20693856451E+01  0.36788176499E+01  0.17329506671E+03  0.17120000000E+03 0.  0.
        998    1    1    2    0    0 -0.35330771064E+02  0.40563293247E+01  0.14451701895E+04  0.14456422773E+04  0.10000000000E+02 0. -1.
</event>
<event>
 5    1  0.1020718E-008  0.3835200E+03  0.7957747E-01  0.3435974E+00
         13   -1    0    0    0    0  0.00000000000E+00  0.00000000000E+00  0.14999999963E+04  0.15000000000E+04  0.10566000000E+00 0.  1.
        994   -1    0    0    0    0 -0.00000000000E+00 -0.00000000000E+00  0.11368683772E-12  0.17120000000E+03  0.17120000000E+03 0.  0.
         13    1    1    2    0    0  0.47855713229E+01 -0.11302608951E+02  0.30361840772E+02  0.32749094661E+02  0.10566000000E+00 0.  1.
        994    1    1    2    0    0 -0.37520647510E+01  0.14348824924E+02  0.30939472896E+01  0.17186907597E+03  0.17120000000E+03 0.  0.
        998    1    1    2    0    0 -0.10335065719E+01 -0.30462159728E+01  0.14665442082E+04  0.14665818294E+04  0.10000000000E+02 0.  1.
</event>
<event>
 5    1  0.1020718E-008  0.3805333E+03  0.7957747E-01  0.3448840E+00
         13   -1    0    0    0    0  0.00000000000E+00  0.00000000000E+00  0.14999999963E+04  0.15000000000E+04  0.10566000000E+00 0.  1.
        994   -1    0    0    0    0 -0.00000000000E+00 -0.00000000000E+00  0.11368683772E-12  0.17120000000E+03  0.17120000000E+03 0.  0.
         13    1    1    2    0    0 -0.51279016810E+02  0.24053120044E+02  0.31490613857E+03  0.31995933714E+03  0.10566000000E+00 0.  1.
        994    1    1    2    0    0  0.49944732706E+02 -0.38097545708E+02  0.17145943259E+02  0.18316474192E+03  0.17120000000E+03 0.  0.
        998    1    1    2    0    0  0.13342841038E+01  0.14044425664E+02  0.11679479145E+04  0.11680759209E+04  0.10000000000E+02 0.  1.
</event>
<event>
 5    1  0.1020718E-008  0.3758898E+03  0.7957747E-01  0.3469253E+00
         13   -1    0    0    0    0  0.00000000000E+00  0.00000000000E+00  0.14999999963E+04  0.15000000000E+04  0.10566000000E+00 0. -1.
        994   -1    0    0    0    0 -0.00000000000E+00 -0.00000000000E+00  0.11368683772E-12  0.17120000000E+03  0.17120000000E+03 0.  0.
         13    1    1    2    0    0 -0.47284736943E+01  0.24685185229E+02  0.49654401493E+02  0.55653280091E+02  0.10566000000E+00 0. -1.
        994    1    1    2    0    0 -0.31266433633E+02 -0.14292183423E+02  0.10238305523E+02  0.17491746419E+03  0.17120000000E+03 0.  0.
        998    1    1    2    0    0  0.35994907327E+02 -0.10393001806E+02  0.14401072893E+04  0.14406292557E+04  0.10000000000E+02 0. -1.
</event>
<event>
 5    1  0.1020718E-008  0.3749547E+03  0.7957747E-01  0.3473425E+00
         13   -1    0    0    0    0  0.00000000000E+00  0.00000000000E+00  0.14999999963E+04  0.15000000000E+04  0.10566000000E+00 0. -1.
        994   -1    0    0    0    0 -0.00000000000E+00 -0.00000000000E+00  0.11368683772E-12  0.17120000000E+03  0.17120000000E+03 0.  0.
         13    1    1    2    0    0 -0.43056568328E+01 -0.19169937082E+02  0.25069094753E+02  0.31851151380E+02  0.10566000000E+00 0. -1.
        994    1    1    2    0    0 -0.65766742922E+00  0.28489467533E+02  0.94677907813E+01  0.17381358218E+03  0.17120000000E+03 0.  0.
        998    1    1    2    0    0  0.49633242620E+01 -0.93195304506E+01  0.14654631107E+04  0.14655352664E+04  0.10000000000E+02 0. -1.
</event>
<event>
 5    1  0.1020718E-008  0.3701691E+03  0.7957747E-01  0.3495114E+00
         13   -1    0    0    0    0  0.00000000000E+00  0.00000000000E+00  0.14999999963E+04  0.15000000000E+04  0.10566000000E+00 0.  1.
        994   -1    0    0    0    0 -0.00000000000E+00 -0.00000000000E+00  0.11368683772E-12  0.17120000000E+03  0.17120000000E+03 0.  0.
         13    1    1    2    0    0  0.50100885726E+01  0.69049802438E+02  0.22656120427E+03  0.23690286332E+03  0.10566000000E+00 0.  1.
        994    1    1    2    0    0 -0.13781201874E+03 -0.68731276115E+02  0.96217157596E+02  0.24956626824E+03  0.17120000000E+03 0.  0.
        998    1    1    2    0    0  0.13280193017E+03 -0.31852632280E+00  0.11772216344E+04  0.11847308684E+04  0.10000000000E+02 0.  1.
</event>
<event>
 5    1  0.1020718E-008  0.3836460E+03  0.7957747E-01  0.3435435E+00
         13   -1    0    0    0    0  0.00000000000E+00  0.00000000000E+00  0.14999999963E+04  0.15000000000E+04  0.10566000000E+00 0. -1.
        994   -1    0    0    0    0 -0.00000000000E+00 -0.00000000000E+00  0.11368683772E-12  0.17120000000E+03  0.17120000000E+03 0.  0.
         13    1    1    2    0    0 -0.14970775437E+02  0.19551202999E+02  0.12696297020E+03  0.12932896281E+03  0.10566000000E+00 0. -1.
        994    1    1    2    0    0  0.92247141295E+01 -0.17140262532E+02  0.35563736863E+01  0.17233969869E+03  0.17120000000E+03 0.  0.
        998    1    1    2    0    0  0.57460613080E+01 -0.24109404676E+01  0.13694806524E+04  0.13695313385E+04  0.10000000000E+02 0. -1.
</event>
<event>
 5    1  0.1020718E-008  0.3766533E+03  0.7957747E-01  0.3465861E+00
         13   -1    0    0    0    0  0.00000000000E+00  0.00000000000E+00  0.14999999963E+04  0.15000000000E+04  0.10566000000E+00 0. -1.
        994   -1    0    0    0    0 -0.00000000000E+00 -0.00000000000E+00  0.11368683772E-12  0.17120000000E+03  0.17120000000E+03 0.  0.
         13    1    1    2    0    0 -0.13570555805E+02  0.11248037568E+01  0.13162228445E+02  0.18938864539E+02  0.10566000000E+00 0. -1.
        994    1    1    2    0    0  0.15021454183E+02 -0.69545141051E+00  0.65969005440E+01  0.17198571695E+03  0.17120000000E+03 0.  0.
        998    1    1    2    0    0 -0.14508983779E+01 -0.42935234630E+00  0.14802408673E+04  0.14802754185E+04  0.10000000000E+02 0. -1.
</event>
<event>
 5    1  0.1020718E-008  0.3725439E+03  0.7957747E-01  0.3484281E+00
         13   -1    0    0    0    0  0.00000000000E+00  0.00000000000E+00  0.14999999963E+04  0.15000000000E+04  0.10566000000E+00 0.  1.
        994   -1    0    0    0    0 -0.00000000000E+00 -0.00000000000E+00  0.11368683772E-12  0.17120000000E+03  0.17120000000E+03 0.  0.
         13    1    1    2    0    0 -0.23484566044E+01  0.10917135971E+02  0.41479817315E+01  0.11912851158E+02  0.10566000000E+00 0.  1.
        994    1    1    2    0    0  0.38211088551E+01 -0.97485550612E+01  0.83212989458E+01  0.17172163293E+03  0.17120000000E+03 0.  0.
        998    1    1    2    0    0 -0.14726522508E+01 -0.11685809094E+01  0.14875307156E+04  0.14875655159E+04  0.10000000000E+02 0.  1.
</event>
<event>
 5    1  0.1020718E-008  0.3803769E+03  0.7957747E-01  0.3449519E+00
         13   -1    0    0    0    0  0.00000000000E+00  0.00000000000E+00  0.14999999963E+04  0.15000000000E+04  0.10566000000E+00 0. -1.
        994   -1    0    0    0    0 -0.00000000000E+00 -0.00000000000E+00  0.11368683772E-12  0.17120000000E+03  0.17120000000E+03 0.  0.
         13    1    1    2    0    0  0.23356765634E+01  0.26724454103E+02  0.95179041469E+02  0.98887374984E+02  0.10566000000E+00 0. -1.
        994    1    1    2    0    0 -0.11850868282E+02 -0.45067379444E+01  0.44798868743E+01  0.17172729297E+03  0.17120000000E+03 0.  0.
        998    1    1    2    0    0  0.95151917190E+01 -0.22217716159E+02  0.14003410679E+04  0.14005853320E+04  0.10000000000E+02 0. -1.
</event>
<event>
 5    1  0.1020718E-008  0.3841973E+03  0.7957747E-01  0.3433084E+00
         13   -1    0    0    0    0  0.00000000000E+00  0.00000000000E+00  0.14999999963E+04  0.15000000000E+04  0.10566000000E+00 0.  1.
        994   -1    0    0    0    0 -0.00000000000E+00 -0.00000000000E+00  0.11368683772E-12  0.17120000000E+03  0.17120000000E+03 0.  0.
         13    1    1    2    0    0 -0.45822301352E+01 -0.15051708984E+02  0.63218949621E+02  0.65147505951E+02  0.10566000000E+00 0.  1.
        994    1    1    2    0    0 -0.44141216729E+01  0.44842364526E+01  0.21597365449E+01  0.17132920740E+03  0.17120000000E+03 0.  0.
        998    1    1    2    0    0  0.89963518081E+01  0.10567472532E+02  0.14346213101E+04  0.14347232866E+04  0.10000000000E+02 0.  1.
</event>
<event>
 5    1  0.1020718E-008  0.3758766E+03  0.7957747E-01  0.3469311E+00
         13   -1    0    0    0    0  0.00000000000E+00  0.00000000000E+00  0.14999999963E+04  0.15000000000E+04  0.10566000000E+00 0.  1.
        994   -1    0    0    0    0 -0.00000000000E+00 -0.00000000000E+00  0.11368683772E-12  0.17120000000E+03  0.17120000000E+03 0.  0.
         13    1    1    2    0    0  0.23159772785E+02  0.47379972655E+02  0.22551742684E+03  0.23160172248E+03  0.10566000000E+00 0.  1.
        994    1    1    2    0    0 -0.41457852485E+02 -0.11642372574E+02  0.12539783221E+02  0.17697735600E+03  0.17120000000E+03 0.  0.
        998    1    1    2    0    0  0.18298079700E+02 -0.35737600081E+02  0.12619427862E+04  0.12626209215E+04  0.10000000000E+02 0.  1.
</event>
<event>
 5    1  0.1020718E-008  0.3865988E+03  0.7957747E-01  0.3422920E+00
         13   -1    0    0    0    0  0.00000000000E+00  0.00000000000E+00  0.14999999963E+04  0.15000000000E+04  0.10566000000E+00 0.  1.
        994   -1    0    0    0    0 -0.00000000000E+00 -0.00000000000E+00  0.11368683772E-12  0.17120000000E+03  0.17120000000E+03 0.  0.
         13    1    1    2    0    0  0.90857937275E+02  0.80564804124E+02  0.35353237936E+03  0.37380610863E+03  0.10566000000E+00 0.  1.
        994    1    1    2    0    0 -0.33122524249E+02 -0.81419157834E+02  0.49297857580E+02  0.19866026185E+03  0.17120000000E+03 0.  0.
        998    1    1    2    0    0 -0.57735413025E+02  0.85435370943E+00  0.10971697593E+04  0.10987336295E+04  0.10000000000E+02 0.  1.
</event>
<event>
 5    1  0.1020718E-008  0.3834216E+03  0.7957747E-01  0.3436394E+00
         13   -1    0    0    0    0  0.00000000000E+00  0.00000000000E+00  0.14999999963E+04  0.15000000000E+04  0.10566000000E+00 0. -1.
        994   -1    0    0    0    0 -0.00000000000E+00 -0.00000000000E+00  0.11368683772E-12  0.17120000000E+03  0.17120000000E+03 0.  0.
         13    1    1    2    0    0 -0.28043611339E+02  0.39909740853E+02  0.28140583807E+03  0.28560197551E+03  0.10566000000E+00 0. -1.
        994    1    1    2    0    0  0.46878844497E+02 -0.66907260668E+02  0.24799550840E+02  0.19130777641E+03  0.17120000000E+03 0.  0.
        998    1    1    2    0    0 -0.18835233158E+02  0.26997519816E+02  0.11937946074E+04  0.11942902481E+04  0.10000000000E+02 0. -1.
</event>
<event>
 5    1  0.1020718E-008  0.3828590E+03  0.7957747E-01  0.3438804E+00
         13   -1    0    0    0    0  0.00000000000E+00  0.00000000000E+00  0.14999999963E+04  0.15000000000E+04  0.10566000000E+00 0.  1.
        994   -1    0    0    0    0 -0.00000000000E+00 -0.00000000000E+00  0.11368683772E-12  0.17120000000E+03  0.17120000000E+03 0.  0.
         13    1    1    2    0    0 -0.74703249028E+01 -0.16074289714E+02  0.63088092318E+02  0.65530962913E+02  0.10566000000E+00 0.  1.
        994    1    1    2    0    0  0.49880126259E+01 -0.10092392487E+02  0.31166806833E+01  0.17159804881E+03  0.17120000000E+03 0.  0.
        998    1    1    2    0    0  0.24823122769E+01  0.26166682201E+02  0.14337952233E+04  0.14340709883E+04  0.10000000000E+02 0.  1.
</event>
<event>
 5    1  0.1020718E-008  0.4448609E+03  0.7957747E-01  0.3209710E+00
         13   -1    0    0    0    0  0.00000000000E+00  0.00000000000E+00  0.14999999963E+04  0.15000000000E+04  0.10566000000E+00 0. -1.
        994   -1    0    0    0    0 -0.00000000000E+00 -0.00000000000E+00  0.11368683772E-12  0.17120000000E+03  0.17120000000E+03 0.  0.
         13    1    1    2    0    0 -0.58040313080E+02  0.11999515442E+03  0.13714955338E+03  0.19125251942E+03  0.10566000000E+00 0. -1.
        994    1    1    2    0    0  0.25851704834E+02 -0.10622580389E+03  0.11870873466E+03  0.23527310883E+03  0.17120000000E+03 0.  0.
        998    1    1    2    0    0  0.32188608246E+02 -0.13769350525E+02  0.12441417082E+04  0.12446743718E+04  0.10000000000E+02 0. -1.
</event>
<event>
 5    1  0.1020718E-008  0.3765607E+03  0.7957747E-01  0.3466272E+00
         13   -1    0    0    0    0  0.00000000000E+00  0.00000000000E+00  0.14999999963E+04  0.15000000000E+04  0.10566000000E+00 0. -1.
        994   -1    0    0    0    0 -0.00000000000E+00 -0.00000000000E+00  0.11368683772E-12  0.17120000000E+03  0.17120000000E+03 0.  0.
         13    1    1    2    0    0 -0.16424024430E+02 -0.14904891317E+01  0.20505322098E+02  0.26314435861E+02  0.10566000000E+00 0. -1.
        994    1    1    2    0    0  0.15232558500E+02 -0.16376636191E+02  0.75727454900E+01  0.17282074970E+03  0.17120000000E+03 0.  0.
        998    1    1    2    0    0  0.11914659297E+01  0.17867125323E+02  0.14719219287E+04  0.14720648144E+04  0.10000000000E+02 0. -1.
</event>
<event>
 5    1  0.1020718E-008  0.3828633E+03  0.7957747E-01  0.3438785E+00
         13   -1    0    0    0    0  0.00000000000E+00  0.00000000000E+00  0.14999999963E+04  0.15000000000E+04  0.10566000000E+00 0. -1.
        994   -1    0    0    0    0 -0.00000000000E+00 -0.00000000000E+00  0.11368683772E-12  0.17120000000E+03  0.17120000000E+03 0.  0.
         13    1    1    2    0    0 -0.28588142006E+02 -0.11144123343E+03  0.29219216092E+03  0.31402659193E+03  0.10566000000E+00 0. -1.
        994    1    1    2    0    0  0.24255975797E+02  0.10983870723E+03  0.65862315765E+02  0.21517476294E+03  0.17120000000E+03 0.  0.
        998    1    1    2    0    0  0.43321662093E+01  0.16025261991E+01  0.11419455196E+04  0.11419986451E+04  0.10000000000E+02 0.  0.
</event>
<event>
 5    1  0.1020718E-008  0.3849555E+03  0.7957747E-01  0.3429861E+00
         13   -1    0    0    0    0  0.00000000000E+00  0.00000000000E+00  0.14999999963E+04  0.15000000000E+04  0.10566000000E+00 0. -1.
        994   -1    0    0    0    0 -0.00000000000E+00 -0.00000000000E+00  0.11368683772E-12  0.17120000000E+03  0.17120000000E+03 0.  0.
         13    1    1    2    0    0  0.42219452772E+01  0.11296978369E+02  0.43738843065E+02  0.45371181370E+02  0.10566000000E+00 0. -1.
        994    1    1    2    0    0 -0.42510551747E+00 -0.92458500677E+01  0.19340364455E+01  0.17146091961E+03  0.17120000000E+03 0.  0.
        998    1    1    2    0    0 -0.37968397597E+01 -0.20511283012E+01  0.14543271168E+04  0.14543678990E+04  0.10000000000E+02 0. -1.
</event>
<event>
 5    1  0.1020718E-008  0.3778914E+03  0.7957747E-01  0.3460391E+00
         13   -1    0    0    0    0  0.00000000000E+00  0.00000000000E+00  0.14999999963E+04  0.15000000000E+04  0.10566000000E+00 0.  1.
        994   -1    0    0    0    0 -0.00000000000E+00 -0.00000000000E+00  0.11368683772E-12  0.17120000000E+03  0.17120000000E+03 0.  0.
         13    1    1    2    0    0  0.36996955957E+02  0.32402595474E+02  0.28947577576E+03  0.29362380500E+03  0.10566000000E+00 0.  1.
        994    1    1    2    0    0  0.17205549189E+02 -0.24698744125E+02  0.82575115173E+01  0.17402208303E+03  0.17120000000E+03 0.  0.
        998    1    1    2    0    0 -0.54202505147E+02 -0.77038513497E+01  0.12022667090E+04  0.12035541120E+04  0.10000000000E+02 0.  1.
</event>
<event>
 5    1  0.1020718E-008  0.3685032E+03  0.7957747E-01  0.3502798E+00
         13   -1    0    0    0    0  0.00000000000E+00  0.00000000000E+00  0.14999999963E+04  0.15000000000E+04  0.10566000000E+00 0.  1.
        994   -1    0    0    0    0 -0.00000000000E+00 -0.00000000000E+00  0.11368683772E-12  0.17120000000E+03  0.17120000000E+03 0.  0.
         13    1    1    2    0    0  0.83140062080E+01  0.19711198584E+02  0.18076955086E+02  0.28007883141E+02  0.10566000000E+00 0.  1.
        994    1    1    2    0    0 -0.10620102345E+02 -0.21795704348E+02  0.12099337537E+02  0.17333110878E+03  0.17120000000E+03 0.  0.
        998    1    1    2    0    0  0.23060961369E+01  0.20845057646E+01  0.14698237037E+04  0.14698610081E+04  0.10000000000E+02 0.  1.
</event>
<event>
 5    1  0.1020718E-008  0.3740547E+03  0.7957747E-01  0.3477461E+00
         13   -1    0    0    0    0  0.00000000000E+00  0.00000000000E+00  0.14999999963E+04  0.15000000000E+04  0.10566000000E+00 0.  1.
        994   -1    0    0    0    0 -0.00000000000E+00 -0.00000000000E+00  0.11368683772E-12  0.17120000000E+03  0.17120000000E+03 0.  0.
         13    1    1    2    0    0  0.20969168724E+02  0.65263721151E+01  0.30175005670E+02  0.37320794487E+02  0.10566000000E+00 0.  1.
        994    1    1    2    0    0 -0.19230860081E+02 -0.11244838236E+02  0.88591235778E+01  0.17287046144E+03  0.17120000000E+03 0.  0.
        998    1    1    2    0    0 -0.17383086425E+01  0.47184661211E+01  0.14609658670E+04  0.14610087441E+04  0.10000000000E+02 0.  1.
</event>
<event>
 5    1  0.1020718E-008  0.3723829E+03  0.7957747E-01  0.3485011E+00
         13   -1    0    0    0    0  0.00000000000E+00  0.00000000000E+00  0.14999999963E+04  0.15000000000E+04  0.10566000000E+00 0.  1.
        994   -1    0    0    0    0 -0.00000000000E+00 -0.00000000000E+00  0.11368683772E-12  0.17120000000E+03  0.17120000000E+03 0.  0.
         13    1    1    2    0    0  0.32350119770E+01 -0.11091149110E+02  0.46395552041E+01  0.12450523186E+02  0.10566000000E+00 0.  1.
        994    1    1    2    0    0  0.15088211613E+00  0.64946184856E+01  0.81736192770E+01  0.17151807743E+03  0.17120000000E+03 0.  0.
        998    1    1    2    0    0 -0.33858940932E+01  0.45965306247E+01  0.14871868218E+04  0.14872313994E+04  0.10000000000E+02 0.  1.
</event>
<event>
 5    1  0.1020718E-008  0.3783874E+03  0.7957747E-01  0.3458210E+00
         13   -1    0    0    0    0  0.00000000000E+00  0.00000000000E+00  0.14999999963E+04  0.15000000000E+04  0.10566000000E+00 0.  1.
        994   -1    0    0    0    0 -0.00000000000E+00 -0.00000000000E+00  0.11368683772E-12  0.17120000000E+03  0.17120000000E+03 0.  0.
         13    1    1    2    0    0 -0.11527621522E+01 -0.19677456112E+02  0.36868970906E+02  0.41807455308E+02  0.10566000000E+00 0.  1.
        994    1    1    2    0    0 -0.32986074282E+01  0.17064947447E+02  0.59653198349E+01  0.17218338562E+03  0.17120000000E+03 0.  0.
        998    1    1    2    0    0  0.44513695805E+01  0.26125086649E+01  0.14571657055E+04  0.14572091591E+04  0.10000000000E+02 0.  1.
</event>
<event>
 5    1  0.1020718E-008  0.3799852E+03  0.7957747E-01  0.3451223E+00
         13   -1    0    0    0    0  0.00000000000E+00  0.00000000000E+00  0.14999999963E+04  0.15000000000E+04  0.10566000000E+00 0. -1.
        994   -1    0    0    0    0 -0.00000000000E+00 -0.00000000000E+00  0.11368683772E-12  0.17120000000E+03  0.17120000000E+03 0.  0.
         13    1    1    2    0    0  0.13121560290E+02  0.56506381326E+01 -0.11949425564E+01  0.14336809530E+02  0.10566000000E+00 0. -1.
        994    1    1    2    0    0 -0.98348975418E+01 -0.14468182180E+00  0.16669941765E+02  0.17229066458E+03  0.17120000000E+03 0.  0.
        998    1    1    2    0    0 -0.32866627480E+01 -0.55059563108E+01  0.14845249971E+04  0.14845725259E+04  0.10000000000E+02 0. -1.
</event>
<event>
 5    1  0.1020718E-008  0.3752373E+03  0.7957747E-01  0.3472162E+00
         13   -1    0    0    0    0  0.00000000000E+00  0.00000000000E+00  0.14999999963E+04  0.15000000000E+04  0.10566000000E+00 0. -1.
        994   -1    0    0    0    0 -0.00000000000E+00 -0.00000000000E+00  0.11368683772E-12  0.17120000000E+03  0.17120000000E+03 0.  0.
         13    1    1    2    0    0  0.38764281490E+02 -0.12584701026E+02  0.13106896097E+03  0.13725934545E+03  0.10566000000E+00 0. -1.
        994    1    1    2    0    0 -0.14357410923E+02  0.87409261770E-01  0.72573657451E+01  0.17195421555E+03  0.17120000000E+03 0.  0.
        998    1    1    2    0    0 -0.24406870567E+02  0.12497291764E+02  0.13616736696E+04  0.13619864390E+04  0.10000000000E+02 0. -1.
</event>
<event>
 5    1  0.1020718E-008  0.3718620E+03  0.7957747E-01  0.3487377E+00
         13   -1    0    0    0    0  0.00000000000E+00  0.00000000000E+00  0.14999999963E+04  0.15000000000E+04  0.10566000000E+00 0.  1.
        994   -1    0    0    0    0 -0.00000000000E+00 -0.00000000000E+00  0.11368683772E-12  0.17120000000E+03  0.17120000000E+03 0.  0.
         13    1    1    2    0    0 -0.44660009601E+02  0.51428885125E+02  0.15444259070E+03  0.16879565062E+03  0.10566000000E+00 0.  1.
        994    1    1    2    0    0  0.34257156273E+02 -0.91908037736E+02  0.46598865363E+02  0.20273513363E+03  0.17120000000E+03 0.  0.
        998    1    1    2    0    0  0.10402853328E+02  0.40479152612E+02  0.12989585402E+04  0.12996692157E+04  0.10000000000E+02 0.  1.
</event>
<event>
 5    1  0.1020718E-008  0.3828801E+03  0.7957747E-01  0.3438713E+00
         13   -1    0    0    0    0  0.00000000000E+00  0.00000000000E+00  0.14999999963E+04  0.15000000000E+04  0.10566000000E+00 0. -1.
        994   -1    0    0    0    0 -0.00000000000E+00 -0.00000000000E+00  0.11368683772E-12  0.17120000000E+03  0.17120000000E+03 0.  0.
         13    1    1    2    0    0  0.16026035825E+02  0.11532607144E+01  0.47535811359E+02  0.50177966879E+02  0.10566000000E+00 0. -1.
        994    1    1    2    0    0 -0.86552885895E+01 -0.68653271020E+01  0.30905559766E+01  0.17158391030E+03  0.17120000000E+03 0.  0.
        998    1    1    2    0    0 -0.73707472356E+01  0.57120663875E+01  0.14493736289E+04  0.14494381228E+04  0.10000000000E+02 0. -1.
</event>
<event>
 5    1  0.1020718E-008  0.3738924E+03  0.7957747E-01  0.3478191E+00
         13   -1    0    0    0    0  0.00000000000E+00  0.00000000000E+00  0.14999999963E+04  0.15000000000E+04  0.10566000000E+00 0. -1.
        994   -1    0    0    0    0 -0.00000000000E+00 -0.00000000000E+00  0.11368683772E-12  0.17120000000E+03  0.17120000000E+03 0.  0.
         13    1    1    2    0    0  0.39784544199E+00  0.56453943299E+02  0.31685872511E+03  0.32184882917E+03  0.10566000000E+00 0. -1.
        994    1    1    2    0    0  0.11086528710E+02  0.14148595434E+02  0.83517481276E+01  0.17234351037E+03  0.17120000000E+03 0.  0.
        998    1    1    2    0    0 -0.11484374152E+02 -0.70602538733E+02  0.11747895230E+04  0.11770076605E+04  0.10000000000E+02 0. -1.
</event>
<event>
 5    1  0.1020718E-008  0.3699180E+03  0.7957747E-01  0.3496268E+00
         13   -1    0    0    0    0  0.00000000000E+00  0.00000000000E+00  0.14999999963E+04  0.15000000000E+04  0.10566000000E+00 0.  1.
        994   -1    0    0    0    0 -0.00000000000E+00 -0.00000000000E+00  0.11368683772E-12  0.17120000000E+03  0.17120000000E+03 0.  0.
         13    1    1    2    0    0 -0.91755142904E+02  0.93919458217E+01  0.50138906343E+03  0.50980213710E+03  0.10566000000E+00 0.  1.
        994    1    1    2    0    0  0.25874732207E+02  0.75771262785E+01  0.13440186414E+02  0.17383035759E+03  0.17120000000E+03 0.  0.
        998    1    1    2    0    0  0.65880410696E+02 -0.16969072100E+02  0.98517074643E+03  0.98756750531E+03  0.10000000000E+02 0. -1.
</event>
<event>
 5    1  0.1020718E-008  0.4121523E+03  0.7957747E-01  0.3322093E+00
         13   -1    0    0    0    0  0.00000000000E+00  0.00000000000E+00  0.14999999963E+04  0.15000000000E+04  0.10566000000E+00 0.  1.
        994   -1    0    0    0    0 -0.00000000000E+00 -0.00000000000E+00  0.11368683772E-12  0.17120000000E+03  0.17120000000E+03 0.  0.
         13    1    1    2    0    0 -0.35377419979E+02  0.96083583563E+02  0.12818238784E+03  0.16405594348E+03  0.10566000000E+00 0.  1.
        994    1    1    2    0    0  0.32478669031E+02 -0.93317344533E+02  0.76770609468E+02  0.21205225113E+03  0.17120000000E+03 0.  0.
        998    1    1    2    0    0  0.28987509484E+01 -0.27662390303E+01  0.12950469990E+04  0.12950918054E+04  0.10000000000E+02 0.  0.
</event>
<event>
 5    1  0.1020718E-008  0.3833711E+03  0.7957747E-01  0.3436610E+00
         13   -1    0    0    0    0  0.00000000000E+00  0.00000000000E+00  0.14999999963E+04  0.15000000000E+04  0.10566000000E+00 0.  1.
        994   -1    0    0    0    0 -0.00000000000E+00 -0.00000000000E+00  0.11368683772E-12  0.17120000000E+03  0.17120000000E+03 0.  0.
         13    1    1    2    0    0  0.34127041823E+00 -0.10233834440E+02  0.23646978038E+02  0.25768945792E+02  0.10566000000E+00 0.  1.
        994    1    1    2    0    0 -0.41134185917E+02 -0.34333510755E+02  0.11990779859E+02  0.17978884841E+03  0.17120000000E+03 0.  0.
        998    1    1    2    0    0  0.40792915499E+02  0.44567345195E+02  0.14643622384E+04  0.14656422058E+04  0.10000000000E+02 0.  1.
</event>
<event>
 5    1  0.1020718E-008  0.3849483E+03  0.7957747E-01  0.3429892E+00
         13   -1    0    0    0    0  0.00000000000E+00  0.00000000000E+00  0.14999999963E+04  0.15000000000E+04  0.10566000000E+00 0.  1.
        994   -1    0    0    0    0 -0.00000000000E+00 -0.00000000000E+00  0.11368683772E-12  0.17120000000E+03  0.17120000000E+03 0.  0.
         13    1    1    2    0    0  0.12559839535E+02  0.69265609527E+01  0.60212671182E+02  0.61897526208E+02  0.10566000000E+00 0.  1.
        994    1    1    2    0    0 -0.12497899628E+02 -0.75703283143E+01  0.23583950860E+01  0.17183861438E+03  0.17120000000E+03 0.  0.
        998    1    1    2    0    0 -0.61939907217E-01  0.64376736158E+00  0.14374289300E+04  0.14374638594E+04  0.10000000000E+02 0.  0.
</event>
<event>
 5    1  0.1020718E-008  0.3863153E+03  0.7957747E-01  0.3424113E+00
         13   -1    0    0    0    0  0.00000000000E+00  0.00000000000E+00  0.14999999963E+04  0.15000000000E+04  0.10566000000E+00 0.  1.
        994   -1    0    0    0    0 -0.00000000000E+00 -0.00000000000E+00  0.11368683772E-12  0.17120000000E+03  0.17120000000E+03 0.  0.
         13    1    1    2    0    0  0.26933689281E+01 -0.10577511536E+02  0.60349286416E+02  0.61328504967E+02  0.10566000000E+00 0.  1.
        994    1    1    2    0    0  0.69067657318E+01  0.12947693544E+02  0.16840166026E+01  0.17183603258E+03  0.17120000000E+03 0.  0.
        998    1    1    2    0    0 -0.96001346599E+01 -0.23701820078E+01  0.14379666933E+04  0.14380354625E+04  0.10000000000E+02 0.  1.
</event>
<event>
 5    1  0.1020718E-008  0.3821209E+03  0.7957747E-01  0.3441975E+00
         13   -1    0    0    0    0  0.00000000000E+00  0.00000000000E+00  0.14999999963E+04  0.15000000000E+04  0.10566000000E+00 0. -1.
        994   -1    0    0    0    0 -0.00000000000E+00 -0.00000000000E+00  0.11368683772E-12  0.17120000000E+03  0.17120000000E+03 0.  0.
         13    1    1    2    0    0 -0.10486731270E+02  0.18005707776E+02  0.68865771686E+02  0.71949167606E+02  0.10566000000E+00 0. -1.
        994    1    1    2    0    0  0.28749827780E+01 -0.16922176724E+02  0.40450000708E+01  0.17210586166E+03  0.17120000000E+03 0.  0.
        998    1    1    2    0    0  0.76117484920E+01 -0.10835310520E+01  0.14270892245E+04  0.14271449707E+04  0.10000000000E+02 0. -1.
</event>
<event>
 5    1  0.1020718E-008  0.3925845E+03  0.7957747E-01  0.3398129E+00
         13   -1    0    0    0    0  0.00000000000E+00  0.00000000000E+00  0.14999999963E+04  0.15000000000E+04  0.10566000000E+00 0. -1.
        994   -1    0    0    0    0 -0.00000000000E+00 -0.00000000000E+00  0.11368683772E-12  0.17120000000E+03  0.17120000000E+03 0.  0.
         13    1    1    2    0    0 -0.96439639787E+02 -0.74771350469E+02  0.52126717240E+03  0.53536047217E+03  0.10566000000E+00 0. -1.
        994    1    1    2    0    0 -0.20788514090E+02  0.30727442610E+02  0.28666923517E+02  0.17750371982E+03  0.17120000000E+03 0.  0.
        998    1    1    2    0    0  0.11722815388E+03  0.44043907859E+02  0.95006590036E+03  0.95833580801E+03  0.10000000000E+02 0. -1.
</event>
<event>
 5    1  0.1020718E-008  0.3796065E+03  0.7957747E-01  0.3452874E+00
         13   -1    0    0    0    0  0.00000000000E+00  0.00000000000E+00  0.14999999963E+04  0.15000000000E+04  0.10566000000E+00 0. -1.
        994   -1    0    0    0    0 -0.00000000000E+00 -0.00000000000E+00  0.11368683772E-12  0.17120000000E+03  0.17120000000E+03 0.  0.
         13    1    1    2    0    0 -0.10803104628E+02  0.10691144171E+01  0.11552192913E+02  0.15852898800E+02  0.10566000000E+00 0. -1.
        994    1    1    2    0    0  0.12214964267E+02 -0.91969462460E+01  0.51148759575E+01  0.17195752711E+03  0.17120000000E+03 0.  0.
        998    1    1    2    0    0 -0.14118596400E+01  0.81278318289E+01  0.14833329274E+04  0.14833895741E+04  0.10000000000E+02 0. -1.
</event>
<event>
 5    1  0.1020718E-008  0.3767324E+03  0.7957747E-01  0.3465511E+00
         13   -1    0    0    0    0  0.00000000000E+00  0.00000000000E+00  0.14999999963E+04  0.15000000000E+04  0.10566000000E+00 0. -1.
        994   -1    0    0    0    0 -0.00000000000E+00 -0.00000000000E+00  0.11368683772E-12  0.17120000000E+03  0.17120000000E+03 0.  0.
         13    1    1    2    0    0  0.17895960364E+02  0.76057144954E+01  0.29642272262E+02  0.35451202507E+02  0.10566000000E+00 0. -1.
        994    1    1    2    0    0 -0.16806325130E+02 -0.13591912662E+02  0.73722354476E+01  0.17271648013E+03  0.17120000000E+03 0.  0.
        998    1    1    2    0    0 -0.10896352336E+01  0.59861981663E+01  0.14629854886E+04  0.14630323174E+04  0.10000000000E+02 0. -1.
</event>
<event>
 5    1  0.1020718E-008  0.3830597E+03  0.7957747E-01  0.3437943E+00
         13   -1    0    0    0    0  0.00000000000E+00  0.00000000000E+00  0.14999999963E+04  0.15000000000E+04  0.10566000000E+00 0. -1.
        994   -1    0    0    0    0 -0.00000000000E+00 -0.00000000000E+00  0.11368683772E-12  0.17120000000E+03  0.17120000000E+03 0.  0.
         13    1    1    2    0    0 -0.22237063121E+02 -0.16716551657E+02  0.13684796042E+03  0.13964707484E+03  0.10566000000E+00 0. -1.
        994    1    1    2    0    0  0.21023510435E+02  0.18008921713E+02  0.51367558456E+01  0.17349967007E+03  0.17120000000E+03 0.  0.
        998    1    1    2    0    0  0.12135526863E+01 -0.12923700558E+01  0.13580152800E+04  0.13580532551E+04  0.10000000000E+02 0. -1.
</event>
<event>
 5    1  0.1020718E-008  0.3840209E+03  0.7957747E-01  0.3433835E+00
         13   -1    0    0    0    0  0.00000000000E+00  0.00000000000E+00  0.14999999963E+04  0.15000000000E+04  0.10566000000E+00 0.  1.
        994   -1    0    0    0    0 -0.00000000000E+00 -0.00000000000E+00  0.11368683772E-12  0.17120000000E+03  0.17120000000E+03 0.  0.
         13    1    1    2    0    0 -0.16780122092E+02  0.12927713875E+02  0.88266915205E+02  0.90773111477E+02  0.10566000000E+00 0.  1.
        994    1    1    2    0    0  0.34082500911E+02 -0.23848921789E+02  0.78467882776E+01  0.17635589025E+03  0.17120000000E+03 0.  0.
        998    1    1    2    0    0 -0.17302378820E+02  0.10921207914E+02  0.14038862928E+04  0.14040709983E+04  0.10000000000E+02 0.  1.
</event>
<event>
 5    1  0.1020718E-008  0.3857501E+03  0.7957747E-01  0.3426497E+00
         13   -1    0    0    0    0  0.00000000000E+00  0.00000000000E+00  0.14999999963E+04  0.15000000000E+04  0.10566000000E+00 0.  1.
        994   -1    0    0    0    0 -0.00000000000E+00 -0.00000000000E+00  0.11368683772E-12  0.17120000000E+03  0.17120000000E+03 0.  0.
         13    1    1    2    0    0  0.90461770193E+01 -0.86427289172E+01  0.61698167297E+02  0.62953991880E+02  0.10566000000E+00 0.  1.
        994    1    1    2    0    0 -0.87230224703E+01  0.63155289297E+01  0.16387555938E+01  0.17154621111E+03  0.17120000000E+03 0.  0.
        998    1    1    2    0    0 -0.32315454900E+00  0.23271999875E+01  0.14366630734E+04  0.14366997970E+04  0.10000000000E+02 0.  1.
</event>
<event>
 5    1  0.1020718E-008  0.3849958E+03  0.7957747E-01  0.3429690E+00
         13   -1    0    0    0    0  0.00000000000E+00  0.00000000000E+00  0.14999999963E+04  0.15000000000E+04  0.10566000000E+00 0. -1.
        994   -1    0    0    0    0 -0.00000000000E+00 -0.00000000000E+00  0.11368683772E-12  0.17120000000E+03  0.17120000000E+03 0.  0.
         13    1    1    2    0    0 -0.16319302035E+02 -0.12493776925E+01  0.80236713565E+02  0.81889083102E+02  0.10566000000E+00 0. -1.
        994    1    1    2    0    0  0.13485946162E+02  0.68226563223E+01  0.23837793107E+01  0.17188234868E+03  0.17120000000E+03 0.  0.
        998    1    1    2    0    0  0.28333558732E+01 -0.55732786298E+01  0.14173795034E+04  0.14174285682E+04  0.10000000000E+02 0. -1.
</event>
<event>
 5    1  0.1020718E-008  0.3850812E+03  0.7957747E-01  0.3429328E+00
         13   -1    0    0    0    0  0.00000000000E+00  0.00000000000E+00  0.14999999963E+04  0.15000000000E+04  0.10566000000E+00 0. -1.
        994   -1    0    0    0    0 -0.00000000000E+00 -0.00000000000E+00  0.11368683772E-12  0.17120000000E+03  0.17120000000E+03 0.  0.
         13    1    1    2    0    0 -0.13498495782E+02  0.57349234207E+01  0.68820158526E+02  0.70365645870E+02  0.10566000000E+00 0. -1.
        994    1    1    2    0    0  0.10412927159E+02  0.57912584564E+01  0.20567277094E+01  0.17162644859E+03  0.17120000000E+03 0.  0.
        998    1    1    2    0    0  0.30855686234E+01 -0.11526181877E+02  0.14291231100E+04  0.14292079055E+04  0.10000000000E+02 0. -1.
</event>
<event>
 5    1  0.1020718E-008  0.3795483E+03  0.7957747E-01  0.3453128E+00
         13   -1    0    0    0    0  0.00000000000E+00  0.00000000000E+00  0.14999999963E+04  0.15000000000E+04  0.10566000000E+00 0.  1.
        994   -1    0    0    0    0 -0.00000000000E+00 -0.00000000000E+00  0.11368683772E-12  0.17120000000E+03  0.17120000000E+03 0.  0.
         13    1    1    2    0    0 -0.57485148676E+01 -0.10645618145E+02  0.14719931628E+02  0.19054190091E+02  0.10566000000E+00 0.  1.
        994    1    1    2    0    0  0.28908595597E+01  0.13818965233E+02  0.50289302336E+01  0.17185473810E+03  0.17120000000E+03 0.  0.
        998    1    1    2    0    0  0.28576553079E+01 -0.31733470882E+01  0.14802511344E+04  0.14802910718E+04  0.10000000000E+02 0.  1.
</event>
<event>
 5    1  0.1020718E-008  0.3832215E+03  0.7957747E-01  0.3437250E+00
         13   -1    0    0    0    0  0.00000000000E+00  0.00000000000E+00  0.14999999963E+04  0.15000000000E+04  0.10566000000E+00 0. -1.
        994   -1    0    0    0    0 -0.00000000000E+00 -0.00000000000E+00  0.11368683772E-12  0.17120000000E+03  0.17120000000E+03 0.  0.
         13    1    1    2    0    0 -0.23168523830E+02 -0.34494905608E+01  0.12475378380E+03  0.12693383007E+03  0.10566000000E+00 0. -1.
        994    1    1    2    0    0 -0.68145034259E+01  0.17058632374E+02  0.36326458333E+01  0.17222099324E+03  0.17120000000E+03 0.  0.
        998    1    1    2    0    0  0.29983027256E+02 -0.13609141813E+02  0.13716135666E+04  0.13720451767E+04  0.10000000000E+02 0. -1.
</event>
<event>
 5    1  0.1020718E-008  0.3854186E+03  0.7957747E-01  0.3427899E+00
         13   -1    0    0    0    0  0.00000000000E+00  0.00000000000E+00  0.14999999963E+04  0.15000000000E+04  0.10566000000E+00 0.  1.
        994   -1    0    0    0    0 -0.00000000000E+00 -0.00000000000E+00  0.11368683772E-12  0.17120000000E+03  0.17120000000E+03 0.  0.
         13    1    1    2    0    0 -0.13900090411E+02 -0.50315579725E+01  0.75489209795E+02  0.76923085277E+02  0.10566000000E+00 0.  1.
        994    1    1    2    0    0  0.11351313517E+02  0.58853724767E+01  0.19595602651E+01  0.17168800134E+03  0.17120000000E+03 0.  0.
        998    1    1    2    0    0  0.25487768943E+01 -0.85381450427E+00  0.14225512262E+04  0.14225889134E+04  0.10000000000E+02 0.  1.
</event>
<event>
 5    1  0.1020718E-008  0.3797657E+03  0.7957747E-01  0.3452180E+00
         13   -1    0    0    0    0  0.00000000000E+00  0.00000000000E+00  0.14999999963E+04  0.15000000000E+04  0.10566000000E+00 0. -1.
        994   -1    0    0    0    0 -0.00000000000E+00 -0.00000000000E+00  0.11368683772E-12  0.17120000000E+03  0.17120000000E+03 0.  0.
         13    1    1    2    0    0  0.12216989254E+02 -0.18724666609E+03  0.96298208242E+03  0.98109381357E+03  0.10566000000E+00 0. -1.
        994    1    1    2    0    0 -0.26458173572E+02  0.19324510279E+03  0.14427399223E+03  0.29693118653E+03  0.17120000000E+03 0.  0.
        998    1    1    2    0    0  0.14241184318E+02 -0.59984366984E+01  0.39274392162E+03  0.39317499990E+03  0.10000000000E+02 0. -1.
</event>
<event>
 5    1  0.1020718E-008  0.3815986E+03  0.7957747E-01  0.3444227E+00
         13   -1    0    0    0    0  0.00000000000E+00  0.00000000000E+00  0.14999999963E+04  0.15000000000E+04  0.10566000000E+00 0.  1.
        994   -1    0    0    0    0 -0.00000000000E+00 -0.00000000000E+00  0.11368683772E-12  0.17120000000E+03  0.17120000000E+03 0.  0.
         13    1    1    2    0    0  0.24494502687E+02  0.25402013321E+01  0.84005337175E+02  0.87540511322E+02  0.10566000000E+00 0.  1.
        994    1    1    2    0    0 -0.28697122618E+02 -0.11966108694E+01  0.60764721479E+01  0.17369893563E+03  0.17120000000E+03 0.  0.
        998    1    1    2    0    0  0.42026199311E+01 -0.13435904628E+01  0.14099181870E+04  0.14099605531E+04  0.10000000000E+02 0.  1.
</event>
<event>
 5    1  0.1020718E-008  0.3823917E+03  0.7957747E-01  0.3440810E+00
         13   -1    0    0    0    0  0.00000000000E+00  0.00000000000E+00  0.14999999963E+04  0.15000000000E+04  0.10566000000E+00 0. -1.
        994   -1    0    0    0    0 -0.00000000000E+00 -0.00000000000E+00  0.11368683772E-12  0.17120000000E+03  0.17120000000E+03 0.  0.
         13    1    1    2    0    0  0.11786337589E+02 -0.53802081667E+01  0.28408637235E+02  0.31223808660E+02  0.10566000000E+00 0. -1.
        994    1    1    2    0    0 -0.24532789735E+01 -0.51558418706E+01  0.30388034414E+01  0.17132213987E+03  0.17120000000E+03 0.  0.
        998    1    1    2    0    0 -0.93330586153E+01  0.10536050037E+02  0.14685525556E+04  0.14686540515E+04  0.10000000000E+02 0. -1.
</event>
<event>
 5    1  0.1020718E-008  0.3794124E+03  0.7957747E-01  0.3453721E+00
         13   -1    0    0    0    0  0.00000000000E+00  0.00000000000E+00  0.14999999963E+04  0.15000000000E+04  0.10566000000E+00 0. -1.
        994   -1    0    0    0    0 -0.00000000000E+00 -0.00000000000E+00  0.11368683772E-12  0.17120000000E+03  0.17120000000E+03 0.  0.
         13    1    1    2    0    0  0.47906981344E+02  0.58156343601E+02  0.43375505681E+03  0.44025072360E+03  0.10566000000E+00 0. -1.
        994    1    1    2    0    0 -0.51394280357E+02 -0.60172631384E+02  0.25698482045E+02  0.19034697161E+03  0.17120000000E+03 0.  0.
        998    1    1    2    0    0  0.34872990127E+01  0.20162877831E+01  0.10405464574E+04  0.10406023048E+04  0.10000000000E+02 0.  0.
</event>
<event>
 5    1  0.1020718E-008  0.3966369E+03  0.7957747E-01  0.3381770E+00
         13   -1    0    0    0    0  0.00000000000E+00  0.00000000000E+00  0.14999999963E+04  0.15000000000E+04  0.10566000000E+00 0. -1.
        994   -1    0    0    0    0 -0.00000000000E+00 -0.00000000000E+00  0.11368683772E-12  0.17120000000E+03  0.17120000000E+03 0.  0.
         13    1    1    2    0    0  0.80893818234E+01  0.29486707978E+02  0.70579527484E+01  0.31380406414E+02  0.10566000000E+00 0. -1.
        994    1    1    2    0    0 -0.40371693935E+01 -0.36059312518E+02  0.30884235779E+02  0.17770719956E+03  0.17120000000E+03 0.  0.
        998    1    1    2    0    0 -0.40522124299E+01  0.65726045402E+01  0.14620578078E+04  0.14621123940E+04  0.10000000000E+02 0. -1.
</event>
<event>
 5    1  0.1020718E-008  0.3852719E+03  0.7957747E-01  0.3428520E+00
         13   -1    0    0    0    0  0.00000000000E+00  0.00000000000E+00  0.14999999963E+04  0.15000000000E+04  0.10566000000E+00 0.  1.
        994   -1    0    0    0    0 -0.00000000000E+00 -0.00000000000E+00  0.11368683772E-12  0.17120000000E+03  0.17120000000E+03 0.  0.
         13    1    1    2    0    0  0.87978707968E+01  0.91446000900E+01  0.54334126025E+02  0.55796367769E+02  0.10566000000E+00 0.  1.
        994    1    1    2    0    0 -0.10981541010E+00 -0.10146302787E+02  0.18335913689E+01  0.17151023753E+03  0.17120000000E+03 0.  0.
        998    1    1    2    0    0 -0.86880553867E+01  0.10017026966E+01  0.14438322789E+04  0.14438933947E+04  0.10000000000E+02 0.  1.
</event>
<event>
 5    1  0.1020718E-008  0.3801734E+03  0.7957747E-01  0.3450404E+00
         13   -1    0    0    0    0  0.00000000000E+00  0.00000000000E+00  0.14999999963E+04  0.15000000000E+04  0.10566000000E+00 0.  1.
        994   -1    0    0    0    0 -0.00000000000E+00 -0.00000000000E+00  0.11368683772E-12  0.17120000000E+03  0.17120000000E+03 0.  0.
         13    1    1    2    0    0  0.94415397642E+01 -0.58011176101E+01  0.13511874663E+02  0.17475055353E+02  0.10566000000E+00 0.  1.
        994    1    1    2    0    0 -0.28339670934E+01  0.56837204264E+01  0.41803986953E+01  0.17136875964E+03  0.17120000000E+03 0.  0.
        998    1    1    2    0    0 -0.66075726708E+01  0.11739718372E+00  0.14823077229E+04  0.14823561850E+04  0.10000000000E+02 0.  1.
</event>
<event>
 5    1  0.1020718E-008  0.3787202E+03  0.7957747E-01  0.3456750E+00
         13   -1    0    0    0    0  0.00000000000E+00  0.00000000000E+00  0.14999999963E+04  0.15000000000E+04  0.10566000000E+00 0. -1.
        994   -1    0    0    0    0 -0.00000000000E+00 -0.00000000000E+00  0.11368683772E-12  0.17120000000E+03  0.17120000000E+03 0.  0.
         13    1    1    2    0    0  0.33263837685E+02  0.32752057262E+02  0.22862961816E+03  0.23334672404E+03  0.10566000000E+00 0. -1.
        994    1    1    2    0    0 -0.17434881588E+02 -0.18485549059E+02  0.69512317959E+01  0.17321504047E+03  0.17120000000E+03 0.  0.
        998    1    1    2    0    0 -0.15828956097E+02 -0.14266508203E+02  0.12644191463E+04  0.12646382355E+04  0.10000000000E+02 0. -1.
</event>
<event>
 5    1  0.1020718E-008  0.3862453E+03  0.7957747E-01  0.3424408E+00
         13   -1    0    0    0    0  0.00000000000E+00  0.00000000000E+00  0.14999999963E+04  0.15000000000E+04  0.10566000000E+00 0.  1.
        994   -1    0    0    0    0 -0.00000000000E+00 -0.00000000000E+00  0.11368683772E-12  0.17120000000E+03  0.17120000000E+03 0.  0.
         13    1    1    2    0    0 -0.79250145816E+01  0.61907845824E+01  0.49727883864E+02  0.50734655488E+02  0.10566000000E+00 0.  1.
        994    1    1    2    0    0  0.11031104317E+01 -0.14519595241E+02  0.17079256692E+01  0.17182663504E+03  0.17120000000E+03 0.  0.
        998    1    1    2    0    0  0.68219041498E+01  0.83288106586E+01  0.14485641867E+04  0.14486387095E+04  0.10000000000E+02 0.  1.
</event>
<event>
 5    1  0.1020718E-008  0.3717110E+03  0.7957747E-01  0.3488064E+00
         13   -1    0    0    0    0  0.00000000000E+00  0.00000000000E+00  0.14999999963E+04  0.15000000000E+04  0.10566000000E+00 0. -1.
        994   -1    0    0    0    0 -0.00000000000E+00 -0.00000000000E+00  0.11368683772E-12  0.17120000000E+03  0.17120000000E+03 0.  0.
         13    1    1    2    0    0  0.76069231871E+02 -0.10137042381E+02  0.27494326127E+03  0.28545244043E+03  0.10566000000E+00 0. -1.
        994    1    1    2    0    0 -0.81098829264E+02  0.10110324702E+02  0.31698557073E+02  0.19233688490E+03  0.17120000000E+03 0.  0.
        998    1    1    2    0    0  0.50295973925E+01  0.26717679705E-01  0.11933581779E+04  0.11934106747E+04  0.10000000000E+02 0.  0.
</event>
<event>
 5    1  0.1020718E-008  0.3744279E+03  0.7957747E-01  0.3475785E+00
         13   -1    0    0    0    0  0.00000000000E+00  0.00000000000E+00  0.14999999963E+04  0.15000000000E+04  0.10566000000E+00 0.  1.
        994   -1    0    0    0    0 -0.00000000000E+00 -0.00000000000E+00  0.11368683772E-12  0.17120000000E+03  0.17120000000E+03 0.  0.
         13    1    1    2    0    0  0.55002392990E+02 -0.17570368108E+02  0.20738926415E+03  0.21527726103E+03  0.10566000000E+00 0.  1.
        994    1    1    2    0    0 -0.52365280493E+02  0.19778882858E+02  0.17720169742E+02  0.18098831792E+03  0.17120000000E+03 0.  0.
        998    1    1    2    0    0 -0.26371124973E+01 -0.22085147498E+01  0.12748905624E+04  0.12749344210E+04  0.10000000000E+02 0.  0.
</event>
<event>
 5    1  0.1020718E-008  0.3690315E+03  0.7957747E-01  0.3500354E+00
         13   -1    0    0    0    0  0.00000000000E+00  0.00000000000E+00  0.14999999963E+04  0.15000000000E+04  0.10566000000E+00 0. -1.
        994   -1    0    0    0    0 -0.00000000000E+00 -0.00000000000E+00  0.11368683772E-12  0.17120000000E+03  0.17120000000E+03 0.  0.
         13    1    1    2    0    0  0.34711612467E+01 -0.44874428788E+02  0.92499029745E+02  0.10286809509E+03  0.10566000000E+00 0. -1.
        994    1    1    2    0    0  0.76125589512E+01  0.51453968257E+02  0.19221480881E+02  0.17995657040E+03  0.17120000000E+03 0.  0.
        998    1    1    2    0    0 -0.11083720198E+02 -0.65795394692E+01  0.13882794857E+04  0.13883753345E+04  0.10000000000E+02 0. -1.
</event>
<event>
 5    1  0.1020718E-008  0.3778243E+03  0.7957747E-01  0.3460687E+00
         13   -1    0    0    0    0  0.00000000000E+00  0.00000000000E+00  0.14999999963E+04  0.15000000000E+04  0.10566000000E+00 0.  1.
        994   -1    0    0    0    0 -0.00000000000E+00 -0.00000000000E+00  0.11368683772E-12  0.17120000000E+03  0.17120000000E+03 0.  0.
         13    1    1    2    0    0  0.38305459024E+01  0.10138514519E+02  0.91420877346E+01  0.14179262701E+02  0.10566000000E+00 0.  1.
        994    1    1    2    0    0  0.28530350899E+01  0.55752984660E+01  0.53675552224E+01  0.17139858346E+03  0.17120000000E+03 0.  0.
        998    1    1    2    0    0 -0.66835809922E+01 -0.15713812985E+02  0.14854903533E+04  0.14856221538E+04  0.10000000000E+02 0.  1.
</event>
<event>
 5    1  0.1020718E-008  0.3725683E+03  0.7957747E-01  0.3484170E+00
         13   -1    0    0    0    0  0.00000000000E+00  0.00000000000E+00  0.14999999963E+04  0.15000000000E+04  0.10566000000E+00 0. -1.
        994   -1    0    0    0    0 -0.00000000000E+00 -0.00000000000E+00  0.11368683772E-12  0.17120000000E+03  0.17120000000E+03 0.  0.
         13    1    1    2    0    0  0.47351673017E+02 -0.98994803614E+02  0.51748007008E+03  0.52898751041E+03  0.10566000000E+00 0. -1.
        994    1    1    2    0    0 -0.54968667547E+02  0.88388950849E+02  0.46029955669E+02  0.20557810648E+03  0.17120000000E+03 0.  0.
        998    1    1    2    0    0  0.76169945305E+01  0.10605852765E+02  0.93648997053E+03  0.93663438311E+03  0.10000000000E+02 0. -1.
</event>
<event>
 5    1  0.1020718E-008  0.3787038E+03  0.7957747E-01  0.3456822E+00
         13   -1    0    0    0    0  0.00000000000E+00  0.00000000000E+00  0.14999999963E+04  0.15000000000E+04  0.10566000000E+00 0. -1.
        994   -1    0    0    0    0 -0.00000000000E+00 -0.00000000000E+00  0.11368683772E-12  0.17120000000E+03  0.17120000000E+03 0.  0.
         13    1    1    2    0    0  0.43720276577E+02 -0.43375869435E+02  0.29994772090E+03  0.30620511927E+03  0.10566000000E+00 0. -1.
        994    1    1    2    0    0 -0.45102252503E+02  0.50750182979E+02  0.20424454966E+02  0.18530081655E+03  0.17120000000E+03 0.  0.
        998    1    1    2    0    0  0.13819759255E+01 -0.73743135437E+01  0.11796278204E+04  0.11796940642E+04  0.10000000000E+02 0. -1.
</event>
<event>
 5    1  0.1020718E-008  0.3860618E+03  0.7957747E-01  0.3425182E+00
         13   -1    0    0    0    0  0.00000000000E+00  0.00000000000E+00  0.14999999963E+04  0.15000000000E+04  0.10566000000E+00 0.  1.
        994   -1    0    0    0    0 -0.00000000000E+00 -0.00000000000E+00  0.11368683772E-12  0.17120000000E+03  0.17120000000E+03 0.  0.
         13    1    1    2    0    0  0.11039130740E+02 -0.16133050519E+01  0.61340578286E+02  0.62346955572E+02  0.10566000000E+00 0.  1.
        994    1    1    2    0    0  0.28426871757E+01  0.57241721786E+01  0.12377899329E+01  0.17132372615E+03  0.17120000000E+03 0.  0.
        998    1    1    2    0    0 -0.13881817915E+02 -0.41108671266E+01  0.14374216281E+04  0.14375293183E+04  0.10000000000E+02 0.  1.
</event>
<event>
 5    1  0.1766448E-008  0.3863508E+03  0.7957747E-01  0.3423963E+00
         13   -1    0    0    0    0  0.00000000000E+00  0.00000000000E+00  0.14999999963E+04  0.15000000000E+04  0.10566000000E+00 0. -1.
        994   -1    0    0    0    0 -0.00000000000E+00 -0.00000000000E+00  0.11368683772E-12  0.17120000000E+03  0.17120000000E+03 0.  0.
         13    1    1    2    0    0 -0.30724779212E+01  0.10882901568E+02  0.55337202670E+02  0.56480924483E+02  0.10566000000E+00 0. -1.
        994    1    1    2    0    0  0.14243632128E+02 -0.32844859564E+02  0.51688033448E+01  0.17497949132E+03  0.17120000000E+03 0.  0.
        998    1    1    2    0    0 -0.11171154207E+02  0.21961957996E+02  0.14394939903E+04  0.14397395842E+04  0.10000000000E+02 0. -1.
</event>
<event>
 5    1  0.1020718E-008  0.3769582E+03  0.7957747E-01  0.3464511E+00
         13   -1    0    0    0    0  0.00000000000E+00  0.00000000000E+00  0.14999999963E+04  0.15000000000E+04  0.10566000000E+00 0. -1.
        994   -1    0    0    0    0 -0.00000000000E+00 -0.00000000000E+00  0.11368683772E-12  0.17120000000E+03  0.17120000000E+03 0.  0.
         13    1    1    2    0    0  0.11122258488E+01  0.11711898103E+02  0.95946279885E+01  0.15181358759E+02  0.10566000000E+00 0. -1.
        994    1    1    2    0    0  0.22190353844E+01 -0.10782290565E+02  0.60859111440E+01  0.17166146982E+03  0.17120000000E+03 0.  0.
        998    1    1    2    0    0 -0.33312612333E+01 -0.92960753785E+00  0.14843194571E+04  0.14843571714E+04  0.10000000000E+02 0. -1.
</event>
<event>
 5    1  0.1020718E-008  0.3857650E+03  0.7957747E-01  0.3426434E+00
         13   -1    0    0    0    0  0.00000000000E+00  0.00000000000E+00  0.14999999963E+04  0.15000000000E+04  0.10566000000E+00 0. -1.
        994   -1    0    0    0    0 -0.00000000000E+00 -0.00000000000E+00  0.11368683772E-12  0.17120000000E+03  0.17120000000E+03 0.  0.
         13    1    1    2    0    0 -0.46381294567E+02  0.55768041994E+02  0.12104619382E+03  0.14111516997E+03  0.10566000000E+00 0. -1.
        994    1    1    2    0    0  0.43286229364E+02 -0.50554089383E+02  0.36118771583E+02  0.18719887624E+03  0.17120000000E+03 0.  0.
        998    1    1    2    0    0  0.30950652033E+01 -0.52139526108E+01  0.13428350309E+04  0.13428859538E+04  0.10000000000E+02 0. -1.
</event>
<event>
 5    1  0.1020718E-008  0.3823003E+03  0.7957747E-01  0.3441203E+00
         13   -1    0    0    0    0  0.00000000000E+00  0.00000000000E+00  0.14999999963E+04  0.15000000000E+04  0.10566000000E+00 0.  1.
        994   -1    0    0    0    0 -0.00000000000E+00 -0.00000000000E+00  0.11368683772E-12  0.17120000000E+03  0.17120000000E+03 0.  0.
         13    1    1    2    0    0 -0.34647373310E+02  0.52462478592E+02  0.10915871371E+03  0.12596979034E+03  0.10566000000E+00 0.  1.
        994    1    1    2    0    0  0.33759503978E+02 -0.18959619482E+02  0.23094840885E+02  0.17703667122E+03  0.17120000000E+03 0.  0.
        998    1    1    2    0    0  0.88786933237E+00 -0.33502859109E+02  0.13677464417E+04  0.13681935384E+04  0.10000000000E+02 0.  1.
</event>
<event>
 5    1  0.1020718E-008  0.3851622E+03  0.7957747E-01  0.3428985E+00
         13   -1    0    0    0    0  0.00000000000E+00  0.00000000000E+00  0.14999999963E+04  0.15000000000E+04  0.10566000000E+00 0. -1.
        994   -1    0    0    0    0 -0.00000000000E+00 -0.00000000000E+00  0.11368683772E-12  0.17120000000E+03  0.17120000000E+03 0.  0.
         13    1    1    2    0    0  0.97774199620E+01 -0.10980992773E+02  0.71539379442E+02  0.73034745966E+02  0.10566000000E+00 0. -1.
        994    1    1    2    0    0 -0.40624048429E+01  0.47063084118E+01  0.16767033012E+01  0.17132105477E+03  0.17120000000E+03 0.  0.
        998    1    1    2    0    0 -0.57150151191E+01  0.62746843613E+01  0.14267839135E+04  0.14268441993E+04  0.10000000000E+02 0. -1.
</event>
<event>
 5    1  0.1020718E-008  0.3823821E+03  0.7957747E-01  0.3440852E+00
         13   -1    0    0    0    0  0.00000000000E+00  0.00000000000E+00  0.14999999963E+04  0.15000000000E+04  0.10566000000E+00 0. -1.
        994   -1    0    0    0    0 -0.00000000000E+00 -0.00000000000E+00  0.11368683772E-12  0.17120000000E+03  0.17120000000E+03 0.  0.
         13    1    1    2    0    0  0.17223644202E+02 -0.21276655445E+02  0.13537912341E+03  0.13811903636E+03  0.10566000000E+00 0. -1.
        994    1    1    2    0    0 -0.88037055484E+01  0.20710014331E+01  0.32068358498E+01  0.17146870873E+03  0.17120000000E+03 0.  0.
        998    1    1    2    0    0 -0.84199386541E+01  0.19205654012E+02  0.13614140370E+04  0.13616122549E+04  0.10000000000E+02 0. -1.
</event>
<event>
 5    1  0.1020718E-008  0.3701981E+03  0.7957747E-01  0.3494981E+00
         13   -1    0    0    0    0  0.00000000000E+00  0.00000000000E+00  0.14999999963E+04  0.15000000000E+04  0.10566000000E+00 0.  1.
        994   -1    0    0    0    0 -0.00000000000E+00 -0.00000000000E+00  0.11368683772E-12  0.17120000000E+03  0.17120000000E+03 0.  0.
         13    1    1    2    0    0  0.40124454102E+02 -0.19656198696E+02  0.12897850218E+03  0.13649836319E+03  0.10566000000E+00 0.  1.
        994    1    1    2    0    0  0.15057013422E+02 -0.12586788692E+02  0.10497456192E+02  0.17264060209E+03  0.17120000000E+03 0.  0.
        998    1    1    2    0    0 -0.55181467524E+02  0.32242987388E+02  0.13605240379E+04  0.13620610347E+04  0.10000000000E+02 0.  1.
</event>
<event>
 5    1  0.1020718E-008  0.3785861E+03  0.7957747E-01  0.3457338E+00
         13   -1    0    0    0    0  0.00000000000E+00  0.00000000000E+00  0.14999999963E+04  0.15000000000E+04  0.10566000000E+00 0.  1.
        994   -1    0    0    0    0 -0.00000000000E+00 -0.00000000000E+00  0.11368683772E-12  0.17120000000E+03  0.17120000000E+03 0.  0.
         13    1    1    2    0    0 -0.37231646844E+01 -0.21211954349E+02  0.48726802343E+02  0.53274021747E+02  0.10566000000E+00 0.  1.
        994    1    1    2    0    0  0.89240032876E+01 -0.41338766202E+01  0.51735250023E+01  0.17156028716E+03  0.17120000000E+03 0.  0.
        998    1    1    2    0    0 -0.52008386032E+01  0.25345830969E+02  0.14460996689E+04  0.14463656911E+04  0.10000000000E+02 0.  1.
</event>
<event>
 5    1  0.1020718E-008  0.3826910E+03  0.7957747E-01  0.3439524E+00
         13   -1    0    0    0    0  0.00000000000E+00  0.00000000000E+00  0.14999999963E+04  0.15000000000E+04  0.10566000000E+00 0.  1.
        994   -1    0    0    0    0 -0.00000000000E+00 -0.00000000000E+00  0.11368683772E-12  0.17120000000E+03  0.17120000000E+03 0.  0.
         13    1    1    2    0    0  0.15994485730E+02 -0.11952788175E+02  0.66937631220E+02  0.69852346820E+02  0.10566000000E+00 0.  1.
        994    1    1    2    0    0 -0.17540474519E+02  0.16801190724E+02  0.47380811885E+01  0.17297929838E+03  0.17120000000E+03 0.  0.
        998    1    1    2    0    0  0.15459887885E+01 -0.48484025489E+01  0.14283242839E+04  0.14283683548E+04  0.10000000000E+02 0. -1.
</event>
<event>
 5    1  0.1020718E-008  0.3776825E+03  0.7957747E-01  0.3461312E+00
         13   -1    0    0    0    0  0.00000000000E+00  0.00000000000E+00  0.14999999963E+04  0.15000000000E+04  0.10566000000E+00 0. -1.
        994   -1    0    0    0    0 -0.00000000000E+00 -0.00000000000E+00  0.11368683772E-12  0.17120000000E+03  0.17120000000E+03 0.  0.
         13    1    1    2    0    0  0.54468972310E-01  0.11189848264E+02  0.93852987582E+01  0.14605158947E+02  0.10566000000E+00 0. -1.
        994    1    1    2    0    0 -0.91396547409E-01 -0.92384012352E+01  0.55951900174E+01  0.17154038172E+03  0.17120000000E+03 0.  0.
        998    1    1    2    0    0  0.36927575099E-01 -0.19514470288E+01  0.14850195075E+04  0.14850544593E+04  0.10000000000E+02 0. -1.
</event>
<event>
 5    1  0.1020718E-008  0.3847939E+03  0.7957747E-01  0.3430547E+00
         13   -1    0    0    0    0  0.00000000000E+00  0.00000000000E+00  0.14999999963E+04  0.15000000000E+04  0.10566000000E+00 0.  1.
        994   -1    0    0    0    0 -0.00000000000E+00 -0.00000000000E+00  0.11368683772E-12  0.17120000000E+03  0.17120000000E+03 0.  0.
         13    1    1    2    0    0  0.11368938638E+00  0.20432309405E+02  0.12015379192E+03  0.12187878023E+03  0.10566000000E+00 0.  1.
        994    1    1    2    0    0 -0.27613757515E+01 -0.13039367471E+02  0.23173534152E+01  0.17173369042E+03  0.17120000000E+03 0.  0.
        998    1    1    2    0    0  0.26476863652E+01 -0.73929419343E+01  0.13775288509E+04  0.13775875293E+04  0.10000000000E+02 0.  0.
</event>
<event>
 5    1  0.1209675E-008  0.3859826E+03  0.7957747E-01  0.3425516E+00
         13   -1    0    0    0    0  0.00000000000E+00  0.00000000000E+00  0.14999999963E+04  0.15000000000E+04  0.10566000000E+00 0.  1.
        994   -1    0    0    0    0 -0.00000000000E+00 -0.00000000000E+00  0.11368683772E-12  0.17120000000E+03  0.17120000000E+03 0.  0.
         13    1    1    2    0    0  0.71782407612E+00 -0.11659306134E+02  0.57628911865E+02  0.58800997761E+02  0.10566000000E+00 0.  1.
        994    1    1    2    0    0 -0.32420153017E+01  0.14290042092E+02  0.18472813324E+01  0.17183587639E+03  0.17120000000E+03 0.  0.
        998    1    1    2    0    0  0.25241912256E+01 -0.26307359574E+01  0.14405238031E+04  0.14405631258E+04  0.10000000000E+02 0.  1.
</event>
<event>
 5    1  0.1020718E-008  0.3839657E+03  0.7957747E-01  0.3434071E+00
         13   -1    0    0    0    0  0.00000000000E+00  0.00000000000E+00  0.14999999963E+04  0.15000000000E+04  0.10566000000E+00 0.  1.
        994   -1    0    0    0    0 -0.00000000000E+00 -0.00000000000E+00  0.11368683772E-12  0.17120000000E+03  0.17120000000E+03 0.  0.
         13    1    1    2    0    0 -0.81781567333E+01 -0.15987404013E+02  0.73738567757E+02  0.75893786792E+02  0.10566000000E+00 0.  1.
        994    1    1    2    0    0  0.72098317721E+01  0.11897451685E+02  0.27833845494E+01  0.17178683960E+03  0.17120000000E+03 0.  0.
        998    1    1    2    0    0  0.96832496121E+00  0.40899523280E+01  0.14234780440E+04  0.14235193736E+04  0.10000000000E+02 0.  1.
</event>
<event>
 5    1  0.1020718E-008  0.3843621E+03  0.7957747E-01  0.3432382E+00
         13   -1    0    0    0    0  0.00000000000E+00  0.00000000000E+00  0.14999999963E+04  0.15000000000E+04  0.10566000000E+00 0.  1.
        994   -1    0    0    0    0 -0.00000000000E+00 -0.00000000000E+00  0.11368683772E-12  0.17120000000E+03  0.17120000000E+03 0.  0.
         13    1    1    2    0    0 -0.37242719817E+01 -0.10723668087E+02  0.34402408474E+02  0.36227118736E+02  0.10566000000E+00 0.  1.
        994    1    1    2    0    0 -0.48416487357E+01 -0.28366418305E+01  0.20509697104E+01  0.17130421646E+03  0.17120000000E+03 0.  0.
        998    1    1    2    0    0  0.85659207174E+01  0.13560309917E+02  0.14635466181E+04  0.14636686648E+04  0.10000000000E+02 0.  1.
</event>
<event>
 5    1  0.1020718E-008  0.3840875E+03  0.7957747E-01  0.3433552E+00
         13   -1    0    0    0    0  0.00000000000E+00  0.00000000000E+00  0.14999999963E+04  0.15000000000E+04  0.10566000000E+00 0. -1.
        994   -1    0    0    0    0 -0.00000000000E+00 -0.00000000000E+00  0.11368683772E-12  0.17120000000E+03  0.17120000000E+03 0.  0.
         13    1    1    2    0    0  0.65847148877E+01 -0.92619004279E+01  0.30614250543E+02  0.32655547309E+02  0.10566000000E+00 0. -1.
        994    1    1    2    0    0 -0.56643735825E+01  0.36275342273E+01  0.22331193260E+01  0.17134663975E+03  0.17120000000E+03 0.  0.
        998    1    1    2    0    0 -0.92034130526E+00  0.56343662006E+01  0.14671526264E+04  0.14671978129E+04  0.10000000000E+02 0. -1.
</event>
<event>
 5    1  0.1020718E-008  0.3830406E+03  0.7957747E-01  0.3438025E+00
         13   -1    0    0    0    0  0.00000000000E+00  0.00000000000E+00  0.14999999963E+04  0.15000000000E+04  0.10566000000E+00 0. -1.
        994   -1    0    0    0    0 -0.00000000000E+00 -0.00000000000E+00  0.11368683772E-12  0.17120000000E+03  0.17120000000E+03 0.  0.
         13    1    1    2    0    0 -0.52969878475E+01  0.11841784373E+02  0.30974408373E+02  0.33581409671E+02  0.10566000000E+00 0. -1.
        994    1    1    2    0    0  0.89883303716E+01 -0.99192799288E+01  0.31993317286E+01  0.17175231562E+03  0.17120000000E+03 0.  0.
        998    1    1    2    0    0 -0.36913425241E+01 -0.19225044438E+01  0.14658262562E+04  0.14658662747E+04  0.10000000000E+02 0. -1.
</event>
<event>
 5    1  0.1020718E-008  0.3853290E+03  0.7957747E-01  0.3428278E+00
         13   -1    0    0    0    0  0.00000000000E+00  0.00000000000E+00  0.14999999963E+04  0.15000000000E+04  0.10566000000E+00 0. -1.
        994   -1    0    0    0    0 -0.00000000000E+00 -0.00000000000E+00  0.11368683772E-12  0.17120000000E+03  0.17120000000E+03 0.  0.
         13    1    1    2    0    0  0.14803405239E+02 -0.53605664943E+00  0.72973544916E+02  0.74461920369E+02  0.10566000000E+00 0. -1.
        994    1    1    2    0    0 -0.13739137765E+02 -0.47486592778E+00  0.20879759715E+01  0.17176375941E+03  0.17120000000E+03 0.  0.
        998    1    1    2    0    0 -0.10642674741E+01  0.10109225772E+01  0.14249384754E+04  0.14249743202E+04  0.10000000000E+02 0. -1.
</event>
<event>
 5    1  0.1020718E-008  0.3854290E+03  0.7957747E-01  0.3427855E+00
         13   -1    0    0    0    0  0.00000000000E+00  0.00000000000E+00  0.14999999963E+04  0.15000000000E+04  0.10566000000E+00 0.  1.
        994   -1    0    0    0    0 -0.00000000000E+00 -0.00000000000E+00  0.11368683772E-12  0.17120000000E+03  0.17120000000E+03 0.  0.
         13    1    1    2    0    0  0.45850606489E+02  0.64949324309E+02  0.14173961133E+03  0.16251406533E+03  0.10566000000E+00 0.  1.
        994    1    1    2    0    0 -0.55537253129E+02 -0.60535319929E+02  0.44747032369E+02  0.19509138461E+03  0.17120000000E+03 0.  0.
        998    1    1    2    0    0  0.96866466397E+01 -0.44140043794E+01  0.13135133526E+04  0.13135945501E+04  0.10000000000E+02 0.  1.
</event>
<event>
 5    1  0.1020718E-008  0.3784783E+03  0.7957747E-01  0.3457811E+00
         13   -1    0    0    0    0  0.00000000000E+00  0.00000000000E+00  0.14999999963E+04  0.15000000000E+04  0.10566000000E+00 0. -1.
        994   -1    0    0    0    0 -0.00000000000E+00 -0.00000000000E+00  0.11368683772E-12  0.17120000000E+03  0.17120000000E+03 0.  0.
         13    1    1    2    0    0  0.49185033958E+01 -0.25031074259E+02  0.62502775039E+02  0.67508180289E+02  0.10566000000E+00 0. -1.
        994    1    1    2    0    0 -0.39911027191E+00  0.24939529401E+02  0.69963577836E+01  0.17314886208E+03  0.17120000000E+03 0.  0.
        998    1    1    2    0    0 -0.45193931239E+01  0.91544858411E-01  0.14305008635E+04  0.14305429576E+04  0.10000000000E+02 0. -1.
</event>
<event>
 5    1  0.1020718E-008  0.3848952E+03  0.7957747E-01  0.3430117E+00
         13   -1    0    0    0    0  0.00000000000E+00  0.00000000000E+00  0.14999999963E+04  0.15000000000E+04  0.10566000000E+00 0.  1.
        994   -1    0    0    0    0 -0.00000000000E+00 -0.00000000000E+00  0.11368683772E-12  0.17120000000E+03  0.17120000000E+03 0.  0.
         13    1    1    2    0    0  0.11124085329E+02 -0.15115117016E+02  0.10234182913E+03  0.10404841753E+03  0.10566000000E+00 0.  1.
        994    1    1    2    0    0 -0.15162837110E+02  0.73730187055E+01  0.26179056278E+01  0.17204815159E+03  0.17120000000E+03 0.  0.
        998    1    1    2    0    0  0.40387517811E+01  0.77420983101E+01  0.13950402615E+04  0.13951034309E+04  0.10000000000E+02 0.  1.
</event>
<event>
 5    1  0.1020718E-008  0.3747501E+03  0.7957747E-01  0.3474341E+00
         13   -1    0    0    0    0  0.00000000000E+00  0.00000000000E+00  0.14999999963E+04  0.15000000000E+04  0.10566000000E+00 0. -1.
        994   -1    0    0    0    0 -0.00000000000E+00 -0.00000000000E+00  0.11368683772E-12  0.17120000000E+03  0.17120000000E+03 0.  0.
         13    1    1    2    0    0 -0.50725356245E+02 -0.12492413351E+02  0.89824470821E+02  0.10391135106E+03  0.10566000000E+00 0. -1.
        994    1    1    2    0    0  0.55587577293E+02  0.12095533656E+02  0.25069414580E+02  0.18213784953E+03  0.17120000000E+03 0.  0.
        998    1    1    2    0    0 -0.48622210484E+01  0.39687969449E+00  0.13851061109E+04  0.13851507994E+04  0.10000000000E+02 0. -1.
</event>
<event>
 5    1  0.1020718E-008  0.3705223E+03  0.7957747E-01  0.3493494E+00
         13   -1    0    0    0    0  0.00000000000E+00  0.00000000000E+00  0.14999999963E+04  0.15000000000E+04  0.10566000000E+00 0. -1.
        994   -1    0    0    0    0 -0.00000000000E+00 -0.00000000000E+00  0.11368683772E-12  0.17120000000E+03  0.17120000000E+03 0.  0.
         13    1    1    2    0    0  0.86479303996E+01 -0.35221961416E+02  0.51928805213E+02  0.63340233984E+02  0.10566000000E+00 0. -1.
        994    1    1    2    0    0 -0.11567232872E+02  0.39391061390E+02  0.17141630302E+02  0.17688621225E+03  0.17120000000E+03 0.  0.
        998    1    1    2    0    0  0.29193024727E+01 -0.41690999738E+01  0.14309295608E+04  0.14309735538E+04  0.10000000000E+02 0. -1.
</event>
<event>
 5    1  0.1020718E-008  0.3834467E+03  0.7957747E-01  0.3436287E+00
         13   -1    0    0    0    0  0.00000000000E+00  0.00000000000E+00  0.14999999963E+04  0.15000000000E+04  0.10566000000E+00 0. -1.
        994   -1    0    0    0    0 -0.00000000000E+00 -0.00000000000E+00  0.11368683772E-12  0.17120000000E+03  0.17120000000E+03 0.  0.
         13    1    1    2    0    0  0.16324137112E+01  0.30351253790E+02  0.17046327583E+03  0.17315196491E+03  0.10566000000E+00 0. -1.
        994    1    1    2    0    0  0.34768559273E+01 -0.31966914127E+02  0.58283883451E+01  0.17429108479E+03  0.17120000000E+03 0.  0.
        998    1    1    2    0    0 -0.51092696385E+01  0.16156603373E+01  0.13237083321E+04  0.13237569503E+04  0.10000000000E+02 0. -1.
</event>
<event>
 5    1  0.1020718E-008  0.3857557E+03  0.7957747E-01  0.3426474E+00
         13   -1    0    0    0    0  0.00000000000E+00  0.00000000000E+00  0.14999999963E+04  0.15000000000E+04  0.10566000000E+00 0.  1.
        994   -1    0    0    0    0 -0.00000000000E+00 -0.00000000000E+00  0.11368683772E-12  0.17120000000E+03  0.17120000000E+03 0.  0.
         13    1    1    2    0    0  0.28992833381E+01 -0.11646773871E+02  0.55995515293E+02  0.57267460939E+02  0.10566000000E+00 0.  1.
        994    1    1    2    0    0 -0.39707056436E+01  0.12323711831E+02  0.18055673029E+01  0.17169839967E+03  0.17120000000E+03 0.  0.
        998    1    1    2    0    0  0.10714223055E+01 -0.67693796078E+00  0.14421989137E+04  0.14422341394E+04  0.10000000000E+02 0.  1.
</event>
<event>
 5    1  0.1020718E-008  0.3847069E+03  0.7957747E-01  0.3430916E+00
         13   -1    0    0    0    0  0.00000000000E+00  0.00000000000E+00  0.14999999963E+04  0.15000000000E+04  0.10566000000E+00 0.  1.
        994   -1    0    0    0    0 -0.00000000000E+00 -0.00000000000E+00  0.11368683772E-12  0.17120000000E+03  0.17120000000E+03 0.  0.
         13    1    1    2    0    0 -0.41483809153E+00  0.16015603255E+02  0.71159520376E+02  0.72940798889E+02  0.10566000000E+00 0.  1.
        994    1    1    2    0    0 -0.93419888040E+00 -0.12661584896E+02  0.23065144124E+01  0.17168560938E+03  0.17120000000E+03 0.  0.
        998    1    1    2    0    0  0.13490369719E+01 -0.33540183593E+01  0.14265339615E+04  0.14265735917E+04  0.10000000000E+02 0.  1.
</event>
<event>
 5    1  0.1020718E-008  0.3827855E+03  0.7957747E-01  0.3439119E+00
         13   -1    0    0    0    0  0.00000000000E+00  0.00000000000E+00  0.14999999963E+04  0.15000000000E+04  0.10566000000E+00 0.  1.
        994   -1    0    0    0    0 -0.00000000000E+00 -0.00000000000E+00  0.11368683772E-12  0.17120000000E+03  0.17120000000E+03 0.  0.
         13    1    1    2    0    0 -0.93641518953E+01  0.18462529997E+02  0.74127610575E+02  0.76964057639E+02  0.10566000000E+00 0.  1.
        994    1    1    2    0    0  0.97651480047E+01 -0.19399333178E+02  0.42975912744E+01  0.17262561089E+03  0.17120000000E+03 0.  0.
        998    1    1    2    0    0 -0.40099610936E+00  0.93680318126E+00  0.14215747944E+04  0.14216103315E+04  0.10000000000E+02 0.  1.
</event>
<event>
 5    1  0.1020718E-008  0.3837932E+03  0.7957747E-01  0.3434806E+00
         13   -1    0    0    0    0  0.00000000000E+00  0.00000000000E+00  0.14999999963E+04  0.15000000000E+04  0.10566000000E+00 0.  1.
        994   -1    0    0    0    0 -0.00000000000E+00 -0.00000000000E+00  0.11368683772E-12  0.17120000000E+03  0.17120000000E+03 0.  0.
         13    1    1    2    0    0  0.27864733294E+01  0.12152327247E+02  0.34848071136E+02  0.37011386316E+02  0.10566000000E+00 0.  1.
        994    1    1    2    0    0  0.98444936923E+01 -0.64939661455E+01  0.26897950476E+01  0.17162680633E+03  0.17120000000E+03 0.  0.
        998    1    1    2    0    0 -0.12630967022E+02 -0.56583611010E+01  0.14624621301E+04  0.14625618074E+04  0.10000000000E+02 0.  1.
</event>
<event>
 5    1  0.1020718E-008  0.3765278E+03  0.7957747E-01  0.3466418E+00
         13   -1    0    0    0    0  0.00000000000E+00  0.00000000000E+00  0.14999999963E+04  0.15000000000E+04  0.10566000000E+00 0.  1.
        994   -1    0    0    0    0 -0.00000000000E+00 -0.00000000000E+00  0.11368683772E-12  0.17120000000E+03  0.17120000000E+03 0.  0.
         13    1    1    2    0    0 -0.24220592587E+02 -0.23739848381E+02  0.98336642212E+02  0.10402078577E+03  0.10566000000E+00 0.  1.
        994    1    1    2    0    0  0.11415031056E+01  0.18917814139E+02  0.71118750961E+01  0.17239259116E+03  0.17120000000E+03 0.  0.
        998    1    1    2    0    0  0.23079089482E+02  0.48220342423E+01  0.13945514790E+04  0.13947866231E+04  0.10000000000E+02 0.  1.
</event>
<event>
 5    1  0.1020718E-008  0.3799361E+03  0.7957747E-01  0.3451437E+00
         13   -1    0    0    0    0  0.00000000000E+00  0.00000000000E+00  0.14999999963E+04  0.15000000000E+04  0.10566000000E+00 0. -1.
        994   -1    0    0    0    0 -0.00000000000E+00 -0.00000000000E+00  0.11368683772E-12  0.17120000000E+03  0.17120000000E+03 0.  0.
         13    1    1    2    0    0 -0.29391670381E+02 -0.24873158950E+02  0.21267939983E+03  0.21613672200E+03  0.10566000000E+00 0. -1.
        994    1    1    2    0    0 -0.17960129763E+02  0.21035318819E+02  0.67276662564E+01  0.17355043184E+03  0.17120000000E+03 0.  0.
        998    1    1    2    0    0  0.47351800143E+02  0.38378401311E+01  0.12805929302E+04  0.12815128462E+04  0.10000000000E+02 0. -1.
</event>
<event>
 5    1  0.1020718E-008  0.3809207E+03  0.7957747E-01  0.3447159E+00
         13   -1    0    0    0    0  0.00000000000E+00  0.00000000000E+00  0.14999999963E+04  0.15000000000E+04  0.10566000000E+00 0. -1.
        994   -1    0    0    0    0 -0.00000000000E+00 -0.00000000000E+00  0.11368683772E-12  0.17120000000E+03  0.17120000000E+03 0.  0.
         13    1    1    2    0    0  0.21560010567E+01  0.10522645194E+02  0.14211972764E+02  0.17814761753E+02  0.10566000000E+00 0. -1.
        994    1    1    2    0    0 -0.71942362584E+01 -0.49147280871E+01  0.39221258670E+01  0.17146642429E+03  0.17120000000E+03 0.  0.
        998    1    1    2    0    0  0.50382352017E+01 -0.56079171071E+01  0.14818658976E+04  0.14819188140E+04  0.10000000000E+02 0. -1.
</event>
<event>
 5    1  0.1020718E-008  0.3740998E+03  0.7957747E-01  0.3477259E+00
         13   -1    0    0    0    0  0.00000000000E+00  0.00000000000E+00  0.14999999963E+04  0.15000000000E+04  0.10566000000E+00 0. -1.
        994   -1    0    0    0    0 -0.00000000000E+00 -0.00000000000E+00  0.11368683772E-12  0.17120000000E+03  0.17120000000E+03 0.  0.
         13    1    1    2    0    0 -0.40642856305E+02  0.89266854985E+01  0.60477348701E+02  0.73410137941E+02  0.10566000000E+00 0. -1.
        994    1    1    2    0    0  0.29783259693E+02 -0.14422488007E+02  0.17017253868E+02  0.17519725354E+03  0.17120000000E+03 0.  0.
        998    1    1    2    0    0  0.10859596613E+02  0.54958025089E+01  0.14225053937E+04  0.14225926085E+04  0.10000000000E+02 0. -1.
</event>
<event>
 5    1  0.1020718E-008  0.3823041E+03  0.7957747E-01  0.3441187E+00
         13   -1    0    0    0    0  0.00000000000E+00  0.00000000000E+00  0.14999999963E+04  0.15000000000E+04  0.10566000000E+00 0.  1.
        994   -1    0    0    0    0 -0.00000000000E+00 -0.00000000000E+00  0.11368683772E-12  0.17120000000E+03  0.17120000000E+03 0.  0.
         13    1    1    2    0    0  0.78248353779E-01  0.23678013961E+02  0.84384334365E+02  0.87643491020E+02  0.10566000000E+00 0.  1.
        994    1    1    2    0    0 -0.15928835098E+02 -0.33525701580E+02  0.75587613261E+01  0.17534045548E+03  0.17120000000E+03 0.  0.
        998    1    1    2    0    0  0.15850586744E+02  0.98476876189E+01  0.14080569006E+04  0.14082160535E+04  0.10000000000E+02 0.  1.
</event>
<event>
 5    1  0.1020718E-008  0.3839363E+03  0.7957747E-01  0.3434196E+00
         13   -1    0    0    0    0  0.00000000000E+00  0.00000000000E+00  0.14999999963E+04  0.15000000000E+04  0.10566000000E+00 0.  1.
        994   -1    0    0    0    0 -0.00000000000E+00 -0.00000000000E+00  0.11368683772E-12  0.17120000000E+03  0.17120000000E+03 0.  0.
         13    1    1    2    0    0  0.15946561563E+02  0.30085848079E+01  0.59709123794E+02  0.61875156861E+02  0.10566000000E+00 0.  1.
        994    1    1    2    0    0 -0.14534005424E+02  0.57438856505E+01  0.29655415290E+01  0.17193738387E+03  0.17120000000E+03 0.  0.
        998    1    1    2    0    0 -0.14125561388E+01 -0.87524704584E+01  0.14373253310E+04  0.14373874593E+04  0.10000000000E+02 0.  1.
</event>
<event>
 5    1  0.1020718E-008  0.3846880E+03  0.7957747E-01  0.3430996E+00
         13   -1    0    0    0    0  0.00000000000E+00  0.00000000000E+00  0.14999999963E+04  0.15000000000E+04  0.10566000000E+00 0. -1.
        994   -1    0    0    0    0 -0.00000000000E+00 -0.00000000000E+00  0.11368683772E-12  0.17120000000E+03  0.17120000000E+03 0.  0.
         13    1    1    2    0    0  0.28244169720E+01  0.19109302667E+02  0.94895164792E+02  0.96841345739E+02  0.10566000000E+00 0. -1.
        994    1    1    2    0    0 -0.12829733683E+01 -0.25605480458E+02  0.39518728340E+01  0.17315410463E+03  0.17120000000E+03 0.  0.
        998    1    1    2    0    0 -0.15414436037E+01  0.64961777901E+01  0.14011529587E+04  0.14012045496E+04  0.10000000000E+02 0. -1.
</event>
<event>
 5    1  0.1020718E-008  0.3844905E+03  0.7957747E-01  0.3431836E+00
         13   -1    0    0    0    0  0.00000000000E+00  0.00000000000E+00  0.14999999963E+04  0.15000000000E+04  0.10566000000E+00 0. -1.
        994   -1    0    0    0    0 -0.00000000000E+00 -0.00000000000E+00  0.11368683772E-12  0.17120000000E+03  0.17120000000E+03 0.  0.
         13    1    1    2    0    0  0.63783908682E+01 -0.24298635749E+02  0.13929488770E+03  0.14154216500E+03  0.10566000000E+00 0. -1.
        994    1    1    2    0    0 -0.91023150868E+01  0.35865514029E+02  0.64066073235E+01  0.17527028229E+03  0.17120000000E+03 0.  0.
        998    1    1    2    0    0  0.27239242186E+01 -0.11566878279E+02  0.13542985013E+04  0.13543875527E+04  0.10000000000E+02 0. -1.
</event>
<event>
 5    1  0.1020718E-008  0.3847462E+03  0.7957747E-01  0.3430749E+00
         13   -1    0    0    0    0  0.00000000000E+00  0.00000000000E+00  0.14999999963E+04  0.15000000000E+04  0.10566000000E+00 0. -1.
        994   -1    0    0    0    0 -0.00000000000E+00 -0.00000000000E+00  0.11368683772E-12  0.17120000000E+03  0.17120000000E+03 0.  0.
         13    1    1    2    0    0 -0.61075653327E+01 -0.14105178014E+02  0.66159941316E+02  0.67922068580E+02  0.10566000000E+00 0. -1.
        994    1    1    2    0    0  0.74811587669E+01  0.10395849948E+02  0.22962959097E+01  0.17169378092E+03  0.17120000000E+03 0.  0.
        998    1    1    2    0    0 -0.13735934342E+01  0.37093280661E+01  0.14315437591E+04  0.14315841505E+04  0.10000000000E+02 0. -1.
</event>
<event>
 5    1  0.1020718E-008  0.3756536E+03  0.7957747E-01  0.3470305E+00
         13   -1    0    0    0    0  0.00000000000E+00  0.00000000000E+00  0.14999999963E+04  0.15000000000E+04  0.10566000000E+00 0. -1.
        994   -1    0    0    0    0 -0.00000000000E+00 -0.00000000000E+00  0.11368683772E-12  0.17120000000E+03  0.17120000000E+03 0.  0.
         13    1    1    2    0    0 -0.67979423340E+01  0.71023544041E+02  0.43122533526E+03  0.43708792795E+03  0.10566000000E+00 0. -1.
        994    1    1    2    0    0 -0.28767363196E+01 -0.33483504695E+02  0.10183711233E+02  0.17476432323E+03  0.17120000000E+03 0.  0.
        998    1    1    2    0    0  0.96746786536E+01 -0.37540039345E+02  0.10585909498E+04  0.10593477488E+04  0.10000000000E+02 0. -1.
</event>
<event>
 5    1  0.1020718E-008  0.3856930E+03  0.7957747E-01  0.3426738E+00
         13   -1    0    0    0    0  0.00000000000E+00  0.00000000000E+00  0.14999999963E+04  0.15000000000E+04  0.10566000000E+00 0. -1.
        994   -1    0    0    0    0 -0.00000000000E+00 -0.00000000000E+00  0.11368683772E-12  0.17120000000E+03  0.17120000000E+03 0.  0.
         13    1    1    2    0    0 -0.79914419965E+01 -0.11922486964E+02  0.78736053497E+02  0.80033656201E+02  0.10566000000E+00 0. -1.
        994    1    1    2    0    0  0.13998216436E+02  0.57885996407E+01  0.20397378993E+01  0.17188094275E+03  0.17120000000E+03 0.  0.
        998    1    1    2    0    0 -0.60067744393E+01  0.61338873230E+01  0.14192242049E+04  0.14192854011E+04  0.10000000000E+02 0. -1.
</event>
<event>
 5    1  0.1020718E-008  0.3806957E+03  0.7957747E-01  0.3448135E+00
         13   -1    0    0    0    0  0.00000000000E+00  0.00000000000E+00  0.14999999963E+04  0.15000000000E+04  0.10566000000E+00 0. -1.
        994   -1    0    0    0    0 -0.00000000000E+00 -0.00000000000E+00  0.11368683772E-12  0.17120000000E+03  0.17120000000E+03 0.  0.
         13    1    1    2    0    0 -0.90844617749E+01  0.45728561370E+02  0.24343717058E+03  0.24786144507E+03  0.10566000000E+00 0. -1.
        994    1    1    2    0    0  0.14986902442E+02 -0.43915616801E+02  0.10997389244E+02  0.17771767277E+03  0.17120000000E+03 0.  0.
        998    1    1    2    0    0 -0.59024406670E+01 -0.18129445693E+01  0.12455654365E+04  0.12456208822E+04  0.10000000000E+02 0. -1.
</event>
<event>
 5    1  0.1020718E-008  0.3859241E+03  0.7957747E-01  0.3425763E+00
         13   -1    0    0    0    0  0.00000000000E+00  0.00000000000E+00  0.14999999963E+04  0.15000000000E+04  0.10566000000E+00 0. -1.
        994   -1    0    0    0    0 -0.00000000000E+00 -0.00000000000E+00  0.11368683772E-12  0.17120000000E+03  0.17120000000E+03 0.  0.
         13    1    1    2    0    0  0.58992663799E+01 -0.12192123753E+02  0.77887617026E+02  0.79056570096E+02  0.10566000000E+00 0. -1.
        994    1    1    2    0    0 -0.88044201516E+01  0.77270235900E+01  0.16221078846E+01  0.17160797167E+03  0.17120000000E+03 0.  0.
        998    1    1    2    0    0  0.29051537717E+01  0.44651001635E+01  0.14204902714E+04  0.14205354582E+04  0.10000000000E+02 0. -1.
</event>
<event>
 5    1  0.1020718E-008  0.3849423E+03  0.7957747E-01  0.3429917E+00
         13   -1    0    0    0    0  0.00000000000E+00  0.00000000000E+00  0.14999999963E+04  0.15000000000E+04  0.10566000000E+00 0. -1.
        994   -1    0    0    0    0 -0.00000000000E+00 -0.00000000000E+00  0.11368683772E-12  0.17120000000E+03  0.17120000000E+03 0.  0.
         13    1    1    2    0    0 -0.10670456387E+02 -0.27481391777E+01  0.33275564593E+02  0.35052607200E+02  0.10566000000E+00 0. -1.
        994    1    1    2    0    0  0.26786692254E+02  0.52258178711E+01  0.41125732297E+01  0.17341046483E+03  0.17120000000E+03 0.  0.
        998    1    1    2    0    0 -0.16116235867E+02 -0.24776786934E+01  0.14626118585E+04  0.14627369280E+04  0.10000000000E+02 0. -1.
</event>
<event>
 5    1  0.1020718E-008  0.3851881E+03  0.7957747E-01  0.3428875E+00
         13   -1    0    0    0    0  0.00000000000E+00  0.00000000000E+00  0.14999999963E+04  0.15000000000E+04  0.10566000000E+00 0.  1.
        994   -1    0    0    0    0 -0.00000000000E+00 -0.00000000000E+00  0.11368683772E-12  0.17120000000E+03  0.17120000000E+03 0.  0.
         13    1    1    2    0    0 -0.11461427649E+02  0.52637776240E+01  0.53693243110E+02  0.55154756806E+02  0.10566000000E+00 0.  1.
        994    1    1    2    0    0  0.64185248586E+01  0.78608981767E+01  0.18753342462E+01  0.17151078118E+03  0.17120000000E+03 0.  0.
        998    1    1    2    0    0  0.50429027906E+01 -0.13124675801E+02  0.14444314189E+04  0.14445344620E+04  0.10000000000E+02 0.  1.
</event>
<event>
 5    1  0.1020718E-008  0.3855854E+03  0.7957747E-01  0.3427193E+00
         13   -1    0    0    0    0  0.00000000000E+00  0.00000000000E+00  0.14999999963E+04  0.15000000000E+04  0.10566000000E+00 0. -1.
        994   -1    0    0    0    0 -0.00000000000E+00 -0.00000000000E+00  0.11368683772E-12  0.17120000000E+03  0.17120000000E+03 0.  0.
         13    1    1    2    0    0  0.81759179238E+01 -0.13959521365E+02  0.95441607012E+02  0.96803023629E+02  0.10566000000E+00 0. -1.
        994    1    1    2    0    0 -0.25525344128E+01  0.14605172357E+02  0.20616694054E+01  0.17185318435E+03  0.17120000000E+03 0.  0.
        998    1    1    2    0    0 -0.56233835110E+01 -0.64565099191E+00  0.14024967199E+04  0.14025437920E+04  0.10000000000E+02 0. -1.
</event>
<event>
 5    1  0.1020718E-008  0.3784968E+03  0.7957747E-01  0.3457730E+00
         13   -1    0    0    0    0  0.00000000000E+00  0.00000000000E+00  0.14999999963E+04  0.15000000000E+04  0.10566000000E+00 0.  1.
        994   -1    0    0    0    0 -0.00000000000E+00 -0.00000000000E+00  0.11368683772E-12  0.17120000000E+03  0.17120000000E+03 0.  0.
         13    1    1    2    0    0 -0.11817286112E+02 -0.11970066558E+01  0.12177323168E+02  0.17011156327E+02  0.10566000000E+00 0.  1.
        994    1    1    2    0    0  0.11347167884E+02 -0.18827386151E+00  0.53266803188E+01  0.17165840262E+03  0.17120000000E+03 0.  0.
        998    1    1    2    0    0  0.47011822840E+00  0.13852805174E+01  0.14824959928E+04  0.14825304411E+04  0.10000000000E+02 0.  1.
</event>
<event>
 5    1  0.1020718E-008  0.3789693E+03  0.7957747E-01  0.3455659E+00
         13   -1    0    0    0    0  0.00000000000E+00  0.00000000000E+00  0.14999999963E+04  0.15000000000E+04  0.10566000000E+00 0.  1.
        994   -1    0    0    0    0 -0.00000000000E+00 -0.00000000000E+00  0.11368683772E-12  0.17120000000E+03  0.17120000000E+03 0.  0.
         13    1    1    2    0    0 -0.20891482244E+02 -0.15756443560E+02  0.69073599452E+02  0.73864015930E+02  0.10566000000E+00 0.  1.
        994    1    1    2    0    0  0.24587800583E+02  0.10769089234E+02  0.70750111500E+01  0.17343595072E+03  0.17120000000E+03 0.  0.
        998    1    1    2    0    0 -0.36963183394E+01  0.49873543253E+01  0.14238513857E+04  0.14239000333E+04  0.10000000000E+02 0.  1.
</event>
<event>
 5    1  0.1020718E-008  0.3832384E+03  0.7957747E-01  0.3437178E+00
         13   -1    0    0    0    0  0.00000000000E+00  0.00000000000E+00  0.14999999963E+04  0.15000000000E+04  0.10566000000E+00 0. -1.
        994   -1    0    0    0    0 -0.00000000000E+00 -0.00000000000E+00  0.11368683772E-12  0.17120000000E+03  0.17120000000E+03 0.  0.
         13    1    1    2    0    0  0.32550670721E+00 -0.30155673955E+02  0.15977362108E+03  0.16259487010E+03  0.10566000000E+00 0. -1.
        994    1    1    2    0    0  0.39746371891E+01  0.33222999496E+02  0.62191266698E+01  0.17454994406E+03  0.17120000000E+03 0.  0.
        998    1    1    2    0    0 -0.43001438963E+01 -0.30673255409E+01  0.13340072485E+04  0.13340551858E+04  0.10000000000E+02 0. -1.
</event>
<event>
 5    1  0.1020718E-008  0.4126777E+03  0.7957747E-01  0.3320150E+00
         13   -1    0    0    0    0  0.00000000000E+00  0.00000000000E+00  0.14999999963E+04  0.15000000000E+04  0.10566000000E+00 0. -1.
        994   -1    0    0    0    0 -0.00000000000E+00 -0.00000000000E+00  0.11368683772E-12  0.17120000000E+03  0.17120000000E+03 0.  0.
         13    1    1    2    0    0  0.29733721270E+02 -0.91917803104E+01  0.39625891899E-01  0.31122270805E+02  0.10566000000E+00 0. -1.
        994    1    1    2    0    0  0.33978191845E+02  0.15299471361E+02  0.41339963178E+02  0.18001950978E+03  0.17120000000E+03 0.  0.
        998    1    1    2    0    0 -0.63711913114E+02 -0.61076910508E+01  0.14586204072E+04  0.14600582194E+04  0.10000000000E+02 0. -1.
</event>
<event>
 5    1  0.1020718E-008  0.3859692E+03  0.7957747E-01  0.3425572E+00
         13   -1    0    0    0    0  0.00000000000E+00  0.00000000000E+00  0.14999999963E+04  0.15000000000E+04  0.10566000000E+00 0. -1.
        994   -1    0    0    0    0 -0.00000000000E+00 -0.00000000000E+00  0.11368683772E-12  0.17120000000E+03  0.17120000000E+03 0.  0.
         13    1    1    2    0    0 -0.75605509354E+01  0.10701831877E+02  0.74219316219E+02  0.75367162611E+02  0.10566000000E+00 0. -1.
        994    1    1    2    0    0  0.49678635599E+01 -0.96852909797E+01  0.15382601315E+01  0.17155258895E+03  0.17120000000E+03 0.  0.
        998    1    1    2    0    0  0.25926873756E+01 -0.10165408974E+01  0.14242424199E+04  0.14242802484E+04  0.10000000000E+02 0. -1.
</event>
<event>
 5    1  0.1020718E-008  0.3823831E+03  0.7957747E-01  0.3440847E+00
         13   -1    0    0    0    0  0.00000000000E+00  0.00000000000E+00  0.14999999963E+04  0.15000000000E+04  0.10566000000E+00 0. -1.
        994   -1    0    0    0    0 -0.00000000000E+00 -0.00000000000E+00  0.11368683772E-12  0.17120000000E+03  0.17120000000E+03 0.  0.
         13    1    1    2    0    0  0.15625264636E+02  0.14234278249E+02  0.77745544441E+02  0.80567638768E+02  0.10566000000E+00 0. -1.
        994    1    1    2    0    0 -0.15372100368E+02  0.60690424371E+01  0.38414134871E+01  0.17203874913E+03  0.17120000000E+03 0.  0.
        998    1    1    2    0    0 -0.25316426775E+00 -0.20303320687E+02  0.14184130384E+04  0.14185936121E+04  0.10000000000E+02 0. -1.
</event>
<event>
 5    1  0.1020718E-008  0.3790740E+03  0.7957747E-01  0.3455200E+00
         13   -1    0    0    0    0  0.00000000000E+00  0.00000000000E+00  0.14999999963E+04  0.15000000000E+04  0.10566000000E+00 0.  1.
        994   -1    0    0    0    0 -0.00000000000E+00 -0.00000000000E+00  0.11368683772E-12  0.17120000000E+03  0.17120000000E+03 0.  0.
         13    1    1    2    0    0  0.33300745550E+02 -0.48470667946E+02  0.28815367981E+03  0.29409335194E+03  0.10566000000E+00 0.  1.
        994    1    1    2    0    0 -0.33813102744E+02  0.55454116983E+02  0.18879143037E+02  0.18407701391E+03  0.17120000000E+03 0.  0.
        998    1    1    2    0    0  0.51235719460E+00 -0.69834490373E+01  0.11929671734E+04  0.11930296342E+04  0.10000000000E+02 0.  1.
</event>
<event>
 5    1  0.1020718E-008  0.3814416E+03  0.7957747E-01  0.3444905E+00
         13   -1    0    0    0    0  0.00000000000E+00  0.00000000000E+00  0.14999999963E+04  0.15000000000E+04  0.10566000000E+00 0.  1.
        994   -1    0    0    0    0 -0.00000000000E+00 -0.00000000000E+00  0.11368683772E-12  0.17120000000E+03  0.17120000000E+03 0.  0.
         13    1    1    2    0    0 -0.10252376773E+02  0.20900386662E+02  0.75812241401E+02  0.79306018072E+02  0.10566000000E+00 0.  1.
        994    1    1    2    0    0 -0.75944670952E+01 -0.27887371681E+02  0.61915521462E+01  0.17373300420E+03  0.17120000000E+03 0.  0.
        998    1    1    2    0    0  0.17846843869E+02  0.69869850190E+01  0.14179962027E+04  0.14181609777E+04  0.10000000000E+02 0.  1.
</event>
<event>
 5    1  0.1020718E-008  0.3774651E+03  0.7957747E-01  0.3462271E+00
         13   -1    0    0    0    0  0.00000000000E+00  0.00000000000E+00  0.14999999963E+04  0.15000000000E+04  0.10566000000E+00 0.  1.
        994   -1    0    0    0    0 -0.00000000000E+00 -0.00000000000E+00  0.11368683772E-12  0.17120000000E+03  0.17120000000E+03 0.  0.
         13    1    1    2    0    0 -0.41161307796E+02  0.71711729423E+02  0.43005540125E+03  0.43793205489E+03  0.10566000000E+00 0.  1.
        994    1    1    2    0    0  0.48726087390E+02 -0.71308958198E+02  0.30992359598E+02  0.19423996876E+03  0.17120000000E+03 0.  0.
        998    1    1    2    0    0 -0.75647795939E+01 -0.40277122442E+00  0.10389522354E+04  0.10390279763E+04  0.10000000000E+02 0.  0.
</event>
<event>
 5    1  0.1020718E-008  0.3832977E+03  0.7957747E-01  0.3436924E+00
         13   -1    0    0    0    0  0.00000000000E+00  0.00000000000E+00  0.14999999963E+04  0.15000000000E+04  0.10566000000E+00 0. -1.
        994   -1    0    0    0    0 -0.00000000000E+00 -0.00000000000E+00  0.11368683772E-12  0.17120000000E+03  0.17120000000E+03 0.  0.
         13    1    1    2    0    0 -0.10952083808E+02 -0.31775353783E+01  0.25420204278E+02  0.27861134585E+02  0.10566000000E+00 0. -1.
        994    1    1    2    0    0  0.63046351041E+01  0.57887422628E+01  0.27199492181E+01  0.17143539916E+03  0.17120000000E+03 0.  0.
        998    1    1    2    0    0  0.46474487044E+01 -0.26112068845E+01  0.14718598428E+04  0.14719034663E+04  0.10000000000E+02 0. -1.
</event>
<event>
 5    1  0.1020718E-008  0.3741066E+03  0.7957747E-01  0.3477228E+00
         13   -1    0    0    0    0  0.00000000000E+00  0.00000000000E+00  0.14999999963E+04  0.15000000000E+04  0.10566000000E+00 0. -1.
        994   -1    0    0    0    0 -0.00000000000E+00 -0.00000000000E+00  0.11368683772E-12  0.17120000000E+03  0.17120000000E+03 0.  0.
         13    1    1    2    0    0 -0.33580669544E+02  0.21752233751E+02  0.10579573811E+03  0.11310866637E+03  0.10566000000E+00 0. -1.
        994    1    1    2    0    0  0.29023807743E+02 -0.15641257083E+02  0.10853403095E+02  0.17468333263E+03  0.17120000000E+03 0.  0.
        998    1    1    2    0    0  0.45568618010E+01 -0.61109766675E+01  0.13833508551E+04  0.13834080010E+04  0.10000000000E+02 0. -1.
</event>
<event>
 5    1  0.1020718E-008  0.3715194E+03  0.7957747E-01  0.3488937E+00
         13   -1    0    0    0    0  0.00000000000E+00  0.00000000000E+00  0.14999999963E+04  0.15000000000E+04  0.10566000000E+00 0.  1.
        994   -1    0    0    0    0 -0.00000000000E+00 -0.00000000000E+00  0.11368683772E-12  0.17120000000E+03  0.17120000000E+03 0.  0.
         13    1    1    2    0    0  0.92692959078E+01 -0.10143724830E+02  0.72445352486E+01  0.15534138375E+02  0.10566000000E+00 0.  1.
        994    1    1    2    0    0  0.46107635921E+01  0.20691312173E+02  0.10024280102E+02  0.17279848301E+03  0.17120000000E+03 0.  0.
        998    1    1    2    0    0 -0.13880059500E+02 -0.10547587342E+02  0.14827311809E+04  0.14828673786E+04  0.10000000000E+02 0.  1.
</event>
<event>
 5    1  0.1020718E-008  0.3798268E+03  0.7957747E-01  0.3451913E+00
         13   -1    0    0    0    0  0.00000000000E+00  0.00000000000E+00  0.14999999963E+04  0.15000000000E+04  0.10566000000E+00 0.  1.
        994   -1    0    0    0    0 -0.00000000000E+00 -0.00000000000E+00  0.11368683772E-12  0.17120000000E+03  0.17120000000E+03 0.  0.
         13    1    1    2    0    0 -0.38770980502E+02 -0.44846790453E+02  0.33275532011E+03  0.33799487832E+03  0.10566000000E+00 0.  1.
        994    1    1    2    0    0  0.50435554620E+02  0.32392927806E+02  0.16333833355E+02  0.18212435601E+03  0.17120000000E+03 0.  0.
        998    1    1    2    0    0 -0.11664574118E+02  0.12453862646E+02  0.11509108428E+04  0.11510807657E+04  0.10000000000E+02 0.  1.
</event>
<event>
 5    1  0.1020718E-008  0.3828089E+03  0.7957747E-01  0.3439018E+00
         13   -1    0    0    0    0  0.00000000000E+00  0.00000000000E+00  0.14999999963E+04  0.15000000000E+04  0.10566000000E+00 0. -1.
        994   -1    0    0    0    0 -0.00000000000E+00 -0.00000000000E+00  0.11368683772E-12  0.17120000000E+03  0.17120000000E+03 0.  0.
         13    1    1    2    0    0 -0.14582576383E+02  0.32234301876E+01  0.39329592662E+02  0.42069823617E+02  0.10566000000E+00 0. -1.
        994    1    1    2    0    0  0.14651155506E+02 -0.22569763442E+01  0.34500870779E+01  0.17187522626E+03  0.17120000000E+03 0.  0.
        998    1    1    2    0    0 -0.68579123228E-01 -0.96645384347E+00  0.14572203165E+04  0.14572549501E+04  0.10000000000E+02 0. -1.
</event>
<event>
 5    1  0.1020718E-008  0.3790795E+03  0.7957747E-01  0.3455176E+00
         13   -1    0    0    0    0  0.00000000000E+00  0.00000000000E+00  0.14999999963E+04  0.15000000000E+04  0.10566000000E+00 0. -1.
        994   -1    0    0    0    0 -0.00000000000E+00 -0.00000000000E+00  0.11368683772E-12  0.17120000000E+03  0.17120000000E+03 0.  0.
         13    1    1    2    0    0  0.32574804508E+02 -0.95527934592E+01  0.13263511736E+03  0.13691040601E+03  0.10566000000E+00 0. -1.
        994    1    1    2    0    0 -0.80675903259E+01  0.95731234640E+00  0.48198751476E+01  0.17146041426E+03  0.17120000000E+03 0.  0.
        998    1    1    2    0    0 -0.24507214182E+02  0.85954811128E+01  0.13625450038E+04  0.13628291797E+04  0.10000000000E+02 0.  1.
</event>
<event>
 5    1  0.1020718E-008  0.3841706E+03  0.7957747E-01  0.3433198E+00
         13   -1    0    0    0    0  0.00000000000E+00  0.00000000000E+00  0.14999999963E+04  0.15000000000E+04  0.10566000000E+00 0.  1.
        994   -1    0    0    0    0 -0.00000000000E+00 -0.00000000000E+00  0.11368683772E-12  0.17120000000E+03  0.17120000000E+03 0.  0.
         13    1    1    2    0    0  0.13836100794E+02 -0.12583760506E+01  0.47284513228E+02  0.49283440938E+02  0.10566000000E+00 0.  1.
        994    1    1    2    0    0 -0.76887980403E+01 -0.37207805123E+01  0.22831300787E+01  0.17142816136E+03  0.17120000000E+03 0.  0.
        998    1    1    2    0    0 -0.61473027539E+01  0.49791565629E+01  0.14504323530E+04  0.14504883977E+04  0.10000000000E+02 0.  1.
</event>
<event>
 5    1  0.1243861E-008  0.3810575E+03  0.7957747E-01  0.3446567E+00
         13   -1    0    0    0    0  0.00000000000E+00  0.00000000000E+00  0.14999999963E+04  0.15000000000E+04  0.10566000000E+00 0.  1.
        994   -1    0    0    0    0 -0.00000000000E+00 -0.00000000000E+00  0.11368683772E-12  0.17120000000E+03  0.17120000000E+03 0.  0.
         13    1    1    2    0    0 -0.81664641341E+01 -0.69950987284E+01  0.14475387363E+02  0.18032485853E+02  0.10566000000E+00 0.  1.
        994    1    1    2    0    0  0.65263661447E+01  0.65910675519E+01  0.38869463707E+01  0.17149514273E+03  0.17120000000E+03 0.  0.
        998    1    1    2    0    0  0.16400979894E+01  0.40403117653E+00  0.14816376625E+04  0.14816723714E+04  0.10000000000E+02 0.  1.
</event>
<event>
 5    1  0.1020718E-008  0.3836942E+03  0.7957747E-01  0.3435229E+00
         13   -1    0    0    0    0  0.00000000000E+00  0.00000000000E+00  0.14999999963E+04  0.15000000000E+04  0.10566000000E+00 0. -1.
        994   -1    0    0    0    0 -0.00000000000E+00 -0.00000000000E+00  0.11368683772E-12  0.17120000000E+03  0.17120000000E+03 0.  0.
         13    1    1    2    0    0  0.26380120720E+02  0.72042993873E+01  0.16434800512E+03  0.16660759482E+03  0.10566000000E+00 0. -1.
        994    1    1    2    0    0 -0.15626917839E+02 -0.23820627050E+01  0.31054879935E+01  0.17195627014E+03  0.17120000000E+03 0.  0.
        998    1    1    2    0    0 -0.10753202881E+02 -0.48222366823E+01  0.13325465032E+04  0.13326361350E+04  0.10000000000E+02 0. -1.
</event>
<event>
 5    1  0.1020718E-008  0.3832027E+03  0.7957747E-01  0.3437331E+00
         13   -1    0    0    0    0  0.00000000000E+00  0.00000000000E+00  0.14999999963E+04  0.15000000000E+04  0.10566000000E+00 0. -1.
        994   -1    0    0    0    0 -0.00000000000E+00 -0.00000000000E+00  0.11368683772E-12  0.17120000000E+03  0.17120000000E+03 0.  0.
         13    1    1    2    0    0 -0.11578582985E+02 -0.17644040148E+01  0.25799330440E+02  0.28333607618E+02  0.10566000000E+00 0. -1.
        994    1    1    2    0    0  0.16041541920E+02 -0.14561246850E+02  0.40792612990E+01  0.17261356074E+03  0.17120000000E+03 0.  0.
        998    1    1    2    0    0 -0.44629589350E+01  0.16325650865E+02  0.14701214045E+04  0.14702528316E+04  0.10000000000E+02 0. -1.
</event>
<event>
 5    1  0.1020718E-008  0.3801158E+03  0.7957747E-01  0.3450655E+00
         13   -1    0    0    0    0  0.00000000000E+00  0.00000000000E+00  0.14999999963E+04  0.15000000000E+04  0.10566000000E+00 0. -1.
        994   -1    0    0    0    0 -0.00000000000E+00 -0.00000000000E+00  0.11368683772E-12  0.17120000000E+03  0.17120000000E+03 0.  0.
         13    1    1    2    0    0  0.15814235301E+02  0.88133863835E+00  0.28668716123E+02  0.32753217310E+02  0.10566000000E+00 0. -1.
        994    1    1    2    0    0 -0.16006437265E+02 -0.79437804414E+01  0.51424571543E+01  0.17220683653E+03  0.17120000000E+03 0.  0.
        998    1    1    2    0    0  0.19220196420E+00  0.70624418030E+01  0.14661888230E+04  0.14662399462E+04  0.10000000000E+02 0. -1.
</event>
<event>
 5    1  0.1020718E-008  0.4029790E+03  0.7957747E-01  0.3356826E+00
         13   -1    0    0    0    0  0.00000000000E+00  0.00000000000E+00  0.14999999963E+04  0.15000000000E+04  0.10566000000E+00 0. -1.
        994   -1    0    0    0    0 -0.00000000000E+00 -0.00000000000E+00  0.11368683772E-12  0.17120000000E+03  0.17120000000E+03 0.  0.
         13    1    1    2    0    0 -0.84927169664E+02 -0.79214350047E+02  0.19171016625E+03  0.22414356205E+03  0.10566000000E+00 0. -1.
        994    1    1    2    0    0  0.83122335929E+02  0.77193386678E+02  0.82659657754E+02  0.22138247604E+03  0.17120000000E+03 0.  0.
        998    1    1    2    0    0  0.18048337355E+01  0.20209633685E+01  0.12256301723E+04  0.12256739619E+04  0.10000000000E+02 0.  0.
</event>
<event>
 5    1  0.1020718E-008  0.3849825E+03  0.7957747E-01  0.3429746E+00
         13   -1    0    0    0    0  0.00000000000E+00  0.00000000000E+00  0.14999999963E+04  0.15000000000E+04  0.10566000000E+00 0.  1.
        994   -1    0    0    0    0 -0.00000000000E+00 -0.00000000000E+00  0.11368683772E-12  0.17120000000E+03  0.17120000000E+03 0.  0.
         13    1    1    2    0    0  0.19164073292E+01  0.10080370311E+02  0.31928638058E+02  0.33537077615E+02  0.10566000000E+00 0.  1.
        994    1    1    2    0    0  0.11082906934E+01 -0.71471824901E+01  0.18108656281E+01  0.17136227636E+03  0.17120000000E+03 0.  0.
        998    1    1    2    0    0 -0.30246980225E+01 -0.29331878214E+01  0.14662604926E+04  0.14663006460E+04  0.10000000000E+02 0.  1.
</event>
<event>
 5    1  0.1020718E-008  0.3821123E+03  0.7957747E-01  0.3442012E+00
         13   -1    0    0    0    0  0.00000000000E+00  0.00000000000E+00  0.14999999963E+04  0.15000000000E+04  0.10566000000E+00 0. -1.
        994   -1    0    0    0    0 -0.00000000000E+00 -0.00000000000E+00  0.11368683772E-12  0.17120000000E+03  0.17120000000E+03 0.  0.
         13    1    1    2    0    0 -0.21985605686E+02  0.11517727448E+02  0.10356423912E+03  0.10649689052E+03  0.10566000000E+00 0. -1.
        994    1    1    2    0    0  0.92635467206E+01 -0.23494148377E+00  0.33557521123E+01  0.17148343817E+03  0.17120000000E+03 0.  0.
        998    1    1    2    0    0  0.12722058965E+02 -0.11282785964E+02  0.13930800050E+04  0.13932196713E+04  0.10000000000E+02 0. -1.
</event>
<event>
 5    1  0.1020718E-008  0.3835899E+03  0.7957747E-01  0.3435675E+00
         13   -1    0    0    0    0  0.00000000000E+00  0.00000000000E+00  0.14999999963E+04  0.15000000000E+04  0.10566000000E+00 0. -1.
        994   -1    0    0    0    0 -0.00000000000E+00 -0.00000000000E+00  0.11368683772E-12  0.17120000000E+03  0.17120000000E+03 0.  0.
         13    1    1    2    0    0 -0.66223768036E+01 -0.97612711448E+01  0.28825999057E+02  0.31146230503E+02  0.10566000000E+00 0. -1.
        994    1    1    2    0    0  0.13461970431E+02  0.38160247844E+01  0.29789345096E+01  0.17179668432E+03  0.17120000000E+03 0.  0.
        998    1    1    2    0    0 -0.68395936270E+01  0.59452463604E+01  0.14681950627E+04  0.14682570852E+04  0.10000000000E+02 0. -1.
</event>
<event>
 5    1  0.1020718E-008  0.3831603E+03  0.7957747E-01  0.3437512E+00
         13   -1    0    0    0    0  0.00000000000E+00  0.00000000000E+00  0.14999999963E+04  0.15000000000E+04  0.10566000000E+00 0. -1.
        994   -1    0    0    0    0 -0.00000000000E+00 -0.00000000000E+00  0.11368683772E-12  0.17120000000E+03  0.17120000000E+03 0.  0.
         13    1    1    2    0    0 -0.26651874704E+02  0.23998997366E+01  0.13945986484E+03  0.14200403871E+03  0.10566000000E+00 0. -1.
        994    1    1    2    0    0  0.16382604064E+02 -0.21244230340E+01  0.34496678065E+01  0.17202977387E+03  0.17120000000E+03 0.  0.
        998    1    1    2    0    0  0.10269270640E+02 -0.27547670254E+00  0.13570904636E+04  0.13571661874E+04  0.10000000000E+02 0. -1.
</event>
<event>
 5    1  0.1020718E-008  0.3821792E+03  0.7957747E-01  0.3441724E+00
         13   -1    0    0    0    0  0.00000000000E+00  0.00000000000E+00  0.14999999963E+04  0.15000000000E+04  0.10566000000E+00 0. -1.
        994   -1    0    0    0    0 -0.00000000000E+00 -0.00000000000E+00  0.11368683772E-12  0.17120000000E+03  0.17120000000E+03 0.  0.
         13    1    1    2    0    0 -0.19826413668E+02  0.19975283113E+02  0.12614370687E+03  0.12924528835E+03  0.10566000000E+00 0. -1.
        994    1    1    2    0    0  0.10380691885E+02 -0.19094746608E+02  0.46064907488E+01  0.17263553478E+03  0.17120000000E+03 0.  0.
        998    1    1    2    0    0  0.94457217831E+01 -0.88053650449E+00  0.13692497987E+04  0.13693191769E+04  0.10000000000E+02 0. -1.
</event>
<event>
 5    1  0.1020718E-008  0.3825028E+03  0.7957747E-01  0.3440333E+00
         13   -1    0    0    0    0  0.00000000000E+00  0.00000000000E+00  0.14999999963E+04  0.15000000000E+04  0.10566000000E+00 0.  1.
        994   -1    0    0    0    0 -0.00000000000E+00 -0.00000000000E+00  0.11368683772E-12  0.17120000000E+03  0.17120000000E+03 0.  0.
         13    1    1    2    0    0 -0.38292577093E+02 -0.98257349204E+01  0.22560969355E+03  0.22904718185E+03  0.10566000000E+00 0.  1.
        994    1    1    2    0    0  0.41038509279E+02  0.13173184249E+02  0.90588228337E+01  0.17677441641E+03  0.17120000000E+03 0.  0.
        998    1    1    2    0    0 -0.27459321865E+01 -0.33474493289E+01  0.12653314799E+04  0.12653784017E+04  0.10000000000E+02 0.  1.
</event>
<event>
 5    1  0.1020718E-008  0.3793343E+03  0.7957747E-01  0.3454062E+00
         13   -1    0    0    0    0  0.00000000000E+00  0.00000000000E+00  0.14999999963E+04  0.15000000000E+04  0.10566000000E+00 0. -1.
        994   -1    0    0    0    0 -0.00000000000E+00 -0.00000000000E+00  0.11368683772E-12  0.17120000000E+03  0.17120000000E+03 0.  0.
         13    1    1    2    0    0 -0.23256807131E+02  0.33698182013E+02  0.16945306087E+03  0.17432956591E+03  0.10566000000E+00 0. -1.
        994    1    1    2    0    0  0.58230607458E+02 -0.89911522348E+01  0.16189729749E+02  0.18177786392E+03  0.17120000000E+03 0.  0.
        998    1    1    2    0    0 -0.34973800328E+02 -0.24707029778E+02  0.13143572057E+04  0.13150925702E+04  0.10000000000E+02 0. -1.
</event>
<event>
 5    1  0.1020718E-008  0.3773303E+03  0.7957747E-01  0.3462866E+00
         13   -1    0    0    0    0  0.00000000000E+00  0.00000000000E+00  0.14999999963E+04  0.15000000000E+04  0.10566000000E+00 0.  1.
        994   -1    0    0    0    0 -0.00000000000E+00 -0.00000000000E+00  0.11368683772E-12  0.17120000000E+03  0.17120000000E+03 0.  0.
         13    1    1    2    0    0  0.26893702224E+02  0.40425176159E+02  0.22346856536E+03  0.22868248065E+03  0.10566000000E+00 0.  1.
        994    1    1    2    0    0  0.18619624489E+01 -0.26922041091E+02  0.79470146192E+01  0.17349598912E+03  0.17120000000E+03 0.  0.
        998    1    1    2    0    0 -0.28755664673E+02 -0.13503135067E+02  0.12685844163E+04  0.12690215302E+04  0.10000000000E+02 0.  1.
</event>
<event>
 5    1  0.1020718E-008  0.3835602E+03  0.7957747E-01  0.3435802E+00
         13   -1    0    0    0    0  0.00000000000E+00  0.00000000000E+00  0.14999999963E+04  0.15000000000E+04  0.10566000000E+00 0.  1.
        994   -1    0    0    0    0 -0.00000000000E+00 -0.00000000000E+00  0.11368683772E-12  0.17120000000E+03  0.17120000000E+03 0.  0.
         13    1    1    2    0    0 -0.17722706446E+02 -0.11102296776E+02  0.94756045506E+02  0.97036460372E+02  0.10566000000E+00 0.  1.
        994    1    1    2    0    0  0.39759759183E+01  0.11868875429E+02  0.28645248954E+01  0.17168087864E+03  0.17120000000E+03 0.  0.
        998    1    1    2    0    0  0.13746730528E+02 -0.76657865248E+00  0.14023794259E+04  0.14024826610E+04  0.10000000000E+02 0.  1.
</event>
<event>
 5    1  0.1020718E-008  0.3828659E+03  0.7957747E-01  0.3438774E+00
         13   -1    0    0    0    0  0.00000000000E+00  0.00000000000E+00  0.14999999963E+04  0.15000000000E+04  0.10566000000E+00 0. -1.
        994   -1    0    0    0    0 -0.00000000000E+00 -0.00000000000E+00  0.11368683772E-12  0.17120000000E+03  0.17120000000E+03 0.  0.
         13    1    1    2    0    0  0.11187136872E+02  0.16007802767E+01  0.22942669027E+02  0.25575217594E+02  0.10566000000E+00 0. -1.
        994    1    1    2    0    0 -0.51023692655E+01  0.10858781710E+01  0.27835403557E+01  0.17130207646E+03  0.17120000000E+03 0.  0.
        998    1    1    2    0    0 -0.60847676061E+01 -0.26866584476E+01  0.14742737869E+04  0.14743227059E+04  0.10000000000E+02 0. -1.
</event>
<event>
 5    1  0.1020718E-008  0.3819054E+03  0.7957747E-01  0.3442904E+00
         13   -1    0    0    0    0  0.00000000000E+00  0.00000000000E+00  0.14999999963E+04  0.15000000000E+04  0.10566000000E+00 0. -1.
        994   -1    0    0    0    0 -0.00000000000E+00 -0.00000000000E+00  0.11368683772E-12  0.17120000000E+03  0.17120000000E+03 0.  0.
         13    1    1    2    0    0 -0.20988708408E+02  0.21493573282E+02  0.13437198711E+03  0.13768929390E+03  0.10566000000E+00 0. -1.
        994    1    1    2    0    0 -0.15471616787E+01 -0.38200276270E+02  0.80452521131E+01  0.17560131235E+03  0.17120000000E+03 0.  0.
        998    1    1    2    0    0  0.22535870087E+02  0.16706702988E+02  0.13575827571E+04  0.13579093937E+04  0.10000000000E+02 0. -1.
</event>
<event>
 5    1  0.1020718E-008  0.3854859E+03  0.7957747E-01  0.3427614E+00
         13   -1    0    0    0    0  0.00000000000E+00  0.00000000000E+00  0.14999999963E+04  0.15000000000E+04  0.10566000000E+00 0. -1.
        994   -1    0    0    0    0 -0.00000000000E+00 -0.00000000000E+00  0.11368683772E-12  0.17120000000E+03  0.17120000000E+03 0.  0.
         13    1    1    2    0    0  0.10052083498E+02  0.47947225279E+01  0.45960151361E+02  0.47290384053E+02  0.10566000000E+00 0. -1.
        994    1    1    2    0    0 -0.51070121413E+01  0.33874744511E+01  0.15124407502E+01  0.17131632740E+03  0.17120000000E+03 0.  0.
        998    1    1    2    0    0 -0.49450713568E+01 -0.81821969790E+01  0.14525274042E+04  0.14525932885E+04  0.10000000000E+02 0. -1.
</event>
<event>
 5    1  0.1020718E-008  0.3849892E+03  0.7957747E-01  0.3429718E+00
         13   -1    0    0    0    0  0.00000000000E+00  0.00000000000E+00  0.14999999963E+04  0.15000000000E+04  0.10566000000E+00 0.  1.
        994   -1    0    0    0    0 -0.00000000000E+00 -0.00000000000E+00  0.11368683772E-12  0.17120000000E+03  0.17120000000E+03 0.  0.
         13    1    1    2    0    0 -0.57008218617E+01 -0.92450012638E+01  0.39348111283E+02  0.40819780056E+02  0.10566000000E+00 0.  1.
        994    1    1    2    0    0  0.15357223748E+02 -0.21625488679E+02  0.39525796644E+01  0.17328753264E+03  0.17120000000E+03 0.  0.
        998    1    1    2    0    0 -0.96564018862E+01  0.30870489942E+02  0.14566993053E+04  0.14570926873E+04  0.10000000000E+02 0.  1.
</event>
<event>
 5    1  0.1020718E-008  0.3814180E+03  0.7957747E-01  0.3445007E+00
         13   -1    0    0    0    0  0.00000000000E+00  0.00000000000E+00  0.14999999963E+04  0.15000000000E+04  0.10566000000E+00 0. -1.
        994   -1    0    0    0    0 -0.00000000000E+00 -0.00000000000E+00  0.11368683772E-12  0.17120000000E+03  0.17120000000E+03 0.  0.
         13    1    1    2    0    0 -0.50776940365E+02  0.13163478466E+03  0.83360761621E+03  0.84546299929E+03  0.10566000000E+00 0. -1.
        994    1    1    2    0    0  0.59128520362E+02 -0.14408627514E+03  0.88849030763E+02  0.24791253875E+03  0.17120000000E+03 0.  0.
        998    1    1    2    0    0 -0.83515799968E+01  0.12451490477E+02  0.57754334931E+03  0.57782446196E+03  0.10000000000E+02 0.  1.
</event>
<event>
 5    1  0.1020718E-008  0.3965652E+03  0.7957747E-01  0.3382056E+00
         13   -1    0    0    0    0  0.00000000000E+00  0.00000000000E+00  0.14999999963E+04  0.15000000000E+04  0.10566000000E+00 0. -1.
        994   -1    0    0    0    0 -0.00000000000E+00 -0.00000000000E+00  0.11368683772E-12  0.17120000000E+03  0.17120000000E+03 0.  0.
         13    1    1    2    0    0 -0.92208147446E+02  0.16179617772E+01  0.14508683024E+03  0.17191614156E+03  0.10566000000E+00 0. -1.
        994    1    1    2    0    0  0.87159052924E+02  0.31879706510E+02  0.59832105679E+02  0.20372122389E+03  0.17120000000E+03 0.  0.
        998    1    1    2    0    0  0.50490945220E+01 -0.33497668287E+02  0.12950810604E+04  0.12955626346E+04  0.10000000000E+02 0. -1.
</event>
<event>
 5    1  0.1020718E-008  0.3818135E+03  0.7957747E-01  0.3443300E+00
         13   -1    0    0    0    0  0.00000000000E+00  0.00000000000E+00  0.14999999963E+04  0.15000000000E+04  0.10566000000E+00 0. -1.
        994   -1    0    0    0    0 -0.00000000000E+00 -0.00000000000E+00  0.11368683772E-12  0.17120000000E+03  0.17120000000E+03 0.  0.
         13    1    1    2    0    0 -0.17281985776E+02  0.50533642594E+01  0.47857531147E+02  0.51132748549E+02  0.10566000000E+00 0. -1.
        994    1    1    2    0    0  0.16100463429E+02 -0.11797500319E+02  0.45455135069E+01  0.17241956858E+03  0.17120000000E+03 0.  0.
        998    1    1    2    0    0  0.11815223468E+01  0.67441360597E+01  0.14475969516E+04  0.14476476829E+04  0.10000000000E+02 0. -1.
</event>
<event>
 5    1  0.1020718E-008  0.3857840E+03  0.7957747E-01  0.3426354E+00
         13   -1    0    0    0    0  0.00000000000E+00  0.00000000000E+00  0.14999999963E+04  0.15000000000E+04  0.10566000000E+00 0. -1.
        994   -1    0    0    0    0 -0.00000000000E+00 -0.00000000000E+00  0.11368683772E-12  0.17120000000E+03  0.17120000000E+03 0.  0.
         13    1    1    2    0    0  0.53043804851E+01  0.10773650260E+02  0.58446364786E+02  0.59667383996E+02  0.10566000000E+00 0. -1.
        994    1    1    2    0    0 -0.55743649449E+01 -0.65785593217E+01  0.14853151808E+01  0.17142344399E+03  0.17120000000E+03 0.  0.
        998    1    1    2    0    0  0.26998445980E+00 -0.41950909385E+01  0.14400683163E+04  0.14401091720E+04  0.10000000000E+02 0. -1.
</event>
<event>
 5    1  0.1020718E-008  0.3842934E+03  0.7957747E-01  0.3432674E+00
         13   -1    0    0    0    0  0.00000000000E+00  0.00000000000E+00  0.14999999963E+04  0.15000000000E+04  0.10566000000E+00 0. -1.
        994   -1    0    0    0    0 -0.00000000000E+00 -0.00000000000E+00  0.11368683772E-12  0.17120000000E+03  0.17120000000E+03 0.  0.
         13    1    1    2    0    0 -0.16302174672E+02  0.15089075828E+02  0.12205342506E+03  0.12405841705E+03  0.10566000000E+00 0. -1.
        994    1    1    2    0    0  0.11979951805E+02 -0.10516137757E+02  0.28193952222E+01  0.17196365136E+03  0.17120000000E+03 0.  0.
        998    1    1    2    0    0  0.43222228668E+01 -0.45729380703E+01  0.13751271760E+04  0.13751779316E+04  0.10000000000E+02 0. -1.
</event>
<event>
 5    1  0.1020718E-008  0.3798528E+03  0.7957747E-01  0.3451800E+00
         13   -1    0    0    0    0  0.00000000000E+00  0.00000000000E+00  0.14999999963E+04  0.15000000000E+04  0.10566000000E+00 0. -1.
        994   -1    0    0    0    0 -0.00000000000E+00 -0.00000000000E+00  0.11368683772E-12  0.17120000000E+03  0.17120000000E+03 0.  0.
         13    1    1    2    0    0  0.18828434453E+02 -0.97516431438E+01  0.50688233789E+02  0.54944633010E+02  0.10566000000E+00 0. -1.
        994    1    1    2    0    0 -0.19150311018E+02  0.63082224901E+01  0.55682798775E+01  0.17247311044E+03  0.17120000000E+03 0.  0.
        998    1    1    2    0    0  0.32187656456E+00  0.34434206537E+01  0.14437434826E+04  0.14437822566E+04  0.10000000000E+02 0. -1.
</event>
<event>
 5    1  0.1020718E-008  0.3847591E+03  0.7957747E-01  0.3430694E+00
         13   -1    0    0    0    0  0.00000000000E+00  0.00000000000E+00  0.14999999963E+04  0.15000000000E+04  0.10566000000E+00 0.  1.
        994   -1    0    0    0    0 -0.00000000000E+00 -0.00000000000E+00  0.11368683772E-12  0.17120000000E+03  0.17120000000E+03 0.  0.
         13    1    1    2    0    0  0.14958897704E+02  0.49570793728E+01  0.75454457179E+02  0.77082601984E+02  0.10566000000E+00 0.  1.
        994    1    1    2    0    0 -0.48764689965E+01  0.11296189335E+02  0.22481682469E+01  0.17165627895E+03  0.17120000000E+03 0.  0.
        998    1    1    2    0    0 -0.10082428708E+02 -0.16253268708E+02  0.14222973709E+04  0.14224611191E+04  0.10000000000E+02 0.  1.
</event>
<event>
 5    1  0.1020718E-008  0.3774104E+03  0.7957747E-01  0.3462512E+00
         13   -1    0    0    0    0  0.00000000000E+00  0.00000000000E+00  0.14999999963E+04  0.15000000000E+04  0.10566000000E+00 0. -1.
        994   -1    0    0    0    0 -0.00000000000E+00 -0.00000000000E+00  0.11368683772E-12  0.17120000000E+03  0.17120000000E+03 0.  0.
         13    1    1    2    0    0  0.19173535172E+02 -0.11810149461E+02  0.46561153272E+02  0.51720945847E+02  0.10566000000E+00 0. -1.
        994    1    1    2    0    0 -0.50366057234E+01 -0.69574536176E+01  0.56948735099E+01  0.17150989809E+03  0.17120000000E+03 0.  0.
        998    1    1    2    0    0 -0.14136929448E+02  0.18767603078E+02  0.14477439695E+04  0.14479691561E+04  0.10000000000E+02 0. -1.
</event>
<event>
 5    1  0.1020718E-008  0.3798369E+03  0.7957747E-01  0.3451869E+00
         13   -1    0    0    0    0  0.00000000000E+00  0.00000000000E+00  0.14999999963E+04  0.15000000000E+04  0.10566000000E+00 0. -1.
        994   -1    0    0    0    0 -0.00000000000E+00 -0.00000000000E+00  0.11368683772E-12  0.17120000000E+03  0.17120000000E+03 0.  0.
         13    1    1    2    0    0  0.66526823757E+02 -0.27675293247E+02  0.41963018148E+03  0.42577134768E+03  0.10566000000E+00 0. -1.
        994    1    1    2    0    0 -0.57805270938E+02  0.74692800136E+02  0.34653558474E+02  0.19857183299E+03  0.17120000000E+03 0.  0.
        998    1    1    2    0    0 -0.87215528181E+01 -0.47017506889E+02  0.10457162563E+04  0.10468568193E+04  0.10000000000E+02 0. -1.
</event>
<event>
 5    1  0.1020718E-008  0.3698231E+03  0.7957747E-01  0.3496704E+00
         13   -1    0    0    0    0  0.00000000000E+00  0.00000000000E+00  0.14999999963E+04  0.15000000000E+04  0.10566000000E+00 0.  1.
        994   -1    0    0    0    0 -0.00000000000E+00 -0.00000000000E+00  0.11368683772E-12  0.17120000000E+03  0.17120000000E+03 0.  0.
         13    1    1    2    0    0  0.58811076152E+01 -0.39066464647E+02  0.77065241052E+02  0.86601608699E+02  0.10566000000E+00 0.  1.
        994    1    1    2    0    0 -0.54129390856E+01  0.35939058140E+02  0.13945414015E+02  0.17557001561E+03  0.17120000000E+03 0.  0.
        998    1    1    2    0    0 -0.46816852964E+00  0.31274065073E+01  0.14089893412E+04  0.14090283757E+04  0.10000000000E+02 0.  1.
</event>
<event>
 5    1  0.1020718E-008  0.3796774E+03  0.7957747E-01  0.3452564E+00
         13   -1    0    0    0    0  0.00000000000E+00  0.00000000000E+00  0.14999999963E+04  0.15000000000E+04  0.10566000000E+00 0. -1.
        994   -1    0    0    0    0 -0.00000000000E+00 -0.00000000000E+00  0.11368683772E-12  0.17120000000E+03  0.17120000000E+03 0.  0.
         13    1    1    2    0    0 -0.66174257223E+02  0.11802136791E+03  0.68503995552E+03  0.69827489388E+03  0.10566000000E+00 0. -1.
        994    1    1    2    0    0  0.43857183063E+02 -0.16926083424E+03  0.11450556139E+03  0.27017336305E+03  0.17120000000E+03 0.  0.
        998    1    1    2    0    0  0.22317074159E+02  0.51239466331E+02  0.70045447937E+03  0.70275174307E+03  0.10000000000E+02 0. -1.
</event>
<event>
 5    1  0.1020718E-008  0.3860214E+03  0.7957747E-01  0.3425352E+00
         13   -1    0    0    0    0  0.00000000000E+00  0.00000000000E+00  0.14999999963E+04  0.15000000000E+04  0.10566000000E+00 0. -1.
        994   -1    0    0    0    0 -0.00000000000E+00 -0.00000000000E+00  0.11368683772E-12  0.17120000000E+03  0.17120000000E+03 0.  0.
         13    1    1    2    0    0 -0.12418257835E+02 -0.13678871587E+01  0.68581282570E+02  0.69710026007E+02  0.10566000000E+00 0. -1.
        994    1    1    2    0    0  0.11021597647E+02  0.45348941604E+01  0.15895972962E+01  0.17162169938E+03  0.17120000000E+03 0.  0.
        998    1    1    2    0    0  0.13966601884E+01 -0.31670070017E+01  0.14298291164E+04  0.14298682746E+04  0.10000000000E+02 0. -1.
</event>
<event>
 5    1  0.1020718E-008  0.3754509E+03  0.7957747E-01  0.3471209E+00
         13   -1    0    0    0    0  0.00000000000E+00  0.00000000000E+00  0.14999999963E+04  0.15000000000E+04  0.10566000000E+00 0.  1.
        994   -1    0    0    0    0 -0.00000000000E+00 -0.00000000000E+00  0.11368683772E-12  0.17120000000E+03  0.17120000000E+03 0.  0.
         13    1    1    2    0    0  0.27232871118E+02  0.15449817372E+02  0.30353821079E+02  0.43608390755E+02  0.10566000000E+00 0.  1.
        994    1    1    2    0    0 -0.18074345622E+02  0.10210993378E+01  0.15019426944E+02  0.17280841357E+03  0.17120000000E+03 0.  0.
        998    1    1    2    0    0 -0.91585254959E+01 -0.16470916709E+02  0.14546267483E+04  0.14547831957E+04  0.10000000000E+02 0.  1.
</event>
<event>
 5    1  0.1020718E-008  0.3795513E+03  0.7957747E-01  0.3453114E+00
         13   -1    0    0    0    0  0.00000000000E+00  0.00000000000E+00  0.14999999963E+04  0.15000000000E+04  0.10566000000E+00 0.  1.
        994   -1    0    0    0    0 -0.00000000000E+00 -0.00000000000E+00  0.11368683772E-12  0.17120000000E+03  0.17120000000E+03 0.  0.
         13    1    1    2    0    0  0.13124142122E+02  0.30390822054E+01  0.18704923810E+02  0.23051344123E+02  0.10566000000E+00 0.  1.
        994    1    1    2    0    0 -0.13804935576E+02 -0.66502850908E+01  0.51462725476E+01  0.17196141038E+03  0.17120000000E+03 0.  0.
        998    1    1    2    0    0  0.68079345338E+00  0.36112028853E+01  0.14761487999E+04  0.14761872455E+04  0.10000000000E+02 0.  1.
</event>
<event>
 5    1  0.1020718E-008  0.3826546E+03  0.7957747E-01  0.3439681E+00
         13   -1    0    0    0    0  0.00000000000E+00  0.00000000000E+00  0.14999999963E+04  0.15000000000E+04  0.10566000000E+00 0.  1.
        994   -1    0    0    0    0 -0.00000000000E+00 -0.00000000000E+00  0.11368683772E-12  0.17120000000E+03  0.17120000000E+03 0.  0.
         13    1    1    2    0    0 -0.24557435805E+02  0.13124322077E+02  0.13635730615E+03  0.13917126710E+03  0.10566000000E+00 0.  1.
        994    1    1    2    0    0  0.11573467509E+02 -0.16810486228E+02  0.41806439105E+01  0.17246291016E+03  0.17120000000E+03 0.  0.
        998    1    1    2    0    0  0.12983968296E+02  0.36861641508E+01  0.13594620462E+04  0.13595658227E+04  0.10000000000E+02 0.  1.
</event>
<event>
 5    1  0.1020718E-008  0.3817814E+03  0.7957747E-01  0.3443438E+00
         13   -1    0    0    0    0  0.00000000000E+00  0.00000000000E+00  0.14999999963E+04  0.15000000000E+04  0.10566000000E+00 0.  1.
        994   -1    0    0    0    0 -0.00000000000E+00 -0.00000000000E+00  0.11368683772E-12  0.17120000000E+03  0.17120000000E+03 0.  0.
         13    1    1    2    0    0  0.14429976312E+02  0.11127293210E+02  0.49487781639E+02  0.52736065137E+02  0.10566000000E+00 0.  1.
        994    1    1    2    0    0 -0.96013153044E+01 -0.12624850252E+02  0.40730822398E+01  0.17198140044E+03  0.17120000000E+03 0.  0.
        998    1    1    2    0    0 -0.48286610074E+01  0.14975570417E+01  0.14464391324E+04  0.14464825344E+04  0.10000000000E+02 0.  1.
</event>
<event>
 5    1  0.1020718E-008  0.3744716E+03  0.7957747E-01  0.3475590E+00
         13   -1    0    0    0    0  0.00000000000E+00  0.00000000000E+00  0.14999999963E+04  0.15000000000E+04  0.10566000000E+00 0.  1.
        994   -1    0    0    0    0 -0.00000000000E+00 -0.00000000000E+00  0.11368683772E-12  0.17120000000E+03  0.17120000000E+03 0.  0.
         13    1    1    2    0    0 -0.18409616085E+03 -0.54834870667E+02  0.10504159590E+04  0.10678351734E+04  0.10566000000E+00 0.  1.
        994    1    1    2    0    0  0.18478594254E+03  0.16334235823E+02  0.13497871252E+03  0.28625398627E+03  0.17120000000E+03 0.  0.
        998    1    1    2    0    0 -0.68978169327E+00  0.38500634844E+02  0.31460532474E+03  0.31711084030E+03  0.10000000000E+02 0.  1.
</event>
<event>
 5    1  0.1020718E-008  0.3760005E+03  0.7957747E-01  0.3468760E+00
         13   -1    0    0    0    0  0.00000000000E+00  0.00000000000E+00  0.14999999963E+04  0.15000000000E+04  0.10566000000E+00 0.  1.
        994   -1    0    0    0    0 -0.00000000000E+00 -0.00000000000E+00  0.11368683772E-12  0.17120000000E+03  0.17120000000E+03 0.  0.
         13    1    1    2    0    0 -0.28208768179E+02  0.27818168356E+01  0.70808726937E+02  0.76271620421E+02  0.10566000000E+00 0.  1.
        994    1    1    2    0    0 -0.12879532615E+02  0.91819684757E+01  0.70139028664E+01  0.17207215271E+03  0.17120000000E+03 0.  0.
        998    1    1    2    0    0  0.41088300795E+02 -0.11963785311E+02  0.14221773665E+04  0.14228562269E+04  0.10000000000E+02 0.  1.
</event>
<event>
 5    1  0.1020718E-008  0.3797136E+03  0.7957747E-01  0.3452407E+00
         13   -1    0    0    0    0  0.00000000000E+00  0.00000000000E+00  0.14999999963E+04  0.15000000000E+04  0.10566000000E+00 0.  1.
        994   -1    0    0    0    0 -0.00000000000E+00 -0.00000000000E+00  0.11368683772E-12  0.17120000000E+03  0.17120000000E+03 0.  0.
         13    1    1    2    0    0 -0.10279139755E+02  0.54111403522E+01  0.13648568145E+02  0.17923050256E+02  0.10566000000E+00 0.  1.
        994    1    1    2    0    0  0.14122216695E+02 -0.82007932016E+01  0.51706814753E+01  0.17205483417E+03  0.17120000000E+03 0.  0.
        998    1    1    2    0    0 -0.38430769406E+01  0.27896528495E+01  0.14811807467E+04  0.14812221156E+04  0.10000000000E+02 0.  1.
</event>
<event>
 5    1  0.1020718E-008  0.3850320E+03  0.7957747E-01  0.3429536E+00
         13   -1    0    0    0    0  0.00000000000E+00  0.00000000000E+00  0.14999999963E+04  0.15000000000E+04  0.10566000000E+00 0. -1.
        994   -1    0    0    0    0 -0.00000000000E+00 -0.00000000000E+00  0.11368683772E-12  0.17120000000E+03  0.17120000000E+03 0.  0.
         13    1    1    2    0    0 -0.53180337558E+01  0.15201630602E+02  0.76915988179E+02  0.78584040731E+02  0.10566000000E+00 0. -1.
        994    1    1    2    0    0 -0.26400919334E+01 -0.18994242315E+02  0.28244565395E+01  0.17229384458E+03  0.17120000000E+03 0.  0.
        998    1    1    2    0    0  0.79581256892E+01  0.37926117134E+01  0.14202595516E+04  0.14203221147E+04  0.10000000000E+02 0. -1.
</event>
<event>
 5    1  0.1020718E-008  0.3801172E+03  0.7957747E-01  0.3450648E+00
         13   -1    0    0    0    0  0.00000000000E+00  0.00000000000E+00  0.14999999963E+04  0.15000000000E+04  0.10566000000E+00 0. -1.
        994   -1    0    0    0    0 -0.00000000000E+00 -0.00000000000E+00  0.11368683772E-12  0.17120000000E+03  0.17120000000E+03 0.  0.
         13    1    1    2    0    0  0.29652955176E+01 -0.22229712810E+02  0.77987560811E+02  0.81148160265E+02  0.10566000000E+00 0. -1.
        994    1    1    2    0    0  0.63162644214E+02 -0.29399265551E+02  0.20467849698E+02  0.18596292456E+03  0.17120000000E+03 0.  0.
        998    1    1    2    0    0 -0.66127939732E+02  0.51628978362E+02  0.14015445858E+04  0.14040889152E+04  0.10000000000E+02 0. -1.
</event>
<event>
 5    1  0.1020718E-008  0.3836263E+03  0.7957747E-01  0.3435519E+00
         13   -1    0    0    0    0  0.00000000000E+00  0.00000000000E+00  0.14999999963E+04  0.15000000000E+04  0.10566000000E+00 0. -1.
        994   -1    0    0    0    0 -0.00000000000E+00 -0.00000000000E+00  0.11368683772E-12  0.17120000000E+03  0.17120000000E+03 0.  0.
         13    1    1    2    0    0 -0.10571063195E+02 -0.21490319161E+01  0.24428318783E+02  0.26704299988E+02  0.10566000000E+00 0. -1.
        994    1    1    2    0    0  0.62773012860E+01  0.43718625657E+01  0.25070106776E+01  0.17138915601E+03  0.17120000000E+03 0.  0.
        998    1    1    2    0    0  0.42937619088E+01 -0.22228306496E+01  0.14730646668E+04  0.14731065440E+04  0.10000000000E+02 0. -1.
</event>
<event>
 5    1  0.1020718E-008  0.3757488E+03  0.7957747E-01  0.3469881E+00
         13   -1    0    0    0    0  0.00000000000E+00  0.00000000000E+00  0.14999999963E+04  0.15000000000E+04  0.10566000000E+00 0. -1.
        994   -1    0    0    0    0 -0.00000000000E+00 -0.00000000000E+00  0.11368683772E-12  0.17120000000E+03  0.17120000000E+03 0.  0.
         13    1    1    2    0    0 -0.71103065785E+02  0.20976677850E+02  0.28515214212E+03  0.29463099344E+03  0.10566000000E+00 0. -1.
        994    1    1    2    0    0 -0.17670025074E+02  0.29612504904E+02  0.18266004505E+02  0.17559105089E+03  0.17120000000E+03 0.  0.
        998    1    1    2    0    0  0.88773090860E+02 -0.50589182754E+02  0.11965818497E+04  0.12009779557E+04  0.10000000000E+02 0. -1.
</event>
<event>
 5    1  0.1020718E-008  0.3841671E+03  0.7957747E-01  0.3433212E+00
         13   -1    0    0    0    0  0.00000000000E+00  0.00000000000E+00  0.14999999963E+04  0.15000000000E+04  0.10566000000E+00 0. -1.
        994   -1    0    0    0    0 -0.00000000000E+00 -0.00000000000E+00  0.11368683772E-12  0.17120000000E+03  0.17120000000E+03 0.  0.
         13    1    1    2    0    0 -0.18065517547E+02  0.10085364380E+02  0.96590175812E+02  0.98781327822E+02  0.10566000000E+00 0. -1.
        994    1    1    2    0    0  0.21806982568E+02 -0.10766168668E+02  0.39969850058E+01  0.17296494086E+03  0.17120000000E+03 0.  0.
        998    1    1    2    0    0 -0.37414650218E+01  0.68080428787E+00  0.13994128355E+04  0.13994537313E+04  0.10000000000E+02 0. -1.
</event>
<event>
 5    1  0.1020718E-008  0.3702026E+03  0.7957747E-01  0.3494960E+00
         13   -1    0    0    0    0  0.00000000000E+00  0.00000000000E+00  0.14999999963E+04  0.15000000000E+04  0.10566000000E+00 0. -1.
        994   -1    0    0    0    0 -0.00000000000E+00 -0.00000000000E+00  0.11368683772E-12  0.17120000000E+03  0.17120000000E+03 0.  0.
         13    1    1    2    0    0 -0.47084543185E+02 -0.42034290115E+02  0.16510011603E+03  0.17675377005E+03  0.10566000000E+00 0. -1.
        994    1    1    2    0    0  0.46540981635E+02  0.28389891926E+02  0.21517038413E+02  0.18095433644E+03  0.17120000000E+03 0.  0.
        998    1    1    2    0    0  0.54356155001E+00  0.13644398188E+02  0.13133828418E+04  0.13134918935E+04  0.10000000000E+02 0. -1.
</event>
<event>
 5    1  0.1020718E-008  0.3542702E+03  0.7957747E-01  0.3571460E+00
         13   -1    0    0    0    0  0.00000000000E+00  0.00000000000E+00  0.14999999963E+04  0.15000000000E+04  0.10566000000E+00 0.  1.
        994   -1    0    0    0    0 -0.00000000000E+00 -0.00000000000E+00  0.11368683772E-12  0.17120000000E+03  0.17120000000E+03 0.  0.
         13    1    1    2    0    0 -0.73572193146E+02  0.17856423608E+03  0.11180118208E+04  0.11345697408E+04  0.10566000000E+00 0.  1.
        994    1    1    2    0    0  0.65886967127E+02 -0.14747803513E+03  0.10519334039E+03  0.25780989536E+03  0.17120000000E+03 0.  0.
        998    1    1    2    0    0  0.76852260190E+01 -0.31086200953E+02  0.27679483508E+03  0.27882036388E+03  0.10000000000E+02 0. -1.
</event>
<event>
 5    1  0.1020718E-008  0.3713568E+03  0.7957747E-01  0.3489678E+00
         13   -1    0    0    0    0  0.00000000000E+00  0.00000000000E+00  0.14999999963E+04  0.15000000000E+04  0.10566000000E+00 0.  1.
        994   -1    0    0    0    0 -0.00000000000E+00 -0.00000000000E+00  0.11368683772E-12  0.17120000000E+03  0.17120000000E+03 0.  0.
         13    1    1    2    0    0 -0.69463912046E+02  0.14180138494E+01  0.21594577786E+03  0.22684760519E+03  0.10566000000E+00 0.  1.
        994    1    1    2    0    0  0.29428650359E+02  0.61395541598E+00  0.14707532991E+02  0.17433351350E+03  0.17120000000E+03 0.  0.
        998    1    1    2    0    0  0.40035261687E+02 -0.20319692654E+01  0.12693466854E+04  0.12700188813E+04  0.10000000000E+02 0.  1.
</event>
<event>
 5    1  0.1020718E-008  0.3805693E+03  0.7957747E-01  0.3448683E+00
         13   -1    0    0    0    0  0.00000000000E+00  0.00000000000E+00  0.14999999963E+04  0.15000000000E+04  0.10566000000E+00 0.  1.
        994   -1    0    0    0    0 -0.00000000000E+00 -0.00000000000E+00  0.11368683772E-12  0.17120000000E+03  0.17120000000E+03 0.  0.
         13    1    1    2    0    0  0.29289999668E+02 -0.10771043320E+02  0.11525423192E+03  0.11940464227E+03  0.10566000000E+00 0.  1.
        994    1    1    2    0    0 -0.31944666449E+02  0.10365978888E+02  0.76186508493E+01  0.17462931905E+03  0.17120000000E+03 0.  0.
        998    1    1    2    0    0  0.26546667805E+01  0.40506443129E+00  0.13771271135E+04  0.13771660387E+04  0.10000000000E+02 0.  1.
</event>
<event>
 5    1  0.1020718E-008  0.3799042E+03  0.7957747E-01  0.3451576E+00
         13   -1    0    0    0    0  0.00000000000E+00  0.00000000000E+00  0.14999999963E+04  0.15000000000E+04  0.10566000000E+00 0. -1.
        994   -1    0    0    0    0 -0.00000000000E+00 -0.00000000000E+00  0.11368683772E-12  0.17120000000E+03  0.17120000000E+03 0.  0.
         13    1    1    2    0    0 -0.21911762532E+02 -0.14282154579E+01  0.53804579131E+02  0.58112899051E+02  0.10566000000E+00 0. -1.
        994    1    1    2    0    0  0.24939918609E+02  0.31557159085E+01  0.62976535852E+01  0.17315039279E+03  0.17120000000E+03 0.  0.
        998    1    1    2    0    0 -0.30281560774E+01 -0.17275004506E+01  0.14398977636E+04  0.14399367082E+04  0.10000000000E+02 0. -1.
</event>
<event>
 5    1  0.1020718E-008  0.3772468E+03  0.7957747E-01  0.3463235E+00
         13   -1    0    0    0    0  0.00000000000E+00  0.00000000000E+00  0.14999999963E+04  0.15000000000E+04  0.10566000000E+00 0. -1.
        994   -1    0    0    0    0 -0.00000000000E+00 -0.00000000000E+00  0.11368683772E-12  0.17120000000E+03  0.17120000000E+03 0.  0.
         13    1    1    2    0    0 -0.16586980222E+02  0.60532405853E+01  0.25644801415E+02  0.31135777462E+02  0.10566000000E+00 0. -1.
        994    1    1    2    0    0  0.16520768152E+02 -0.71153697847E+00  0.64524956021E+01  0.17211774099E+03  0.17120000000E+03 0.  0.
        998    1    1    2    0    0  0.66212070202E-01 -0.53417036069E+01  0.14679026993E+04  0.14679464815E+04  0.10000000000E+02 0. -1.
</event>
<event>
 5    1  0.1020718E-008  0.3832624E+03  0.7957747E-01  0.3437075E+00
         13   -1    0    0    0    0  0.00000000000E+00  0.00000000000E+00  0.14999999963E+04  0.15000000000E+04  0.10566000000E+00 0. -1.
        994   -1    0    0    0    0 -0.00000000000E+00 -0.00000000000E+00  0.11368683772E-12  0.17120000000E+03  0.17120000000E+03 0.  0.
         13    1    1    2    0    0 -0.78754547948E+01  0.78482216583E+01  0.24290252561E+02  0.26714133056E+02  0.10566000000E+00 0. -1.
        994    1    1    2    0    0 -0.42161289197E+01 -0.85015532807E+01  0.27931470301E+01  0.17148554989E+03  0.17120000000E+03 0.  0.
        998    1    1    2    0    0  0.12091583714E+02  0.65333162237E+00  0.14729165967E+04  0.14730003171E+04  0.10000000000E+02 0. -1.
</event>
<event>
 5    1  0.1020718E-008  0.3802614E+03  0.7957747E-01  0.3450021E+00
         13   -1    0    0    0    0  0.00000000000E+00  0.00000000000E+00  0.14999999963E+04  0.15000000000E+04  0.10566000000E+00 0.  1.
        994   -1    0    0    0    0 -0.00000000000E+00 -0.00000000000E+00  0.11368683772E-12  0.17120000000E+03  0.17120000000E+03 0.  0.
         13    1    1    2    0    0 -0.19620610444E+01 -0.32058067419E+02  0.15970632387E+03  0.16290393003E+03  0.10566000000E+00 0.  1.
        994    1    1    2    0    0 -0.17193900842E+02 -0.12232529299E+02  0.54898778475E+01  0.17258286056E+03  0.17120000000E+03 0.  0.
        998    1    1    2    0    0  0.19155961886E+02  0.44290596718E+02  0.13348037946E+04  0.13357132094E+04  0.10000000000E+02 0.  1.
</event>
<event>
 5    1  0.1020718E-008  0.3886124E+03  0.7957747E-01  0.3414495E+00
         13   -1    0    0    0    0  0.00000000000E+00  0.00000000000E+00  0.14999999963E+04  0.15000000000E+04  0.10566000000E+00 0. -1.
        994   -1    0    0    0    0 -0.00000000000E+00 -0.00000000000E+00  0.11368683772E-12  0.17120000000E+03  0.17120000000E+03 0.  0.
         13    1    1    2    0    0 -0.12579787502E+03  0.61939687054E+02  0.34447781952E+03  0.37192285423E+03  0.10566000000E+00 0. -1.
        994    1    1    2    0    0  0.12141202987E+03 -0.64603287268E+02  0.95951430867E+02  0.23964678760E+03  0.17120000000E+03 0.  0.
        998    1    1    2    0    0  0.43858451504E+01  0.26636002134E+01  0.10595707459E+04  0.10596303582E+04  0.10000000000E+02 0. -1.
</event>
<event>
 5    1  0.1145043E-008  0.3858813E+03  0.7957747E-01  0.3425943E+00
         13   -1    0    0    0    0  0.00000000000E+00  0.00000000000E+00  0.14999999963E+04  0.15000000000E+04  0.10566000000E+00 0. -1.
        994   -1    0    0    0    0 -0.00000000000E+00 -0.00000000000E+00  0.11368683772E-12  0.17120000000E+03  0.17120000000E+03 0.  0.
         13    1    1    2    0    0 -0.63253453522E+01 -0.10276842922E+02  0.62979333888E+02  0.64125121094E+02  0.10566000000E+00 0. -1.
        994    1    1    2    0    0  0.57651742097E+01  0.24198862177E+01  0.13214489117E+01  0.17131923217E+03  0.17120000000E+03 0.  0.
        998    1    1    2    0    0  0.56017114250E+00  0.78569567048E+01  0.14356992135E+04  0.14357556467E+04  0.10000000000E+02 0. -1.
</event>
<event>
 5    1  0.1020718E-008  0.3809781E+03  0.7957747E-01  0.3446911E+00
         13   -1    0    0    0    0  0.00000000000E+00  0.00000000000E+00  0.14999999963E+04  0.15000000000E+04  0.10566000000E+00 0. -1.
        994   -1    0    0    0    0 -0.00000000000E+00 -0.00000000000E+00  0.11368683772E-12  0.17120000000E+03  0.17120000000E+03 0.  0.
         13    1    1    2    0    0  0.90761583473E+02  0.38466838197E+02  0.23451284604E+03  0.25438877490E+03  0.10566000000E+00 0. -1.
        994    1    1    2    0    0 -0.95681999601E+02 -0.32393482048E+02  0.54988932143E+02  0.20624646757E+03  0.17120000000E+03 0.  0.
        998    1    1    2    0    0  0.49204161279E+01 -0.60733561491E+01  0.12104982181E+04  0.12105647575E+04  0.10000000000E+02 0. -1.
</event>
<event>
 5    1  0.1022147E-008  0.3859212E+03  0.7957747E-01  0.3425775E+00
         13   -1    0    0    0    0  0.00000000000E+00  0.00000000000E+00  0.14999999963E+04  0.15000000000E+04  0.10566000000E+00 0. -1.
        994   -1    0    0    0    0 -0.00000000000E+00 -0.00000000000E+00  0.11368683772E-12  0.17120000000E+03  0.17120000000E+03 0.  0.
         13    1    1    2    0    0  0.78698281580E+01  0.11800860429E+02  0.84934878773E+02  0.86111203094E+02  0.10566000000E+00 0. -1.
        994    1    1    2    0    0 -0.62808576575E+01 -0.96765832502E+01  0.16099806112E+01  0.17159579678E+03  0.17120000000E+03 0.  0.
        998    1    1    2    0    0 -0.15889705005E+01 -0.21242771785E+01  0.14134551369E+04  0.14134930001E+04  0.10000000000E+02 0. -1.
</event>
<event>
 5    1  0.1020718E-008  0.3810301E+03  0.7957747E-01  0.3446685E+00
         13   -1    0    0    0    0  0.00000000000E+00  0.00000000000E+00  0.14999999963E+04  0.15000000000E+04  0.10566000000E+00 0.  1.
        994   -1    0    0    0    0 -0.00000000000E+00 -0.00000000000E+00  0.11368683772E-12  0.17120000000E+03  0.17120000000E+03 0.  0.
         13    1    1    2    0    0 -0.10224027841E+02  0.43157035958E+01  0.15168099028E+02  0.18794638463E+02  0.10566000000E+00 0.  1.
        994    1    1    2    0    0  0.13193285484E+02 -0.11568957933E+02  0.46405186406E+01  0.17215945511E+03  0.17120000000E+03 0.  0.
        998    1    1    2    0    0 -0.29692576430E+01  0.72532543369E+01  0.14801913786E+04  0.14802459064E+04  0.10000000000E+02 0.  1.
</event>
<event>
 5    1  0.1020718E-008  0.3854391E+03  0.7957747E-01  0.3427812E+00
         13   -1    0    0    0    0  0.00000000000E+00  0.00000000000E+00  0.14999999963E+04  0.15000000000E+04  0.10566000000E+00 0.  1.
        994   -1    0    0    0    0 -0.00000000000E+00 -0.00000000000E+00  0.11368683772E-12  0.17120000000E+03  0.17120000000E+03 0.  0.
         13    1    1    2    0    0 -0.11936311226E+01 -0.12983568637E+02  0.60060725125E+02  0.61459740289E+02  0.10566000000E+00 0.  1.
        994    1    1    2    0    0 -0.21608369850E+01  0.98966073588E+01  0.17493463290E+01  0.17150834460E+03  0.17120000000E+03 0.  0.
        998    1    1    2    0    0  0.33544681076E+01  0.30869612786E+01  0.14381899248E+04  0.14382319151E+04  0.10000000000E+02 0.  1.
</event>
<event>
 5    1  0.1020718E-008  0.3715916E+03  0.7957747E-01  0.3488608E+00
         13   -1    0    0    0    0  0.00000000000E+00  0.00000000000E+00  0.14999999963E+04  0.15000000000E+04  0.10566000000E+00 0. -1.
        994   -1    0    0    0    0 -0.00000000000E+00 -0.00000000000E+00  0.11368683772E-12  0.17120000000E+03  0.17120000000E+03 0.  0.
         13    1    1    2    0    0  0.20380630101E+02 -0.14249938598E+02  0.31970316270E+02  0.40503618601E+02  0.10566000000E+00 0. -1.
        994    1    1    2    0    0 -0.21976587864E+02  0.23569786011E+02  0.12019082253E+02  0.17462074208E+03  0.17120000000E+03 0.  0.
        998    1    1    2    0    0  0.15959577631E+01 -0.93198474127E+01  0.14560105978E+04  0.14560756393E+04  0.10000000000E+02 0. -1.
</event>
<event>
 5    1  0.1062440E-008  0.3857675E+03  0.7957747E-01  0.3426424E+00
         13   -1    0    0    0    0  0.00000000000E+00  0.00000000000E+00  0.14999999963E+04  0.15000000000E+04  0.10566000000E+00 0.  1.
        994   -1    0    0    0    0 -0.00000000000E+00 -0.00000000000E+00  0.11368683772E-12  0.17120000000E+03  0.17120000000E+03 0.  0.
         13    1    1    2    0    0  0.11307996632E+02  0.12911472985E+01  0.51052674522E+02  0.52306066465E+02  0.10566000000E+00 0.  1.
        994    1    1    2    0    0 -0.11046666284E+02 -0.29061430974E+01  0.16776978295E+01  0.17158883756E+03  0.17120000000E+03 0.  0.
        998    1    1    2    0    0 -0.26133034766E+00  0.16149957988E+01  0.14472696239E+04  0.14473050960E+04  0.10000000000E+02 0.  1.
</event>
<event>
 5    1  0.1020718E-008  0.3820535E+03  0.7957747E-01  0.3442266E+00
         13   -1    0    0    0    0  0.00000000000E+00  0.00000000000E+00  0.14999999963E+04  0.15000000000E+04  0.10566000000E+00 0. -1.
        994   -1    0    0    0    0 -0.00000000000E+00 -0.00000000000E+00  0.11368683772E-12  0.17120000000E+03  0.17120000000E+03 0.  0.
         13    1    1    2    0    0  0.20739310405E+02  0.24002719478E+02  0.14934128698E+03  0.15267311714E+03  0.10566000000E+00 0. -1.
        994    1    1    2    0    0 -0.13405860064E+02 -0.27653712741E+02  0.62423940644E+01  0.17404841969E+03  0.17120000000E+03 0.  0.
        998    1    1    2    0    0 -0.73334503404E+01  0.36509932630E+01  0.13444163152E+04  0.13444784632E+04  0.10000000000E+02 0. -1.
</event>
<event>
 5    1  0.1020718E-008  0.3871393E+03  0.7957747E-01  0.3420649E+00
         13   -1    0    0    0    0  0.00000000000E+00  0.00000000000E+00  0.14999999963E+04  0.15000000000E+04  0.10566000000E+00 0.  1.
        994   -1    0    0    0    0 -0.00000000000E+00 -0.00000000000E+00  0.11368683772E-12  0.17120000000E+03  0.17120000000E+03 0.  0.
         13    1    1    2    0    0  0.62353634708E+01 -0.23397792017E+02  0.49735242988E+01  0.24720103901E+02  0.10566000000E+00 0.  1.
        994    1    1    2    0    0 -0.43606611328E+02  0.34820275328E+02  0.31986562407E+02  0.18288402965E+03  0.17120000000E+03 0.  0.
        998    1    1    2    0    0  0.37371247858E+02 -0.11422483311E+02  0.14630399096E+04  0.14635958665E+04  0.10000000000E+02 0.  1.
</event>
<event>
 5    1  0.1020718E-008  0.2903531E+03  0.7957747E-01  0.3967391E+00
         13   -1    0    0    0    0  0.00000000000E+00  0.00000000000E+00  0.14999999963E+04  0.15000000000E+04  0.10566000000E+00 0. -1.
        994   -1    0    0    0    0 -0.00000000000E+00 -0.00000000000E+00  0.11368683772E-12  0.17120000000E+03  0.17120000000E+03 0.  0.
         13    1    1    2    0    0 -0.28878743308E+02 -0.20137886808E+03  0.52055434748E+03  0.55889558074E+03  0.10566000000E+00 0. -1.
        994    1    1    2    0    0  0.33344998341E+02  0.20005930494E+03  0.19887776176E+03  0.33165858730E+03  0.17120000000E+03 0.  0.
        998    1    1    2    0    0 -0.44662550336E+01  0.13195631448E+01  0.78056788704E+03  0.78064583196E+03  0.10000000000E+02 0.  0.
</event>
<event>
 5    1  0.1020718E-008  0.3800164E+03  0.7957747E-01  0.3451087E+00
         13   -1    0    0    0    0  0.00000000000E+00  0.00000000000E+00  0.14999999963E+04  0.15000000000E+04  0.10566000000E+00 0. -1.
        994   -1    0    0    0    0 -0.00000000000E+00 -0.00000000000E+00  0.11368683772E-12  0.17120000000E+03  0.17120000000E+03 0.  0.
         13    1    1    2    0    0 -0.28163912983E+02  0.70217278404E+01  0.10093937665E+03  0.10502989850E+03  0.10566000000E+00 0. -1.
        994    1    1    2    0    0  0.20905582615E+02  0.11851825409E+02  0.60576887525E+01  0.17298452169E+03  0.17120000000E+03 0.  0.
        998    1    1    2    0    0  0.72583303681E+01 -0.18873553249E+02  0.13930029309E+04  0.13931855798E+04  0.10000000000E+02 0. -1.
</event>
<event>
 5    1  0.1020718E-008  0.3819628E+03  0.7957747E-01  0.3442656E+00
         13   -1    0    0    0    0  0.00000000000E+00  0.00000000000E+00  0.14999999963E+04  0.15000000000E+04  0.10566000000E+00 0.  1.
        994   -1    0    0    0    0 -0.00000000000E+00 -0.00000000000E+00  0.11368683772E-12  0.17120000000E+03  0.17120000000E+03 0.  0.
         13    1    1    2    0    0 -0.15244535349E+02 -0.15043969313E+02  0.77884208753E+02  0.80775479001E+02  0.10566000000E+00 0.  1.
        994    1    1    2    0    0  0.11818159957E+02 -0.14262261377E+02  0.42859092709E+01  0.17225240208E+03  0.17120000000E+03 0.  0.
        998    1    1    2    0    0  0.34263753928E+01  0.29306230689E+02  0.14178298783E+04  0.14181721189E+04  0.10000000000E+02 0.  1.
</event>
<event>
 5    1  0.1020718E-008  0.3817692E+03  0.7957747E-01  0.3443491E+00
         13   -1    0    0    0    0  0.00000000000E+00  0.00000000000E+00  0.14999999963E+04  0.15000000000E+04  0.10566000000E+00 0. -1.
        994   -1    0    0    0    0 -0.00000000000E+00 -0.00000000000E+00  0.11368683772E-12  0.17120000000E+03  0.17120000000E+03 0.  0.
         13    1    1    2    0    0 -0.75069381405E+01  0.15056422526E+02  0.41425883401E+02  0.44712022534E+02  0.10566000000E+00 0. -1.
        994    1    1    2    0    0  0.19781008946E+02 -0.10164855199E+02  0.48882697263E+01  0.17270769461E+03  0.17120000000E+03 0.  0.
        998    1    1    2    0    0 -0.12274070806E+02 -0.48915673270E+01  0.14536858432E+04  0.14537802829E+04  0.10000000000E+02 0. -1.
</event>
<event>
 5    1  0.1020718E-008  0.3814640E+03  0.7957747E-01  0.3444809E+00
         13   -1    0    0    0    0  0.00000000000E+00  0.00000000000E+00  0.14999999963E+04  0.15000000000E+04  0.10566000000E+00 0.  1.
        994   -1    0    0    0    0 -0.00000000000E+00 -0.00000000000E+00  0.11368683772E-12  0.17120000000E+03  0.17120000000E+03 0.  0.
         13    1    1    2    0    0  0.32052427757E+02 -0.19840634743E+02  0.20131384892E+03  0.20481280684E+03  0.10566000000E+00 0.  1.
        994    1    1    2    0    0 -0.23404483755E+02  0.11435700955E+02  0.56566109449E+01  0.17326275527E+03  0.17120000000E+03 0.  0.
        998    1    1    2    0    0 -0.86479440016E+01  0.84049337874E+01  0.12930295364E+04  0.12931244379E+04  0.10000000000E+02 0.  1.
</event>
<event>
 5    1  0.1020718E-008  0.3685530E+03  0.7957747E-01  0.3502568E+00
         13   -1    0    0    0    0  0.00000000000E+00  0.00000000000E+00  0.14999999963E+04  0.15000000000E+04  0.10566000000E+00 0.  1.
        994   -1    0    0    0    0 -0.00000000000E+00 -0.00000000000E+00  0.11368683772E-12  0.17120000000E+03  0.17120000000E+03 0.  0.
         13    1    1    2    0    0  0.47016650054E+02 -0.10663113166E+02  0.11051858697E+03  0.12057626879E+03  0.10566000000E+00 0.  1.
        994    1    1    2    0    0 -0.34833625779E+02  0.28643181676E+01  0.14284306657E+02  0.17531419572E+03  0.17120000000E+03 0.  0.
        998    1    1    2    0    0 -0.12183024275E+02  0.77987949980E+01  0.13751971027E+04  0.13753095355E+04  0.10000000000E+02 0.  1.
</event>
<event>
 5    1  0.1020718E-008  0.3644691E+03  0.7957747E-01  0.3521703E+00
         13   -1    0    0    0    0  0.00000000000E+00  0.00000000000E+00  0.14999999963E+04  0.15000000000E+04  0.10566000000E+00 0.  1.
        994   -1    0    0    0    0 -0.00000000000E+00 -0.00000000000E+00  0.11368683772E-12  0.17120000000E+03  0.17120000000E+03 0.  0.
         13    1    1    2    0    0 -0.20577535767E+03  0.25379998271E+03  0.53010604752E+03  0.62271210189E+03  0.10566000000E+00 0.  1.
        994    1    1    2    0    0  0.19658027080E+03 -0.23963997687E+03  0.76863251501E+03  0.84627212202E+03  0.17120000000E+03 0.  0.
        998    1    1    2    0    0  0.91950868741E+01 -0.14160005849E+02  0.20126143374E+03  0.20221577609E+03  0.10000000000E+02 0.  1.
</event>
<event>
 5    1  0.1020718E-008  0.3848834E+03  0.7957747E-01  0.3430167E+00
         13   -1    0    0    0    0  0.00000000000E+00  0.00000000000E+00  0.14999999963E+04  0.15000000000E+04  0.10566000000E+00 0. -1.
        994   -1    0    0    0    0 -0.00000000000E+00 -0.00000000000E+00  0.11368683772E-12  0.17120000000E+03  0.17120000000E+03 0.  0.
         13    1    1    2    0    0 -0.77911224420E+00 -0.10916232832E+02  0.38294963777E+02  0.39828213240E+02  0.10566000000E+00 0. -1.
        994    1    1    2    0    0 -0.17030689141E+02 -0.80340350296E+01  0.28554449654E+01  0.17225615710E+03  0.17120000000E+03 0.  0.
        998    1    1    2    0    0  0.17809801385E+02  0.18950267861E+02  0.14588495875E+04  0.14591156297E+04  0.10000000000E+02 0. -1.
</event>
<event>
 5    1  0.1020718E-008  0.3788024E+03  0.7957747E-01  0.3456390E+00
         13   -1    0    0    0    0  0.00000000000E+00  0.00000000000E+00  0.14999999963E+04  0.15000000000E+04  0.10566000000E+00 0. -1.
        994   -1    0    0    0    0 -0.00000000000E+00 -0.00000000000E+00  0.11368683772E-12  0.17120000000E+03  0.17120000000E+03 0.  0.
         13    1    1    2    0    0  0.81176653330E+01  0.68609236408E+01  0.97373096887E+01  0.14415100682E+02  0.10566000000E+00 0. -1.
        994    1    1    2    0    0 -0.64060943106E+01 -0.87179385050E+01  0.51318291408E+01  0.17161822796E+03  0.17120000000E+03 0.  0.
        998    1    1    2    0    0 -0.17115710224E+01  0.18570148642E+01  0.14851308574E+04  0.14851666714E+04  0.10000000000E+02 0. -1.
</event>
<event>
 5    1  0.1020718E-008  0.3761606E+03  0.7957747E-01  0.3468049E+00
         13   -1    0    0    0    0  0.00000000000E+00  0.00000000000E+00  0.14999999963E+04  0.15000000000E+04  0.10566000000E+00 0.  1.
        994   -1    0    0    0    0 -0.00000000000E+00 -0.00000000000E+00  0.11368683772E-12  0.17120000000E+03  0.17120000000E+03 0.  0.
         13    1    1    2    0    0  0.55537614020E+02 -0.19250833763E+02  0.31312322808E+03  0.31859251137E+03  0.10566000000E+00 0.  1.
        994    1    1    2    0    0 -0.26760583168E+02 -0.11849591543E+02  0.89896186376E+01  0.17391605698E+03  0.17120000000E+03 0.  0.
        998    1    1    2    0    0 -0.28777030852E+02  0.31100425306E+02  0.11778871496E+04  0.11786914317E+04  0.10000000000E+02 0.  1.
</event>
<event>
 5    1  0.1020718E-008  0.3786074E+03  0.7957747E-01  0.3457245E+00
         13   -1    0    0    0    0  0.00000000000E+00  0.00000000000E+00  0.14999999963E+04  0.15000000000E+04  0.10566000000E+00 0.  1.
        994   -1    0    0    0    0 -0.00000000000E+00 -0.00000000000E+00  0.11368683772E-12  0.17120000000E+03  0.17120000000E+03 0.  0.
         13    1    1    2    0    0 -0.32582189919E+02 -0.39079590920E+02  0.24376640791E+03  0.24901985125E+03  0.10566000000E+00 0.  1.
        994    1    1    2    0    0  0.29275850849E+02  0.28395460488E+02  0.10444376678E+02  0.17630060301E+03  0.17120000000E+03 0.  0.
        998    1    1    2    0    0  0.33063390705E+01  0.10684130432E+02  0.12457892117E+04  0.12458795457E+04  0.10000000000E+02 0.  1.
</event>
<event>
 5    1  0.1020718E-008  0.3841113E+03  0.7957747E-01  0.3433450E+00
         13   -1    0    0    0    0  0.00000000000E+00  0.00000000000E+00  0.14999999963E+04  0.15000000000E+04  0.10566000000E+00 0. -1.
        994   -1    0    0    0    0 -0.00000000000E+00 -0.00000000000E+00  0.11368683772E-12  0.17120000000E+03  0.17120000000E+03 0.  0.
         13    1    1    2    0    0 -0.16405658290E+02 -0.12247135246E+02  0.11445527951E+03  0.11627192317E+03  0.10566000000E+00 0. -1.
        994    1    1    2    0    0  0.35054089213E+01 -0.10595426198E+02  0.24828962409E+01  0.17158133850E+03  0.17120000000E+03 0.  0.
        998    1    1    2    0    0  0.12900249369E+02  0.22842561444E+02  0.13830618205E+04  0.13833467383E+04  0.10000000000E+02 0. -1.
</event>
<event>
 5    1  0.1020718E-008  0.3831334E+03  0.7957747E-01  0.3437628E+00
         13   -1    0    0    0    0  0.00000000000E+00  0.00000000000E+00  0.14999999963E+04  0.15000000000E+04  0.10566000000E+00 0. -1.
        994   -1    0    0    0    0 -0.00000000000E+00 -0.00000000000E+00  0.11368683772E-12  0.17120000000E+03  0.17120000000E+03 0.  0.
         13    1    1    2    0    0  0.17239384647E+02 -0.25193101806E+01  0.57572631266E+02  0.60151162431E+02  0.10566000000E+00 0. -1.
        994    1    1    2    0    0 -0.14989563863E+02  0.25779000355E+00  0.33037104734E+01  0.17188690463E+03  0.17120000000E+03 0.  0.
        998    1    1    2    0    0 -0.22498207843E+01  0.22615201771E+01  0.14391236545E+04  0.14391619329E+04  0.10000000000E+02 0. -1.
</event>
<event>
 5    1  0.1020718E-008  0.3823494E+03  0.7957747E-01  0.3440992E+00
         13   -1    0    0    0    0  0.00000000000E+00  0.00000000000E+00  0.14999999963E+04  0.15000000000E+04  0.10566000000E+00 0. -1.
        994   -1    0    0    0    0 -0.00000000000E+00 -0.00000000000E+00  0.11368683772E-12  0.17120000000E+03  0.17120000000E+03 0.  0.
         13    1    1    2    0    0 -0.32006286605E+01  0.21533069557E+02  0.83358554567E+02  0.86154378251E+02  0.10566000000E+00 0. -1.
        994    1    1    2    0    0 -0.48446164646E+01 -0.55225662182E+01  0.31309017296E+01  0.17138614761E+03  0.17120000000E+03 0.  0.
        998    1    1    2    0    0  0.80452451251E+01 -0.16010503339E+02  0.14135105400E+04  0.14136594741E+04  0.10000000000E+02 0. -1.
</event>
<event>
 5    1  0.1020718E-008  0.3776682E+03  0.7957747E-01  0.3461375E+00
         13   -1    0    0    0    0  0.00000000000E+00  0.00000000000E+00  0.14999999963E+04  0.15000000000E+04  0.10566000000E+00 0. -1.
        994   -1    0    0    0    0 -0.00000000000E+00 -0.00000000000E+00  0.11368683772E-12  0.17120000000E+03  0.17120000000E+03 0.  0.
         13    1    1    2    0    0  0.33469092684E+02 -0.25986386889E+02  0.19489839523E+03  0.19945141788E+03  0.10566000000E+00 0. -1.
        994    1    1    2    0    0 -0.89381523933E+01 -0.87100051529E+01  0.58397492186E+01  0.17175359510E+03  0.17120000000E+03 0.  0.
        998    1    1    2    0    0 -0.24530940291E+02  0.34696392042E+02  0.12992618518E+04  0.12999949870E+04  0.10000000000E+02 0. -1.
</event>
<event>
 5    1  0.1020718E-008  0.3833007E+03  0.7957747E-01  0.3436911E+00
         13   -1    0    0    0    0  0.00000000000E+00  0.00000000000E+00  0.14999999963E+04  0.15000000000E+04  0.10566000000E+00 0. -1.
        994   -1    0    0    0    0 -0.00000000000E+00 -0.00000000000E+00  0.11368683772E-12  0.17120000000E+03  0.17120000000E+03 0.  0.
         13    1    1    2    0    0 -0.11928286769E+03 -0.96046712566E+02  0.49070135626E+03  0.51404397255E+03  0.10566000000E+00 0. -1.
        994    1    1    2    0    0  0.92829423054E+02  0.90253845765E+02  0.82571620434E+02  0.22997950118E+03  0.17120000000E+03 0.  0.
        998    1    1    2    0    0  0.26453444635E+02  0.57928668005E+01  0.92672701959E+03  0.92717652627E+03  0.10000000000E+02 0. -1.
</event>
<event>
 5    1  0.1020718E-008  0.3765610E+03  0.7957747E-01  0.3466271E+00
         13   -1    0    0    0    0  0.00000000000E+00  0.00000000000E+00  0.14999999963E+04  0.15000000000E+04  0.10566000000E+00 0.  1.
        994   -1    0    0    0    0 -0.00000000000E+00 -0.00000000000E+00  0.11368683772E-12  0.17120000000E+03  0.17120000000E+03 0.  0.
         13    1    1    2    0    0 -0.14722148249E+03 -0.65001078043E+02  0.80638902404E+03  0.82229105207E+03  0.10566000000E+00 0.  1.
        994    1    1    2    0    0  0.14243332466E+03  0.98863822397E+02  0.11541019750E+03  0.26961131475E+03  0.17120000000E+03 0.  0.
        998    1    1    2    0    0  0.47881578305E+01 -0.33862744354E+02  0.57820077474E+03  0.57929763319E+03  0.10000000000E+02 0.  1.
</event>
<event>
 5    1  0.1020718E-008  0.3721968E+03  0.7957747E-01  0.3485856E+00
         13   -1    0    0    0    0  0.00000000000E+00  0.00000000000E+00  0.14999999963E+04  0.15000000000E+04  0.10566000000E+00 0. -1.
        994   -1    0    0    0    0 -0.00000000000E+00 -0.00000000000E+00  0.11368683772E-12  0.17120000000E+03  0.17120000000E+03 0.  0.
         13    1    1    2    0    0  0.10167963485E+02 -0.54583039108E+02  0.19280939738E+03  0.20064438822E+03  0.10566000000E+00 0. -1.
        994    1    1    2    0    0  0.95874162079E+01  0.29381674558E+02  0.11410313928E+02  0.17434115009E+03  0.17120000000E+03 0.  0.
        998    1    1    2    0    0 -0.19755379693E+02  0.25201364550E+02  0.12957802850E+04  0.12962144617E+04  0.10000000000E+02 0. -1.
</event>
<event>
 5    1  0.1933726E-008  0.3859052E+03  0.7957747E-01  0.3425842E+00
         13   -1    0    0    0    0  0.00000000000E+00  0.00000000000E+00  0.14999999963E+04  0.15000000000E+04  0.10566000000E+00 0.  1.
        994   -1    0    0    0    0 -0.00000000000E+00 -0.00000000000E+00  0.11368683772E-12  0.17120000000E+03  0.17120000000E+03 0.  0.
         13    1    1    2    0    0  0.78178867014E+01  0.64830491264E+01  0.44335981258E+02  0.45484499300E+02  0.10566000000E+00 0.  1.
        994    1    1    2    0    0 -0.48172556809E+01 -0.34561686293E+01  0.12966757707E+01  0.17130753755E+03  0.17120000000E+03 0.  0.
        998    1    1    2    0    0 -0.30006310205E+01 -0.30268804971E+01  0.14543673393E+04  0.14544079631E+04  0.10000000000E+02 0.  1.
</event>
<event>
 5    1  0.1020718E-008  0.3839069E+03  0.7957747E-01  0.3434321E+00
         13   -1    0    0    0    0  0.00000000000E+00  0.00000000000E+00  0.14999999963E+04  0.15000000000E+04  0.10566000000E+00 0.  1.
        994   -1    0    0    0    0 -0.00000000000E+00 -0.00000000000E+00  0.11368683772E-12  0.17120000000E+03  0.17120000000E+03 0.  0.
         13    1    1    2    0    0  0.11359422175E+02  0.51698380601E+01  0.35671211863E+02  0.37791668626E+02  0.10566000000E+00 0.  1.
        994    1    1    2    0    0 -0.27198711642E+01 -0.76436743611E+01  0.23910861410E+01  0.17140881176E+03  0.17120000000E+03 0.  0.
        998    1    1    2    0    0 -0.86395510112E+01  0.24738363010E+01  0.14619376983E+04  0.14619995196E+04  0.10000000000E+02 0.  1.
</event>
<event>
 5    1  0.1020718E-008  0.3837632E+03  0.7957747E-01  0.3434935E+00
         13   -1    0    0    0    0  0.00000000000E+00  0.00000000000E+00  0.14999999963E+04  0.15000000000E+04  0.10566000000E+00 0. -1.
        994   -1    0    0    0    0 -0.00000000000E+00 -0.00000000000E+00  0.11368683772E-12  0.17120000000E+03  0.17120000000E+03 0.  0.
         13    1    1    2    0    0  0.12511559783E+01 -0.19053085367E+02  0.86533736790E+02  0.88615372370E+02  0.10566000000E+00 0. -1.
        994    1    1    2    0    0 -0.99882485538E+01  0.61426152997E+00  0.25761704431E+01  0.17151157127E+03  0.17120000000E+03 0.  0.
        998    1    1    2    0    0  0.87370925755E+01  0.18438823837E+02  0.14108900890E+04  0.14110730564E+04  0.10000000000E+02 0. -1.
</event>
<event>
 5    1  0.1020718E-008  0.3790621E+03  0.7957747E-01  0.3455253E+00
         13   -1    0    0    0    0  0.00000000000E+00  0.00000000000E+00  0.14999999963E+04  0.15000000000E+04  0.10566000000E+00 0. -1.
        994   -1    0    0    0    0 -0.00000000000E+00 -0.00000000000E+00  0.11368683772E-12  0.17120000000E+03  0.17120000000E+03 0.  0.
         13    1    1    2    0    0 -0.37196184327E+02  0.11780734202E+02  0.41337887798E+02  0.56843416140E+02  0.10566000000E+00 0. -1.
        994    1    1    2    0    0  0.23527945420E+02 -0.39758954449E+02  0.23560418631E+02  0.17888228532E+03  0.17120000000E+03 0.  0.
        998    1    1    2    0    0  0.13668238908E+02  0.27978220248E+02  0.14351016899E+04  0.14354742985E+04  0.10000000000E+02 0. -1.
</event>
<event>
 5    1  0.1020718E-008  0.3764706E+03  0.7957747E-01  0.3466672E+00
         13   -1    0    0    0    0  0.00000000000E+00  0.00000000000E+00  0.14999999963E+04  0.15000000000E+04  0.10566000000E+00 0.  1.
        994   -1    0    0    0    0 -0.00000000000E+00 -0.00000000000E+00  0.11368683772E-12  0.17120000000E+03  0.17120000000E+03 0.  0.
         13    1    1    2    0    0  0.29069018043E+02  0.56402318430E+02  0.28152172391E+03  0.28858399389E+03  0.10566000000E+00 0.  1.
        994    1    1    2    0    0 -0.35560996056E+02 -0.50003118613E+02  0.18767922027E+02  0.18282934997E+03  0.17120000000E+03 0.  0.
        998    1    1    2    0    0  0.64919780134E+01 -0.63991998174E+01  0.11997103503E+04  0.11997866561E+04  0.10000000000E+02 0.  0.
</event>
<event>
 5    1  0.1020718E-008  0.3772422E+03  0.7957747E-01  0.3463255E+00
         13   -1    0    0    0    0  0.00000000000E+00  0.00000000000E+00  0.14999999963E+04  0.15000000000E+04  0.10566000000E+00 0.  1.
        994   -1    0    0    0    0 -0.00000000000E+00 -0.00000000000E+00  0.11368683772E-12  0.17120000000E+03  0.17120000000E+03 0.  0.
         13    1    1    2    0    0 -0.25692929470E+02 -0.32427450913E+02  0.18064781941E+03  0.18532488235E+03  0.10566000000E+00 0.  1.
        994    1    1    2    0    0 -0.47544489110E+01  0.71611751457E+00  0.56097943949E+01  0.17135935166E+03  0.17120000000E+03 0.  0.
        998    1    1    2    0    0  0.30447378381E+02  0.31711333399E+02  0.13137423825E+04  0.13145157660E+04  0.10000000000E+02 0.  1.
</event>
<event>
 5    1  0.1020718E-008  0.3822504E+03  0.7957747E-01  0.3441418E+00
         13   -1    0    0    0    0  0.00000000000E+00  0.00000000000E+00  0.14999999963E+04  0.15000000000E+04  0.10566000000E+00 0. -1.
        994   -1    0    0    0    0 -0.00000000000E+00 -0.00000000000E+00  0.11368683772E-12  0.17120000000E+03  0.17120000000E+03 0.  0.
         13    1    1    2    0    0  0.25866854835E+01 -0.29913877786E+02  0.13704528417E+03  0.14029594472E+03  0.10566000000E+00 0. -1.
        994    1    1    2    0    0 -0.19190228066E+02  0.29108199066E+02  0.70454504131E+01  0.17485602786E+03  0.17120000000E+03 0.  0.
        998    1    1    2    0    0  0.16603542582E+02  0.80567871955E+00  0.13559092617E+04  0.13560480274E+04  0.10000000000E+02 0. -1.
</event>
<event>
 5    1  0.1020718E-008  0.3726719E+03  0.7957747E-01  0.3483701E+00
         13   -1    0    0    0    0  0.00000000000E+00  0.00000000000E+00  0.14999999963E+04  0.15000000000E+04  0.10566000000E+00 0.  1.
        994   -1    0    0    0    0 -0.00000000000E+00 -0.00000000000E+00  0.11368683772E-12  0.17120000000E+03  0.17120000000E+03 0.  0.
         13    1    1    2    0    0 -0.51401635377E+02  0.49525159714E+02  0.36411027538E+03  0.37104066268E+03  0.10566000000E+00 0.  1.
        994    1    1    2    0    0  0.13216398176E+02 -0.22730046486E+02  0.10251350486E+02  0.17351039848E+03  0.17120000000E+03 0.  0.
        998    1    1    2    0    0  0.38185237201E+02 -0.26795113228E+02  0.11256383704E+04  0.11266489388E+04  0.10000000000E+02 0.  1.
</event>
<event>
 5    1  0.1020718E-008  0.3858215E+03  0.7957747E-01  0.3426196E+00
         13   -1    0    0    0    0  0.00000000000E+00  0.00000000000E+00  0.14999999963E+04  0.15000000000E+04  0.10566000000E+00 0.  1.
        994   -1    0    0    0    0 -0.00000000000E+00 -0.00000000000E+00  0.11368683772E-12  0.17120000000E+03  0.17120000000E+03 0.  0.
         13    1    1    2    0    0 -0.86054905293E+01 -0.83398617337E+01  0.58456635506E+02  0.59672415400E+02  0.10566000000E+00 0.  1.
        994    1    1    2    0    0  0.12039548561E+02  0.20021726937E+01  0.17115724784E+01  0.17164302755E+03  0.17120000000E+03 0.  0.
        998    1    1    2    0    0 -0.34340580320E+01  0.63376890400E+01  0.14398317883E+04  0.14398845571E+04  0.10000000000E+02 0.  1.
</event>
<event>
 5    1  0.1020718E-008  0.3701237E+03  0.7957747E-01  0.3495322E+00
         13   -1    0    0    0    0  0.00000000000E+00  0.00000000000E+00  0.14999999963E+04  0.15000000000E+04  0.10566000000E+00 0.  1.
        994   -1    0    0    0    0 -0.00000000000E+00 -0.00000000000E+00  0.11368683772E-12  0.17120000000E+03  0.17120000000E+03 0.  0.
         13    1    1    2    0    0 -0.13009671350E+02  0.15476575855E+02  0.19367048236E+02  0.27997672586E+02  0.10566000000E+00 0.  1.
        994    1    1    2    0    0 -0.27536158012E+01  0.12510359497E+02  0.97717369790E+01  0.17195644314E+03  0.17120000000E+03 0.  0.
        998    1    1    2    0    0  0.15763287151E+02 -0.27986935353E+02  0.14708612111E+04  0.14712458843E+04  0.10000000000E+02 0.  1.
</event>
<event>
 5    1  0.1020718E-008  0.3854735E+03  0.7957747E-01  0.3427667E+00
         13   -1    0    0    0    0  0.00000000000E+00  0.00000000000E+00  0.14999999963E+04  0.15000000000E+04  0.10566000000E+00 0. -1.
        994   -1    0    0    0    0 -0.00000000000E+00 -0.00000000000E+00  0.11368683772E-12  0.17120000000E+03  0.17120000000E+03 0.  0.
         13    1    1    2    0    0  0.12725165057E+01 -0.16710221762E+02  0.95130048306E+02  0.96594969147E+02  0.10566000000E+00 0. -1.
        994    1    1    2    0    0 -0.21850645314E+01  0.18110600234E+02  0.24886793442E+01  0.17218711297E+03  0.17120000000E+03 0.  0.
        998    1    1    2    0    0  0.91254802566E+00 -0.14003784718E+01  0.14023812686E+04  0.14024179179E+04  0.10000000000E+02 0. -1.
</event>
<event>
 5    1  0.1020718E-008  0.3852532E+03  0.7957747E-01  0.3428599E+00
         13   -1    0    0    0    0  0.00000000000E+00  0.00000000000E+00  0.14999999963E+04  0.15000000000E+04  0.10566000000E+00 0. -1.
        994   -1    0    0    0    0 -0.00000000000E+00 -0.00000000000E+00  0.11368683772E-12  0.17120000000E+03  0.17120000000E+03 0.  0.
         13    1    1    2    0    0 -0.16676069985E+02 -0.10257749170E+02  0.11840346744E+03  0.12001127028E+03  0.10566000000E+00 0. -1.
        994    1    1    2    0    0  0.23571922894E+02  0.19453945234E+01  0.33448549162E+01  0.17285846280E+03  0.17120000000E+03 0.  0.
        998    1    1    2    0    0 -0.68958529084E+01  0.83123546471E+01  0.13782516739E+04  0.13783302669E+04  0.10000000000E+02 0. -1.
</event>
<event>
 5    1  0.1020718E-008  0.3853876E+03  0.7957747E-01  0.3428030E+00
         13   -1    0    0    0    0  0.00000000000E+00  0.00000000000E+00  0.14999999963E+04  0.15000000000E+04  0.10566000000E+00 0.  1.
        994   -1    0    0    0    0 -0.00000000000E+00 -0.00000000000E+00  0.11368683772E-12  0.17120000000E+03  0.17120000000E+03 0.  0.
         13    1    1    2    0    0  0.93947491025E+01 -0.13685511518E+02  0.92246337763E+02  0.93728077602E+02  0.10566000000E+00 0.  1.
        994    1    1    2    0    0 -0.15614182851E+02  0.87582028165E+01  0.24912641254E+01  0.17215154725E+03  0.17120000000E+03 0.  0.
        998    1    1    2    0    0  0.62194337488E+01  0.49273087012E+01  0.14052623944E+04  0.14053203752E+04  0.10000000000E+02 0.  1.
</event>
<event>
 5    1  0.1029353E-008  0.3859041E+03  0.7957747E-01  0.3425847E+00
         13   -1    0    0    0    0  0.00000000000E+00  0.00000000000E+00  0.14999999963E+04  0.15000000000E+04  0.10566000000E+00 0. -1.
        994   -1    0    0    0    0 -0.00000000000E+00 -0.00000000000E+00  0.11368683772E-12  0.17120000000E+03  0.17120000000E+03 0.  0.
         13    1    1    2    0    0 -0.30438535254E-01 -0.11238207428E+02  0.53681068535E+02  0.54844931541E+02  0.10566000000E+00 0. -1.
        994    1    1    2    0    0 -0.35957350196E+00  0.83599241744E+01  0.14115634869E+01  0.17141018096E+03  0.17120000000E+03 0.  0.
        998    1    1    2    0    0  0.39001203721E+00  0.28782832541E+01  0.14449073643E+04  0.14449448875E+04  0.10000000000E+02 0. -1.
</event>
<event>
 5    1  0.1020718E-008  0.3812289E+03  0.7957747E-01  0.3445825E+00
         13   -1    0    0    0    0  0.00000000000E+00  0.00000000000E+00  0.14999999963E+04  0.15000000000E+04  0.10566000000E+00 0.  1.
        994   -1    0    0    0    0 -0.00000000000E+00 -0.00000000000E+00  0.11368683772E-12  0.17120000000E+03  0.17120000000E+03 0.  0.
         13    1    1    2    0    0  0.38419128135E+01  0.11288670465E+02  0.18890904571E+02  0.22339915274E+02  0.10566000000E+00 0.  1.
        994    1    1    2    0    0 -0.25578405503E+01 -0.60404690422E+01  0.36573865321E+01  0.17136465881E+03  0.17120000000E+03 0.  0.
        998    1    1    2    0    0 -0.12840722632E+01 -0.52482014227E+01  0.14774517052E+04  0.14774954259E+04  0.10000000000E+02 0.  1.
</event>
<event>
 5    1  0.1020718E-008  0.3712631E+03  0.7957747E-01  0.3490106E+00
         13   -1    0    0    0    0  0.00000000000E+00  0.00000000000E+00  0.14999999963E+04  0.15000000000E+04  0.10566000000E+00 0.  1.
        994   -1    0    0    0    0 -0.00000000000E+00 -0.00000000000E+00  0.11368683772E-12  0.17120000000E+03  0.17120000000E+03 0.  0.
         13    1    1    2    0    0 -0.14801338689E+02  0.29156417899E+02  0.40314224673E+02  0.51907843403E+02  0.10566000000E+00 0.  1.
        994    1    1    2    0    0  0.59019470179E+01 -0.34896128589E+02  0.16019460623E+02  0.17555237363E+03  0.17120000000E+03 0.  0.
        998    1    1    2    0    0  0.88993916708E+01  0.57397106895E+01  0.14436663110E+04  0.14437397830E+04  0.10000000000E+02 0.  1.
</event>
<event>
 5    1  0.1020718E-008  0.3761050E+03  0.7957747E-01  0.3468296E+00
         13   -1    0    0    0    0  0.00000000000E+00  0.00000000000E+00  0.14999999963E+04  0.15000000000E+04  0.10566000000E+00 0. -1.
        994   -1    0    0    0    0 -0.00000000000E+00 -0.00000000000E+00  0.11368683772E-12  0.17120000000E+03  0.17120000000E+03 0.  0.
         13    1    1    2    0    0 -0.28957207922E+02  0.59015770291E+01  0.66383392489E+02  0.72664396126E+02  0.10566000000E+00 0. -1.
        994    1    1    2    0    0  0.28252149971E+02 -0.11621738149E+02  0.92794110971E+01  0.17415164727E+03  0.17120000000E+03 0.  0.
        998    1    1    2    0    0  0.70505795092E+00  0.57201611195E+01  0.14243371927E+04  0.14243839566E+04  0.10000000000E+02 0. -1.
</event>
<event>
 5    1  0.1020718E-008  0.3829145E+03  0.7957747E-01  0.3438565E+00
         13   -1    0    0    0    0  0.00000000000E+00  0.00000000000E+00  0.14999999963E+04  0.15000000000E+04  0.10566000000E+00 0.  1.
        994   -1    0    0    0    0 -0.00000000000E+00 -0.00000000000E+00  0.11368683772E-12  0.17120000000E+03  0.17120000000E+03 0.  0.
         13    1    1    2    0    0  0.18083285703E+01  0.21535100217E+02  0.99714965592E+02  0.10202997658E+03  0.10566000000E+00 0.  1.
        994    1    1    2    0    0  0.63480350876E+01  0.78071414450E+01  0.30043987008E+01  0.17152176369E+03  0.17120000000E+03 0.  0.
        998    1    1    2    0    0 -0.81563636579E+01 -0.29342241662E+02  0.13972806320E+04  0.13976482597E+04  0.10000000000E+02 0.  1.
</event>
<event>
 5    1  0.1020718E-008  0.3826430E+03  0.7957747E-01  0.3439730E+00
         13   -1    0    0    0    0  0.00000000000E+00  0.00000000000E+00  0.14999999963E+04  0.15000000000E+04  0.10566000000E+00 0.  1.
        994   -1    0    0    0    0 -0.00000000000E+00 -0.00000000000E+00  0.11368683772E-12  0.17120000000E+03  0.17120000000E+03 0.  0.
         13    1    1    2    0    0  0.94687594795E+01  0.85397252435E+01  0.27728922139E+02  0.30520298170E+02  0.10566000000E+00 0.  1.
        994    1    1    2    0    0 -0.84412631460E+01 -0.76637014727E+01  0.32357522718E+01  0.17160972390E+03  0.17120000000E+03 0.  0.
        998    1    1    2    0    0 -0.10274963334E+01 -0.87602377081E+00  0.14690353219E+04  0.14690699779E+04  0.10000000000E+02 0.  1.
</event>
<event>
 5    1  0.1020718E-008  0.3812234E+03  0.7957747E-01  0.3445849E+00
         13   -1    0    0    0    0  0.00000000000E+00  0.00000000000E+00  0.14999999963E+04  0.15000000000E+04  0.10566000000E+00 0. -1.
        994   -1    0    0    0    0 -0.00000000000E+00 -0.00000000000E+00  0.11368683772E-12  0.17120000000E+03  0.17120000000E+03 0.  0.
         13    1    1    2    0    0  0.34174308490E+02  0.12481829458E+02  0.18126122723E+03  0.18487650767E+03  0.10566000000E+00 0. -1.
        994    1    1    2    0    0 -0.31927601556E+02  0.11493892481E+02  0.73601747295E+01  0.17468569912E+03  0.17120000000E+03 0.  0.
        998    1    1    2    0    0 -0.22467069340E+01 -0.23975721939E+02  0.13113785943E+04  0.13116377932E+04  0.10000000000E+02 0. -1.
</event>
<event>
 5    1  0.1020718E-008  0.3811708E+03  0.7957747E-01  0.3446076E+00
         13   -1    0    0    0    0  0.00000000000E+00  0.00000000000E+00  0.14999999963E+04  0.15000000000E+04  0.10566000000E+00 0.  1.
        994   -1    0    0    0    0 -0.00000000000E+00 -0.00000000000E+00  0.11368683772E-12  0.17120000000E+03  0.17120000000E+03 0.  0.
         13    1    1    2    0    0  0.17524636627E+02 -0.17776967761E+01  0.43554315009E+02  0.46981513542E+02  0.10566000000E+00 0.  1.
        994    1    1    2    0    0 -0.54776496715E+01 -0.34135110760E+01  0.36820132488E+01  0.17136117975E+03  0.17120000000E+03 0.  0.
        998    1    1    2    0    0 -0.12046986955E+02  0.51912078521E+01  0.14527636680E+04  0.14528573067E+04  0.10000000000E+02 0.  1.
</event>
<event>
 5    1  0.1020718E-008  0.3753612E+03  0.7957747E-01  0.3471609E+00
         13   -1    0    0    0    0  0.00000000000E+00  0.00000000000E+00  0.14999999963E+04  0.15000000000E+04  0.10566000000E+00 0.  1.
        994   -1    0    0    0    0 -0.00000000000E+00 -0.00000000000E+00  0.11368683772E-12  0.17120000000E+03  0.17120000000E+03 0.  0.
         13    1    1    2    0    0  0.16423037545E+02 -0.27523528932E+02  0.78917045395E+02  0.85177297591E+02  0.10566000000E+00 0.  1.
        994    1    1    2    0    0 -0.24670238932E+02  0.28831062527E+00  0.85626868657E+01  0.17318043601E+03  0.17120000000E+03 0.  0.
        998    1    1    2    0    0  0.82472013875E+01  0.27235218307E+02  0.14125202640E+04  0.14128422664E+04  0.10000000000E+02 0.  1.
</event>
<event>
 5    1  0.1020718E-008  0.3834504E+03  0.7957747E-01  0.3436271E+00
         13   -1    0    0    0    0  0.00000000000E+00  0.00000000000E+00  0.14999999963E+04  0.15000000000E+04  0.10566000000E+00 0.  1.
        994   -1    0    0    0    0 -0.00000000000E+00 -0.00000000000E+00  0.11368683772E-12  0.17120000000E+03  0.17120000000E+03 0.  0.
         13    1    1    2    0    0  0.73607570276E+01 -0.20014026680E+02  0.87457239225E+02  0.90019563789E+02  0.10566000000E+00 0.  1.
        994    1    1    2    0    0 -0.11919535977E+02  0.22719166216E+02  0.45801345486E+01  0.17317232309E+03  0.17120000000E+03 0.  0.
        998    1    1    2    0    0  0.45587789491E+01 -0.27051395369E+01  0.14079626225E+04  0.14080081131E+04  0.10000000000E+02 0.  1.
</event>
<event>
 5    1  0.1020718E-008  0.3843548E+03  0.7957747E-01  0.3432413E+00
         13   -1    0    0    0    0  0.00000000000E+00  0.00000000000E+00  0.14999999963E+04  0.15000000000E+04  0.10566000000E+00 0.  1.
        994   -1    0    0    0    0 -0.00000000000E+00 -0.00000000000E+00  0.11368683772E-12  0.17120000000E+03  0.17120000000E+03 0.  0.
         13    1    1    2    0    0  0.20031179109E+02 -0.69672166634E+01  0.10150847648E+03  0.10370039636E+03  0.10566000000E+00 0.  1.
        994    1    1    2    0    0 -0.24314842675E+02  0.24950010862E+02  0.59609473675E+01  0.17481043307E+03  0.17120000000E+03 0.  0.
        998    1    1    2    0    0  0.42836635658E+01 -0.17982794199E+02  0.13925305724E+04  0.13926891706E+04  0.10000000000E+02 0.  1.
</event>
<event>
 5    1  0.1020718E-008  0.3842315E+03  0.7957747E-01  0.3432938E+00
         13   -1    0    0    0    0  0.00000000000E+00  0.00000000000E+00  0.14999999963E+04  0.15000000000E+04  0.10566000000E+00 0.  1.
        994   -1    0    0    0    0 -0.00000000000E+00 -0.00000000000E+00  0.11368683772E-12  0.17120000000E+03  0.17120000000E+03 0.  0.
         13    1    1    2    0    0  0.11097543965E+02  0.14796719740E+02  0.79700103249E+02  0.81818188804E+02  0.10566000000E+00 0.  1.
        994    1    1    2    0    0 -0.59961665564E+01 -0.22485475491E+02  0.37995988783E+01  0.17281616699E+03  0.17120000000E+03 0.  0.
        998    1    1    2    0    0 -0.51013774084E+01  0.76887557503E+01  0.14165002942E+04  0.14165656442E+04  0.10000000000E+02 0.  1.
</event>
<event>
 5    1  0.1020718E-008  0.3848248E+03  0.7957747E-01  0.3430416E+00
         13   -1    0    0    0    0  0.00000000000E+00  0.00000000000E+00  0.14999999963E+04  0.15000000000E+04  0.10566000000E+00 0. -1.
        994   -1    0    0    0    0 -0.00000000000E+00 -0.00000000000E+00  0.11368683772E-12  0.17120000000E+03  0.17120000000E+03 0.  0.
         13    1    1    2    0    0 -0.10867695437E+02  0.65036789465E+01  0.47487748037E+02  0.49147757035E+02  0.10566000000E+00 0. -1.
        994    1    1    2    0    0  0.17394779802E+00 -0.90415931011E+01  0.19862979666E+01  0.17145018531E+03  0.17120000000E+03 0.  0.
        998    1    1    2    0    0  0.10693747639E+02  0.25379141546E+01  0.14505259503E+04  0.14506020577E+04  0.10000000000E+02 0. -1.
</event>
<event>
 5    1  0.1020718E-008  0.3790588E+03  0.7957747E-01  0.3455267E+00
         13   -1    0    0    0    0  0.00000000000E+00  0.00000000000E+00  0.14999999963E+04  0.15000000000E+04  0.10566000000E+00 0.  1.
        994   -1    0    0    0    0 -0.00000000000E+00 -0.00000000000E+00  0.11368683772E-12  0.17120000000E+03  0.17120000000E+03 0.  0.
         13    1    1    2    0    0 -0.32855869179E+02 -0.53005225556E+01  0.12691233318E+03  0.13120348759E+03  0.10566000000E+00 0.  1.
        994    1    1    2    0    0  0.66105467071E+01  0.74486976357E+01  0.49416956002E+01  0.17156060964E+03  0.17120000000E+03 0.  0.
        998    1    1    2    0    0  0.26245322472E+02 -0.21481750801E+01  0.13681459675E+04  0.13684359028E+04  0.10000000000E+02 0.  1.
</event>
<event>
 5    1  0.1020718E-008  0.3794529E+03  0.7957747E-01  0.3453544E+00
         13   -1    0    0    0    0  0.00000000000E+00  0.00000000000E+00  0.14999999963E+04  0.15000000000E+04  0.10566000000E+00 0. -1.
        994   -1    0    0    0    0 -0.00000000000E+00 -0.00000000000E+00  0.11368683772E-12  0.17120000000E+03  0.17120000000E+03 0.  0.
         13    1    1    2    0    0  0.22300382243E+02 -0.16691201183E+02  0.82184206674E+02  0.86776484348E+02  0.10566000000E+00 0. -1.
        994    1    1    2    0    0 -0.23134065246E+02  0.16300479949E+02  0.70963465994E+01  0.17366832975E+03  0.17120000000E+03 0.  0.
        998    1    1    2    0    0  0.83368300343E+00  0.39072123484E+00  0.14107194430E+04  0.14107551859E+04  0.10000000000E+02 0. -1.
</event>
<event>
 5    1  0.1020718E-008  0.3745965E+03  0.7957747E-01  0.3475029E+00
         13   -1    0    0    0    0  0.00000000000E+00  0.00000000000E+00  0.14999999963E+04  0.15000000000E+04  0.10566000000E+00 0. -1.
        994   -1    0    0    0    0 -0.00000000000E+00 -0.00000000000E+00  0.11368683772E-12  0.17120000000E+03  0.17120000000E+03 0.  0.
         13    1    1    2    0    0 -0.12952794304E+02 -0.48357389904E+01  0.10668186383E+02  0.17463694243E+02  0.10566000000E+00 0. -1.
        994    1    1    2    0    0  0.12688435065E+02  0.98788867663E+01  0.77667375229E+01  0.17212887904E+03  0.17120000000E+03 0.  0.
        998    1    1    2    0    0  0.26435923936E+00 -0.50431477759E+01  0.14815650724E+04  0.14816074267E+04  0.10000000000E+02 0. -1.
</event>
<event>
 5    1  0.1020718E-008  0.4228995E+03  0.7957747E-01  0.3283292E+00
         13   -1    0    0    0    0  0.00000000000E+00  0.00000000000E+00  0.14999999963E+04  0.15000000000E+04  0.10566000000E+00 0. -1.
        994   -1    0    0    0    0 -0.00000000000E+00 -0.00000000000E+00  0.11368683772E-12  0.17120000000E+03  0.17120000000E+03 0.  0.
         13    1    1    2    0    0 -0.24938993700E+02 -0.96548517124E+02  0.15497387799E+03  0.18428370408E+03  0.10566000000E+00 0. -1.
        994    1    1    2    0    0 -0.79235309352E+01 -0.53013564885E+02  0.54774491190E+02  0.18757106730E+03  0.17120000000E+03 0.  0.
        998    1    1    2    0    0  0.32862524635E+02  0.14956208201E+03  0.12902516271E+04  0.12993452286E+04  0.10000000000E+02 0. -1.
</event>
<event>
 5    1  0.1020718E-008  0.2724860E+03  0.7957747E-01  0.4114399E+00
         13   -1    0    0    0    0  0.00000000000E+00  0.00000000000E+00  0.14999999963E+04  0.15000000000E+04  0.10566000000E+00 0.  1.
        994   -1    0    0    0    0 -0.00000000000E+00 -0.00000000000E+00  0.11368683772E-12  0.17120000000E+03  0.17120000000E+03 0.  0.
         13    1    1    2    0    0 -0.15446431599E+03  0.98496737071E+02  0.10092064302E+04  0.10256990115E+04  0.10566000000E+00 0.  1.
        994    1    1    2    0    0  0.62768039915E+02  0.84354834299E+02  0.16175916192E+03  0.25793609939E+03  0.17120000000E+03 0.  0.
        998    1    1    2    0    0  0.91696276076E+02 -0.18285157137E+03  0.32903440411E+03  0.38756488913E+03  0.10000000000E+02 0. -1.
</event>
<event>
 5    1  0.1020718E-008  0.3846290E+03  0.7957747E-01  0.3431247E+00
         13   -1    0    0    0    0  0.00000000000E+00  0.00000000000E+00  0.14999999963E+04  0.15000000000E+04  0.10566000000E+00 0. -1.
        994   -1    0    0    0    0 -0.00000000000E+00 -0.00000000000E+00  0.11368683772E-12  0.17120000000E+03  0.17120000000E+03 0.  0.
         13    1    1    2    0    0  0.16648064896E+02  0.11992824512E+01  0.72771172987E+02  0.74660907610E+02  0.10566000000E+00 0. -1.
        994    1    1    2    0    0 -0.19012294827E+02 -0.52623969968E+00  0.30064496587E+01  0.17227949101E+03  0.17120000000E+03 0.  0.
        998    1    1    2    0    0  0.23642299308E+01 -0.67304275152E+00  0.14242223736E+04  0.14242596014E+04  0.10000000000E+02 0. -1.
</event>
<event>
 5    1  0.1020718E-008  0.3898589E+03  0.7957747E-01  0.3409323E+00
         13   -1    0    0    0    0  0.00000000000E+00  0.00000000000E+00  0.14999999963E+04  0.15000000000E+04  0.10566000000E+00 0.  1.
        994   -1    0    0    0    0 -0.00000000000E+00 -0.00000000000E+00  0.11368683772E-12  0.17120000000E+03  0.17120000000E+03 0.  0.
         13    1    1    2    0    0  0.10796687741E+03 -0.11803628829E+02  0.21525091873E+03  0.24109985784E+03  0.10566000000E+00 0.  1.
        994    1    1    2    0    0 -0.12076507383E+03 -0.31704166553E+02  0.83181731092E+02  0.22763566861E+03  0.17120000000E+03 0.  0.
        998    1    1    2    0    0  0.12798196421E+02  0.43507795382E+02  0.12015673465E+04  0.12024644736E+04  0.10000000000E+02 0.  1.
</event>
<event>
 5    1  0.1020718E-008  0.3761676E+03  0.7957747E-01  0.3468017E+00
         13   -1    0    0    0    0  0.00000000000E+00  0.00000000000E+00  0.14999999963E+04  0.15000000000E+04  0.10566000000E+00 0. -1.
        994   -1    0    0    0    0 -0.00000000000E+00 -0.00000000000E+00  0.11368683772E-12  0.17120000000E+03  0.17120000000E+03 0.  0.
         13    1    1    2    0    0 -0.13551595132E+02 -0.16165482774E+01  0.12546118117E+02  0.18538478977E+02  0.10566000000E+00 0. -1.
        994    1    1    2    0    0  0.12768865561E+02 -0.16752322199E+01  0.66421176595E+01  0.17181213012E+03  0.17120000000E+03 0.  0.
        998    1    1    2    0    0  0.78272957101E+00  0.32917804973E+01  0.14808117605E+04  0.14808493909E+04  0.10000000000E+02 0. -1.
</event>
<event>
 5    1  0.1020718E-008  0.3818743E+03  0.7957747E-01  0.3443038E+00
         13   -1    0    0    0    0  0.00000000000E+00  0.00000000000E+00  0.14999999963E+04  0.15000000000E+04  0.10566000000E+00 0.  1.
        994   -1    0    0    0    0 -0.00000000000E+00 -0.00000000000E+00  0.11368683772E-12  0.17120000000E+03  0.17120000000E+03 0.  0.
         13    1    1    2    0    0 -0.15984445524E+02  0.25311256536E+02  0.16598068883E+03  0.16865871586E+03  0.10566000000E+00 0.  1.
        994    1    1    2    0    0  0.19903849613E+02  0.16941162964E+02  0.54630075363E+01  0.17326987818E+03  0.17120000000E+03 0.  0.
        998    1    1    2    0    0 -0.39194040889E+01 -0.42252419500E+02  0.13285562999E+04  0.13292714060E+04  0.10000000000E+02 0.  1.
</event>
<event>
 5    1  0.1020718E-008  0.3717704E+03  0.7957747E-01  0.3487794E+00
         13   -1    0    0    0    0  0.00000000000E+00  0.00000000000E+00  0.14999999963E+04  0.15000000000E+04  0.10566000000E+00 0.  1.
        994   -1    0    0    0    0 -0.00000000000E+00 -0.00000000000E+00  0.11368683772E-12  0.17120000000E+03  0.17120000000E+03 0.  0.
         13    1    1    2    0    0 -0.61147103453E+02 -0.14216642007E+02  0.17127761280E+03  0.18242015508E+03  0.10566000000E+00 0.  1.
        994    1    1    2    0    0  0.28005326905E+02 -0.67854265059E+01  0.14804482077E+02  0.17423820774E+03  0.17120000000E+03 0.  0.
        998    1    1    2    0    0  0.33141776547E+02  0.21002068513E+02  0.13139179014E+04  0.13145416372E+04  0.10000000000E+02 0.  1.
</event>
<event>
 5    1  0.1020718E-008  0.3694058E+03  0.7957747E-01  0.3498626E+00
         13   -1    0    0    0    0  0.00000000000E+00  0.00000000000E+00  0.14999999963E+04  0.15000000000E+04  0.10566000000E+00 0. -1.
        994   -1    0    0    0    0 -0.00000000000E+00 -0.00000000000E+00  0.11368683772E-12  0.17120000000E+03  0.17120000000E+03 0.  0.
         13    1    1    2    0    0  0.44252878216E+02 -0.43039569380E+02  0.21562747642E+03  0.22428986048E+03  0.10566000000E+00 0. -1.
        994    1    1    2    0    0 -0.19798961323E+01 -0.49369608155E+01  0.10723691013E+02  0.17161798018E+03  0.17120000000E+03 0.  0.
        998    1    1    2    0    0 -0.42272982083E+02  0.47976530195E+02  0.12736488288E+04  0.12752921593E+04  0.10000000000E+02 0. -1.
</event>
<event>
 5    1  0.1020718E-008  0.3842589E+03  0.7957747E-01  0.3432821E+00
         13   -1    0    0    0    0  0.00000000000E+00  0.00000000000E+00  0.14999999963E+04  0.15000000000E+04  0.10566000000E+00 0. -1.
        994   -1    0    0    0    0 -0.00000000000E+00 -0.00000000000E+00  0.11368683772E-12  0.17120000000E+03  0.17120000000E+03 0.  0.
         13    1    1    2    0    0  0.92139685997E+01 -0.89176236132E+01  0.39289814826E+02  0.41329431902E+02  0.10566000000E+00 0. -1.
        994    1    1    2    0    0 -0.52890778770E+01  0.18284397615E+02  0.31937546526E+01  0.17228445551E+03  0.17120000000E+03 0.  0.
        998    1    1    2    0    0 -0.39248907227E+01 -0.93667740016E+01  0.14575164268E+04  0.14575861126E+04  0.10000000000E+02 0. -1.
</event>
<event>
 5    1  0.1020718E-008  0.3748964E+03  0.7957747E-01  0.3473686E+00
         13   -1    0    0    0    0  0.00000000000E+00  0.00000000000E+00  0.14999999963E+04  0.15000000000E+04  0.10566000000E+00 0.  1.
        994   -1    0    0    0    0 -0.00000000000E+00 -0.00000000000E+00  0.11368683772E-12  0.17120000000E+03  0.17120000000E+03 0.  0.
         13    1    1    2    0    0 -0.12601245645E+02 -0.68631435080E+02  0.37237898862E+03  0.37886038010E+03  0.10566000000E+00 0.  1.
        994    1    1    2    0    0  0.19238155094E+02  0.33091931761E+02  0.11730423682E+02  0.17581872881E+03  0.17120000000E+03 0.  0.
        998    1    1    2    0    0 -0.66369094488E+01  0.35539503319E+02  0.11158905840E+04  0.11165208911E+04  0.10000000000E+02 0.  1.
</event>
<event>
 5    1  0.1020718E-008  0.3731516E+03  0.7957747E-01  0.3481531E+00
         13   -1    0    0    0    0  0.00000000000E+00  0.00000000000E+00  0.14999999963E+04  0.15000000000E+04  0.10566000000E+00 0. -1.
        994   -1    0    0    0    0 -0.00000000000E+00 -0.00000000000E+00  0.11368683772E-12  0.17120000000E+03  0.17120000000E+03 0.  0.
         13    1    1    2    0    0  0.30659046002E+02  0.12782021897E+02  0.38077820837E+02  0.50530078065E+02  0.10566000000E+00 0. -1.
        994    1    1    2    0    0 -0.25163084548E+02 -0.18878986775E+02  0.16121269986E+02  0.17481113326E+03  0.17120000000E+03 0.  0.
        998    1    1    2    0    0 -0.54959614535E+01  0.60969648784E+01  0.14458009055E+04  0.14458587887E+04  0.10000000000E+02 0. -1.
</event>
<event>
 5    1  0.1020718E-008  0.3739800E+03  0.7957747E-01  0.3477797E+00
         13   -1    0    0    0    0  0.00000000000E+00  0.00000000000E+00  0.14999999963E+04  0.15000000000E+04  0.10566000000E+00 0. -1.
        994   -1    0    0    0    0 -0.00000000000E+00 -0.00000000000E+00  0.11368683772E-12  0.17120000000E+03  0.17120000000E+03 0.  0.
         13    1    1    2    0    0 -0.28048547621E+02 -0.20640999227E+00  0.58307324001E+02  0.64703313864E+02  0.10566000000E+00 0. -1.
        994    1    1    2    0    0 -0.17680080802E+02 -0.80915525518E+01  0.84940500607E+01  0.17250984716E+03  0.17120000000E+03 0.  0.
        998    1    1    2    0    0  0.45728628423E+02  0.82979625440E+01  0.14331986222E+04  0.14339868390E+04  0.10000000000E+02 0. -1.
</event>
<event>
 5    1  0.1125327E-008  0.3839838E+03  0.7957747E-01  0.3433994E+00
         13   -1    0    0    0    0  0.00000000000E+00  0.00000000000E+00  0.14999999963E+04  0.15000000000E+04  0.10566000000E+00 0.  1.
        994   -1    0    0    0    0 -0.00000000000E+00 -0.00000000000E+00  0.11368683772E-12  0.17120000000E+03  0.17120000000E+03 0.  0.
         13    1    1    2    0    0 -0.14567927115E+02 -0.15357274306E+02  0.98780089563E+02  0.10102270850E+03  0.10566000000E+00 0.  1.
        994    1    1    2    0    0  0.12220249279E+02  0.18048688682E+02  0.37046643323E+01  0.17262170835E+03  0.17120000000E+03 0.  0.
        998    1    1    2    0    0  0.23476778358E+01 -0.26914143752E+01  0.13975152424E+04  0.13975555832E+04  0.10000000000E+02 0.  1.
</event>
<event>
 5    1  0.1020718E-008  0.3849099E+03  0.7957747E-01  0.3430054E+00
         13   -1    0    0    0    0  0.00000000000E+00  0.00000000000E+00  0.14999999963E+04  0.15000000000E+04  0.10566000000E+00 0. -1.
        994   -1    0    0    0    0 -0.00000000000E+00 -0.00000000000E+00  0.11368683772E-12  0.17120000000E+03  0.17120000000E+03 0.  0.
         13    1    1    2    0    0  0.70320275175E+01 -0.90301157172E+01  0.40324254506E+02  0.41917169113E+02  0.10566000000E+00 0. -1.
        994    1    1    2    0    0  0.19249657116E+02  0.16501638956E+02  0.37924728423E+01  0.17310885661E+03  0.17120000000E+03 0.  0.
        998    1    1    2    0    0 -0.26281684634E+02 -0.74715232387E+01  0.14558832689E+04  0.14561739743E+04  0.10000000000E+02 0. -1.
</event>
<event>
 5    1  0.1020718E-008  0.3730969E+03  0.7957747E-01  0.3481778E+00
         13   -1    0    0    0    0  0.00000000000E+00  0.00000000000E+00  0.14999999963E+04  0.15000000000E+04  0.10566000000E+00 0.  1.
        994   -1    0    0    0    0 -0.00000000000E+00 -0.00000000000E+00  0.11368683772E-12  0.17120000000E+03  0.17120000000E+03 0.  0.
         13    1    1    2    0    0  0.11829891455E+02 -0.49171162487E+02  0.18963598952E+03  0.19626402940E+03  0.10566000000E+00 0.  1.
        994    1    1    2    0    0  0.52409973215E+01  0.55491622497E+01  0.78586275803E+01  0.17155016550E+03  0.17120000000E+03 0.  0.
        998    1    1    2    0    0 -0.17070888776E+02  0.43622000237E+02  0.13025053792E+04  0.13033858051E+04  0.10000000000E+02 0.  1.
</event>
<event>
 5    1  0.1020718E-008  0.3790750E+03  0.7957747E-01  0.3455196E+00
         13   -1    0    0    0    0  0.00000000000E+00  0.00000000000E+00  0.14999999963E+04  0.15000000000E+04  0.10566000000E+00 0. -1.
        994   -1    0    0    0    0 -0.00000000000E+00 -0.00000000000E+00  0.11368683772E-12  0.17120000000E+03  0.17120000000E+03 0.  0.
         13    1    1    2    0    0  0.22550271233E+01  0.47856558800E+02  0.21576326518E+03  0.22101839998E+03  0.10566000000E+00 0. -1.
        994    1    1    2    0    0 -0.19982161352E+01 -0.46755670431E+02  0.11979845984E+02  0.17788491306E+03  0.17120000000E+03 0.  0.
        998    1    1    2    0    0 -0.25681098807E+00 -0.11008883698E+01  0.12722568851E+04  0.12722966870E+04  0.10000000000E+02 0.  0.
</event>
<event>
 5    1  0.1020718E-008  0.3787082E+03  0.7957747E-01  0.3456803E+00
         13   -1    0    0    0    0  0.00000000000E+00  0.00000000000E+00  0.14999999963E+04  0.15000000000E+04  0.10566000000E+00 0. -1.
        994   -1    0    0    0    0 -0.00000000000E+00 -0.00000000000E+00  0.11368683772E-12  0.17120000000E+03  0.17120000000E+03 0.  0.
         13    1    1    2    0    0  0.69907930364E+01 -0.10912528211E+02  0.15540738257E+02  0.20235616344E+02  0.10566000000E+00 0. -1.
        994    1    1    2    0    0 -0.10890598906E+01  0.81503747574E+01  0.50136932148E+01  0.17147067324E+03  0.17120000000E+03 0.  0.
        998    1    1    2    0    0 -0.59017331458E+01  0.27621534536E+01  0.14794455648E+04  0.14794937104E+04  0.10000000000E+02 0. -1.
</event>
<event>
 5    1  0.1020718E-008  0.3731666E+03  0.7957747E-01  0.3481463E+00
         13   -1    0    0    0    0  0.00000000000E+00  0.00000000000E+00  0.14999999963E+04  0.15000000000E+04  0.10566000000E+00 0.  1.
        994   -1    0    0    0    0 -0.00000000000E+00 -0.00000000000E+00  0.11368683772E-12  0.17120000000E+03  0.17120000000E+03 0.  0.
         13    1    1    2    0    0  0.45470353005E+02  0.86142851158E+01  0.12723614535E+03  0.13539130976E+03  0.10566000000E+00 0.  1.
        994    1    1    2    0    0 -0.40604305710E+02 -0.33219228079E+02  0.17096050042E+02  0.17987201473E+03  0.17120000000E+03 0.  0.
        998    1    1    2    0    0 -0.48660472952E+01  0.24604942963E+02  0.13556678009E+04  0.13559366755E+04  0.10000000000E+02 0.  1.
</event>
<event>
 5    1  0.1020718E-008  0.3775051E+03  0.7957747E-01  0.3462094E+00
         13   -1    0    0    0    0  0.00000000000E+00  0.00000000000E+00  0.14999999963E+04  0.15000000000E+04  0.10566000000E+00 0. -1.
        994   -1    0    0    0    0 -0.00000000000E+00 -0.00000000000E+00  0.11368683772E-12  0.17120000000E+03  0.17120000000E+03 0.  0.
         13    1    1    2    0    0  0.10345046778E+03 -0.10171525439E+03  0.45341198445E+03  0.47605717206E+03  0.10566000000E+00 0. -1.
        994    1    1    2    0    0 -0.10639283859E+03  0.10097329921E+03  0.96880630964E+02  0.24537795319E+03  0.17120000000E+03 0.  0.
        998    1    1    2    0    0  0.29423708070E+01  0.74195518854E+00  0.94970738087E+03  0.94976487475E+03  0.10000000000E+02 0. -1.
</event>
<event>
 5    1  0.1020718E-008  0.3840594E+03  0.7957747E-01  0.3433671E+00
         13   -1    0    0    0    0  0.00000000000E+00  0.00000000000E+00  0.14999999963E+04  0.15000000000E+04  0.10566000000E+00 0.  1.
        994   -1    0    0    0    0 -0.00000000000E+00 -0.00000000000E+00  0.11368683772E-12  0.17120000000E+03  0.17120000000E+03 0.  0.
         13    1    1    2    0    0 -0.17391138186E+02 -0.13702665312E+02  0.11280761867E+03  0.11495992658E+03  0.10566000000E+00 0.  1.
        994    1    1    2    0    0  0.13599192309E+02  0.11832269755E+02  0.31704749549E+01  0.17217558639E+03  0.17120000000E+03 0.  0.
        998    1    1    2    0    0  0.37919458773E+01  0.18703955560E+01  0.13840219026E+04  0.13840644870E+04  0.10000000000E+02 0.  1.
</event>
<event>
 5    1  0.1020718E-008  0.3801040E+03  0.7957747E-01  0.3450706E+00
         13   -1    0    0    0    0  0.00000000000E+00  0.00000000000E+00  0.14999999963E+04  0.15000000000E+04  0.10566000000E+00 0. -1.
        994   -1    0    0    0    0 -0.00000000000E+00 -0.00000000000E+00  0.11368683772E-12  0.17120000000E+03  0.17120000000E+03 0.  0.
         13    1    1    2    0    0  0.12661784553E+03  0.31479546146E+01  0.48533389484E+03  0.50158846585E+03  0.10566000000E+00 0. -1.
        994    1    1    2    0    0 -0.75508549929E+02  0.18381385257E+02  0.38618053299E+02  0.19193803812E+03  0.17120000000E+03 0.  0.
        998    1    1    2    0    0 -0.51109295601E+02 -0.21529339872E+02  0.97604804814E+03  0.97767349603E+03  0.10000000000E+02 0. -1.
</event>
<event>
 5    1  0.1020718E-008  0.3787713E+03  0.7957747E-01  0.3456526E+00
         13   -1    0    0    0    0  0.00000000000E+00  0.00000000000E+00  0.14999999963E+04  0.15000000000E+04  0.10566000000E+00 0.  1.
        994   -1    0    0    0    0 -0.00000000000E+00 -0.00000000000E+00  0.11368683772E-12  0.17120000000E+03  0.17120000000E+03 0.  0.
         13    1    1    2    0    0  0.10699394441E+02  0.31672671267E+01  0.10948883540E+02  0.15633228625E+02  0.10566000000E+00 0.  1.
        994    1    1    2    0    0 -0.65884529907E+01 -0.10649648370E+02  0.52812204115E+01  0.17173862120E+03  0.17120000000E+03 0.  0.
        998    1    1    2    0    0 -0.41109414499E+01  0.74823812434E+01  0.14837698923E+04  0.14838281502E+04  0.10000000000E+02 0.  1.
</event>
<event>
 5    1  0.1020718E-008  0.3851491E+03  0.7957747E-01  0.3429040E+00
         13   -1    0    0    0    0  0.00000000000E+00  0.00000000000E+00  0.14999999963E+04  0.15000000000E+04  0.10566000000E+00 0.  1.
        994   -1    0    0    0    0 -0.00000000000E+00 -0.00000000000E+00  0.11368683772E-12  0.17120000000E+03  0.17120000000E+03 0.  0.
         13    1    1    2    0    0  0.28233464098E+03  0.33534230964E+02  0.10172436826E+04  0.10562301431E+04  0.10566000000E+00 0.  1.
        994    1    1    2    0    0 -0.29707712461E+03 -0.22673726420E+02  0.38951590553E+03  0.51942371577E+03  0.17120000000E+03 0.  0.
        998    1    1    2    0    0  0.14742483634E+02 -0.10860504544E+02  0.93240408127E+02  0.95546141159E+02  0.10000000000E+02 0.  1.
</event>
<event>
 5    1  0.1020718E-008  0.4294908E+03  0.7957747E-01  0.3260438E+00
         13   -1    0    0    0    0  0.00000000000E+00  0.00000000000E+00  0.14999999963E+04  0.15000000000E+04  0.10566000000E+00 0.  1.
        994   -1    0    0    0    0 -0.00000000000E+00 -0.00000000000E+00  0.11368683772E-12  0.17120000000E+03  0.17120000000E+03 0.  0.
         13    1    1    2    0    0 -0.13138734030E+03  0.21764155293E+01  0.14622304471E+03  0.19659237000E+03  0.10566000000E+00 0.  1.
        994    1    1    2    0    0  0.13948235514E+03 -0.42106608623E+02  0.15034928692E+03  0.27044896369E+03  0.17120000000E+03 0.  0.
        998    1    1    2    0    0 -0.80950148407E+01  0.39930193093E+02  0.12034276647E+04  0.12041586663E+04  0.10000000000E+02 0.  1.
</event>
<event>
 5    1  0.1020718E-008  0.3820744E+03  0.7957747E-01  0.3442175E+00
         13   -1    0    0    0    0  0.00000000000E+00  0.00000000000E+00  0.14999999963E+04  0.15000000000E+04  0.10566000000E+00 0.  1.
        994   -1    0    0    0    0 -0.00000000000E+00 -0.00000000000E+00  0.11368683772E-12  0.17120000000E+03  0.17120000000E+03 0.  0.
         13    1    1    2    0    0  0.15989633024E+02  0.23949257863E+01  0.41565794195E+02  0.44599668663E+02  0.10566000000E+00 0.  1.
        994    1    1    2    0    0 -0.11287014562E+02  0.16038497609E+02  0.43677130157E+01  0.17237501855E+03  0.17120000000E+03 0.  0.
        998    1    1    2    0    0 -0.47026184615E+01 -0.18433423395E+02  0.14540664891E+04  0.14542253128E+04  0.10000000000E+02 0.  1.
</event>
<event>
 5    1  0.1020718E-008  0.3850215E+03  0.7957747E-01  0.3429581E+00
         13   -1    0    0    0    0  0.00000000000E+00  0.00000000000E+00  0.14999999963E+04  0.15000000000E+04  0.10566000000E+00 0.  1.
        994   -1    0    0    0    0 -0.00000000000E+00 -0.00000000000E+00  0.11368683772E-12  0.17120000000E+03  0.17120000000E+03 0.  0.
         13    1    1    2    0    0  0.55780762420E+01 -0.13440380361E+02  0.65747354568E+02  0.67338581479E+02  0.10566000000E+00 0.  1.
        994    1    1    2    0    0 -0.23334282806E+01  0.85390103385E+01  0.18771687564E+01  0.17143897850E+03  0.17120000000E+03 0.  0.
        998    1    1    2    0    0 -0.32446479614E+01  0.49013700227E+01  0.14323754730E+04  0.14324224400E+04  0.10000000000E+02 0.  1.
</event>
<event>
 5    1  0.1020718E-008  0.3823166E+03  0.7957747E-01  0.3441133E+00
         13   -1    0    0    0    0  0.00000000000E+00  0.00000000000E+00  0.14999999963E+04  0.15000000000E+04  0.10566000000E+00 0.  1.
        994   -1    0    0    0    0 -0.00000000000E+00 -0.00000000000E+00  0.11368683772E-12  0.17120000000E+03  0.17120000000E+03 0.  0.
         13    1    1    2    0    0 -0.54766026822E+01 -0.24043053198E+02  0.10838633486E+03  0.11115606295E+03  0.10566000000E+00 0.  1.
        994    1    1    2    0    0 -0.11601561471E+01  0.50368021739E+01  0.30569419923E+01  0.17130528373E+03  0.17120000000E+03 0.  0.
        998    1    1    2    0    0  0.66367588294E+01  0.19006251024E+02  0.13885567194E+04  0.13887386533E+04  0.10000000000E+02 0.  1.
</event>
<event>
 5    1  0.1020718E-008  0.3860312E+03  0.7957747E-01  0.3425311E+00
         13   -1    0    0    0    0  0.00000000000E+00  0.00000000000E+00  0.14999999963E+04  0.15000000000E+04  0.10566000000E+00 0.  1.
        994   -1    0    0    0    0 -0.00000000000E+00 -0.00000000000E+00  0.11368683772E-12  0.17120000000E+03  0.17120000000E+03 0.  0.
         13    1    1    2    0    0  0.11676244398E+02  0.59366980395E+01  0.78449518530E+02  0.79535634709E+02  0.10566000000E+00 0.  1.
        994    1    1    2    0    0 -0.56138522997E+01 -0.50479226634E+01  0.13058913778E+01  0.17137135762E+03  0.17120000000E+03 0.  0.
        998    1    1    2    0    0 -0.60623920986E+01 -0.88877537609E+00  0.14202445864E+04  0.14202930077E+04  0.10000000000E+02 0.  1.
</event>
<event>
 5    1  0.1252835E-008  0.3857740E+03  0.7957747E-01  0.3426396E+00
         13   -1    0    0    0    0  0.00000000000E+00  0.00000000000E+00  0.14999999963E+04  0.15000000000E+04  0.10566000000E+00 0.  1.
        994   -1    0    0    0    0 -0.00000000000E+00 -0.00000000000E+00  0.11368683772E-12  0.17120000000E+03  0.17120000000E+03 0.  0.
         13    1    1    2    0    0  0.80007125829E+01 -0.68234207239E+01  0.44055154098E+02  0.45292805597E+02  0.10566000000E+00 0.  1.
        994    1    1    2    0    0 -0.61643257526E+01  0.74687292353E+01  0.15540442860E+01  0.17148071577E+03  0.17120000000E+03 0.  0.
        998    1    1    2    0    0 -0.18363868303E+01 -0.64530851137E+00  0.14543907979E+04  0.14544264786E+04  0.10000000000E+02 0.  1.
</event>
<event>
 5    1  0.1020718E-008  0.3829614E+03  0.7957747E-01  0.3438364E+00
         13   -1    0    0    0    0  0.00000000000E+00  0.00000000000E+00  0.14999999963E+04  0.15000000000E+04  0.10566000000E+00 0. -1.
        994   -1    0    0    0    0 -0.00000000000E+00 -0.00000000000E+00  0.11368683772E-12  0.17120000000E+03  0.17120000000E+03 0.  0.
         13    1    1    2    0    0 -0.15241789804E+02 -0.30175114417E+02  0.17734071852E+03  0.18053418318E+03  0.10566000000E+00 0. -1.
        994    1    1    2    0    0  0.18610589193E+02  0.39223434173E+02  0.89106316981E+01  0.17684363482E+03  0.17120000000E+03 0.  0.
        998    1    1    2    0    0 -0.33687993891E+01 -0.90483197566E+01  0.13137486461E+04  0.13138221820E+04  0.10000000000E+02 0. -1.
</event>
<event>
 5    1  0.1020718E-008  0.3754055E+03  0.7957747E-01  0.3471411E+00
         13   -1    0    0    0    0  0.00000000000E+00  0.00000000000E+00  0.14999999963E+04  0.15000000000E+04  0.10566000000E+00 0. -1.
        994   -1    0    0    0    0 -0.00000000000E+00 -0.00000000000E+00  0.11368683772E-12  0.17120000000E+03  0.17120000000E+03 0.  0.
         13    1    1    2    0    0 -0.46666998203E+02  0.91899821004E+01  0.15700606295E+03  0.16405236804E+03  0.10566000000E+00 0. -1.
        994    1    1    2    0    0  0.44622581003E+02 -0.11049993971E+02  0.13678272790E+02  0.17779148531E+03  0.17120000000E+03 0.  0.
        998    1    1    2    0    0  0.20444172002E+01  0.18600118703E+01  0.13293156605E+04  0.13293561466E+04  0.10000000000E+02 0. -1.
</event>
<event>
 5    1  0.1020718E-008  0.3329090E+03  0.7957747E-01  0.3685900E+00
         13   -1    0    0    0    0  0.00000000000E+00  0.00000000000E+00  0.14999999963E+04  0.15000000000E+04  0.10566000000E+00 0. -1.
        994   -1    0    0    0    0 -0.00000000000E+00 -0.00000000000E+00  0.11368683772E-12  0.17120000000E+03  0.17120000000E+03 0.  0.
         13    1    1    2    0    0  0.25882286531E+03  0.70298309381E+02  0.62649179419E+03  0.68148595529E+03  0.10566000000E+00 0. -1.
        994    1    1    2    0    0 -0.27568557098E+03 -0.55052031204E+02  0.41108638169E+03  0.52662578117E+03  0.17120000000E+03 0.  0.
        998    1    1    2    0    0  0.16862705672E+02 -0.15246278176E+02  0.46242182040E+03  0.46308826353E+03  0.10000000000E+02 0.  1.
</event>
<event>
 5    1  0.1020718E-008  0.3779528E+03  0.7957747E-01  0.3460121E+00
         13   -1    0    0    0    0  0.00000000000E+00  0.00000000000E+00  0.14999999963E+04  0.15000000000E+04  0.10566000000E+00 0. -1.
        994   -1    0    0    0    0 -0.00000000000E+00 -0.00000000000E+00  0.11368683772E-12  0.17120000000E+03  0.17120000000E+03 0.  0.
         13    1    1    2    0    0  0.39059637070E+02 -0.45028330636E+02  0.25324714137E+03  0.26016789115E+03  0.10566000000E+00 0. -1.
        994    1    1    2    0    0 -0.67591533955E+02  0.41760722375E+02  0.26719579265E+02  0.19061990796E+03  0.17120000000E+03 0.  0.
        998    1    1    2    0    0  0.28531896886E+02  0.32676082605E+01  0.12200332756E+04  0.12204122009E+04  0.10000000000E+02 0. -1.
</event>
<event>
 5    1  0.1020718E-008  0.3827826E+03  0.7957747E-01  0.3439131E+00
         13   -1    0    0    0    0  0.00000000000E+00  0.00000000000E+00  0.14999999963E+04  0.15000000000E+04  0.10566000000E+00 0. -1.
        994   -1    0    0    0    0 -0.00000000000E+00 -0.00000000000E+00  0.11368683772E-12  0.17120000000E+03  0.17120000000E+03 0.  0.
         13    1    1    2    0    0  0.22960097200E+02  0.11501047404E+02  0.11147854854E+03  0.11439806862E+03  0.10566000000E+00 0. -1.
        994    1    1    2    0    0 -0.24587756620E+02 -0.10609779278E+02  0.51141044557E+01  0.17335720134E+03  0.17120000000E+03 0.  0.
        998    1    1    2    0    0  0.16276594200E+01 -0.89126812605E+00  0.13834073433E+04  0.13834447300E+04  0.10000000000E+02 0. -1.
</event>
<event>
 5    1  0.1020718E-008  0.3819470E+03  0.7957747E-01  0.3442724E+00
         13   -1    0    0    0    0  0.00000000000E+00  0.00000000000E+00  0.14999999963E+04  0.15000000000E+04  0.10566000000E+00 0. -1.
        994   -1    0    0    0    0 -0.00000000000E+00 -0.00000000000E+00  0.11368683772E-12  0.17120000000E+03  0.17120000000E+03 0.  0.
         13    1    1    2    0    0  0.97668511119E+01 -0.18128697204E+02  0.78965296228E+02  0.81606189811E+02  0.10566000000E+00 0. -1.
        994    1    1    2    0    0 -0.41012400466E+02 -0.41847728776E+02  0.14642279798E+02  0.18154086524E+03  0.17120000000E+03 0.  0.
        998    1    1    2    0    0  0.31245549354E+02  0.59976425980E+02  0.14063924203E+04  0.14080529449E+04  0.10000000000E+02 0. -1.
</event>
<event>
 5    1  0.1020718E-008  0.3834417E+03  0.7957747E-01  0.3436308E+00
         13   -1    0    0    0    0  0.00000000000E+00  0.00000000000E+00  0.14999999963E+04  0.15000000000E+04  0.10566000000E+00 0.  1.
        994   -1    0    0    0    0 -0.00000000000E+00 -0.00000000000E+00  0.11368683772E-12  0.17120000000E+03  0.17120000000E+03 0.  0.
         13    1    1    2    0    0 -0.79881901845E+01 -0.10063935015E+02  0.33493346131E+02  0.35873519056E+02  0.10566000000E+00 0.  1.
        994    1    1    2    0    0  0.73619795909E+01  0.60991007960E+01  0.27079364413E+01  0.17148810657E+03  0.17120000000E+03 0.  0.
        998    1    1    2    0    0  0.62621059353E+00  0.39648342191E+01  0.14637987137E+04  0.14638383744E+04  0.10000000000E+02 0.  1.
</event>
<event>
 5    1  0.1020718E-008  0.3849398E+03  0.7957747E-01  0.3429928E+00
         13   -1    0    0    0    0  0.00000000000E+00  0.00000000000E+00  0.14999999963E+04  0.15000000000E+04  0.10566000000E+00 0.  1.
        994   -1    0    0    0    0 -0.00000000000E+00 -0.00000000000E+00  0.11368683772E-12  0.17120000000E+03  0.17120000000E+03 0.  0.
         13    1    1    2    0    0  0.12153743311E+02  0.89302796027E+01  0.72878017773E+02  0.74422308543E+02  0.10566000000E+00 0.  1.
        994    1    1    2    0    0 -0.10029769418E+02  0.11961340601E+02  0.24619419203E+01  0.17192780782E+03  0.17120000000E+03 0.  0.
        998    1    1    2    0    0 -0.21239738936E+01 -0.20891620204E+02  0.14246600366E+04  0.14248498836E+04  0.10000000000E+02 0.  1.
</event>
<event>
 5    1  0.1020718E-008  0.4237965E+03  0.7957747E-01  0.3280141E+00
         13   -1    0    0    0    0  0.00000000000E+00  0.00000000000E+00  0.14999999963E+04  0.15000000000E+04  0.10566000000E+00 0.  1.
        994   -1    0    0    0    0 -0.00000000000E+00 -0.00000000000E+00  0.11368683772E-12  0.17120000000E+03  0.17120000000E+03 0.  0.
         13    1    1    2    0    0 -0.70434017920E+02  0.71099843085E+01  0.42774857829E+02  0.82711561365E+02  0.10566000000E+00 0.  1.
        994    1    1    2    0    0  0.73551788038E+02  0.72745239125E+01  0.66992485544E+02  0.19814191213E+03  0.17120000000E+03 0.  0.
        998    1    1    2    0    0 -0.31177701180E+01 -0.14384508221E+02  0.13902326529E+04  0.13903465265E+04  0.10000000000E+02 0.  1.
</event>
<event>
 5    1  0.1020718E-008  0.3796193E+03  0.7957747E-01  0.3452818E+00
         13   -1    0    0    0    0  0.00000000000E+00  0.00000000000E+00  0.14999999963E+04  0.15000000000E+04  0.10566000000E+00 0. -1.
        994   -1    0    0    0    0 -0.00000000000E+00 -0.00000000000E+00  0.11368683772E-12  0.17120000000E+03  0.17120000000E+03 0.  0.
         13    1    1    2    0    0  0.13340411217E+03 -0.30704185050E+02  0.72868447099E+03  0.74143136806E+03  0.10566000000E+00 0. -1.
        994    1    1    2    0    0 -0.15117461174E+03  0.37710489805E+02  0.90397832489E+02  0.24850966258E+03  0.17120000000E+03 0.  0.
        998    1    1    2    0    0  0.17770499572E+02 -0.70063047549E+01  0.68091769280E+03  0.68125896936E+03  0.10000000000E+02 0. -1.
</event>
<event>
 5    1  0.1020718E-008  0.3784233E+03  0.7957747E-01  0.3458053E+00
         13   -1    0    0    0    0  0.00000000000E+00  0.00000000000E+00  0.14999999963E+04  0.15000000000E+04  0.10566000000E+00 0.  1.
        994   -1    0    0    0    0 -0.00000000000E+00 -0.00000000000E+00  0.11368683772E-12  0.17120000000E+03  0.17120000000E+03 0.  0.
         13    1    1    2    0    0  0.16413740650E+02 -0.43559180921E+00  0.24517325494E+02  0.29507813131E+02  0.10566000000E+00 0.  1.
        994    1    1    2    0    0 -0.22695870533E+02  0.10873109117E+01  0.66680414038E+01  0.17282993826E+03  0.17120000000E+03 0.  0.
        998    1    1    2    0    0  0.62821298826E+01 -0.65171910247E+00  0.14688146294E+04  0.14688622486E+04  0.10000000000E+02 0.  1.
</event>
<event>
 5    1  0.1020718E-008  0.2869862E+03  0.7957747E-01  0.3993542E+00
         13   -1    0    0    0    0  0.00000000000E+00  0.00000000000E+00  0.14999999963E+04  0.15000000000E+04  0.10566000000E+00 0. -1.
        994   -1    0    0    0    0 -0.00000000000E+00 -0.00000000000E+00  0.11368683772E-12  0.17120000000E+03  0.17120000000E+03 0.  0.
         13    1    1    2    0    0 -0.15333678107E+03  0.69882939638E+02  0.57397592471E+03  0.59820077481E+03  0.10566000000E+00 0. -1.
        994    1    1    2    0    0  0.14754744852E+03 -0.81876037426E+02  0.12340545495E+03  0.27020784848E+03  0.17120000000E+03 0.  0.
        998    1    1    2    0    0  0.57893325538E+01  0.11993097788E+02  0.80261861662E+03  0.80279137670E+03  0.10000000000E+02 0.  0.
</event>
<event>
 5    1  0.1020718E-008  0.3358388E+03  0.7957747E-01  0.3669306E+00
         13   -1    0    0    0    0  0.00000000000E+00  0.00000000000E+00  0.14999999963E+04  0.15000000000E+04  0.10566000000E+00 0.  1.
        994   -1    0    0    0    0 -0.00000000000E+00 -0.00000000000E+00  0.11368683772E-12  0.17120000000E+03  0.17120000000E+03 0.  0.
         13    1    1    2    0    0  0.35370526149E+02  0.19324626611E+03  0.98244619257E+03  0.10018960654E+04  0.10566000000E+00 0.  1.
        994    1    1    2    0    0 -0.28217809314E+02 -0.14659859798E+03  0.98674600381E+02  0.24765603254E+03  0.17120000000E+03 0.  0.
        998    1    1    2    0    0 -0.71527168349E+01 -0.46647668132E+02  0.41887920333E+03  0.42164790203E+03  0.10000000000E+02 0.  1.
</event>
<event>
 5    1  0.1020718E-008  0.3841606E+03  0.7957747E-01  0.3433240E+00
         13   -1    0    0    0    0  0.00000000000E+00  0.00000000000E+00  0.14999999963E+04  0.15000000000E+04  0.10566000000E+00 0.  1.
        994   -1    0    0    0    0 -0.00000000000E+00 -0.00000000000E+00  0.11368683772E-12  0.17120000000E+03  0.17120000000E+03 0.  0.
         13    1    1    2    0    0  0.17229518853E+02  0.60575455690E+00  0.71862676440E+02  0.73901817891E+02  0.10566000000E+00 0.  1.
        994    1    1    2    0    0 -0.11990506586E+02 -0.38417962523E+00  0.25221978484E+01  0.17163834456E+03  0.17120000000E+03 0.  0.
        998    1    1    2    0    0 -0.52390122662E+01 -0.22157493167E+00  0.14256151220E+04  0.14256598375E+04  0.10000000000E+02 0.  1.
</event>
<event>
 5    1  0.1020718E-008  0.3847896E+03  0.7957747E-01  0.3430565E+00
         13   -1    0    0    0    0  0.00000000000E+00  0.00000000000E+00  0.14999999963E+04  0.15000000000E+04  0.10566000000E+00 0. -1.
        994   -1    0    0    0    0 -0.00000000000E+00 -0.00000000000E+00  0.11368683772E-12  0.17120000000E+03  0.17120000000E+03 0.  0.
         13    1    1    2    0    0  0.81573985137E+01 -0.97278708737E+01  0.45313597002E+02  0.47058557771E+02  0.10566000000E+00 0. -1.
        994    1    1    2    0    0 -0.77753204502E+01  0.99204081627E+01  0.22576527523E+01  0.17167820800E+03  0.17120000000E+03 0.  0.
        998    1    1    2    0    0 -0.38207806356E+00 -0.19253728899E+00  0.14524287465E+04  0.14524632342E+04  0.10000000000E+02 0. -1.
</event>
<event>
 5    1  0.1020718E-008  0.3812581E+03  0.7957747E-01  0.3445699E+00
         13   -1    0    0    0    0  0.00000000000E+00  0.00000000000E+00  0.14999999963E+04  0.15000000000E+04  0.10566000000E+00 0.  1.
        994   -1    0    0    0    0 -0.00000000000E+00 -0.00000000000E+00  0.11368683772E-12  0.17120000000E+03  0.17120000000E+03 0.  0.
         13    1    1    2    0    0 -0.24987888440E+01  0.17276509085E+02  0.42821475006E+02  0.46242962682E+02  0.10566000000E+00 0.  1.
        994    1    1    2    0    0 -0.48591918386E+01 -0.88927347242E+01  0.38413657429E+01  0.17154267273E+03  0.17120000000E+03 0.  0.
        998    1    1    2    0    0  0.73579806826E+01 -0.83837743603E+01  0.14533371555E+04  0.14534143646E+04  0.10000000000E+02 0.  1.
</event>
<event>
 5    1  0.1020718E-008  0.3696450E+03  0.7957747E-01  0.3497524E+00
         13   -1    0    0    0    0  0.00000000000E+00  0.00000000000E+00  0.14999999963E+04  0.15000000000E+04  0.10566000000E+00 0. -1.
        994   -1    0    0    0    0 -0.00000000000E+00 -0.00000000000E+00  0.11368683772E-12  0.17120000000E+03  0.17120000000E+03 0.  0.
         13    1    1    2    0    0  0.18834226529E+02 -0.90647344507E+01  0.19688834220E+02  0.28715132885E+02  0.10566000000E+00 0. -1.
        994    1    1    2    0    0 -0.82581252473E+01 -0.15456533325E+02  0.10518613566E+02  0.17241572517E+03  0.17120000000E+03 0.  0.
        998    1    1    2    0    0 -0.10576101281E+02  0.24521267776E+02  0.14697925485E+04  0.14700691419E+04  0.10000000000E+02 0. -1.
</event>
<event>
 5    1  0.1020718E-008  0.3743890E+03  0.7957747E-01  0.3475960E+00
         13   -1    0    0    0    0  0.00000000000E+00  0.00000000000E+00  0.14999999963E+04  0.15000000000E+04  0.10566000000E+00 0. -1.
        994   -1    0    0    0    0 -0.00000000000E+00 -0.00000000000E+00  0.11368683772E-12  0.17120000000E+03  0.17120000000E+03 0.  0.
         13    1    1    2    0    0  0.51299176488E+02  0.44787251886E+02  0.27303341583E+03  0.28139786916E+03  0.10566000000E+00 0. -1.
        994    1    1    2    0    0 -0.44698323716E+02 -0.49986487041E+02  0.22467000279E+02  0.18523173360E+03  0.17120000000E+03 0.  0.
        998    1    1    2    0    0 -0.66008527718E+01  0.51992351542E+01  0.12044995802E+04  0.12045703972E+04  0.10000000000E+02 0. -1.
</event>
<event>
 5    1  0.1305784E-008  0.3858721E+03  0.7957747E-01  0.3425982E+00
         13   -1    0    0    0    0  0.00000000000E+00  0.00000000000E+00  0.14999999963E+04  0.15000000000E+04  0.10566000000E+00 0.  1.
        994   -1    0    0    0    0 -0.00000000000E+00 -0.00000000000E+00  0.11368683772E-12  0.17120000000E+03  0.17120000000E+03 0.  0.
         13    1    1    2    0    0  0.94142000956E+01 -0.63915274542E+01  0.53725786856E+02  0.54917666775E+02  0.10566000000E+00 0.  1.
        994    1    1    2    0    0 -0.93037984193E+01  0.40947144052E+01  0.15367068848E+01  0.17150839285E+03  0.17120000000E+03 0.  0.
        998    1    1    2    0    0 -0.11040167626E+00  0.22968130490E+01  0.14447375025E+04  0.14447739404E+04  0.10000000000E+02 0.  1.
</event>
<event>
 5    1  0.1020718E-008  0.3844564E+03  0.7957747E-01  0.3431981E+00
         13   -1    0    0    0    0  0.00000000000E+00  0.00000000000E+00  0.14999999963E+04  0.15000000000E+04  0.10566000000E+00 0.  1.
        994   -1    0    0    0    0 -0.00000000000E+00 -0.00000000000E+00  0.11368683772E-12  0.17120000000E+03  0.17120000000E+03 0.  0.
         13    1    1    2    0    0 -0.28266669513E+02  0.35360110665E+02  0.46155892780E+02  0.64650751225E+02  0.10566000000E+00 0.  1.
        994    1    1    2    0    0  0.26075160772E+02 -0.36514612403E+02  0.26250302662E+02  0.17891827553E+03  0.17120000000E+03 0.  0.
        998    1    1    2    0    0  0.21915087402E+01  0.11545017382E+01  0.14275938008E+04  0.14276309732E+04  0.10000000000E+02 0.  1.
</event>
<event>
 5    1  0.1020718E-008  0.3802694E+03  0.7957747E-01  0.3449986E+00
         13   -1    0    0    0    0  0.00000000000E+00  0.00000000000E+00  0.14999999963E+04  0.15000000000E+04  0.10566000000E+00 0. -1.
        994   -1    0    0    0    0 -0.00000000000E+00 -0.00000000000E+00  0.11368683772E-12  0.17120000000E+03  0.17120000000E+03 0.  0.
         13    1    1    2    0    0  0.32501846569E+01  0.10395790751E+02  0.13260447050E+02  0.17160617286E+02  0.10566000000E+00 0. -1.
        994    1    1    2    0    0 -0.45790629995E+01 -0.18760861125E+01  0.40790310235E+01  0.17132006891E+03  0.17120000000E+03 0.  0.
        998    1    1    2    0    0  0.13288783426E+01 -0.85197046382E+01  0.14826605182E+04  0.14827193138E+04  0.10000000000E+02 0. -1.
</event>
<event>
 5    1  0.1020718E-008  0.3789530E+03  0.7957747E-01  0.3455730E+00
         13   -1    0    0    0    0  0.00000000000E+00  0.00000000000E+00  0.14999999963E+04  0.15000000000E+04  0.10566000000E+00 0.  1.
        994   -1    0    0    0    0 -0.00000000000E+00 -0.00000000000E+00  0.11368683772E-12  0.17120000000E+03  0.17120000000E+03 0.  0.
         13    1    1    2    0    0 -0.33068348981E+02 -0.35779820106E+01  0.10947431362E+03  0.11441570769E+03  0.10566000000E+00 0.  1.
        994    1    1    2    0    0  0.32407963866E+02  0.87844087810E+01  0.84539304186E+01  0.17466639888E+03  0.17120000000E+03 0.  0.
        998    1    1    2    0    0  0.66038511434E+00 -0.52064267704E+01  0.13820717522E+04  0.13821178934E+04  0.10000000000E+02 0.  1.
</event>
<event>
 5    1  0.1020718E-008  0.3846861E+03  0.7957747E-01  0.3431004E+00
         13   -1    0    0    0    0  0.00000000000E+00  0.00000000000E+00  0.14999999963E+04  0.15000000000E+04  0.10566000000E+00 0. -1.
        994   -1    0    0    0    0 -0.00000000000E+00 -0.00000000000E+00  0.11368683772E-12  0.17120000000E+03  0.17120000000E+03 0.  0.
         13    1    1    2    0    0  0.11980900424E+02  0.95339260208E+01  0.64582577113E+02  0.66372872101E+02  0.10566000000E+00 0. -1.
        994    1    1    2    0    0 -0.10995446080E+02 -0.60335113452E+01  0.23040541562E+01  0.17167426062E+03  0.17120000000E+03 0.  0.
        998    1    1    2    0    0 -0.98545434444E+00 -0.35004146756E+01  0.14331133650E+04  0.14331528673E+04  0.10000000000E+02 0. -1.
</event>
<event>
 5    1  0.1020718E-008  0.3791569E+03  0.7957747E-01  0.3454838E+00
         13   -1    0    0    0    0  0.00000000000E+00  0.00000000000E+00  0.14999999963E+04  0.15000000000E+04  0.10566000000E+00 0. -1.
        994   -1    0    0    0    0 -0.00000000000E+00 -0.00000000000E+00  0.11368683772E-12  0.17120000000E+03  0.17120000000E+03 0.  0.
         13    1    1    2    0    0  0.50095903414E+01 -0.37588831228E+02  0.17608932209E+03  0.18012628000E+03  0.10566000000E+00 0. -1.
        994    1    1    2    0    0 -0.87795101501E+01  0.31932111770E+01  0.48519485052E+01  0.17152334477E+03  0.17120000000E+03 0.  0.
        998    1    1    2    0    0  0.37699198087E+01  0.34395620050E+02  0.13190587257E+04  0.13195503752E+04  0.10000000000E+02 0. -1.
</event>
<event>
 5    1  0.1020718E-008  0.3843951E+03  0.7957747E-01  0.3432242E+00
         13   -1    0    0    0    0  0.00000000000E+00  0.00000000000E+00  0.14999999963E+04  0.15000000000E+04  0.10566000000E+00 0. -1.
        994   -1    0    0    0    0 -0.00000000000E+00 -0.00000000000E+00  0.11368683772E-12  0.17120000000E+03  0.17120000000E+03 0.  0.
         13    1    1    2    0    0  0.13570534902E+02 -0.22794257615E+01  0.47973734276E+02  0.49908371480E+02  0.10566000000E+00 0. -1.
        994    1    1    2    0    0 -0.11836451364E+02  0.30885736328E+01  0.24239829500E+01  0.17165359466E+03  0.17120000000E+03 0.  0.
        998    1    1    2    0    0 -0.17340835387E+01 -0.80914787134E+00  0.14496022791E+04  0.14496380339E+04  0.10000000000E+02 0. -1.
</event>
<event>
 5    1  0.1020718E-008  0.3844399E+03  0.7957747E-01  0.3432051E+00
         13   -1    0    0    0    0  0.00000000000E+00  0.00000000000E+00  0.14999999963E+04  0.15000000000E+04  0.10566000000E+00 0.  1.
        994   -1    0    0    0    0 -0.00000000000E+00 -0.00000000000E+00  0.11368683772E-12  0.17120000000E+03  0.17120000000E+03 0.  0.
         13    1    1    2    0    0 -0.79058235556E+01  0.87566893134E+01  0.34563301605E+02  0.36521427076E+02  0.10566000000E+00 0.  1.
        994    1    1    2    0    0  0.12149898321E+02 -0.12975208841E+02  0.29501866268E+01  0.17214563507E+03  0.17120000000E+03 0.  0.
        998    1    1    2    0    0 -0.42440747654E+01  0.42185195279E+01  0.14624865080E+04  0.14625329379E+04  0.10000000000E+02 0.  1.
</event>
<event>
 5    1  0.1020718E-008  0.3749350E+03  0.7957747E-01  0.3473513E+00
         13   -1    0    0    0    0  0.00000000000E+00  0.00000000000E+00  0.14999999963E+04  0.15000000000E+04  0.10566000000E+00 0. -1.
        994   -1    0    0    0    0 -0.00000000000E+00 -0.00000000000E+00  0.11368683772E-12  0.17120000000E+03  0.17120000000E+03 0.  0.
         13    1    1    2    0    0 -0.47336889346E+02 -0.49039108093E+02  0.23356165418E+03  0.24330366352E+03  0.10566000000E+00 0. -1.
        994    1    1    2    0    0  0.68925044481E+02  0.73983723470E+02  0.42309875863E+02  0.20328260794E+03  0.17120000000E+03 0.  0.
        998    1    1    2    0    0 -0.21588155135E+02 -0.24944615377E+02  0.12241284662E+04  0.12246137285E+04  0.10000000000E+02 0. -1.
</event>
<event>
 5    1  0.1020718E-008  0.3751479E+03  0.7957747E-01  0.3472561E+00
         13   -1    0    0    0    0  0.00000000000E+00  0.00000000000E+00  0.14999999963E+04  0.15000000000E+04  0.10566000000E+00 0.  1.
        994   -1    0    0    0    0 -0.00000000000E+00 -0.00000000000E+00  0.11368683772E-12  0.17120000000E+03  0.17120000000E+03 0.  0.
         13    1    1    2    0    0  0.74063601125E+01 -0.29125116569E+02  0.67591367953E+02  0.73971148233E+02  0.10566000000E+00 0.  1.
        994    1    1    2    0    0 -0.38774754167E+01  0.11568984530E+02  0.71087448137E+01  0.17178140316E+03  0.17120000000E+03 0.  0.
        998    1    1    2    0    0 -0.35288846958E+01  0.17556132039E+02  0.14252998835E+04  0.14254474486E+04  0.10000000000E+02 0.  1.
</event>
<event>
 5    1  0.1020718E-008  0.4378383E+03  0.7957747E-01  0.3232458E+00
         13   -1    0    0    0    0  0.00000000000E+00  0.00000000000E+00  0.14999999963E+04  0.15000000000E+04  0.10566000000E+00 0. -1.
        994   -1    0    0    0    0 -0.00000000000E+00 -0.00000000000E+00  0.11368683772E-12  0.17120000000E+03  0.17120000000E+03 0.  0.
         13    1    1    2    0    0  0.34042048864E+02  0.39423979760E+02  0.72122159431E+01  0.52584584184E+02  0.10566000000E+00 0. -1.
        994    1    1    2    0    0 -0.29855833392E+02 -0.24541905119E+02  0.59662502608E+02  0.18537186980E+03  0.17120000000E+03 0.  0.
        998    1    1    2    0    0 -0.41862154716E+01 -0.14882074641E+02  0.14331252777E+04  0.14332435460E+04  0.10000000000E+02 0. -1.
</event>
<event>
 5    1  0.1020718E-008  0.3692268E+03  0.7957747E-01  0.3499452E+00
         13   -1    0    0    0    0  0.00000000000E+00  0.00000000000E+00  0.14999999963E+04  0.15000000000E+04  0.10566000000E+00 0.  1.
        994   -1    0    0    0    0 -0.00000000000E+00 -0.00000000000E+00  0.11368683772E-12  0.17120000000E+03  0.17120000000E+03 0.  0.
         13    1    1    2    0    0  0.11962402898E+01  0.46865410841E+02  0.12352353578E+03  0.13212067507E+03  0.10566000000E+00 0.  1.
        994    1    1    2    0    0  0.22466109562E+02 -0.18315036722E+01  0.11437211924E+02  0.17305585890E+03  0.17120000000E+03 0.  0.
        998    1    1    2    0    0 -0.23662349852E+02 -0.45033907169E+02  0.13650392486E+04  0.13660234660E+04  0.10000000000E+02 0.  1.
</event>
<event>
 5    1  0.1020718E-008  0.3807219E+03  0.7957747E-01  0.3448021E+00
         13   -1    0    0    0    0  0.00000000000E+00  0.00000000000E+00  0.14999999963E+04  0.15000000000E+04  0.10566000000E+00 0. -1.
        994   -1    0    0    0    0 -0.00000000000E+00 -0.00000000000E+00  0.11368683772E-12  0.17120000000E+03  0.17120000000E+03 0.  0.
         13    1    1    2    0    0 -0.31572863561E+02 -0.20748058795E+02  0.17270222693E+03  0.17678630605E+03  0.10566000000E+00 0. -1.
        994    1    1    2    0    0  0.37025219219E+02  0.63873175493E+01  0.84913783689E+01  0.17547993672E+03  0.17120000000E+03 0.  0.
        998    1    1    2    0    0 -0.54523556585E+01  0.14360741246E+02  0.13188063910E+04  0.13189337572E+04  0.10000000000E+02 0. -1.
</event>
<event>
 5    1  0.1020718E-008  0.3815255E+03  0.7957747E-01  0.3444543E+00
         13   -1    0    0    0    0  0.00000000000E+00  0.00000000000E+00  0.14999999963E+04  0.15000000000E+04  0.10566000000E+00 0. -1.
        994   -1    0    0    0    0 -0.00000000000E+00 -0.00000000000E+00  0.11368683772E-12  0.17120000000E+03  0.17120000000E+03 0.  0.
         13    1    1    2    0    0  0.20071450471E+02  0.23318253872E+02  0.14208604815E+03  0.14537902301E+03  0.10566000000E+00 0. -1.
        994    1    1    2    0    0 -0.15713412609E+02 -0.71411608756E+01  0.43565906525E+01  0.17212300078E+03  0.17120000000E+03 0.  0.
        998    1    1    2    0    0 -0.43580378615E+01 -0.16177092996E+02  0.13535573575E+04  0.13536979762E+04  0.10000000000E+02 0. -1.
</event>
<event>
 5    1  0.1020718E-008  0.4080956E+03  0.7957747E-01  0.3337262E+00
         13   -1    0    0    0    0  0.00000000000E+00  0.00000000000E+00  0.14999999963E+04  0.15000000000E+04  0.10566000000E+00 0. -1.
        994   -1    0    0    0    0 -0.00000000000E+00 -0.00000000000E+00  0.11368683772E-12  0.17120000000E+03  0.17120000000E+03 0.  0.
         13    1    1    2    0    0  0.14535261466E+03 -0.22201285002E+02  0.25960264627E+03  0.29835184725E+03  0.10566000000E+00 0. -1.
        994    1    1    2    0    0 -0.13880901331E+03  0.41582548823E+02  0.12413053777E+03  0.25634913877E+03  0.17120000000E+03 0.  0.
        998    1    1    2    0    0 -0.65436013497E+01 -0.19381263821E+02  0.11162668122E+04  0.11164990140E+04  0.10000000000E+02 0. -1.
</event>
<event>
 5    1  0.1020718E-008  0.3709792E+03  0.7957747E-01  0.3491403E+00
         13   -1    0    0    0    0  0.00000000000E+00  0.00000000000E+00  0.14999999963E+04  0.15000000000E+04  0.10566000000E+00 0. -1.
        994   -1    0    0    0    0 -0.00000000000E+00 -0.00000000000E+00  0.11368683772E-12  0.17120000000E+03  0.17120000000E+03 0.  0.
         13    1    1    2    0    0  0.12474530895E+02  0.84572100300E+02  0.30699974896E+03  0.31867995088E+03  0.10566000000E+00 0. -1.
        994    1    1    2    0    0 -0.13597554183E+02 -0.93589501536E+02  0.40240746917E+02  0.19968136115E+03  0.17120000000E+03 0.  0.
        998    1    1    2    0    0  0.11230232880E+01  0.90174012359E+01  0.11527595004E+04  0.11528386880E+04  0.10000000000E+02 0.  0.
</event>
<event>
 5    1  0.1020718E-008  0.3736120E+03  0.7957747E-01  0.3479454E+00
         13   -1    0    0    0    0  0.00000000000E+00  0.00000000000E+00  0.14999999963E+04  0.15000000000E+04  0.10566000000E+00 0.  1.
        994   -1    0    0    0    0 -0.00000000000E+00 -0.00000000000E+00  0.11368683772E-12  0.17120000000E+03  0.17120000000E+03 0.  0.
         13    1    1    2    0    0  0.73104529807E+02  0.58619004718E+02  0.48740067165E+03  0.49632639048E+03  0.10566000000E+00 0.  1.
        994    1    1    2    0    0 -0.57097696540E+02 -0.47074546794E+02  0.26332546556E+02  0.18835870809E+03  0.17120000000E+03 0.  0.
        998    1    1    2    0    0 -0.16006833268E+02 -0.11544457924E+02  0.98626677807E+03  0.98651490143E+03  0.10000000000E+02 0.  1.
</event>
<event>
 5    1  0.1163911E-008  0.3856376E+03  0.7957747E-01  0.3426972E+00
         13   -1    0    0    0    0  0.00000000000E+00  0.00000000000E+00  0.14999999963E+04  0.15000000000E+04  0.10566000000E+00 0.  1.
        994   -1    0    0    0    0 -0.00000000000E+00 -0.00000000000E+00  0.11368683772E-12  0.17120000000E+03  0.17120000000E+03 0.  0.
         13    1    1    2    0    0 -0.86601846542E+01 -0.12503419313E+02  0.84498862067E+02  0.85856875947E+02  0.10566000000E+00 0.  1.
        994    1    1    2    0    0  0.12314691874E+02  0.10803888899E+02  0.21951645347E+01  0.17199603018E+03  0.17120000000E+03 0.  0.
        998    1    1    2    0    0 -0.36545072197E+01  0.16995304139E+01  0.14133059697E+04  0.14133470939E+04  0.10000000000E+02 0.  1.
</event>
<event>
 5    1  0.1020718E-008  0.3710998E+03  0.7957747E-01  0.3490852E+00
         13   -1    0    0    0    0  0.00000000000E+00  0.00000000000E+00  0.14999999963E+04  0.15000000000E+04  0.10566000000E+00 0. -1.
        994   -1    0    0    0    0 -0.00000000000E+00 -0.00000000000E+00  0.11368683772E-12  0.17120000000E+03  0.17120000000E+03 0.  0.
         13    1    1    2    0    0  0.15421269847E+02  0.54079370773E+02  0.20121085369E+03  0.20892154679E+03  0.10566000000E+00 0. -1.
        994    1    1    2    0    0  0.23712159282E+01 -0.12755330467E+02  0.92753379275E+01  0.17194124873E+03  0.17120000000E+03 0.  0.
        998    1    1    2    0    0 -0.17792485775E+02 -0.41324040306E+02  0.12895138047E+04  0.12903372045E+04  0.10000000000E+02 0. -1.
</event>
<event>
 5    1  0.1020718E-008  0.3845711E+03  0.7957747E-01  0.3431493E+00
         13   -1    0    0    0    0  0.00000000000E+00  0.00000000000E+00  0.14999999963E+04  0.15000000000E+04  0.10566000000E+00 0. -1.
        994   -1    0    0    0    0 -0.00000000000E+00 -0.00000000000E+00  0.11368683772E-12  0.17120000000E+03  0.17120000000E+03 0.  0.
         13    1    1    2    0    0 -0.75765797723E+01  0.82516476105E+01  0.33997783781E+02  0.35796015356E+02  0.10566000000E+00 0. -1.
        994    1    1    2    0    0  0.63458645517E+01 -0.16466987361E+01  0.19847767916E+01  0.17133698069E+03  0.17120000000E+03 0.  0.
        998    1    1    2    0    0  0.12307152206E+01 -0.66049488744E+01  0.14640174357E+04  0.14640670040E+04  0.10000000000E+02 0. -1.
</event>
<event>
 5    1  0.1020718E-008  0.4046325E+03  0.7957747E-01  0.3350450E+00
         13   -1    0    0    0    0  0.00000000000E+00  0.00000000000E+00  0.14999999963E+04  0.15000000000E+04  0.10566000000E+00 0.  1.
        994   -1    0    0    0    0 -0.00000000000E+00 -0.00000000000E+00  0.11368683772E-12  0.17120000000E+03  0.17120000000E+03 0.  0.
         13    1    1    2    0    0  0.52786322291E+02 -0.83355588362E+02  0.19374074352E+03  0.21741673532E+03  0.10566000000E+00 0.  1.
        994    1    1    2    0    0  0.20496414057E+02  0.76296437218E+01  0.32489333344E+02  0.17562263873E+03  0.17120000000E+03 0.  0.
        998    1    1    2    0    0 -0.73282736348E+02  0.75725944640E+02  0.12737699194E+04  0.12781606260E+04  0.10000000000E+02 0.  1.
</event>
<event>
 5    1  0.1020718E-008  0.3704379E+03  0.7957747E-01  0.3493881E+00
         13   -1    0    0    0    0  0.00000000000E+00  0.00000000000E+00  0.14999999963E+04  0.15000000000E+04  0.10566000000E+00 0. -1.
        994   -1    0    0    0    0 -0.00000000000E+00 -0.00000000000E+00  0.11368683772E-12  0.17120000000E+03  0.17120000000E+03 0.  0.
         13    1    1    2    0    0 -0.10138947215E+02  0.15456469421E+02  0.14675675155E+02  0.23602696941E+02  0.10566000000E+00 0. -1.
        994    1    1    2    0    0  0.13861318597E+02 -0.16476380937E+02  0.10642551752E+02  0.17287657791E+03  0.17120000000E+03 0.  0.
        998    1    1    2    0    0 -0.37223713821E+01  0.10199115166E+01  0.14746817694E+04  0.14747207251E+04  0.10000000000E+02 0. -1.
</event>
<event>
 5    1  0.1020718E-008  0.3756833E+03  0.7957747E-01  0.3470173E+00
         13   -1    0    0    0    0  0.00000000000E+00  0.00000000000E+00  0.14999999963E+04  0.15000000000E+04  0.10566000000E+00 0. -1.
        994   -1    0    0    0    0 -0.00000000000E+00 -0.00000000000E+00  0.11368683772E-12  0.17120000000E+03  0.17120000000E+03 0.  0.
         13    1    1    2    0    0 -0.46897695497E+02  0.12069398322E+02  0.20487496609E+03  0.21052037221E+03  0.10566000000E+00 0. -1.
        994    1    1    2    0    0  0.53122263643E+01 -0.22620335521E+02  0.81614294961E+01  0.17296227409E+03  0.17120000000E+03 0.  0.
        998    1    1    2    0    0  0.41585469132E+02  0.10550937199E+02  0.12869636007E+04  0.12877173537E+04  0.10000000000E+02 0. -1.
</event>
<event>
 5    1  0.1020718E-008  0.3797115E+03  0.7957747E-01  0.3452416E+00
         13   -1    0    0    0    0  0.00000000000E+00  0.00000000000E+00  0.14999999963E+04  0.15000000000E+04  0.10566000000E+00 0. -1.
        994   -1    0    0    0    0 -0.00000000000E+00 -0.00000000000E+00  0.11368683772E-12  0.17120000000E+03  0.17120000000E+03 0.  0.
         13    1    1    2    0    0 -0.13621578023E+02 -0.82736050726E+01  0.28651820462E+02  0.32786245722E+02  0.10566000000E+00 0. -1.
        994    1    1    2    0    0 -0.20061322431E+01  0.85422187248E+01  0.45365134604E+01  0.17148473408E+03  0.17120000000E+03 0.  0.
        998    1    1    2    0    0  0.15627710266E+02 -0.26861365218E+00  0.14668116624E+04  0.14669290202E+04  0.10000000000E+02 0. -1.
</event>
<event>
 5    1  0.1020718E-008  0.3848256E+03  0.7957747E-01  0.3430412E+00
         13   -1    0    0    0    0  0.00000000000E+00  0.00000000000E+00  0.14999999963E+04  0.15000000000E+04  0.10566000000E+00 0.  1.
        994   -1    0    0    0    0 -0.00000000000E+00 -0.00000000000E+00  0.11368683772E-12  0.17120000000E+03  0.17120000000E+03 0.  0.
         13    1    1    2    0    0 -0.17409094019E+02 -0.65589844442E+01  0.99533759786E+02  0.10125748038E+03  0.10566000000E+00 0.  1.
        994    1    1    2    0    0  0.11459248700E+02  0.77412088574E+01  0.23462850947E+01  0.17177364684E+03  0.17120000000E+03 0.  0.
        998    1    1    2    0    0  0.59498453191E+01 -0.11822244131E+01  0.13981199514E+04  0.13981688728E+04  0.10000000000E+02 0.  1.
</event>
<event>
 5    1  0.1020718E-008  0.3067691E+03  0.7957747E-01  0.3848848E+00
         13   -1    0    0    0    0  0.00000000000E+00  0.00000000000E+00  0.14999999963E+04  0.15000000000E+04  0.10566000000E+00 0. -1.
        994   -1    0    0    0    0 -0.00000000000E+00 -0.00000000000E+00  0.11368683772E-12  0.17120000000E+03  0.17120000000E+03 0.  0.
         13    1    1    2    0    0  0.62844681479E+02  0.15144842602E+03  0.89022182044E+03  0.90519665293E+03  0.10566000000E+00 0. -1.
        994    1    1    2    0    0 -0.12877208885E+03 -0.41635920494E+02  0.99579013745E+02  0.23987751191E+03  0.17120000000E+03 0.  0.
        998    1    1    2    0    0  0.65927407372E+02 -0.10981250553E+03  0.51019916209E+03  0.52612583515E+03  0.10000000000E+02 0. -1.
</event>
<event>
 5    1  0.1020718E-008  0.3857001E+03  0.7957747E-01  0.3426708E+00
         13   -1    0    0    0    0  0.00000000000E+00  0.00000000000E+00  0.14999999963E+04  0.15000000000E+04  0.10566000000E+00 0.  1.
        994   -1    0    0    0    0 -0.00000000000E+00 -0.00000000000E+00  0.11368683772E-12  0.17120000000E+03  0.17120000000E+03 0.  0.
         13    1    1    2    0    0 -0.52710277134E+01  0.91176915263E+01  0.42446882557E+02  0.43734026053E+02  0.10566000000E+00 0.  1.
        994    1    1    2    0    0  0.18284568543E+01 -0.12120337226E+02  0.17760823336E+01  0.17164743021E+03  0.17120000000E+03 0.  0.
        998    1    1    2    0    0  0.34425708591E+01  0.30026456993E+01  0.14557770314E+04  0.14558185437E+04  0.10000000000E+02 0.  1.
</event>
<event>
 5    1  0.1020718E-008  0.3844976E+03  0.7957747E-01  0.3431806E+00
         13   -1    0    0    0    0  0.00000000000E+00  0.00000000000E+00  0.14999999963E+04  0.15000000000E+04  0.10566000000E+00 0. -1.
        994   -1    0    0    0    0 -0.00000000000E+00 -0.00000000000E+00  0.11368683772E-12  0.17120000000E+03  0.17120000000E+03 0.  0.
         13    1    1    2    0    0  0.96520307154E+01  0.60140101080E+01  0.36163266417E+02  0.37909405383E+02  0.10566000000E+00 0. -1.
        994    1    1    2    0    0  0.74661674149E+00  0.96051513359E+01  0.21855671567E+01  0.17148478962E+03  0.17120000000E+03 0.  0.
        998    1    1    2    0    0 -0.10398647457E+02 -0.15619161444E+02  0.14616511627E+04  0.14618058050E+04  0.10000000000E+02 0. -1.
</event>
<event>
 5    1  0.1020718E-008  0.3815140E+03  0.7957747E-01  0.3444593E+00
         13   -1    0    0    0    0  0.00000000000E+00  0.00000000000E+00  0.14999999963E+04  0.15000000000E+04  0.10566000000E+00 0.  1.
        994   -1    0    0    0    0 -0.00000000000E+00 -0.00000000000E+00  0.11368683772E-12  0.17120000000E+03  0.17120000000E+03 0.  0.
         13    1    1    2    0    0  0.47491943957E+01 -0.13603866521E+02  0.28553798574E+02  0.31983599059E+02  0.10566000000E+00 0.  1.
        994    1    1    2    0    0 -0.42852844572E+01  0.19737484113E+02  0.47289064328E+01  0.17245212234E+03  0.17120000000E+03 0.  0.
        998    1    1    2    0    0 -0.46390993850E+00 -0.61336175917E+01  0.14667172913E+04  0.14667642786E+04  0.10000000000E+02 0.  1.
</event>
<event>
 5    1  0.1020718E-008  0.3800215E+03  0.7957747E-01  0.3451065E+00
         13   -1    0    0    0    0  0.00000000000E+00  0.00000000000E+00  0.14999999963E+04  0.15000000000E+04  0.10566000000E+00 0.  1.
        994   -1    0    0    0    0 -0.00000000000E+00 -0.00000000000E+00  0.11368683772E-12  0.17120000000E+03  0.17120000000E+03 0.  0.
         13    1    1    2    0    0 -0.14675858015E+02 -0.31842366487E+02  0.17048351408E+03  0.17405159249E+03  0.10566000000E+00 0.  1.
        994    1    1    2    0    0 -0.11465576490E+02  0.53910634619E+01  0.46590449956E+01  0.17173138825E+03  0.17120000000E+03 0.  0.
        998    1    1    2    0    0  0.26141434505E+02  0.26451303025E+02  0.13248574372E+04  0.13254170193E+04  0.10000000000E+02 0.  1.
</event>
<event>
 5    1  0.1020718E-008  0.3785606E+03  0.7957747E-01  0.3457450E+00
         13   -1    0    0    0    0  0.00000000000E+00  0.00000000000E+00  0.14999999963E+04  0.15000000000E+04  0.10566000000E+00 0.  1.
        994   -1    0    0    0    0 -0.00000000000E+00 -0.00000000000E+00  0.11368683772E-12  0.17120000000E+03  0.17120000000E+03 0.  0.
         13    1    1    2    0    0 -0.13997399609E+02 -0.15883233905E+02  0.40955384907E+02  0.46103785442E+02  0.10566000000E+00 0.  1.
        994    1    1    2    0    0  0.19423921054E+02  0.32588643055E+02  0.97112364040E+01  0.17562191343E+03  0.17120000000E+03 0.  0.
        998    1    1    2    0    0 -0.54265214445E+01 -0.16705409151E+02  0.14493333750E+04  0.14494743011E+04  0.10000000000E+02 0.  1.
</event>
<event>
 5    1  0.1020718E-008  0.3720928E+03  0.7957747E-01  0.3486328E+00
         13   -1    0    0    0    0  0.00000000000E+00  0.00000000000E+00  0.14999999963E+04  0.15000000000E+04  0.10566000000E+00 0. -1.
        994   -1    0    0    0    0 -0.00000000000E+00 -0.00000000000E+00  0.11368683772E-12  0.17120000000E+03  0.17120000000E+03 0.  0.
         13    1    1    2    0    0  0.43285249718E+02  0.36789843137E+02  0.27632147401E+03  0.28210046715E+03  0.10566000000E+00 0. -1.
        994    1    1    2    0    0  0.10869761070E+02  0.14220114528E+02  0.92798230498E+01  0.17238305740E+03  0.17120000000E+03 0.  0.
        998    1    1    2    0    0 -0.54155010787E+02 -0.51009957665E+02  0.12143986992E+04  0.12167164755E+04  0.10000000000E+02 0. -1.
</event>
<event>
 5    1  0.1020718E-008  0.3721239E+03  0.7957747E-01  0.3486186E+00
         13   -1    0    0    0    0  0.00000000000E+00  0.00000000000E+00  0.14999999963E+04  0.15000000000E+04  0.10566000000E+00 0.  1.
        994   -1    0    0    0    0 -0.00000000000E+00 -0.00000000000E+00  0.11368683772E-12  0.17120000000E+03  0.17120000000E+03 0.  0.
         13    1    1    2    0    0 -0.11203417438E+02 -0.18053170880E+03  0.73806549700E+03  0.75990650969E+03  0.10566000000E+00 0.  1.
        994    1    1    2    0    0  0.11963344540E+02  0.19001325658E+03  0.14508794689E+03  0.29429256127E+03  0.17120000000E+03 0.  0.
        998    1    1    2    0    0 -0.75992710161E+00 -0.94815477792E+01  0.61684655240E+03  0.61700092904E+03  0.10000000000E+02 0.  1.
</event>
<event>
 5    1  0.1020718E-008  0.3863758E+03  0.7957747E-01  0.3423858E+00
         13   -1    0    0    0    0  0.00000000000E+00  0.00000000000E+00  0.14999999963E+04  0.15000000000E+04  0.10566000000E+00 0. -1.
        994   -1    0    0    0    0 -0.00000000000E+00 -0.00000000000E+00  0.11368683772E-12  0.17120000000E+03  0.17120000000E+03 0.  0.
         13    1    1    2    0    0  0.19397589981E+01 -0.10223462765E+02  0.56532441089E+02  0.57482257397E+02  0.10566000000E+00 0. -1.
        994    1    1    2    0    0  0.66276150674E+01  0.12293648019E+02  0.15875000975E+01  0.17177607290E+03  0.17120000000E+03 0.  0.
        998    1    1    2    0    0 -0.85673740655E+01 -0.20701852538E+01  0.14418800551E+04  0.14419416697E+04  0.10000000000E+02 0. -1.
</event>
<event>
 5    1  0.1020718E-008  0.3735132E+03  0.7957747E-01  0.3479899E+00
         13   -1    0    0    0    0  0.00000000000E+00  0.00000000000E+00  0.14999999963E+04  0.15000000000E+04  0.10566000000E+00 0.  1.
        994   -1    0    0    0    0 -0.00000000000E+00 -0.00000000000E+00  0.11368683772E-12  0.17120000000E+03  0.17120000000E+03 0.  0.
         13    1    1    2    0    0  0.32079408970E+02  0.20207448050E+01  0.74622445026E+02  0.81250799105E+02  0.10566000000E+00 0.  1.
        994    1    1    2    0    0  0.11151814956E+02  0.12975617804E+01  0.78749383417E+01  0.17174836621E+03  0.17120000000E+03 0.  0.
        998    1    1    2    0    0 -0.43231223927E+02 -0.33183065854E+01  0.14175026129E+04  0.14182008347E+04  0.10000000000E+02 0.  1.
</event>
<event>
 5    1  0.1020718E-008  0.3831102E+03  0.7957747E-01  0.3437727E+00
         13   -1    0    0    0    0  0.00000000000E+00  0.00000000000E+00  0.14999999963E+04  0.15000000000E+04  0.10566000000E+00 0. -1.
        994   -1    0    0    0    0 -0.00000000000E+00 -0.00000000000E+00  0.11368683772E-12  0.17120000000E+03  0.17120000000E+03 0.  0.
         13    1    1    2    0    0 -0.96960202591E+01  0.15190412039E+02  0.63041637853E+02  0.65566917680E+02  0.10566000000E+00 0. -1.
        994    1    1    2    0    0 -0.97835491200E+01 -0.18088693044E+02  0.39719658334E+01  0.17247647713E+03  0.17120000000E+03 0.  0.
        998    1    1    2    0    0  0.19479569379E+02  0.28982810049E+01  0.14329863926E+04  0.14331566052E+04  0.10000000000E+02 0. -1.
</event>
<event>
 5    1  0.1020718E-008  0.3784509E+03  0.7957747E-01  0.3457932E+00
         13   -1    0    0    0    0  0.00000000000E+00  0.00000000000E+00  0.14999999963E+04  0.15000000000E+04  0.10566000000E+00 0. -1.
        994   -1    0    0    0    0 -0.00000000000E+00 -0.00000000000E+00  0.11368683772E-12  0.17120000000E+03  0.17120000000E+03 0.  0.
         13    1    1    2    0    0 -0.32456694931E+02  0.46768482895E+02  0.29104070373E+03  0.29655594823E+03  0.10566000000E+00 0. -1.
        994    1    1    2    0    0  0.24574993459E+02 -0.39797281156E+02  0.12303749402E+02  0.17790046695E+03  0.17120000000E+03 0.  0.
        998    1    1    2    0    0  0.78817014718E+01 -0.69712017384E+01  0.11966555431E+04  0.11967435848E+04  0.10000000000E+02 0. -1.
</event>
<event>
 5    1  0.1020718E-008  0.3769677E+03  0.7957747E-01  0.3464469E+00
         13   -1    0    0    0    0  0.00000000000E+00  0.00000000000E+00  0.14999999963E+04  0.15000000000E+04  0.10566000000E+00 0.  1.
        994   -1    0    0    0    0 -0.00000000000E+00 -0.00000000000E+00  0.11368683772E-12  0.17120000000E+03  0.17120000000E+03 0.  0.
         13    1    1    2    0    0  0.27649933790E+02 -0.90163287539E+01  0.69303064759E+02  0.75158093189E+02  0.10566000000E+00 0.  1.
        994    1    1    2    0    0 -0.32294562721E+02 -0.20476563734E+01  0.92157754375E+01  0.17447493286E+03  0.17120000000E+03 0.  0.
        998    1    1    2    0    0  0.46446289318E+01  0.11063985127E+02  0.14214811561E+04  0.14215669740E+04  0.10000000000E+02 0.  1.
</event>
<event>
 5    1  0.1020718E-008  0.3830962E+03  0.7957747E-01  0.3437787E+00
         13   -1    0    0    0    0  0.00000000000E+00  0.00000000000E+00  0.14999999963E+04  0.15000000000E+04  0.10566000000E+00 0.  1.
        994   -1    0    0    0    0 -0.00000000000E+00 -0.00000000000E+00  0.11368683772E-12  0.17120000000E+03  0.17120000000E+03 0.  0.
         13    1    1    2    0    0  0.12355018557E+02  0.14696602980E+02  0.78187073538E+02  0.80510038226E+02  0.10566000000E+00 0.  1.
        994    1    1    2    0    0 -0.15032323332E+01  0.80170741006E+01  0.27985015124E+01  0.17141704931E+03  0.17120000000E+03 0.  0.
        998    1    1    2    0    0 -0.10851786224E+02 -0.22713677080E+02  0.14190144212E+04  0.14192729125E+04  0.10000000000E+02 0.  1.
</event>
<event>
 5    1  0.1020718E-008  0.3858019E+03  0.7957747E-01  0.3426278E+00
         13   -1    0    0    0    0  0.00000000000E+00  0.00000000000E+00  0.14999999963E+04  0.15000000000E+04  0.10566000000E+00 0.  1.
        994   -1    0    0    0    0 -0.00000000000E+00 -0.00000000000E+00  0.11368683772E-12  0.17120000000E+03  0.17120000000E+03 0.  0.
         13    1    1    2    0    0  0.21021592846E+01  0.10027551443E+02  0.42435583265E+02  0.43655019787E+02  0.10566000000E+00 0.  1.
        994    1    1    2    0    0 -0.74503530293E+01 -0.75187126568E+01  0.16001252794E+01  0.17153436741E+03  0.17120000000E+03 0.  0.
        998    1    1    2    0    0  0.53481937447E+01 -0.25088387860E+01  0.14559642877E+04  0.14560106128E+04  0.10000000000E+02 0.  1.
</event>
<event>
 5    1  0.1020718E-008  0.3836263E+03  0.7957747E-01  0.3435519E+00
         13   -1    0    0    0    0  0.00000000000E+00  0.00000000000E+00  0.14999999963E+04  0.15000000000E+04  0.10566000000E+00 0. -1.
        994   -1    0    0    0    0 -0.00000000000E+00 -0.00000000000E+00  0.11368683772E-12  0.17120000000E+03  0.17120000000E+03 0.  0.
         13    1    1    2    0    0  0.29986190397E+02  0.15127045381E+01  0.16213448184E+03  0.16489105875E+03  0.10566000000E+00 0. -1.
        994    1    1    2    0    0 -0.39247167549E+02 -0.69705577998E+01  0.75802765403E+01  0.17594268791E+03  0.17120000000E+03 0.  0.
        998    1    1    2    0    0  0.92609771518E+01  0.54578532617E+01  0.13302852379E+04  0.13303662533E+04  0.10000000000E+02 0. -1.
</event>
<event>
 5    1  0.1020718E-008  0.3834203E+03  0.7957747E-01  0.3436400E+00
         13   -1    0    0    0    0  0.00000000000E+00  0.00000000000E+00  0.14999999963E+04  0.15000000000E+04  0.10566000000E+00 0.  1.
        994   -1    0    0    0    0 -0.00000000000E+00 -0.00000000000E+00  0.11368683772E-12  0.17120000000E+03  0.17120000000E+03 0.  0.
         13    1    1    2    0    0 -0.15048740801E+02  0.90761567670E+01  0.66575153126E+02  0.68855670784E+02  0.10566000000E+00 0.  1.
        994    1    1    2    0    0 -0.26543651156E+01 -0.83094512165E+01  0.26680316473E+01  0.17144285061E+03  0.17120000000E+03 0.  0.
        998    1    1    2    0    0  0.17703105917E+02 -0.76670555052E+00  0.14307568115E+04  0.14309014786E+04  0.10000000000E+02 0.  1.
</event>
<event>
 5    1  0.1025203E-008  0.3858871E+03  0.7957747E-01  0.3425918E+00
         13   -1    0    0    0    0  0.00000000000E+00  0.00000000000E+00  0.14999999963E+04  0.15000000000E+04  0.10566000000E+00 0.  1.
        994   -1    0    0    0    0 -0.00000000000E+00 -0.00000000000E+00  0.11368683772E-12  0.17120000000E+03  0.17120000000E+03 0.  0.
         13    1    1    2    0    0 -0.10121509783E+02  0.33143409893E+01  0.46456024972E+02  0.47661339015E+02  0.10566000000E+00 0.  1.
        994    1    1    2    0    0  0.12725911166E+02 -0.23249894966E+01  0.17393057072E+01  0.17169688284E+03  0.17120000000E+03 0.  0.
        998    1    1    2    0    0 -0.26044013826E+01 -0.98935149273E+00  0.14518046656E+04  0.14518417781E+04  0.10000000000E+02 0.  1.
</event>
<event>
 5    1  0.1020718E-008  0.3799260E+03  0.7957747E-01  0.3451481E+00
         13   -1    0    0    0    0  0.00000000000E+00  0.00000000000E+00  0.14999999963E+04  0.15000000000E+04  0.10566000000E+00 0.  1.
        994   -1    0    0    0    0 -0.00000000000E+00 -0.00000000000E+00  0.11368683772E-12  0.17120000000E+03  0.17120000000E+03 0.  0.
         13    1    1    2    0    0  0.80222706519E+01  0.19463706153E+02  0.50455132055E+02  0.54671054483E+02  0.10566000000E+00 0.  1.
        994    1    1    2    0    0 -0.13790732236E+02 -0.15515279327E+02  0.56126788239E+01  0.17254521249E+03  0.17120000000E+03 0.  0.
        998    1    1    2    0    0  0.57684615845E+01 -0.39484268254E+01  0.14439321854E+04  0.14439837330E+04  0.10000000000E+02 0.  1.
</event>
<event>
 5    1  0.1020718E-008  0.3815101E+03  0.7957747E-01  0.3444609E+00
         13   -1    0    0    0    0  0.00000000000E+00  0.00000000000E+00  0.14999999963E+04  0.15000000000E+04  0.10566000000E+00 0. -1.
        994   -1    0    0    0    0 -0.00000000000E+00 -0.00000000000E+00  0.11368683772E-12  0.17120000000E+03  0.17120000000E+03 0.  0.
         13    1    1    2    0    0  0.19719265230E+02 -0.64367738530E+01  0.61289918522E+02  0.64705075190E+02  0.10566000000E+00 0. -1.
        994    1    1    2    0    0 -0.17036373822E+02  0.64026572454E+01  0.44753470453E+01  0.17222282306E+03  0.17120000000E+03 0.  0.
        998    1    1    2    0    0 -0.26828914081E+01  0.34116607584E-01  0.14342347307E+04  0.14342721017E+04  0.10000000000E+02 0. -1.
</event>
<event>
 5    1  0.1020718E-008  0.3842263E+03  0.7957747E-01  0.3432960E+00
         13   -1    0    0    0    0  0.00000000000E+00  0.00000000000E+00  0.14999999963E+04  0.15000000000E+04  0.10566000000E+00 0. -1.
        994   -1    0    0    0    0 -0.00000000000E+00 -0.00000000000E+00  0.11368683772E-12  0.17120000000E+03  0.17120000000E+03 0.  0.
         13    1    1    2    0    0  0.40750608013E+01  0.11991157726E+02  0.39820630332E+02  0.41786214811E+02  0.10566000000E+00 0. -1.
        994    1    1    2    0    0 -0.32835719197E+01 -0.52263605720E+01  0.21403786056E+01  0.17132459809E+03  0.17120000000E+03 0.  0.
        998    1    1    2    0    0 -0.79148888164E+00 -0.67647971540E+01  0.14580389873E+04  0.14580891871E+04  0.10000000000E+02 0. -1.
</event>
<event>
 5    1  0.1020718E-008  0.3804922E+03  0.7957747E-01  0.3449018E+00
         13   -1    0    0    0    0  0.00000000000E+00  0.00000000000E+00  0.14999999963E+04  0.15000000000E+04  0.10566000000E+00 0. -1.
        994   -1    0    0    0    0 -0.00000000000E+00 -0.00000000000E+00  0.11368683772E-12  0.17120000000E+03  0.17120000000E+03 0.  0.
         13    1    1    2    0    0  0.24160445108E+02 -0.15611854298E+02  0.12853436601E+03  0.13171390022E+03  0.10566000000E+00 0. -1.
        994    1    1    2    0    0  0.11637775117E+02 -0.97204495291E+01  0.46526209904E+01  0.17193316094E+03  0.17120000000E+03 0.  0.
        998    1    1    2    0    0 -0.35798220224E+02  0.25332303827E+02  0.13668130093E+04  0.13675529388E+04  0.10000000000E+02 0. -1.
</event>
<event>
 5    1  0.1020718E-008  0.3837984E+03  0.7957747E-01  0.3434784E+00
         13   -1    0    0    0    0  0.00000000000E+00  0.00000000000E+00  0.14999999963E+04  0.15000000000E+04  0.10566000000E+00 0.  1.
        994   -1    0    0    0    0 -0.00000000000E+00 -0.00000000000E+00  0.11368683772E-12  0.17120000000E+03  0.17120000000E+03 0.  0.
         13    1    1    2    0    0  0.90352021456E+01 -0.11649453362E+02  0.45702878785E+02  0.48021963045E+02  0.10566000000E+00 0.  1.
        994    1    1    2    0    0  0.65771464577E+00  0.27879732813E+02  0.47997206539E+01  0.17352287863E+03  0.17120000000E+03 0.  0.
        998    1    1    2    0    0 -0.96929167914E+01 -0.16230279451E+02  0.14494973968E+04  0.14496551583E+04  0.10000000000E+02 0.  1.
</event>
<event>
 5    1  0.1020718E-008  0.3821502E+03  0.7957747E-01  0.3441849E+00
         13   -1    0    0    0    0  0.00000000000E+00  0.00000000000E+00  0.14999999963E+04  0.15000000000E+04  0.10566000000E+00 0.  1.
        994   -1    0    0    0    0 -0.00000000000E+00 -0.00000000000E+00  0.11368683772E-12  0.17120000000E+03  0.17120000000E+03 0.  0.
         13    1    1    2    0    0  0.37327547264E+01  0.10010350046E+02  0.17415284911E+02  0.20431443376E+02  0.10566000000E+00 0.  1.
        994    1    1    2    0    0 -0.17348754548E+01 -0.87968948969E+01  0.33185564244E+01  0.17146675471E+03  0.17120000000E+03 0.  0.
        998    1    1    2    0    0 -0.19978792715E+01 -0.12134551490E+01  0.14792661549E+04  0.14793018019E+04  0.10000000000E+02 0.  1.
</event>
<event>
 5    1  0.1020718E-008  0.3768727E+03  0.7957747E-01  0.3464890E+00
         13   -1    0    0    0    0  0.00000000000E+00  0.00000000000E+00  0.14999999963E+04  0.15000000000E+04  0.10566000000E+00 0. -1.
        994   -1    0    0    0    0 -0.00000000000E+00 -0.00000000000E+00  0.11368683772E-12  0.17120000000E+03  0.17120000000E+03 0.  0.
         13    1    1    2    0    0  0.30358197118E+02 -0.43143683312E+02  0.21855174789E+03  0.22482854626E+03  0.10566000000E+00 0. -1.
        994    1    1    2    0    0 -0.69389444638E+02  0.10393066099E+02  0.22534192310E+02  0.18638707217E+03  0.17120000000E+03 0.  0.
        998    1    1    2    0    0  0.39031247520E+02  0.32750617213E+02  0.12589140561E+04  0.12599843816E+04  0.10000000000E+02 0. -1.
</event>
<event>
 5    1  0.1020718E-008  0.3804946E+03  0.7957747E-01  0.3449008E+00
         13   -1    0    0    0    0  0.00000000000E+00  0.00000000000E+00  0.14999999963E+04  0.15000000000E+04  0.10566000000E+00 0.  1.
        994   -1    0    0    0    0 -0.00000000000E+00 -0.00000000000E+00  0.11368683772E-12  0.17120000000E+03  0.17120000000E+03 0.  0.
         13    1    1    2    0    0 -0.11324357107E+02 -0.68184954940E+01  0.20962481244E+02  0.24782447995E+02  0.10566000000E+00 0.  1.
        994    1    1    2    0    0  0.10944623077E+02 -0.23685265582E+01  0.43022978549E+01  0.17161976710E+03  0.17120000000E+03 0.  0.
        998    1    1    2    0    0  0.37973403026E+00  0.91870220523E+01  0.14747352172E+04  0.14747977849E+04  0.10000000000E+02 0.  1.
</event>
<event>
 5    1  0.1020718E-008  0.3738280E+03  0.7957747E-01  0.3478481E+00
         13   -1    0    0    0    0  0.00000000000E+00  0.00000000000E+00  0.14999999963E+04  0.15000000000E+04  0.10566000000E+00 0.  1.
        994   -1    0    0    0    0 -0.00000000000E+00 -0.00000000000E+00  0.11368683772E-12  0.17120000000E+03  0.17120000000E+03 0.  0.
         13    1    1    2    0    0 -0.12174994727E+02  0.67499271803E+02  0.28579338803E+03  0.29390858102E+03  0.10566000000E+00 0.  1.
        994    1    1    2    0    0 -0.21043211844E+01 -0.57314879065E+02  0.18591901822E+02  0.18150625979E+03  0.17120000000E+03 0.  0.
        998    1    1    2    0    0  0.14279315911E+02 -0.10184392737E+02  0.11956147064E+04  0.11957851592E+04  0.10000000000E+02 0.  1.
</event>
<event>
 5    1  0.1020718E-008  0.3859370E+03  0.7957747E-01  0.3425708E+00
         13   -1    0    0    0    0  0.00000000000E+00  0.00000000000E+00  0.14999999963E+04  0.15000000000E+04  0.10566000000E+00 0.  1.
        994   -1    0    0    0    0 -0.00000000000E+00 -0.00000000000E+00  0.11368683772E-12  0.17120000000E+03  0.17120000000E+03 0.  0.
         13    1    1    2    0    0 -0.88383746869E+01  0.52350422973E+01  0.44860379528E+02  0.46021596565E+02  0.10566000000E+00 0.  1.
        994    1    1    2    0    0  0.13471178079E+02  0.28190233334E+01  0.17869314757E+01  0.17176161578E+03  0.17120000000E+03 0.  0.
        998    1    1    2    0    0 -0.46328033919E+01 -0.80540656307E+01  0.14533526853E+04  0.14534167877E+04  0.10000000000E+02 0.  1.
</event>
<event>
 5    1  0.1020718E-008  0.3283826E+03  0.7957747E-01  0.3712149E+00
         13   -1    0    0    0    0  0.00000000000E+00  0.00000000000E+00  0.14999999963E+04  0.15000000000E+04  0.10566000000E+00 0.  1.
        994   -1    0    0    0    0 -0.00000000000E+00 -0.00000000000E+00  0.11368683772E-12  0.17120000000E+03  0.17120000000E+03 0.  0.
         13    1    1    2    0    0  0.81050486688E+02  0.24439951936E+03  0.62694392012E+03  0.67776027960E+03  0.10566000000E+00 0.  1.
        994    1    1    2    0    0 -0.88485671556E+02 -0.25817352082E+03  0.37230854544E+03  0.49234781804E+03  0.17120000000E+03 0.  0.
        998    1    1    2    0    0  0.74351848683E+01  0.13774001459E+02  0.50074753072E+03  0.50109190236E+03  0.10000000000E+02 0.  1.
</event>
<event>
 5    1  0.1020718E-008  0.3851707E+03  0.7957747E-01  0.3428948E+00
         13   -1    0    0    0    0  0.00000000000E+00  0.00000000000E+00  0.14999999963E+04  0.15000000000E+04  0.10566000000E+00 0.  1.
        994   -1    0    0    0    0 -0.00000000000E+00 -0.00000000000E+00  0.11368683772E-12  0.17120000000E+03  0.17120000000E+03 0.  0.
         13    1    1    2    0    0  0.96123676004E+01  0.11574660031E+02  0.65198927477E+02  0.66912492660E+02  0.10566000000E+00 0.  1.
        994    1    1    2    0    0 -0.24672790939E+02 -0.16585980212E+02  0.44558408881E+01  0.17381926208E+03  0.17120000000E+03 0.  0.
        998    1    1    2    0    0  0.15060423339E+02  0.50113201809E+01  0.14303452279E+04  0.14304682453E+04  0.10000000000E+02 0.  1.
</event>
<event>
 5    1  0.1020718E-008  0.3823603E+03  0.7957747E-01  0.3440945E+00
         13   -1    0    0    0    0  0.00000000000E+00  0.00000000000E+00  0.14999999963E+04  0.15000000000E+04  0.10566000000E+00 0. -1.
        994   -1    0    0    0    0 -0.00000000000E+00 -0.00000000000E+00  0.11368683772E-12  0.17120000000E+03  0.17120000000E+03 0.  0.
         13    1    1    2    0    0  0.20311462944E+02 -0.71648795378E+01  0.89509741387E+02  0.92064629435E+02  0.10566000000E+00 0. -1.
        994    1    1    2    0    0  0.13446657509E+02  0.62287816757E+01  0.36751849645E+01  0.17187948483E+03  0.17120000000E+03 0.  0.
        998    1    1    2    0    0 -0.33758120453E+02  0.93609786208E+00  0.14068150699E+04  0.14072558857E+04  0.10000000000E+02 0. -1.
</event>
<event>
 5    1  0.1020718E-008  0.3841715E+03  0.7957747E-01  0.3433194E+00
         13   -1    0    0    0    0  0.00000000000E+00  0.00000000000E+00  0.14999999963E+04  0.15000000000E+04  0.10566000000E+00 0.  1.
        994   -1    0    0    0    0 -0.00000000000E+00 -0.00000000000E+00  0.11368683772E-12  0.17120000000E+03  0.17120000000E+03 0.  0.
         13    1    1    2    0    0  0.73131304540E+01  0.17696338690E+02  0.90333685701E+02  0.92340826380E+02  0.10566000000E+00 0.  1.
        994    1    1    2    0    0  0.22359421719E+01 -0.12525566667E+02  0.25760547626E+01  0.17169148295E+03  0.17120000000E+03 0.  0.
        998    1    1    2    0    0 -0.95490726260E+01 -0.51707720232E+01  0.14070902558E+04  0.14071676907E+04  0.10000000000E+02 0.  1.
</event>
<event>
 5    1  0.1020718E-008  0.3737134E+03  0.7957747E-01  0.3478997E+00
         13   -1    0    0    0    0  0.00000000000E+00  0.00000000000E+00  0.14999999963E+04  0.15000000000E+04  0.10566000000E+00 0. -1.
        994   -1    0    0    0    0 -0.00000000000E+00 -0.00000000000E+00  0.11368683772E-12  0.17120000000E+03  0.17120000000E+03 0.  0.
         13    1    1    2    0    0 -0.46307301782E+02 -0.64165402552E+01  0.14378625516E+03  0.15119535880E+03  0.10566000000E+00 0. -1.
        994    1    1    2    0    0  0.29665399058E+02  0.16344186685E+02  0.11267435017E+02  0.17488156973E+03  0.17120000000E+03 0.  0.
        998    1    1    2    0    0  0.16641902724E+02 -0.99276464297E+01  0.13449463061E+04  0.13451230715E+04  0.10000000000E+02 0. -1.
</event>
<event>
 5    1  0.1020718E-008  0.4185116E+03  0.7957747E-01  0.3298897E+00
         13   -1    0    0    0    0  0.00000000000E+00  0.00000000000E+00  0.14999999963E+04  0.15000000000E+04  0.10566000000E+00 0.  1.
        994   -1    0    0    0    0 -0.00000000000E+00 -0.00000000000E+00  0.11368683772E-12  0.17120000000E+03  0.17120000000E+03 0.  0.
         13    1    1    2    0    0 -0.61156193658E+02  0.46952810398E+01  0.33414979231E+02  0.69847674892E+02  0.10566000000E+00 0.  1.
        994    1    1    2    0    0  0.58621257848E+02 -0.17105531786E+02  0.55322519554E+02  0.18999755856E+03  0.17120000000E+03 0.  0.
        998    1    1    2    0    0  0.25349358101E+01  0.12410250746E+02  0.14112624975E+04  0.14113547665E+04  0.10000000000E+02 0.  1.
</event>
<event>
 5    1  0.1020718E-008  0.3729207E+03  0.7957747E-01  0.3482575E+00
         13   -1    0    0    0    0  0.00000000000E+00  0.00000000000E+00  0.14999999963E+04  0.15000000000E+04  0.10566000000E+00 0.  1.
        994   -1    0    0    0    0 -0.00000000000E+00 -0.00000000000E+00  0.11368683772E-12  0.17120000000E+03  0.17120000000E+03 0.  0.
         13    1    1    2    0    0 -0.74067902455E+01 -0.53949653587E+02  0.22260167865E+03  0.22916575697E+03  0.10566000000E+00 0.  1.
        994    1    1    2    0    0 -0.62265578899E+01  0.55371291845E+01  0.79881188844E+01  0.17158869388E+03  0.17120000000E+03 0.  0.
        998    1    1    2    0    0  0.13633348135E+02  0.48412524402E+02  0.12694101987E+04  0.12704455492E+04  0.10000000000E+02 0.  1.
</event>
<event>
 5    1  0.1020718E-008  0.3768873E+03  0.7957747E-01  0.3464825E+00
         13   -1    0    0    0    0  0.00000000000E+00  0.00000000000E+00  0.14999999963E+04  0.15000000000E+04  0.10566000000E+00 0. -1.
        994   -1    0    0    0    0 -0.00000000000E+00 -0.00000000000E+00  0.11368683772E-12  0.17120000000E+03  0.17120000000E+03 0.  0.
         13    1    1    2    0    0  0.23883111384E+01  0.25830618234E+02  0.53917036629E+02  0.59832958069E+02  0.10566000000E+00 0. -1.
        994    1    1    2    0    0 -0.57824969044E+01 -0.31097074092E+02  0.90994063566E+01  0.17433503516E+03  0.17120000000E+03 0.  0.
        998    1    1    2    0    0  0.33941857660E+01  0.52664558581E+01  0.14369835533E+04  0.14370320068E+04  0.10000000000E+02 0. -1.
</event>
<event>
 5    1  0.1020718E-008  0.3849847E+03  0.7957747E-01  0.3429737E+00
         13   -1    0    0    0    0  0.00000000000E+00  0.00000000000E+00  0.14999999963E+04  0.15000000000E+04  0.10566000000E+00 0. -1.
        994   -1    0    0    0    0 -0.00000000000E+00 -0.00000000000E+00  0.11368683772E-12  0.17120000000E+03  0.17120000000E+03 0.  0.
         13    1    1    2    0    0  0.11738899936E+02 -0.16588710968E+01  0.41823968570E+02  0.43471935038E+02  0.10566000000E+00 0. -1.
        994    1    1    2    0    0 -0.12001459201E+02  0.43426249839E+01  0.21736409689E+01  0.17168884102E+03  0.17120000000E+03 0.  0.
        998    1    1    2    0    0  0.26255926495E+00 -0.26837538871E+01  0.14560023867E+04  0.14560392239E+04  0.10000000000E+02 0. -1.
</event>
<event>
 5    1  0.1262409E-008  0.3853929E+03  0.7957747E-01  0.3428007E+00
         13   -1    0    0    0    0  0.00000000000E+00  0.00000000000E+00  0.14999999963E+04  0.15000000000E+04  0.10566000000E+00 0. -1.
        994   -1    0    0    0    0 -0.00000000000E+00 -0.00000000000E+00  0.11368683772E-12  0.17120000000E+03  0.17120000000E+03 0.  0.
         13    1    1    2    0    0  0.55207697988E+01 -0.94865368899E+01  0.42427278520E+02  0.43824176068E+02  0.10566000000E+00 0. -1.
        994    1    1    2    0    0 -0.39732479445E+01  0.43923142294E+01  0.15504033549E+01  0.17130943603E+03  0.17120000000E+03 0.  0.
        998    1    1    2    0    0 -0.15475218543E+01  0.50942226605E+01  0.14560223144E+04  0.14560663879E+04  0.10000000000E+02 0. -1.
</event>
<event>
 5    1  0.1020718E-008  0.3833192E+03  0.7957747E-01  0.3436832E+00
         13   -1    0    0    0    0  0.00000000000E+00  0.00000000000E+00  0.14999999963E+04  0.15000000000E+04  0.10566000000E+00 0. -1.
        994   -1    0    0    0    0 -0.00000000000E+00 -0.00000000000E+00  0.11368683772E-12  0.17120000000E+03  0.17120000000E+03 0.  0.
         13    1    1    2    0    0  0.13780492460E+02  0.15006444553E+02  0.82608800868E+02  0.85084196508E+02  0.10566000000E+00 0. -1.
        994    1    1    2    0    0 -0.14272351107E+02 -0.68767980540E+01  0.32972878951E+01  0.17196308460E+03  0.17120000000E+03 0.  0.
        998    1    1    2    0    0  0.49185864722E+00 -0.81296464986E+01  0.14140939075E+04  0.14141527189E+04  0.10000000000E+02 0. -1.
</event>
<event>
 5    1  0.1020718E-008  0.3753682E+03  0.7957747E-01  0.3471577E+00
         13   -1    0    0    0    0  0.00000000000E+00  0.00000000000E+00  0.14999999963E+04  0.15000000000E+04  0.10566000000E+00 0. -1.
        994   -1    0    0    0    0 -0.00000000000E+00 -0.00000000000E+00  0.11368683772E-12  0.17120000000E+03  0.17120000000E+03 0.  0.
         13    1    1    2    0    0  0.44944589010E+02 -0.13067778881E+01  0.14134218353E+03  0.14832177102E+03  0.10566000000E+00 0. -1.
        994    1    1    2    0    0 -0.43556597549E+02 -0.96549759878E+01  0.13277225743E+02  0.17741510780E+03  0.17120000000E+03 0.  0.
        998    1    1    2    0    0 -0.13879914613E+01  0.10961753876E+02  0.13453805870E+04  0.13454631212E+04  0.10000000000E+02 0. -1.
</event>
<event>
 5    1  0.1020718E-008  0.3734541E+03  0.7957747E-01  0.3480165E+00
         13   -1    0    0    0    0  0.00000000000E+00  0.00000000000E+00  0.14999999963E+04  0.15000000000E+04  0.10566000000E+00 0.  1.
        994   -1    0    0    0    0 -0.00000000000E+00 -0.00000000000E+00  0.11368683772E-12  0.17120000000E+03  0.17120000000E+03 0.  0.
         13    1    1    2    0    0 -0.13261203367E+02 -0.26072916324E+02  0.61127579788E+02  0.67766132065E+02  0.10566000000E+00 0.  1.
        994    1    1    2    0    0 -0.30855587069E+02 -0.29020972853E+01  0.10763760792E+02  0.17431519718E+03  0.17120000000E+03 0.  0.
        998    1    1    2    0    0  0.44116790437E+02  0.28975013610E+02  0.14281086557E+04  0.14291186708E+04  0.10000000000E+02 0.  1.
</event>
<event>
 5    1  0.1020718E-008  0.3849068E+03  0.7957747E-01  0.3430068E+00
         13   -1    0    0    0    0  0.00000000000E+00  0.00000000000E+00  0.14999999963E+04  0.15000000000E+04  0.10566000000E+00 0.  1.
        994   -1    0    0    0    0 -0.00000000000E+00 -0.00000000000E+00  0.11368683772E-12  0.17120000000E+03  0.17120000000E+03 0.  0.
         13    1    1    2    0    0  0.27987277528E+01 -0.11417332577E+02  0.41004999054E+02  0.42656880707E+02  0.10566000000E+00 0.  1.
        994    1    1    2    0    0 -0.70159493356E+01  0.67004902890E+01  0.19860970263E+01  0.17148616474E+03  0.17120000000E+03 0.  0.
        998    1    1    2    0    0  0.42172215828E+01  0.47168422880E+01  0.14570089002E+04  0.14570569546E+04  0.10000000000E+02 0.  1.
</event>
<event>
 5    1  0.1020718E-008  0.3838003E+03  0.7957747E-01  0.3434776E+00
         13   -1    0    0    0    0  0.00000000000E+00  0.00000000000E+00  0.14999999963E+04  0.15000000000E+04  0.10566000000E+00 0.  1.
        994   -1    0    0    0    0 -0.00000000000E+00 -0.00000000000E+00  0.11368683772E-12  0.17120000000E+03  0.17120000000E+03 0.  0.
         13    1    1    2    0    0 -0.13980584072E+02  0.10910648010E+02  0.67244256584E+02  0.69543512843E+02  0.10566000000E+00 0.  1.
        994    1    1    2    0    0  0.14072324462E+02 -0.12877262067E+02  0.34290974751E+01  0.17229350801E+03  0.17120000000E+03 0.  0.
        998    1    1    2    0    0 -0.91740390609E-01  0.19666140574E+01  0.14293266422E+04  0.14293629791E+04  0.10000000000E+02 0.  1.
</event>
<event>
 5    1  0.1020718E-008  0.3749302E+03  0.7957747E-01  0.3473535E+00
         13   -1    0    0    0    0  0.00000000000E+00  0.00000000000E+00  0.14999999963E+04  0.15000000000E+04  0.10566000000E+00 0. -1.
        994   -1    0    0    0    0 -0.00000000000E+00 -0.00000000000E+00  0.11368683772E-12  0.17120000000E+03  0.17120000000E+03 0.  0.
         13    1    1    2    0    0  0.39357917113E+01  0.12464000372E+02  0.95805196307E+01  0.16206149515E+02  0.10566000000E+00 0. -1.
        994    1    1    2    0    0 -0.78319093353E+01 -0.13152873089E+02  0.75117160007E+01  0.17204709457E+03  0.17120000000E+03 0.  0.
        998    1    1    2    0    0  0.38961176240E+01  0.68887271744E+00  0.14829077606E+04  0.14829467559E+04  0.10000000000E+02 0. -1.
</event>
<event>
 5    1  0.1020718E-008  0.3845962E+03  0.7957747E-01  0.3431386E+00
         13   -1    0    0    0    0  0.00000000000E+00  0.00000000000E+00  0.14999999963E+04  0.15000000000E+04  0.10566000000E+00 0. -1.
        994   -1    0    0    0    0 -0.00000000000E+00 -0.00000000000E+00  0.11368683772E-12  0.17120000000E+03  0.17120000000E+03 0.  0.
         13    1    1    2    0    0  0.11914860605E+02  0.87927981708E+01  0.61337638586E+02  0.63099875390E+02  0.10566000000E+00 0. -1.
        994    1    1    2    0    0  0.14481026010E+01 -0.10729886972E+02  0.22168524488E+01  0.17155635200E+03  0.17120000000E+03 0.  0.
        998    1    1    2    0    0 -0.13362963207E+02  0.19370888008E+01  0.14364455052E+04  0.14365437726E+04  0.10000000000E+02 0. -1.
</event>
<event>
 5    1  0.1020718E-008  0.3703965E+03  0.7957747E-01  0.3494070E+00
         13   -1    0    0    0    0  0.00000000000E+00  0.00000000000E+00  0.14999999963E+04  0.15000000000E+04  0.10566000000E+00 0.  1.
        994   -1    0    0    0    0 -0.00000000000E+00 -0.00000000000E+00  0.11368683772E-12  0.17120000000E+03  0.17120000000E+03 0.  0.
         13    1    1    2    0    0 -0.44142499412E+02 -0.35673644575E+02  0.19661569020E+03  0.20464337265E+03  0.10566000000E+00 0.  1.
        994    1    1    2    0    0  0.15658189863E+02 -0.13561689850E+01  0.99153288174E+01  0.17220560923E+03  0.17120000000E+03 0.  0.
        998    1    1    2    0    0  0.28484309548E+02  0.37029813560E+02  0.12934689773E+04  0.12943510181E+04  0.10000000000E+02 0.  1.
</event>
<event>
 5    1  0.1020718E-008  0.3811213E+03  0.7957747E-01  0.3446291E+00
         13   -1    0    0    0    0  0.00000000000E+00  0.00000000000E+00  0.14999999963E+04  0.15000000000E+04  0.10566000000E+00 0.  1.
        994   -1    0    0    0    0 -0.00000000000E+00 -0.00000000000E+00  0.11368683772E-12  0.17120000000E+03  0.17120000000E+03 0.  0.
         13    1    1    2    0    0 -0.25660946072E+02 -0.42839863636E+01  0.94472474262E+02  0.97989265992E+02  0.10566000000E+00 0.  1.
        994    1    1    2    0    0  0.12333273531E+02  0.13887654675E+02  0.47179938206E+01  0.17226919647E+03  0.17120000000E+03 0.  0.
        998    1    1    2    0    0  0.13327672541E+02 -0.96036683118E+01  0.14008095282E+04  0.14009415375E+04  0.10000000000E+02 0.  1.
</event>
<event>
 5    1  0.1020718E-008  0.3755499E+03  0.7957747E-01  0.3470767E+00
         13   -1    0    0    0    0  0.00000000000E+00  0.00000000000E+00  0.14999999963E+04  0.15000000000E+04  0.10566000000E+00 0. -1.
        994   -1    0    0    0    0 -0.00000000000E+00 -0.00000000000E+00  0.11368683772E-12  0.17120000000E+03  0.17120000000E+03 0.  0.
         13    1    1    2    0    0  0.58161703333E+01  0.13415469183E+02  0.13736940521E+02  0.20062835036E+02  0.10566000000E+00 0. -1.
        994    1    1    2    0    0 -0.10013787038E+02 -0.12453270757E+02  0.72634918518E+01  0.17209752525E+03  0.17120000000E+03 0.  0.
        998    1    1    2    0    0  0.41976167051E+01 -0.96219842658E+00  0.14789995639E+04  0.14790396397E+04  0.10000000000E+02 0. -1.
</event>
<event>
 5    1  0.1020718E-008  0.3776891E+03  0.7957747E-01  0.3461283E+00
         13   -1    0    0    0    0  0.00000000000E+00  0.00000000000E+00  0.14999999963E+04  0.15000000000E+04  0.10566000000E+00 0. -1.
        994   -1    0    0    0    0 -0.00000000000E+00 -0.00000000000E+00  0.11368683772E-12  0.17120000000E+03  0.17120000000E+03 0.  0.
         13    1    1    2    0    0  0.55905850958E+02 -0.33160444562E+02  0.35611947638E+03  0.36200299981E+03  0.10566000000E+00 0. -1.
        994    1    1    2    0    0 -0.36588652235E+02  0.34233875583E+02  0.13809026952E+02  0.17891566990E+03  0.17120000000E+03 0.  0.
        998    1    1    2    0    0 -0.19317198724E+02 -0.10734310208E+01  0.11300714930E+04  0.11302813303E+04  0.10000000000E+02 0. -1.
</event>
<event>
 5    1  0.1020718E-008  0.3791822E+03  0.7957747E-01  0.3454727E+00
         13   -1    0    0    0    0  0.00000000000E+00  0.00000000000E+00  0.14999999963E+04  0.15000000000E+04  0.10566000000E+00 0.  1.
        994   -1    0    0    0    0 -0.00000000000E+00 -0.00000000000E+00  0.11368683772E-12  0.17120000000E+03  0.17120000000E+03 0.  0.
         13    1    1    2    0    0  0.10266229648E+02  0.33778722940E+01  0.11561724268E+02  0.15826879810E+02  0.10566000000E+00 0.  1.
        994    1    1    2    0    0  0.15432825473E+02  0.19754008484E+02  0.66557300453E+01  0.17315349172E+03  0.17120000000E+03 0.  0.
        998    1    1    2    0    0 -0.25699055121E+02 -0.23131880778E+02  0.14817825420E+04  0.14822196285E+04  0.10000000000E+02 0.  1.
</event>
<event>
 5    1  0.1020718E-008  0.3709591E+03  0.7957747E-01  0.3491495E+00
         13   -1    0    0    0    0  0.00000000000E+00  0.00000000000E+00  0.14999999963E+04  0.15000000000E+04  0.10566000000E+00 0.  1.
        994   -1    0    0    0    0 -0.00000000000E+00 -0.00000000000E+00  0.11368683772E-12  0.17120000000E+03  0.17120000000E+03 0.  0.
         13    1    1    2    0    0 -0.23809630374E+02 -0.41614558635E+02  0.10652186265E+03  0.11681433292E+03  0.10566000000E+00 0.  1.
        994    1    1    2    0    0  0.53692936698E+02 -0.27036574721E+02  0.24233552772E+02  0.18305904213E+03  0.17120000000E+03 0.  0.
        998    1    1    2    0    0 -0.29883306324E+02  0.68651133356E+02  0.13692445809E+04  0.13713266250E+04  0.10000000000E+02 0.  1.
</event>
<event>
 5    1  0.1040084E-008  0.3857898E+03  0.7957747E-01  0.3426330E+00
         13   -1    0    0    0    0  0.00000000000E+00  0.00000000000E+00  0.14999999963E+04  0.15000000000E+04  0.10566000000E+00 0.  1.
        994   -1    0    0    0    0 -0.00000000000E+00 -0.00000000000E+00  0.11368683772E-12  0.17120000000E+03  0.17120000000E+03 0.  0.
         13    1    1    2    0    0  0.90516419052E+01 -0.93282967228E+01  0.68267972702E+02  0.69494435762E+02  0.10566000000E+00 0.  1.
        994    1    1    2    0    0 -0.93282414127E+01  0.44191777521E+01  0.15881144435E+01  0.17151824197E+03  0.17120000000E+03 0.  0.
        998    1    1    2    0    0  0.27659950753E+00  0.49091189707E+01  0.14301439091E+04  0.14301873223E+04  0.10000000000E+02 0.  1.
</event>
<event>
 5    1  0.1020718E-008  0.3794999E+03  0.7957747E-01  0.3453339E+00
         13   -1    0    0    0    0  0.00000000000E+00  0.00000000000E+00  0.14999999963E+04  0.15000000000E+04  0.10566000000E+00 0. -1.
        994   -1    0    0    0    0 -0.00000000000E+00 -0.00000000000E+00  0.11368683772E-12  0.17120000000E+03  0.17120000000E+03 0.  0.
         13    1    1    2    0    0  0.73360256012E+02 -0.53969311646E+00  0.43001977283E+03  0.43623277573E+03  0.10566000000E+00 0. -1.
        994    1    1    2    0    0 -0.81347869231E+02 -0.49689738141E+02  0.35438513619E+02  0.19912778348E+03  0.17120000000E+03 0.  0.
        998    1    1    2    0    0  0.79876132191E+01  0.50229431258E+02  0.10345417098E+04  0.10358394408E+04  0.10000000000E+02 0. -1.
</event>
<event>
 5    1  0.1020718E-008  0.3851275E+03  0.7957747E-01  0.3429132E+00
         13   -1    0    0    0    0  0.00000000000E+00  0.00000000000E+00  0.14999999963E+04  0.15000000000E+04  0.10566000000E+00 0. -1.
        994   -1    0    0    0    0 -0.00000000000E+00 -0.00000000000E+00  0.11368683772E-12  0.17120000000E+03  0.17120000000E+03 0.  0.
         13    1    1    2    0    0  0.30280167902E+01  0.13542360352E+02  0.62974966994E+02  0.64485828222E+02  0.10566000000E+00 0. -1.
        994    1    1    2    0    0  0.19898367295E+01 -0.61222736320E+01  0.17030974555E+01  0.17132945522E+03  0.17120000000E+03 0.  0.
        998    1    1    2    0    0 -0.50178535197E+01 -0.74200867202E+01  0.14353219318E+04  0.14353847166E+04  0.10000000000E+02 0. -1.
</event>
<event>
 5    1  0.1020718E-008  0.3746183E+03  0.7957747E-01  0.3474932E+00
         13   -1    0    0    0    0  0.00000000000E+00  0.00000000000E+00  0.14999999963E+04  0.15000000000E+04  0.10566000000E+00 0. -1.
        994   -1    0    0    0    0 -0.00000000000E+00 -0.00000000000E+00  0.11368683772E-12  0.17120000000E+03  0.17120000000E+03 0.  0.
         13    1    1    2    0    0  0.89371990547E+01  0.29289355390E+02  0.63932243697E+02  0.70887818518E+02  0.10566000000E+00 0. -1.
        994    1    1    2    0    0 -0.37825757659E+01 -0.27257503131E+02  0.94566317136E+01  0.17365525399E+03  0.17120000000E+03 0.  0.
        998    1    1    2    0    0 -0.51546232888E+01 -0.20318522589E+01  0.14266111209E+04  0.14266569275E+04  0.10000000000E+02 0. -1.
</event>
<event>
 5    1  0.1020718E-008  0.3814940E+03  0.7957747E-01  0.3444679E+00
         13   -1    0    0    0    0  0.00000000000E+00  0.00000000000E+00  0.14999999963E+04  0.15000000000E+04  0.10566000000E+00 0. -1.
        994   -1    0    0    0    0 -0.00000000000E+00 -0.00000000000E+00  0.11368683772E-12  0.17120000000E+03  0.17120000000E+03 0.  0.
         13    1    1    2    0    0 -0.76140770072E+01  0.28517626061E+02  0.13757399475E+03  0.14070481285E+03  0.10566000000E+00 0. -1.
        994    1    1    2    0    0  0.20871489672E+02 -0.17063174823E+01  0.48410037551E+01  0.17254392460E+03  0.17120000000E+03 0.  0.
        998    1    1    2    0    0 -0.13257412665E+02 -0.26811308578E+02  0.13575849978E+04  0.13579512625E+04  0.10000000000E+02 0. -1.
</event>
<event>
 5    1  0.1020718E-008  0.3734168E+03  0.7957747E-01  0.3480334E+00
         13   -1    0    0    0    0  0.00000000000E+00  0.00000000000E+00  0.14999999963E+04  0.15000000000E+04  0.10566000000E+00 0.  1.
        994   -1    0    0    0    0 -0.00000000000E+00 -0.00000000000E+00  0.11368683772E-12  0.17120000000E+03  0.17120000000E+03 0.  0.
         13    1    1    2    0    0  0.16040869605E+03 -0.53828395375E+02  0.86787475838E+03  0.88421437068E+03  0.10566000000E+00 0.  1.
        994    1    1    2    0    0 -0.14588464583E+03  0.61969557485E+02  0.98894188776E+02  0.25340097971E+03  0.17120000000E+03 0.  0.
        998    1    1    2    0    0 -0.14524050216E+02 -0.81411621100E+01  0.53323104912E+03  0.53358464961E+03  0.10000000000E+02 0.  1.
</event>
<event>
 5    1  0.1020718E-008  0.3820353E+03  0.7957747E-01  0.3442344E+00
         13   -1    0    0    0    0  0.00000000000E+00  0.00000000000E+00  0.14999999963E+04  0.15000000000E+04  0.10566000000E+00 0.  1.
        994   -1    0    0    0    0 -0.00000000000E+00 -0.00000000000E+00  0.11368683772E-12  0.17120000000E+03  0.17120000000E+03 0.  0.
         13    1    1    2    0    0 -0.13710977566E+02  0.11548664368E+02  0.49793791020E+02  0.52922540970E+02  0.10566000000E+00 0.  1.
        994    1    1    2    0    0  0.13614267019E+02 -0.82234731560E+01  0.39497422156E+01  0.17198259866E+03  0.17120000000E+03 0.  0.
        998    1    1    2    0    0  0.96710546423E-01 -0.33251912118E+01  0.14462564630E+04  0.14462948604E+04  0.10000000000E+02 0.  1.
</event>
<event>
 5    1  0.1020718E-008  0.3852791E+03  0.7957747E-01  0.3428489E+00
         13   -1    0    0    0    0  0.00000000000E+00  0.00000000000E+00  0.14999999963E+04  0.15000000000E+04  0.10566000000E+00 0.  1.
        994   -1    0    0    0    0 -0.00000000000E+00 -0.00000000000E+00  0.11368683772E-12  0.17120000000E+03  0.17120000000E+03 0.  0.
         13    1    1    2    0    0  0.10914077380E+02  0.28780220083E+00  0.42806686935E+02  0.44177183314E+02  0.10566000000E+00 0.  1.
        994    1    1    2    0    0  0.52661889624E+01 -0.17981514047E+01  0.15933751283E+01  0.17129782526E+03  0.17120000000E+03 0.  0.
        998    1    1    2    0    0 -0.16180266342E+02  0.15103492039E+01  0.14555999342E+04  0.14557249914E+04  0.10000000000E+02 0.  1.
</event>
<event>
 5    1  0.1020718E-008  0.3835201E+03  0.7957747E-01  0.3435973E+00
         13   -1    0    0    0    0  0.00000000000E+00  0.00000000000E+00  0.14999999963E+04  0.15000000000E+04  0.10566000000E+00 0. -1.
        994   -1    0    0    0    0 -0.00000000000E+00 -0.00000000000E+00  0.11368683772E-12  0.17120000000E+03  0.17120000000E+03 0.  0.
         13    1    1    2    0    0  0.55598474623E+01 -0.95140195116E+01  0.24415319240E+02  0.26787076150E+02  0.10566000000E+00 0. -1.
        994    1    1    2    0    0 -0.10318405723E+02  0.89504784413E+01  0.29834696024E+01  0.17176996726E+03  0.17120000000E+03 0.  0.
        998    1    1    2    0    0  0.47585582603E+01  0.56354107029E+00  0.14726012074E+04  0.14726429566E+04  0.10000000000E+02 0. -1.
</event>
<event>
 5    1  0.1020718E-008  0.3767982E+03  0.7957747E-01  0.3465219E+00
         13   -1    0    0    0    0  0.00000000000E+00  0.00000000000E+00  0.14999999963E+04  0.15000000000E+04  0.10566000000E+00 0.  1.
        994   -1    0    0    0    0 -0.00000000000E+00 -0.00000000000E+00  0.11368683772E-12  0.17120000000E+03  0.17120000000E+03 0.  0.
         13    1    1    2    0    0 -0.87665113903E+01 -0.14270530041E+02  0.21967561952E+02  0.27623987615E+02  0.10566000000E+00 0.  1.
        994    1    1    2    0    0  0.89766592255E+01  0.72147469060E+01  0.62064551414E+01  0.17169913532E+03  0.17120000000E+03 0.  0.
        998    1    1    2    0    0 -0.21014783519E+00  0.70557831349E+01  0.14718259792E+04  0.14718768771E+04  0.10000000000E+02 0.  1.
</event>
<event>
 5    1  0.1020718E-008  0.3838212E+03  0.7957747E-01  0.3434687E+00
         13   -1    0    0    0    0  0.00000000000E+00  0.00000000000E+00  0.14999999963E+04  0.15000000000E+04  0.10566000000E+00 0. -1.
        994   -1    0    0    0    0 -0.00000000000E+00 -0.00000000000E+00  0.11368683772E-12  0.17120000000E+03  0.17120000000E+03 0.  0.
         13    1    1    2    0    0 -0.10069976160E+02 -0.13602864880E+02  0.62391394409E+02  0.64646265269E+02  0.10566000000E+00 0. -1.
        994    1    1    2    0    0  0.68831536775E+01  0.14955894964E+02  0.31118650507E+01  0.17201796506E+03  0.17120000000E+03 0.  0.
        998    1    1    2    0    0  0.31868224830E+01 -0.13530300845E+01  0.14344967368E+04  0.14345357697E+04  0.10000000000E+02 0. -1.
</event>
<event>
 5    1  0.1020718E-008  0.3847542E+03  0.7957747E-01  0.3430715E+00
         13   -1    0    0    0    0  0.00000000000E+00  0.00000000000E+00  0.14999999963E+04  0.15000000000E+04  0.10566000000E+00 0.  1.
        994   -1    0    0    0    0 -0.00000000000E+00 -0.00000000000E+00  0.11368683772E-12  0.17120000000E+03  0.17120000000E+03 0.  0.
         13    1    1    2    0    0 -0.15849569663E+02  0.89437914262E+01  0.91796699978E+02  0.93583361526E+02  0.10566000000E+00 0.  1.
        994    1    1    2    0    0  0.12960496601E+02 -0.86604764995E+01  0.25523402441E+01  0.17192711469E+03  0.17120000000E+03 0.  0.
        998    1    1    2    0    0  0.28890730615E+01 -0.28331492669E+00  0.14056509561E+04  0.14056895238E+04  0.10000000000E+02 0.  1.
</event>
<event>
 5    1  0.1020718E-008  0.3706477E+03  0.7957747E-01  0.3492919E+00
         13   -1    0    0    0    0  0.00000000000E+00  0.00000000000E+00  0.14999999963E+04  0.15000000000E+04  0.10566000000E+00 0.  1.
        994   -1    0    0    0    0 -0.00000000000E+00 -0.00000000000E+00  0.11368683772E-12  0.17120000000E+03  0.17120000000E+03 0.  0.
         13    1    1    2    0    0  0.10002431690E+02 -0.67699773835E+01  0.12959763985E+01  0.12147919671E+02  0.10566000000E+00 0.  1.
        994    1    1    2    0    0  0.40824810791E+01  0.10686422610E+02  0.11740400911E+02  0.17198297385E+03  0.17120000000E+03 0.  0.
        998    1    1    2    0    0 -0.14084912769E+02 -0.39164452266E+01  0.14869636190E+04  0.14870691065E+04  0.10000000000E+02 0.  1.
</event>
<event>
 5    1  0.1020718E-008  0.3845372E+03  0.7957747E-01  0.3431638E+00
         13   -1    0    0    0    0  0.00000000000E+00  0.00000000000E+00  0.14999999963E+04  0.15000000000E+04  0.10566000000E+00 0. -1.
        994   -1    0    0    0    0 -0.00000000000E+00 -0.00000000000E+00  0.11368683772E-12  0.17120000000E+03  0.17120000000E+03 0.  0.
         13    1    1    2    0    0  0.11008136556E+02 -0.73783744749E+01  0.47194324974E+02  0.49019740454E+02  0.10566000000E+00 0. -1.
        994    1    1    2    0    0 -0.10888454149E+02 -0.22273570796E+01  0.22670355647E+01  0.17157534498E+03  0.17120000000E+03 0.  0.
        998    1    1    2    0    0 -0.11968240722E+00  0.96057315545E+01  0.14505386357E+04  0.14506049146E+04  0.10000000000E+02 0. -1.
</event>
<event>
 5    1  0.1020718E-008  0.3709189E+03  0.7957747E-01  0.3491678E+00
         13   -1    0    0    0    0  0.00000000000E+00  0.00000000000E+00  0.14999999963E+04  0.15000000000E+04  0.10566000000E+00 0. -1.
        994   -1    0    0    0    0 -0.00000000000E+00 -0.00000000000E+00  0.11368683772E-12  0.17120000000E+03  0.17120000000E+03 0.  0.
         13    1    1    2    0    0 -0.21794835690E+02 -0.61931973603E+00  0.15763972373E+02  0.26905620392E+02  0.10566000000E+00 0. -1.
        994    1    1    2    0    0  0.19164275848E+02  0.27708889800E+01  0.12741627368E+02  0.17276208022E+03  0.17120000000E+03 0.  0.
        998    1    1    2    0    0  0.26305598417E+01 -0.21515692440E+01  0.14714943965E+04  0.14715322994E+04  0.10000000000E+02 0. -1.
</event>
<event>
 5    1  0.1020718E-008  0.3803111E+03  0.7957747E-01  0.3449805E+00
         13   -1    0    0    0    0  0.00000000000E+00  0.00000000000E+00  0.14999999963E+04  0.15000000000E+04  0.10566000000E+00 0.  1.
        994   -1    0    0    0    0 -0.00000000000E+00 -0.00000000000E+00  0.11368683772E-12  0.17120000000E+03  0.17120000000E+03 0.  0.
         13    1    1    2    0    0 -0.27664654774E+01  0.11350872844E+02  0.15289425422E+02  0.19242487868E+02  0.10566000000E+00 0.  1.
        994    1    1    2    0    0  0.38723282470E+01 -0.12379232486E+02  0.45382296140E+01  0.17175062111E+03  0.17120000000E+03 0.  0.
        998    1    1    2    0    0 -0.11058627696E+01  0.10283596421E+01  0.14801723412E+04  0.14802068910E+04  0.10000000000E+02 0.  1.
</event>
<event>
 5    1  0.1180271E-008  0.3843767E+03  0.7957747E-01  0.3432320E+00
         13   -1    0    0    0    0  0.00000000000E+00  0.00000000000E+00  0.14999999963E+04  0.15000000000E+04  0.10566000000E+00 0. -1.
        994   -1    0    0    0    0 -0.00000000000E+00 -0.00000000000E+00  0.11368683772E-12  0.17120000000E+03  0.17120000000E+03 0.  0.
         13    1    1    2    0    0  0.12568897991E+02 -0.34986706666E+01  0.44189082689E+02  0.46074983300E+02  0.10566000000E+00 0. -1.
        994    1    1    2    0    0 -0.55522047434E+01  0.88233148864E+00  0.20440532789E+01  0.17130447642E+03  0.17120000000E+03 0.  0.
        998    1    1    2    0    0 -0.70166932473E+01  0.26163391779E+01  0.14537668603E+04  0.14538205403E+04  0.10000000000E+02 0. -1.
</event>
<event>
 5    1  0.1020718E-008  0.3833746E+03  0.7957747E-01  0.3436595E+00
         13   -1    0    0    0    0  0.00000000000E+00  0.00000000000E+00  0.14999999963E+04  0.15000000000E+04  0.10566000000E+00 0. -1.
        994   -1    0    0    0    0 -0.00000000000E+00 -0.00000000000E+00  0.11368683772E-12  0.17120000000E+03  0.17120000000E+03 0.  0.
         13    1    1    2    0    0 -0.42215682896E+01 -0.93562278821E+01  0.22275891151E+02  0.24527273180E+02  0.10566000000E+00 0. -1.
        994    1    1    2    0    0 -0.48065050587E+01 -0.13728250429E+02  0.31390525342E+01  0.17184545674E+03  0.17120000000E+03 0.  0.
        998    1    1    2    0    0  0.90280733483E+01  0.23084478311E+02  0.14745850526E+04  0.14748272701E+04  0.10000000000E+02 0. -1.
</event>
<event>
 5    1  0.1020718E-008  0.3802042E+03  0.7957747E-01  0.3450270E+00
         13   -1    0    0    0    0  0.00000000000E+00  0.00000000000E+00  0.14999999963E+04  0.15000000000E+04  0.10566000000E+00 0.  1.
        994   -1    0    0    0    0 -0.00000000000E+00 -0.00000000000E+00  0.11368683772E-12  0.17120000000E+03  0.17120000000E+03 0.  0.
         13    1    1    2    0    0  0.30777532273E+02 -0.71010530756E+01  0.12228579093E+03  0.12629927662E+03  0.10566000000E+00 0.  1.
        994    1    1    2    0    0 -0.20371169351E+02 -0.32591299175E+01  0.54532137308E+01  0.17252473448E+03  0.17120000000E+03 0.  0.
        998    1    1    2    0    0 -0.10406362922E+02  0.10360182993E+02  0.13722609916E+04  0.13723759889E+04  0.10000000000E+02 0.  1.
</event>
<event>
 5    1  0.1020718E-008  0.3742761E+03  0.7957747E-01  0.3476467E+00
         13   -1    0    0    0    0  0.00000000000E+00  0.00000000000E+00  0.14999999963E+04  0.15000000000E+04  0.10566000000E+00 0. -1.
        994   -1    0    0    0    0 -0.00000000000E+00 -0.00000000000E+00  0.11368683772E-12  0.17120000000E+03  0.17120000000E+03 0.  0.
         13    1    1    2    0    0 -0.12240765282E+02 -0.27149363409E+01  0.78808339454E+01  0.14809656368E+02  0.10566000000E+00 0. -1.
        994    1    1    2    0    0  0.14929770177E+02 -0.94871108695E+01  0.81178763141E+01  0.17230276616E+03  0.17120000000E+03 0.  0.
        998    1    1    2    0    0 -0.26890048951E+01  0.12202047210E+02  0.14840012860E+04  0.14840875775E+04  0.10000000000E+02 0. -1.
</event>
<event>
 5    1  0.1020718E-008  0.3824562E+03  0.7957747E-01  0.3440533E+00
         13   -1    0    0    0    0  0.00000000000E+00  0.00000000000E+00  0.14999999963E+04  0.15000000000E+04  0.10566000000E+00 0. -1.
        994   -1    0    0    0    0 -0.00000000000E+00 -0.00000000000E+00  0.11368683772E-12  0.17120000000E+03  0.17120000000E+03 0.  0.
         13    1    1    2    0    0 -0.30697907948E+01 -0.21342508311E+02  0.80345735938E+02  0.83188789653E+02  0.10566000000E+00 0. -1.
        994    1    1    2    0    0  0.25766573407E+01  0.10931525577E+02  0.33167531468E+01  0.17160005322E+03  0.17120000000E+03 0.  0.
        998    1    1    2    0    0  0.49313345418E+00  0.10410982733E+02  0.14163375072E+04  0.14164111571E+04  0.10000000000E+02 0. -1.
</event>
<event>
 5    1  0.1020718E-008  0.3804486E+03  0.7957747E-01  0.3449207E+00
         13   -1    0    0    0    0  0.00000000000E+00  0.00000000000E+00  0.14999999963E+04  0.15000000000E+04  0.10566000000E+00 0. -1.
        994   -1    0    0    0    0 -0.00000000000E+00 -0.00000000000E+00  0.11368683772E-12  0.17120000000E+03  0.17120000000E+03 0.  0.
         13    1    1    2    0    0  0.12049764204E+02 -0.29212503829E+02  0.14717445414E+03  0.15052872919E+03  0.10566000000E+00 0. -1.
        994    1    1    2    0    0  0.13092219288E+02  0.97819149863E+00  0.44824110138E+01  0.17176115706E+03  0.17120000000E+03 0.  0.
        998    1    1    2    0    0 -0.25141983492E+02  0.28234312331E+02  0.13483431311E+04  0.13489101138E+04  0.10000000000E+02 0. -1.
</event>
<event>
 5    1  0.1020718E-008  0.3855348E+03  0.7957747E-01  0.3427407E+00
         13   -1    0    0    0    0  0.00000000000E+00  0.00000000000E+00  0.14999999963E+04  0.15000000000E+04  0.10566000000E+00 0. -1.
        994   -1    0    0    0    0 -0.00000000000E+00 -0.00000000000E+00  0.11368683772E-12  0.17120000000E+03  0.17120000000E+03 0.  0.
         13    1    1    2    0    0 -0.29469567889E+01  0.12695903136E+02  0.63395177243E+02  0.64721172521E+02  0.10566000000E+00 0. -1.
        994    1    1    2    0    0  0.12774577025E+02 -0.41325368734E+01  0.19568830463E+01  0.17173682503E+03  0.17120000000E+03 0.  0.
        998    1    1    2    0    0 -0.98276202361E+01 -0.85633662629E+01  0.14346479360E+04  0.14347420025E+04  0.10000000000E+02 0. -1.
</event>
<event>
 5    1  0.1020718E-008  0.3857421E+03  0.7957747E-01  0.3426531E+00
         13   -1    0    0    0    0  0.00000000000E+00  0.00000000000E+00  0.14999999963E+04  0.15000000000E+04  0.10566000000E+00 0.  1.
        994   -1    0    0    0    0 -0.00000000000E+00 -0.00000000000E+00  0.11368683772E-12  0.17120000000E+03  0.17120000000E+03 0.  0.
         13    1    1    2    0    0 -0.10022062859E+02 -0.19352301981E+00  0.41996430657E+02  0.43176272964E+02  0.10566000000E+00 0.  1.
        994    1    1    2    0    0 -0.13646553029E+01  0.11647780845E+02  0.17134876718E+01  0.17160975824E+03  0.17120000000E+03 0.  0.
        998    1    1    2    0    0  0.11386718161E+02 -0.11454257826E+02  0.14562900780E+04  0.14564139688E+04  0.10000000000E+02 0.  1.
</event>
<event>
 5    1  0.1020718E-008  0.3798074E+03  0.7957747E-01  0.3451998E+00
         13   -1    0    0    0    0  0.00000000000E+00  0.00000000000E+00  0.14999999963E+04  0.15000000000E+04  0.10566000000E+00 0.  1.
        994   -1    0    0    0    0 -0.00000000000E+00 -0.00000000000E+00  0.11368683772E-12  0.17120000000E+03  0.17120000000E+03 0.  0.
         13    1    1    2    0    0 -0.13110045222E+02  0.12485562808E+02  0.37333974504E+02  0.41492160472E+02  0.10566000000E+00 0.  1.
        994    1    1    2    0    0  0.23049472749E+01 -0.12381286872E+02  0.47611359904E+01  0.17172861574E+03  0.17120000000E+03 0.  0.
        998    1    1    2    0    0  0.10805097947E+02 -0.10427593588E+00  0.14579048858E+04  0.14579792238E+04  0.10000000000E+02 0.  1.
</event>
<event>
 5    1  0.1020718E-008  0.3902196E+03  0.7957747E-01  0.3407832E+00
         13   -1    0    0    0    0  0.00000000000E+00  0.00000000000E+00  0.14999999963E+04  0.15000000000E+04  0.10566000000E+00 0.  1.
        994   -1    0    0    0    0 -0.00000000000E+00 -0.00000000000E+00  0.11368683772E-12  0.17120000000E+03  0.17120000000E+03 0.  0.
         13    1    1    2    0    0 -0.86596071346E+01  0.12033857930E+02 -0.50292007355E+01  0.15655879294E+02  0.10566000000E+00 0.  1.
        994    1    1    2    0    0  0.10978532604E+02 -0.92655671194E+01  0.22835927593E+02  0.17331271881E+03  0.17120000000E+03 0.  0.
        998    1    1    2    0    0 -0.23189254692E+01 -0.27682908101E+01  0.14821932694E+04  0.14822314019E+04  0.10000000000E+02 0.  1.
</event>
<event>
 5    1  0.1020718E-008  0.3799105E+03  0.7957747E-01  0.3451548E+00
         13   -1    0    0    0    0  0.00000000000E+00  0.00000000000E+00  0.14999999963E+04  0.15000000000E+04  0.10566000000E+00 0.  1.
        994   -1    0    0    0    0 -0.00000000000E+00 -0.00000000000E+00  0.11368683772E-12  0.17120000000E+03  0.17120000000E+03 0.  0.
         13    1    1    2    0    0  0.26695227200E+02 -0.10150202231E+01  0.83901657754E+02  0.88052057098E+02  0.10566000000E+00 0.  1.
        994    1    1    2    0    0 -0.16333916781E+02  0.87597954509E+01  0.53279254287E+01  0.17228278394E+03  0.17120000000E+03 0.  0.
        998    1    1    2    0    0 -0.10361310420E+02 -0.77447752278E+01  0.14107704131E+04  0.14108651590E+04  0.10000000000E+02 0.  1.
</event>
<event>
 5    1  0.1020718E-008  0.3821000E+03  0.7957747E-01  0.3442065E+00
         13   -1    0    0    0    0  0.00000000000E+00  0.00000000000E+00  0.14999999963E+04  0.15000000000E+04  0.10566000000E+00 0. -1.
        994   -1    0    0    0    0 -0.00000000000E+00 -0.00000000000E+00  0.11368683772E-12  0.17120000000E+03  0.17120000000E+03 0.  0.
         13    1    1    2    0    0  0.12385344792E+02  0.24226986072E+02  0.14105723976E+03  0.14365757784E+03  0.10566000000E+00 0. -1.
        994    1    1    2    0    0  0.48052477494E+01  0.52401160061E+01  0.32446571060E+01  0.17137828632E+03  0.17120000000E+03 0.  0.
        998    1    1    2    0    0 -0.17190592541E+02 -0.29467102078E+02  0.13556980994E+04  0.13561641358E+04  0.10000000000E+02 0. -1.
</event>
<event>
 5    1  0.1020718E-008  0.4078352E+03  0.7957747E-01  0.3338246E+00
         13   -1    0    0    0    0  0.00000000000E+00  0.00000000000E+00  0.14999999963E+04  0.15000000000E+04  0.10566000000E+00 0. -1.
        994   -1    0    0    0    0 -0.00000000000E+00 -0.00000000000E+00  0.11368683772E-12  0.17120000000E+03  0.17120000000E+03 0.  0.
         13    1    1    2    0    0  0.10123184437E+03 -0.92187424611E+02  0.25537058387E+03  0.28975947584E+03  0.10566000000E+00 0. -1.
        994    1    1    2    0    0 -0.98328392262E+02  0.55834354310E+02  0.86445102070E+02  0.22263904311E+03  0.17120000000E+03 0.  0.
        998    1    1    2    0    0 -0.29034521079E+01  0.36353070300E+02  0.11581843103E+04  0.11588014810E+04  0.10000000000E+02 0. -1.
</event>
<event>
 5    1  0.1020718E-008  0.3746047E+03  0.7957747E-01  0.3474993E+00
         13   -1    0    0    0    0  0.00000000000E+00  0.00000000000E+00  0.14999999963E+04  0.15000000000E+04  0.10566000000E+00 0.  1.
        994   -1    0    0    0    0 -0.00000000000E+00 -0.00000000000E+00  0.11368683772E-12  0.17120000000E+03  0.17120000000E+03 0.  0.
         13    1    1    2    0    0 -0.10003469374E+02 -0.18995631655E+01  0.44290789898E+01  0.11104307474E+02  0.10566000000E+00 0.  1.
        994    1    1    2    0    0 -0.27075573435E+01  0.12622391314E+02  0.74493092075E+01  0.17184757152E+03  0.17120000000E+03 0.  0.
        998    1    1    2    0    0  0.12711026718E+02 -0.10722828148E+02  0.14881216081E+04  0.14882481210E+04  0.10000000000E+02 0.  1.
</event>
<event>
 5    1  0.1020718E-008  0.3796510E+03  0.7957747E-01  0.3452679E+00
         13   -1    0    0    0    0  0.00000000000E+00  0.00000000000E+00  0.14999999963E+04  0.15000000000E+04  0.10566000000E+00 0.  1.
        994   -1    0    0    0    0 -0.00000000000E+00 -0.00000000000E+00  0.11368683772E-12  0.17120000000E+03  0.17120000000E+03 0.  0.
         13    1    1    2    0    0  0.10953505513E+02  0.71722960865E+01  0.18081016842E+02  0.22323876192E+02  0.10566000000E+00 0.  1.
        994    1    1    2    0    0 -0.90898972958E+01 -0.24197805566E+01  0.46055859712E+01  0.17152006586E+03  0.17120000000E+03 0.  0.
        998    1    1    2    0    0 -0.18636082173E+01 -0.47525155299E+01  0.14773133935E+04  0.14773560579E+04  0.10000000000E+02 0.  1.
</event>
<event>
 5    1  0.1020718E-008  0.3844181E+03  0.7957747E-01  0.3432144E+00
         13   -1    0    0    0    0  0.00000000000E+00  0.00000000000E+00  0.14999999963E+04  0.15000000000E+04  0.10566000000E+00 0. -1.
        994   -1    0    0    0    0 -0.00000000000E+00 -0.00000000000E+00  0.11368683772E-12  0.17120000000E+03  0.17120000000E+03 0.  0.
         13    1    1    2    0    0 -0.12222957581E+02  0.15192711695E+01  0.43043766919E+02  0.44771485473E+02  0.10566000000E+00 0. -1.
        994    1    1    2    0    0 -0.72842716856E+01  0.26916965185E+02  0.44855278907E+01  0.17351410199E+03  0.17120000000E+03 0.  0.
        998    1    1    2    0    0  0.19507229266E+02 -0.28436236354E+02  0.14524707015E+04  0.14529144125E+04  0.10000000000E+02 0. -1.
</event>
<event>
 5    1  0.1020718E-008  0.3721755E+03  0.7957747E-01  0.3485952E+00
         13   -1    0    0    0    0  0.00000000000E+00  0.00000000000E+00  0.14999999963E+04  0.15000000000E+04  0.10566000000E+00 0. -1.
        994   -1    0    0    0    0 -0.00000000000E+00 -0.00000000000E+00  0.11368683772E-12  0.17120000000E+03  0.17120000000E+03 0.  0.
         13    1    1    2    0    0 -0.67407619913E+02 -0.20915779088E+01  0.26809502517E+03  0.27644731072E+03  0.10566000000E+00 0. -1.
        994    1    1    2    0    0  0.43738658264E+02  0.45028847536E+01  0.14800745975E+02  0.17737488063E+03  0.17120000000E+03 0.  0.
        998    1    1    2    0    0  0.23668961648E+02 -0.24113068449E+01  0.12171042251E+04  0.12173778086E+04  0.10000000000E+02 0. -1.
</event>
<event>
 5    1  0.1020718E-008  0.3793353E+03  0.7957747E-01  0.3454058E+00
         13   -1    0    0    0    0  0.00000000000E+00  0.00000000000E+00  0.14999999963E+04  0.15000000000E+04  0.10566000000E+00 0. -1.
        994   -1    0    0    0    0 -0.00000000000E+00 -0.00000000000E+00  0.11368683772E-12  0.17120000000E+03  0.17120000000E+03 0.  0.
         13    1    1    2    0    0 -0.18987268365E+02 -0.50788737403E+02  0.31399596755E+03  0.31864320330E+03  0.10566000000E+00 0. -1.
        994    1    1    2    0    0  0.29551881523E+02  0.27389886653E+02  0.99275665015E+01  0.17615764579E+03  0.17120000000E+03 0.  0.
        998    1    1    2    0    0 -0.10564613158E+02  0.23398850750E+02  0.11760764622E+04  0.11763991509E+04  0.10000000000E+02 0. -1.
</event>
<event>
 5    1  0.1020718E-008  0.3741557E+03  0.7957747E-01  0.3477007E+00
         13   -1    0    0    0    0  0.00000000000E+00  0.00000000000E+00  0.14999999963E+04  0.15000000000E+04  0.10566000000E+00 0.  1.
        994   -1    0    0    0    0 -0.00000000000E+00 -0.00000000000E+00  0.11368683772E-12  0.17120000000E+03  0.17120000000E+03 0.  0.
         13    1    1    2    0    0  0.34643150475E+02 -0.16555523641E+02  0.93496071110E+02  0.10107304148E+03  0.10566000000E+00 0.  1.
        994    1    1    2    0    0 -0.40512643143E+02  0.15548577881E+02  0.13559227679E+02  0.17713363651E+03  0.17120000000E+03 0.  0.
        998    1    1    2    0    0  0.58694926674E+01  0.10069457603E+01  0.13929446975E+04  0.13929933220E+04  0.10000000000E+02 0.  1.
</event>
<event>
 5    1  0.1020718E-008  0.2361055E+03  0.7957747E-01  0.4493450E+00
         13   -1    0    0    0    0  0.00000000000E+00  0.00000000000E+00  0.14999999963E+04  0.15000000000E+04  0.10566000000E+00 0. -1.
        994   -1    0    0    0    0 -0.00000000000E+00 -0.00000000000E+00  0.11368683772E-12  0.17120000000E+03  0.17120000000E+03 0.  0.
         13    1    1    2    0    0  0.14958039783E+03 -0.71464828655E+02  0.18796840838E+03  0.25062651668E+03  0.10566000000E+00 0. -1.
        994    1    1    2    0    0 -0.14138330605E+03  0.63048400433E+02  0.19142903164E+03  0.29986472647E+03  0.17120000000E+03 0.  0.
        998    1    1    2    0    0 -0.81970917842E+01  0.84164282224E+01  0.11206025563E+04  0.11207087569E+04  0.10000000000E+02 0. -1.
</event>
<event>
 5    1  0.1020718E-008  0.3886088E+03  0.7957747E-01  0.3414509E+00
         13   -1    0    0    0    0  0.00000000000E+00  0.00000000000E+00  0.14999999963E+04  0.15000000000E+04  0.10566000000E+00 0. -1.
        994   -1    0    0    0    0 -0.00000000000E+00 -0.00000000000E+00  0.11368683772E-12  0.17120000000E+03  0.17120000000E+03 0.  0.
         13    1    1    2    0    0 -0.45998786237E+02 -0.10011440227E+03  0.27654913434E+03  0.29768811992E+03  0.10566000000E+00 0. -1.
        994    1    1    2    0    0  0.11225354886E+02  0.73530879540E+02  0.42153171942E+02  0.19136125194E+03  0.17120000000E+03 0.  0.
        998    1    1    2    0    0  0.34773431352E+02  0.26583522731E+02  0.11812976900E+04  0.11821506281E+04  0.10000000000E+02 0. -1.
</event>
<event>
 5    1  0.1020718E-008  0.3839765E+03  0.7957747E-01  0.3434025E+00
         13   -1    0    0    0    0  0.00000000000E+00  0.00000000000E+00  0.14999999963E+04  0.15000000000E+04  0.10566000000E+00 0.  1.
        994   -1    0    0    0    0 -0.00000000000E+00 -0.00000000000E+00  0.11368683772E-12  0.17120000000E+03  0.17120000000E+03 0.  0.
         13    1    1    2    0    0 -0.10792015696E+02  0.13385923006E+02  0.69308641296E+02  0.71409729448E+02  0.10566000000E+00 0.  1.
        994    1    1    2    0    0 -0.24302394312E+01 -0.14374251119E+02  0.28407144460E+01  0.17184305286E+03  0.17120000000E+03 0.  0.
        998    1    1    2    0    0  0.13222255128E+02  0.98832811392E+00  0.14278506405E+04  0.14279472177E+04  0.10000000000E+02 0.  1.
</event>
<event>
 5    1  0.1020718E-008  0.4543600E+03  0.7957747E-01  0.3180022E+00
         13   -1    0    0    0    0  0.00000000000E+00  0.00000000000E+00  0.14999999963E+04  0.15000000000E+04  0.10566000000E+00 0. -1.
        994   -1    0    0    0    0 -0.00000000000E+00 -0.00000000000E+00  0.11368683772E-12  0.17120000000E+03  0.17120000000E+03 0.  0.
         13    1    1    2    0    0  0.46876057072E+02 -0.29453758787E+02  0.43521733486E+01  0.55532343821E+02  0.10566000000E+00 0. -1.
        994    1    1    2    0    0  0.10358441214E+03  0.20064812324E+02  0.12514199673E+03  0.23685921235E+03  0.17120000000E+03 0.  0.
        998    1    1    2    0    0 -0.15046046921E+03  0.93889464634E+01  0.13705058262E+04  0.13788084438E+04  0.10000000000E+02 0. -1.
</event>
<event>
 5    1  0.1020718E-008  0.3770698E+03  0.7957747E-01  0.3464017E+00
         13   -1    0    0    0    0  0.00000000000E+00  0.00000000000E+00  0.14999999963E+04  0.15000000000E+04  0.10566000000E+00 0. -1.
        994   -1    0    0    0    0 -0.00000000000E+00 -0.00000000000E+00  0.11368683772E-12  0.17120000000E+03  0.17120000000E+03 0.  0.
         13    1    1    2    0    0  0.96913454111E+01  0.32557797040E+01  0.67107299397E+01  0.12229772595E+02  0.10566000000E+00 0. -1.
        994    1    1    2    0    0 -0.80245417323E+01 -0.33471327339E+01  0.58748741925E+01  0.17152128356E+03  0.17120000000E+03 0.  0.
        998    1    1    2    0    0 -0.16668036789E+01  0.91353029905E-01  0.14874143921E+04  0.14874489438E+04  0.10000000000E+02 0. -1.
</event>
<event>
 5    1  0.1020718E-008  0.3842422E+03  0.7957747E-01  0.3432892E+00
         13   -1    0    0    0    0  0.00000000000E+00  0.00000000000E+00  0.14999999963E+04  0.15000000000E+04  0.10566000000E+00 0. -1.
        994   -1    0    0    0    0 -0.00000000000E+00 -0.00000000000E+00  0.11368683772E-12  0.17120000000E+03  0.17120000000E+03 0.  0.
         13    1    1    2    0    0 -0.19487111188E+02 -0.35294256237E+01  0.97371032040E+02  0.99364648605E+02  0.10566000000E+00 0. -1.
        994    1    1    2    0    0  0.95686542364E+01  0.20115270837E+02  0.36443318714E+01  0.17268151152E+03  0.17120000000E+03 0.  0.
        998    1    1    2    0    0  0.99184569514E+01 -0.16585845213E+02  0.13989846324E+04  0.13991538399E+04  0.10000000000E+02 0. -1.
</event>
<event>
 5    1  0.1020718E-008  0.3767001E+03  0.7957747E-01  0.3465654E+00
         13   -1    0    0    0    0  0.00000000000E+00  0.00000000000E+00  0.14999999963E+04  0.15000000000E+04  0.10566000000E+00 0. -1.
        994   -1    0    0    0    0 -0.00000000000E+00 -0.00000000000E+00  0.11368683772E-12  0.17120000000E+03  0.17120000000E+03 0.  0.
         13    1    1    2    0    0 -0.44166058845E+01  0.17875969474E+02  0.25681086145E+02  0.31600412051E+02  0.10566000000E+00 0. -1.
        994    1    1    2    0    0 -0.18801033841E+02 -0.33393024052E+02  0.10787882992E+02  0.17576800434E+03  0.17120000000E+03 0.  0.
        998    1    1    2    0    0  0.23217639726E+02  0.15517054577E+02  0.14635310271E+04  0.14638315836E+04  0.10000000000E+02 0. -1.
</event>
<event>
 5    1  0.1020718E-008  0.3796100E+03  0.7957747E-01  0.3452858E+00
         13   -1    0    0    0    0  0.00000000000E+00  0.00000000000E+00  0.14999999963E+04  0.15000000000E+04  0.10566000000E+00 0. -1.
        994   -1    0    0    0    0 -0.00000000000E+00 -0.00000000000E+00  0.11368683772E-12  0.17120000000E+03  0.17120000000E+03 0.  0.
         13    1    1    2    0    0  0.36357312257E-01 -0.17823715618E+02  0.35554122359E+02  0.39771760598E+02  0.10566000000E+00 0. -1.
        994    1    1    2    0    0  0.23358527383E+01  0.69902069537E+01  0.45119632077E+01  0.17141796001E+03  0.17120000000E+03 0.  0.
        998    1    1    2    0    0 -0.23722100506E+01  0.10833508664E+02  0.14599339107E+04  0.14600102794E+04  0.10000000000E+02 0. -1.
</event>
<event>
 5    1  0.1020718E-008  0.3839076E+03  0.7957747E-01  0.3434318E+00
         13   -1    0    0    0    0  0.00000000000E+00  0.00000000000E+00  0.14999999963E+04  0.15000000000E+04  0.10566000000E+00 0.  1.
        994   -1    0    0    0    0 -0.00000000000E+00 -0.00000000000E+00  0.11368683772E-12  0.17120000000E+03  0.17120000000E+03 0.  0.
         13    1    1    2    0    0  0.17613541396E+02 -0.41649685181E+01  0.73755235358E+02  0.75943595582E+02  0.10566000000E+00 0.  1.
        994    1    1    2    0    0 -0.12230222003E+02  0.10576304831E+02  0.30367675559E+01  0.17198865809E+03  0.17120000000E+03 0.  0.
        998    1    1    2    0    0 -0.53833193931E+01 -0.64113363125E+01  0.14232079934E+04  0.14232677463E+04  0.10000000000E+02 0.  1.
</event>
<event>
 5    1  0.1020718E-008  0.3828437E+03  0.7957747E-01  0.3438869E+00
         13   -1    0    0    0    0  0.00000000000E+00  0.00000000000E+00  0.14999999963E+04  0.15000000000E+04  0.10566000000E+00 0. -1.
        994   -1    0    0    0    0 -0.00000000000E+00 -0.00000000000E+00  0.11368683772E-12  0.17120000000E+03  0.17120000000E+03 0.  0.
         13    1    1    2    0    0  0.14446243857E+02  0.20169375324E+02  0.11711402111E+03  0.11971300166E+03  0.10566000000E+00 0. -1.
        994    1    1    2    0    0 -0.41921003674E+00 -0.11902392323E+02  0.31743976100E+01  0.17164311661E+03  0.17120000000E+03 0.  0.
        998    1    1    2    0    0 -0.14027033820E+02 -0.82669830007E+01  0.13797115776E+04  0.13798438817E+04  0.10000000000E+02 0. -1.
</event>
<event>
 5    1  0.1020718E-008  0.3706308E+03  0.7957747E-01  0.3492997E+00
         13   -1    0    0    0    0  0.00000000000E+00  0.00000000000E+00  0.14999999963E+04  0.15000000000E+04  0.10566000000E+00 0. -1.
        994   -1    0    0    0    0 -0.00000000000E+00 -0.00000000000E+00  0.11368683772E-12  0.17120000000E+03  0.17120000000E+03 0.  0.
         13    1    1    2    0    0 -0.19810321043E+02 -0.20159169130E+02  0.40898830958E+02  0.49714851479E+02  0.10566000000E+00 0. -1.
        994    1    1    2    0    0 -0.39966288394E+00  0.29989767493E+02  0.12049582008E+02  0.17422450548E+03  0.17120000000E+03 0.  0.
        998    1    1    2    0    0  0.20209983927E+02 -0.98305983638E+01  0.14470515833E+04  0.14472606430E+04  0.10000000000E+02 0. -1.
</event>
<event>
 5    1  0.1020718E-008  0.3770158E+03  0.7957747E-01  0.3464256E+00
         13   -1    0    0    0    0  0.00000000000E+00  0.00000000000E+00  0.14999999963E+04  0.15000000000E+04  0.10566000000E+00 0.  1.
        994   -1    0    0    0    0 -0.00000000000E+00 -0.00000000000E+00  0.11368683772E-12  0.17120000000E+03  0.17120000000E+03 0.  0.
         13    1    1    2    0    0 -0.34248194489E+02  0.90690608447E+01  0.10106661925E+03  0.10709649565E+03  0.10566000000E+00 0.  1.
        994    1    1    2    0    0  0.38143959980E+02 -0.65129977107E+01  0.10719458544E+02  0.17584574949E+03  0.17120000000E+03 0.  0.
        998    1    1    2    0    0 -0.38957654911E+01 -0.25560631340E+01  0.13882139185E+04  0.13882577549E+04  0.10000000000E+02 0.  0.
</event>
<event>
 5    1  0.1437323E-008  0.3856515E+03  0.7957747E-01  0.3426914E+00
         13   -1    0    0    0    0  0.00000000000E+00  0.00000000000E+00  0.14999999963E+04  0.15000000000E+04  0.10566000000E+00 0. -1.
        994   -1    0    0    0    0 -0.00000000000E+00 -0.00000000000E+00  0.11368683772E-12  0.17120000000E+03  0.17120000000E+03 0.  0.
         13    1    1    2    0    0  0.10434386365E+02  0.10280600706E+02  0.85373574638E+02  0.86621161273E+02  0.10566000000E+00 0. -1.
        994    1    1    2    0    0 -0.30173225295E+01 -0.48323864295E+01  0.14135236472E+01  0.17130059615E+03  0.17120000000E+03 0.  0.
        998    1    1    2    0    0 -0.74170638355E+01 -0.54482142760E+01  0.14132128980E+04  0.14132782426E+04  0.10000000000E+02 0. -1.
</event>
<event>
 5    1  0.1020718E-008  0.3728194E+03  0.7957747E-01  0.3483033E+00
         13   -1    0    0    0    0  0.00000000000E+00  0.00000000000E+00  0.14999999963E+04  0.15000000000E+04  0.10566000000E+00 0.  1.
        994   -1    0    0    0    0 -0.00000000000E+00 -0.00000000000E+00  0.11368683772E-12  0.17120000000E+03  0.17120000000E+03 0.  0.
         13    1    1    2    0    0  0.14347054430E+02 -0.87145927326E+02  0.34569354850E+03  0.35679726913E+03  0.10566000000E+00 0.  1.
        994    1    1    2    0    0 -0.85889315615E+01  0.33587212153E+02  0.16692941336E+02  0.17547069515E+03  0.17120000000E+03 0.  0.
        998    1    1    2    0    0 -0.57581228684E+01  0.53558715173E+02  0.11376135064E+04  0.11389320357E+04  0.10000000000E+02 0.  1.
</event>
<event>
 5    1  0.1020718E-008  0.3750386E+03  0.7957747E-01  0.3473050E+00
         13   -1    0    0    0    0  0.00000000000E+00  0.00000000000E+00  0.14999999963E+04  0.15000000000E+04  0.10566000000E+00 0. -1.
        994   -1    0    0    0    0 -0.00000000000E+00 -0.00000000000E+00  0.11368683772E-12  0.17120000000E+03  0.17120000000E+03 0.  0.
         13    1    1    2    0    0  0.27321824576E+02 -0.26603638130E+02  0.10315188801E+03  0.10997526460E+03  0.10566000000E+00 0. -1.
        994    1    1    2    0    0 -0.18072971824E+02  0.26593941303E+02  0.10180844908E+02  0.17449057174E+03  0.17120000000E+03 0.  0.
        998    1    1    2    0    0 -0.92488527514E+01  0.96968277805E-02  0.13866672634E+04  0.13867341637E+04  0.10000000000E+02 0.  0.
</event>
<event>
 5    1  0.1020718E-008  0.3797409E+03  0.7957747E-01  0.3452287E+00
         13   -1    0    0    0    0  0.00000000000E+00  0.00000000000E+00  0.14999999963E+04  0.15000000000E+04  0.10566000000E+00 0.  1.
        994   -1    0    0    0    0 -0.00000000000E+00 -0.00000000000E+00  0.11368683772E-12  0.17120000000E+03  0.17120000000E+03 0.  0.
         13    1    1    2    0    0  0.38720607293E+02  0.44769281063E+02  0.31127896803E+03  0.31685672007E+03  0.10566000000E+00 0.  1.
        994    1    1    2    0    0 -0.56034317520E+02 -0.37085700174E+02  0.19521866333E+02  0.18494793095E+03  0.17120000000E+03 0.  0.
        998    1    1    2    0    0  0.17313710227E+02 -0.76835808883E+01  0.11691991619E+04  0.11693953490E+04  0.10000000000E+02 0.  1.
</event>
<event>
 5    1  0.1020718E-008  0.3856638E+03  0.7957747E-01  0.3426862E+00
         13   -1    0    0    0    0  0.00000000000E+00  0.00000000000E+00  0.14999999963E+04  0.15000000000E+04  0.10566000000E+00 0. -1.
        994   -1    0    0    0    0 -0.00000000000E+00 -0.00000000000E+00  0.11368683772E-12  0.17120000000E+03  0.17120000000E+03 0.  0.
         13    1    1    2    0    0  0.14568432065E+03 -0.10811181309E+03  0.10688546966E+04  0.10841413464E+04  0.10566000000E+00 0. -1.
        994    1    1    2    0    0 -0.16450777928E+03  0.11413924758E+03  0.14626704848E+03  0.30132053822E+03  0.17120000000E+03 0.  0.
        998    1    1    2    0    0  0.18823458630E+02 -0.60274344953E+01  0.28487825118E+03  0.28573811534E+03  0.10000000000E+02 0. -1.
</event>
<event>
 5    1  0.1020718E-008  0.3720629E+03  0.7957747E-01  0.3486464E+00
         13   -1    0    0    0    0  0.00000000000E+00  0.00000000000E+00  0.14999999963E+04  0.15000000000E+04  0.10566000000E+00 0.  1.
        994   -1    0    0    0    0 -0.00000000000E+00 -0.00000000000E+00  0.11368683772E-12  0.17120000000E+03  0.17120000000E+03 0.  0.
         13    1    1    2    0    0  0.63004278294E+02 -0.38327052523E+02  0.37456203120E+03  0.38175283682E+03  0.10566000000E+00 0.  1.
        994    1    1    2    0    0 -0.64417310940E+01  0.43707703960E+02  0.14925863201E+02  0.17743754021E+03  0.17120000000E+03 0.  0.
        998    1    1    2    0    0 -0.56562547200E+02 -0.53806514363E+01  0.11105121019E+04  0.11120096230E+04  0.10000000000E+02 0.  1.
</event>
<event>
 5    1  0.1020718E-008  0.3810562E+03  0.7957747E-01  0.3446573E+00
         13   -1    0    0    0    0  0.00000000000E+00  0.00000000000E+00  0.14999999963E+04  0.15000000000E+04  0.10566000000E+00 0. -1.
        994   -1    0    0    0    0 -0.00000000000E+00 -0.00000000000E+00  0.11368683772E-12  0.17120000000E+03  0.17120000000E+03 0.  0.
         13    1    1    2    0    0  0.76591270081E+01 -0.22146809998E+02  0.82892458022E+02  0.86141245525E+02  0.10566000000E+00 0. -1.
        994    1    1    2    0    0 -0.38460351900E+01 -0.66874046942E+01  0.37992350637E+01  0.17141583228E+03  0.17120000000E+03 0.  0.
        998    1    1    2    0    0 -0.38130918180E+01  0.28834214692E+02  0.14133083032E+04  0.14136429222E+04  0.10000000000E+02 0. -1.
</event>
<event>
 5    1  0.1020718E-008  0.3843798E+03  0.7957747E-01  0.3432307E+00
         13   -1    0    0    0    0  0.00000000000E+00  0.00000000000E+00  0.14999999963E+04  0.15000000000E+04  0.10566000000E+00 0. -1.
        994   -1    0    0    0    0 -0.00000000000E+00 -0.00000000000E+00  0.11368683772E-12  0.17120000000E+03  0.17120000000E+03 0.  0.
         13    1    1    2    0    0 -0.14191159406E+02  0.67344071731E+01  0.61648249367E+02  0.63618071798E+02  0.10566000000E+00 0. -1.
        994    1    1    2    0    0  0.12006248147E+02 -0.10040982600E+02  0.27460120218E+01  0.17193589476E+03  0.17120000000E+03 0.  0.
        998    1    1    2    0    0  0.21849112596E+01  0.33065754265E+01  0.14356057349E+04  0.14356460334E+04  0.10000000000E+02 0. -1.
</event>
<event>
 5    1  0.1020718E-008  0.3747315E+03  0.7957747E-01  0.3474425E+00
         13   -1    0    0    0    0  0.00000000000E+00  0.00000000000E+00  0.14999999963E+04  0.15000000000E+04  0.10566000000E+00 0.  1.
        994   -1    0    0    0    0 -0.00000000000E+00 -0.00000000000E+00  0.11368683772E-12  0.17120000000E+03  0.17120000000E+03 0.  0.
         13    1    1    2    0    0 -0.80084666924E+02  0.95881197584E+02  0.67437794231E+03  0.68585157152E+03  0.10566000000E+00 0.  1.
        994    1    1    2    0    0  0.15274426239E+02 -0.67254147507E+02  0.30571067776E+02  0.18708409510E+03  0.17120000000E+03 0.  0.
        998    1    1    2    0    0  0.64810240686E+02 -0.28627050077E+02  0.79505098620E+03  0.79826433338E+03  0.10000000000E+02 0.  1.
</event>
<event>
 5    1  0.1020718E-008  0.3762135E+03  0.7957747E-01  0.3467813E+00
         13   -1    0    0    0    0  0.00000000000E+00  0.00000000000E+00  0.14999999963E+04  0.15000000000E+04  0.10566000000E+00 0.  1.
        994   -1    0    0    0    0 -0.00000000000E+00 -0.00000000000E+00  0.11368683772E-12  0.17120000000E+03  0.17120000000E+03 0.  0.
         13    1    1    2    0    0  0.44339645925E+02  0.45494396284E+02  0.32836791425E+03  0.33445663780E+03  0.10566000000E+00 0.  1.
        994    1    1    2    0    0 -0.41698437684E+02 -0.12355066317E+02  0.12486893988E+02  0.17707842864E+03  0.17120000000E+03 0.  0.
        998    1    1    2    0    0 -0.26412082413E+01 -0.33139329966E+02  0.11591451880E+04  0.11596649336E+04  0.10000000000E+02 0.  1.
</event>
<event>
 5    1  0.1020718E-008  0.3699095E+03  0.7957747E-01  0.3496307E+00
         13   -1    0    0    0    0  0.00000000000E+00  0.00000000000E+00  0.14999999963E+04  0.15000000000E+04  0.10566000000E+00 0. -1.
        994   -1    0    0    0    0 -0.00000000000E+00 -0.00000000000E+00  0.11368683772E-12  0.17120000000E+03  0.17120000000E+03 0.  0.
         13    1    1    2    0    0  0.12796655249E+02 -0.10457645583E+03  0.50357258294E+03  0.51447579822E+03  0.10566000000E+00 0. -1.
        994    1    1    2    0    0 -0.12062664512E+01  0.62241321947E+02  0.24560696115E+02  0.18381541021E+03  0.17120000000E+03 0.  0.
        998    1    1    2    0    0 -0.11590388798E+02  0.42335133885E+02  0.97186671723E+03  0.97290879158E+03  0.10000000000E+02 0. -1.
</event>
<event>
 5    1  0.1020718E-008  0.3799497E+03  0.7957747E-01  0.3451378E+00
         13   -1    0    0    0    0  0.00000000000E+00  0.00000000000E+00  0.14999999963E+04  0.15000000000E+04  0.10566000000E+00 0.  1.
        994   -1    0    0    0    0 -0.00000000000E+00 -0.00000000000E+00  0.11368683772E-12  0.17120000000E+03  0.17120000000E+03 0.  0.
         13    1    1    2    0    0 -0.24962743921E+02 -0.35961246376E+02  0.16101169762E+03  0.16685660838E+03  0.10566000000E+00 0.  1.
        994    1    1    2    0    0  0.26561383660E+02  0.81908071469E+02  0.29360695521E+02  0.19387090993E+03  0.17120000000E+03 0.  0.
        998    1    1    2    0    0 -0.15986397394E+01 -0.45946825092E+02  0.13096276031E+04  0.13104724817E+04  0.10000000000E+02 0.  1.
</event>
<event>
 5    1  0.1020718E-008  0.3807052E+03  0.7957747E-01  0.3448094E+00
         13   -1    0    0    0    0  0.00000000000E+00  0.00000000000E+00  0.14999999963E+04  0.15000000000E+04  0.10566000000E+00 0. -1.
        994   -1    0    0    0    0 -0.00000000000E+00 -0.00000000000E+00  0.11368683772E-12  0.17120000000E+03  0.17120000000E+03 0.  0.
         13    1    1    2    0    0  0.49191051449E+01  0.10639355186E+02  0.16188623668E+02  0.19986900072E+02  0.10566000000E+00 0. -1.
        994    1    1    2    0    0 -0.87590650809E+01 -0.15605202881E+02  0.48463616591E+01  0.17220096051E+03  0.17120000000E+03 0.  0.
        998    1    1    2    0    0  0.38399599359E+01  0.49658476953E+01  0.14789650110E+04  0.14790121394E+04  0.10000000000E+02 0. -1.
</event>
<event>
 5    1  0.1020718E-008  0.3695658E+03  0.7957747E-01  0.3497889E+00
         13   -1    0    0    0    0  0.00000000000E+00  0.00000000000E+00  0.14999999963E+04  0.15000000000E+04  0.10566000000E+00 0. -1.
        994   -1    0    0    0    0 -0.00000000000E+00 -0.00000000000E+00  0.11368683772E-12  0.17120000000E+03  0.17120000000E+03 0.  0.
         13    1    1    2    0    0  0.14375137616E+02  0.21218050577E+02  0.29653045862E+02  0.39193935050E+02  0.10566000000E+00 0. -1.
        994    1    1    2    0    0 -0.40504864559E+02 -0.10008570637E+02  0.15548551425E+02  0.17689548607E+03  0.17120000000E+03 0.  0.
        998    1    1    2    0    0  0.26129726943E+02 -0.11209479940E+02  0.14547983990E+04  0.14551105789E+04  0.10000000000E+02 0. -1.
</event>
<event>
 5    1  0.1020718E-008  0.3854974E+03  0.7957747E-01  0.3427565E+00
         13   -1    0    0    0    0  0.00000000000E+00  0.00000000000E+00  0.14999999963E+04  0.15000000000E+04  0.10566000000E+00 0. -1.
        994   -1    0    0    0    0 -0.00000000000E+00 -0.00000000000E+00  0.11368683772E-12  0.17120000000E+03  0.17120000000E+03 0.  0.
         13    1    1    2    0    0  0.10843664782E+02 -0.11816197299E+02  0.90893748406E+02  0.92297845305E+02  0.10566000000E+00 0. -1.
        994    1    1    2    0    0  0.94664105851E+00  0.20017691180E+02  0.27030873304E+01  0.17239011216E+03  0.17120000000E+03 0.  0.
        998    1    1    2    0    0 -0.11790305841E+02 -0.82014938817E+01  0.14064031605E+04  0.14065120425E+04  0.10000000000E+02 0. -1.
</event>
<event>
 5    1  0.1020718E-008  0.3844645E+03  0.7957747E-01  0.3431946E+00
         13   -1    0    0    0    0  0.00000000000E+00  0.00000000000E+00  0.14999999963E+04  0.15000000000E+04  0.10566000000E+00 0.  1.
        994   -1    0    0    0    0 -0.00000000000E+00 -0.00000000000E+00  0.11368683772E-12  0.17120000000E+03  0.17120000000E+03 0.  0.
         13    1    1    2    0    0 -0.13040231843E+02  0.42714992808E+01  0.49946135117E+02  0.51796920080E+02  0.10566000000E+00 0.  1.
        994    1    1    2    0    0  0.64008788106E+01 -0.24868916104E+01  0.20515802598E+01  0.17134994853E+03  0.17120000000E+03 0.  0.
        998    1    1    2    0    0  0.66393530322E+01 -0.17846076704E+01  0.14480022809E+04  0.14480531314E+04  0.10000000000E+02 0.  1.
</event>
<event>
 5    1  0.1020718E-008  0.3839339E+03  0.7957747E-01  0.3434206E+00
         13   -1    0    0    0    0  0.00000000000E+00  0.00000000000E+00  0.14999999963E+04  0.15000000000E+04  0.10566000000E+00 0.  1.
        994   -1    0    0    0    0 -0.00000000000E+00 -0.00000000000E+00  0.11368683772E-12  0.17120000000E+03  0.17120000000E+03 0.  0.
         13    1    1    2    0    0  0.33168800599E+01 -0.28473932620E+02  0.16843475523E+03  0.17085679520E+03  0.10566000000E+00 0.  1.
        994    1    1    2    0    0 -0.10631713935E+02  0.29523639028E+02  0.54166494893E+01  0.17413632216E+03  0.17120000000E+03 0.  0.
        998    1    1    2    0    0  0.73148338750E+01 -0.10497064078E+01  0.13261485916E+04  0.13262068826E+04  0.10000000000E+02 0.  1.
</event>
<event>
 5    1  0.1020718E-008  0.3005481E+03  0.7957747E-01  0.3892114E+00
         13   -1    0    0    0    0  0.00000000000E+00  0.00000000000E+00  0.14999999963E+04  0.15000000000E+04  0.10566000000E+00 0. -1.
        994   -1    0    0    0    0 -0.00000000000E+00 -0.00000000000E+00  0.11368683772E-12  0.17120000000E+03  0.17120000000E+03 0.  0.
         13    1    1    2    0    0  0.23066599279E+03 -0.65802583688E+02  0.10923690264E+04  0.11183947788E+04  0.10566000000E+00 0. -1.
        994    1    1    2    0    0 -0.96931585094E+02 -0.24080264754E+02  0.14916915934E+03  0.24806545394E+03  0.17120000000E+03 0.  0.
        998    1    1    2    0    0 -0.13373440770E+03  0.89882848441E+02  0.25846181057E+03  0.30473976729E+03  0.10000000000E+02 0.  1.
</event>
<event>
 5    1  0.1020718E-008  0.3786849E+03  0.7957747E-01  0.3456905E+00
         13   -1    0    0    0    0  0.00000000000E+00  0.00000000000E+00  0.14999999963E+04  0.15000000000E+04  0.10566000000E+00 0.  1.
        994   -1    0    0    0    0 -0.00000000000E+00 -0.00000000000E+00  0.11368683772E-12  0.17120000000E+03  0.17120000000E+03 0.  0.
         13    1    1    2    0    0  0.38497629366E+02 -0.29112168458E+02  0.24786209530E+03  0.25251775239E+03  0.10566000000E+00 0.  1.
        994    1    1    2    0    0 -0.38288343682E+02 -0.83726544150E+01  0.99732900200E+01  0.17591192432E+03  0.17120000000E+03 0.  0.
        998    1    1    2    0    0 -0.20928568361E+00  0.37484822873E+02  0.12421646110E+04  0.12427703233E+04  0.10000000000E+02 0.  1.
</event>
<event>
 5    1  0.1020718E-008  0.3826193E+03  0.7957747E-01  0.3439832E+00
         13   -1    0    0    0    0  0.00000000000E+00  0.00000000000E+00  0.14999999963E+04  0.15000000000E+04  0.10566000000E+00 0.  1.
        994   -1    0    0    0    0 -0.00000000000E+00 -0.00000000000E+00  0.11368683772E-12  0.17120000000E+03  0.17120000000E+03 0.  0.
         13    1    1    2    0    0 -0.12472656386E+02 -0.84212032251E+01  0.41945929374E+02  0.44564065975E+02  0.10566000000E+00 0.  1.
        994    1    1    2    0    0 -0.19438971111E+01 -0.80065177836E+01  0.30417731465E+01  0.17142513073E+03  0.17120000000E+03 0.  0.
        998    1    1    2    0    0  0.14416553497E+02  0.16427721009E+02  0.14550122938E+04  0.14552108033E+04  0.10000000000E+02 0.  1.
</event>
<event>
 5    1  0.1020718E-008  0.3803595E+03  0.7957747E-01  0.3449595E+00
         13   -1    0    0    0    0  0.00000000000E+00  0.00000000000E+00  0.14999999963E+04  0.15000000000E+04  0.10566000000E+00 0.  1.
        994   -1    0    0    0    0 -0.00000000000E+00 -0.00000000000E+00  0.11368683772E-12  0.17120000000E+03  0.17120000000E+03 0.  0.
         13    1    1    2    0    0  0.45811020843E+02  0.37235977116E+02  0.88489176864E+02  0.10637440110E+03  0.10566000000E+00 0.  1.
        994    1    1    2    0    0 -0.10307674680E+03  0.54347597046E+01  0.56284139640E+02  0.20768171975E+03  0.17120000000E+03 0.  0.
        998    1    1    2    0    0  0.57265725955E+02 -0.42670736821E+02  0.13552266798E+04  0.13571438792E+04  0.10000000000E+02 0.  1.
</event>
<event>
 5    1  0.1020718E-008  0.3858238E+03  0.7957747E-01  0.3426186E+00
         13   -1    0    0    0    0  0.00000000000E+00  0.00000000000E+00  0.14999999963E+04  0.15000000000E+04  0.10566000000E+00 0. -1.
        994   -1    0    0    0    0 -0.00000000000E+00 -0.00000000000E+00  0.11368683772E-12  0.17120000000E+03  0.17120000000E+03 0.  0.
         13    1    1    2    0    0  0.13129096343E+02 -0.23114075167E+01  0.74041473783E+02  0.75232086104E+02  0.10566000000E+00 0. -1.
        994    1    1    2    0    0 -0.85069490373E+01 -0.38917655487E+01  0.15087522812E+01  0.17146203765E+03  0.17120000000E+03 0.  0.
        998    1    1    2    0    0 -0.46221473060E+01  0.62031730654E+01  0.14244497702E+04  0.14245058762E+04  0.10000000000E+02 0. -1.
</event>
<event>
 5    1  0.1020718E-008  0.3799395E+03  0.7957747E-01  0.3451422E+00
         13   -1    0    0    0    0  0.00000000000E+00  0.00000000000E+00  0.14999999963E+04  0.15000000000E+04  0.10566000000E+00 0.  1.
        994   -1    0    0    0    0 -0.00000000000E+00 -0.00000000000E+00  0.11368683772E-12  0.17120000000E+03  0.17120000000E+03 0.  0.
         13    1    1    2    0    0 -0.16632888280E+02  0.81324222548E+00  0.32539933703E+02  0.36553697281E+02  0.10566000000E+00 0.  1.
        994    1    1    2    0    0  0.30422038101E+01  0.90461947264E+01  0.44683141301E+01  0.17152403468E+03  0.17120000000E+03 0.  0.
        998    1    1    2    0    0  0.13590684470E+02 -0.98594369519E+01  0.14629917484E+04  0.14631222680E+04  0.10000000000E+02 0.  1.
</event>
<event>
 5    1  0.1020718E-008  0.2958220E+03  0.7957747E-01  0.3926305E+00
         13   -1    0    0    0    0  0.00000000000E+00  0.00000000000E+00  0.14999999963E+04  0.15000000000E+04  0.10566000000E+00 0.  1.
        994   -1    0    0    0    0 -0.00000000000E+00 -0.00000000000E+00  0.11368683772E-12  0.17120000000E+03  0.17120000000E+03 0.  0.
         13    1    1    2    0    0 -0.60264875018E+02  0.19416446826E+03  0.56899586868E+03  0.60422512827E+03  0.10566000000E+00 0.  1.
        994    1    1    2    0    0  0.54487986829E+02 -0.19336268972E+03  0.18841552271E+03  0.32429603710E+03  0.17120000000E+03 0.  0.
        998    1    1    2    0    0  0.57768881883E+01 -0.80177854413E+00  0.74258860489E+03  0.74267883463E+03  0.10000000000E+02 0.  0.
</event>
<event>
 5    1  0.1020718E-008  0.3778335E+03  0.7957747E-01  0.3460647E+00
         13   -1    0    0    0    0  0.00000000000E+00  0.00000000000E+00  0.14999999963E+04  0.15000000000E+04  0.10566000000E+00 0. -1.
        994   -1    0    0    0    0 -0.00000000000E+00 -0.00000000000E+00  0.11368683772E-12  0.17120000000E+03  0.17120000000E+03 0.  0.
         13    1    1    2    0    0 -0.49890153076E+01  0.99324408991E+01  0.93873882981E+01  0.14549153895E+02  0.10566000000E+00 0. -1.
        994    1    1    2    0    0  0.27730205689E+01 -0.11310897075E+02  0.56876065060E+01  0.17168988003E+03  0.17120000000E+03 0.  0.
        998    1    1    2    0    0  0.22159947387E+01  0.13784561757E+01  0.14849250015E+04  0.14849609661E+04  0.10000000000E+02 0. -1.
</event>
<event>
 5    1  0.1020718E-008  0.3846713E+03  0.7957747E-01  0.3431067E+00
         13   -1    0    0    0    0  0.00000000000E+00  0.00000000000E+00  0.14999999963E+04  0.15000000000E+04  0.10566000000E+00 0.  1.
        994   -1    0    0    0    0 -0.00000000000E+00 -0.00000000000E+00  0.11368683772E-12  0.17120000000E+03  0.17120000000E+03 0.  0.
         13    1    1    2    0    0  0.17667980924E+02 -0.69067088938E+01  0.10323428753E+03  0.10496280038E+03  0.10566000000E+00 0.  1.
        994    1    1    2    0    0 -0.58479942433E+01  0.75070131091E+01  0.20915960007E+01  0.17147702195E+03  0.17120000000E+03 0.  0.
        998    1    1    2    0    0 -0.11819986680E+02 -0.60030421529E+00  0.13946741127E+04  0.13947601777E+04  0.10000000000E+02 0.  1.
</event>
<event>
 5    1  0.1020718E-008  0.3855099E+03  0.7957747E-01  0.3427513E+00
         13   -1    0    0    0    0  0.00000000000E+00  0.00000000000E+00  0.14999999963E+04  0.15000000000E+04  0.10566000000E+00 0. -1.
        994   -1    0    0    0    0 -0.00000000000E+00 -0.00000000000E+00  0.11368683772E-12  0.17120000000E+03  0.17120000000E+03 0.  0.
         13    1    1    2    0    0 -0.11695895481E+01  0.14023935503E+02  0.70486654287E+02  0.71877801186E+02  0.10566000000E+00 0. -1.
        994    1    1    2    0    0 -0.95290975428E+01 -0.13797959416E+02  0.23009449375E+01  0.17203465271E+03  0.17120000000E+03 0.  0.
        998    1    1    2    0    0  0.10698687091E+02 -0.22597608696E+00  0.14272123971E+04  0.14272875461E+04  0.10000000000E+02 0. -1.
</event>
<event>
 5    1  0.1020718E-008  0.3847695E+03  0.7957747E-01  0.3430651E+00
         13   -1    0    0    0    0  0.00000000000E+00  0.00000000000E+00  0.14999999963E+04  0.15000000000E+04  0.10566000000E+00 0. -1.
        994   -1    0    0    0    0 -0.00000000000E+00 -0.00000000000E+00  0.11368683772E-12  0.17120000000E+03  0.17120000000E+03 0.  0.
         13    1    1    2    0    0  0.10241043035E+02 -0.10982695904E+02  0.71083163673E+02  0.72652088019E+02  0.10566000000E+00 0. -1.
        994    1    1    2    0    0  0.66485298967E+01 -0.58389744646E+00  0.18912530043E+01  0.17134048186E+03  0.17120000000E+03 0.  0.
        998    1    1    2    0    0 -0.16889572932E+02  0.11566593351E+02  0.14270255796E+04  0.14272074301E+04  0.10000000000E+02 0. -1.
</event>
<event>
 5    1  0.1020718E-008  0.3737648E+03  0.7957747E-01  0.3478766E+00
         13   -1    0    0    0    0  0.00000000000E+00  0.00000000000E+00  0.14999999963E+04  0.15000000000E+04  0.10566000000E+00 0. -1.
        994   -1    0    0    0    0 -0.00000000000E+00 -0.00000000000E+00  0.11368683772E-12  0.17120000000E+03  0.17120000000E+03 0.  0.
         13    1    1    2    0    0  0.59887934678E+02 -0.15453550976E+02  0.20070091295E+03  0.21001486752E+03  0.10566000000E+00 0. -1.
        994    1    1    2    0    0 -0.86704721082E+02 -0.81292465333E+01  0.33660366472E+02  0.19500321428E+03  0.17120000000E+03 0.  0.
        998    1    1    2    0    0  0.26816786405E+02  0.23582797509E+02  0.12656387169E+04  0.12661819182E+04  0.10000000000E+02 0. -1.
</event>
<event>
 5    1  0.1020718E-008  0.3700869E+03  0.7957747E-01  0.3495491E+00
         13   -1    0    0    0    0  0.00000000000E+00  0.00000000000E+00  0.14999999963E+04  0.15000000000E+04  0.10566000000E+00 0.  1.
        994   -1    0    0    0    0 -0.00000000000E+00 -0.00000000000E+00  0.11368683772E-12  0.17120000000E+03  0.17120000000E+03 0.  0.
         13    1    1    2    0    0 -0.15182591683E+02 -0.30836396620E+02  0.72313299924E+02  0.80066340972E+02  0.10566000000E+00 0.  1.
        994    1    1    2    0    0 -0.54425463452E+02 -0.85227741342E+01  0.19787861563E+02  0.18093028551E+03  0.17120000000E+03 0.  0.
        998    1    1    2    0    0  0.69608055135E+02  0.39359170755E+02  0.14078988348E+04  0.14102033735E+04  0.10000000000E+02 0.  1.
</event>
<event>
 5    1  0.1020718E-008  0.3839035E+03  0.7957747E-01  0.3434336E+00
         13   -1    0    0    0    0  0.00000000000E+00  0.00000000000E+00  0.14999999963E+04  0.15000000000E+04  0.10566000000E+00 0. -1.
        994   -1    0    0    0    0 -0.00000000000E+00 -0.00000000000E+00  0.11368683772E-12  0.17120000000E+03  0.17120000000E+03 0.  0.
         13    1    1    2    0    0 -0.11770197542E+02 -0.16348299345E+02  0.93287280104E+02  0.95437582927E+02  0.10566000000E+00 0. -1.
        994    1    1    2    0    0  0.14732159418E+02  0.42446463351E+01  0.29516794551E+01  0.17191045912E+03  0.17120000000E+03 0.  0.
        998    1    1    2    0    0 -0.29619618765E+01  0.12103653010E+02  0.14037610367E+04  0.14038519580E+04  0.10000000000E+02 0. -1.
</event>
<event>
 5    1  0.1020718E-008  0.2370886E+03  0.7957747E-01  0.4481402E+00
         13   -1    0    0    0    0  0.00000000000E+00  0.00000000000E+00  0.14999999963E+04  0.15000000000E+04  0.10566000000E+00 0.  1.
        994   -1    0    0    0    0 -0.00000000000E+00 -0.00000000000E+00  0.11368683772E-12  0.17120000000E+03  0.17120000000E+03 0.  0.
         13    1    1    2    0    0  0.78081841998E+02 -0.14150248404E+03  0.16304229770E+03  0.22957031394E+03  0.10566000000E+00 0.  1.
        994    1    1    2    0    0 -0.80678225449E+02  0.14653693150E+03  0.22152003934E+03  0.32613281985E+03  0.17120000000E+03 0.  0.
        998    1    1    2    0    0  0.25963834510E+01 -0.50344474620E+01  0.11154376592E+04  0.11154968662E+04  0.10000000000E+02 0. -1.
</event>
<event>
 5    1  0.1020718E-008  0.3853364E+03  0.7957747E-01  0.3428247E+00
         13   -1    0    0    0    0  0.00000000000E+00  0.00000000000E+00  0.14999999963E+04  0.15000000000E+04  0.10566000000E+00 0. -1.
        994   -1    0    0    0    0 -0.00000000000E+00 -0.00000000000E+00  0.11368683772E-12  0.17120000000E+03  0.17120000000E+03 0.  0.
         13    1    1    2    0    0  0.12705089807E+02  0.73441741852E+01  0.76922459947E+02  0.78309847463E+02  0.10566000000E+00 0. -1.
        994    1    1    2    0    0 -0.14573692829E+01 -0.55740648294E+01  0.15722903116E+01  0.17130413369E+03  0.17120000000E+03 0.  0.
        998    1    1    2    0    0 -0.11247720524E+02 -0.17701093559E+01  0.14215052460E+04  0.14215860188E+04  0.10000000000E+02 0. -1.
</event>
<event>
 5    1  0.1020718E-008  0.3795416E+03  0.7957747E-01  0.3453157E+00
         13   -1    0    0    0    0  0.00000000000E+00  0.00000000000E+00  0.14999999963E+04  0.15000000000E+04  0.10566000000E+00 0. -1.
        994   -1    0    0    0    0 -0.00000000000E+00 -0.00000000000E+00  0.11368683772E-12  0.17120000000E+03  0.17120000000E+03 0.  0.
         13    1    1    2    0    0  0.94317515999E+01 -0.38137151217E+01  0.10016370985E+02  0.14277297118E+02  0.10566000000E+00 0. -1.
        994    1    1    2    0    0 -0.59887382571E+01 -0.71092166447E+01  0.46540599388E+01  0.17151532358E+03  0.17120000000E+03 0.  0.
        998    1    1    2    0    0 -0.34430133428E+01  0.10922931766E+02  0.14853295654E+04  0.14854073793E+04  0.10000000000E+02 0. -1.
</event>
<event>
 5    1  0.1020718E-008  0.3829289E+03  0.7957747E-01  0.3438504E+00
         13   -1    0    0    0    0  0.00000000000E+00  0.00000000000E+00  0.14999999963E+04  0.15000000000E+04  0.10566000000E+00 0.  1.
        994   -1    0    0    0    0 -0.00000000000E+00 -0.00000000000E+00  0.11368683772E-12  0.17120000000E+03  0.17120000000E+03 0.  0.
         13    1    1    2    0    0 -0.63860172150E+01 -0.16112570047E+02  0.55525138564E+02  0.58167416188E+02  0.10566000000E+00 0.  1.
        994    1    1    2    0    0  0.56111861846E+01  0.10389041555E+02  0.31236561896E+01  0.17163512118E+03  0.17120000000E+03 0.  0.
        998    1    1    2    0    0  0.77483103043E+00  0.57235284923E+01  0.14413512015E+04  0.14413974626E+04  0.10000000000E+02 0.  1.
</event>
<event>
 5    1  0.1020718E-008  0.3853493E+03  0.7957747E-01  0.3428192E+00
         13   -1    0    0    0    0  0.00000000000E+00  0.00000000000E+00  0.14999999963E+04  0.15000000000E+04  0.10566000000E+00 0.  1.
        994   -1    0    0    0    0 -0.00000000000E+00 -0.00000000000E+00  0.11368683772E-12  0.17120000000E+03  0.17120000000E+03 0.  0.
         13    1    1    2    0    0 -0.43774463818E+01  0.10311699302E+02  0.46103216967E+02  0.47444820139E+02  0.10566000000E+00 0.  1.
        994    1    1    2    0    0 -0.51796758079E+01  0.21909259773E+01  0.15607428120E+01  0.17129946035E+03  0.17120000000E+03 0.  0.
        998    1    1    2    0    0  0.95571221897E+01 -0.12502625279E+02  0.14523360365E+04  0.14524557195E+04  0.10000000000E+02 0.  1.
</event>
<event>
 5    1  0.1020718E-008  0.3836330E+03  0.7957747E-01  0.3435491E+00
         13   -1    0    0    0    0  0.00000000000E+00  0.00000000000E+00  0.14999999963E+04  0.15000000000E+04  0.10566000000E+00 0.  1.
        994   -1    0    0    0    0 -0.00000000000E+00 -0.00000000000E+00  0.11368683772E-12  0.17120000000E+03  0.17120000000E+03 0.  0.
         13    1    1    2    0    0  0.25921484846E+02 -0.23978611369E+01  0.14722729372E+03  0.14951107081E+03  0.10566000000E+00 0.  1.
        994    1    1    2    0    0 -0.14936868356E+02 -0.14663751468E+01  0.30548212073E+01  0.17188377534E+03  0.17120000000E+03 0.  0.
        998    1    1    2    0    0 -0.10984616490E+02  0.38642362837E+01  0.13497178813E+04  0.13498051538E+04  0.10000000000E+02 0.  1.
</event>
<event>
 5    1  0.1020718E-008  0.3689606E+03  0.7957747E-01  0.3500681E+00
         13   -1    0    0    0    0  0.00000000000E+00  0.00000000000E+00  0.14999999963E+04  0.15000000000E+04  0.10566000000E+00 0.  1.
        994   -1    0    0    0    0 -0.00000000000E+00 -0.00000000000E+00  0.11368683772E-12  0.17120000000E+03  0.17120000000E+03 0.  0.
         13    1    1    2    0    0  0.64619480003E+01  0.48617672792E+02  0.17507438616E+03  0.18181442938E+03  0.10566000000E+00 0.  1.
        994    1    1    2    0    0  0.15969264546E+02  0.59176758797E+02  0.23593630610E+02  0.18336576997E+03  0.17120000000E+03 0.  0.
        998    1    1    2    0    0 -0.22431212546E+02 -0.10779443159E+03  0.13013319795E+04  0.13060198006E+04  0.10000000000E+02 0.  1.
</event>
<event>
 5    1  0.1020718E-008  0.3799252E+03  0.7957747E-01  0.3451484E+00
         13   -1    0    0    0    0  0.00000000000E+00  0.00000000000E+00  0.14999999963E+04  0.15000000000E+04  0.10566000000E+00 0. -1.
        994   -1    0    0    0    0 -0.00000000000E+00 -0.00000000000E+00  0.11368683772E-12  0.17120000000E+03  0.17120000000E+03 0.  0.
         13    1    1    2    0    0  0.29474778680E+01  0.17996561718E+02  0.39155399677E+02  0.43193985083E+02  0.10566000000E+00 0. -1.
        994    1    1    2    0    0 -0.15439632513E+01 -0.51688338237E+01  0.42682076017E+01  0.17133814013E+03  0.17120000000E+03 0.  0.
        998    1    1    2    0    0 -0.14035146166E+01 -0.12827727895E+02  0.14565763890E+04  0.14566678748E+04  0.10000000000E+02 0. -1.
</event>
<event>
 5    1  0.1020718E-008  0.3546580E+03  0.7957747E-01  0.3569515E+00
         13   -1    0    0    0    0  0.00000000000E+00  0.00000000000E+00  0.14999999963E+04  0.15000000000E+04  0.10566000000E+00 0. -1.
        994   -1    0    0    0    0 -0.00000000000E+00 -0.00000000000E+00  0.11368683772E-12  0.17120000000E+03  0.17120000000E+03 0.  0.
         13    1    1    2    0    0  0.27222154794E+03 -0.63914900909E+02  0.85660669385E+03  0.90109085271E+03  0.10566000000E+00 0. -1.
        994    1    1    2    0    0 -0.26557861867E+03  0.75031664685E+02  0.35457217936E+03  0.48082494088E+03  0.17120000000E+03 0.  0.
        998    1    1    2    0    0 -0.66429292630E+01 -0.11116763776E+02  0.28882112307E+03  0.28928420641E+03  0.10000000000E+02 0.  0.
</event>
<event>
 5    1  0.1020718E-008  0.3754208E+03  0.7957747E-01  0.3471343E+00
         13   -1    0    0    0    0  0.00000000000E+00  0.00000000000E+00  0.14999999963E+04  0.15000000000E+04  0.10566000000E+00 0. -1.
        994   -1    0    0    0    0 -0.00000000000E+00 -0.00000000000E+00  0.11368683772E-12  0.17120000000E+03  0.17120000000E+03 0.  0.
         13    1    1    2    0    0 -0.21013973906E+02 -0.13132866867E+01  0.34253640819E+02  0.40207398506E+02  0.10566000000E+00 0. -1.
        994    1    1    2    0    0 -0.13929371459E+02 -0.14102510643E+01  0.71284373490E+01  0.17191937301E+03  0.17120000000E+03 0.  0.
        998    1    1    2    0    0  0.34943345365E+02  0.27235377510E+01  0.14586179181E+04  0.14590732285E+04  0.10000000000E+02 0. -1.
</event>
<event>
 5    1  0.1020718E-008  0.3785658E+03  0.7957747E-01  0.3457427E+00
         13   -1    0    0    0    0  0.00000000000E+00  0.00000000000E+00  0.14999999963E+04  0.15000000000E+04  0.10566000000E+00 0. -1.
        994   -1    0    0    0    0 -0.00000000000E+00 -0.00000000000E+00  0.11368683772E-12  0.17120000000E+03  0.17120000000E+03 0.  0.
         13    1    1    2    0    0 -0.24427897165E+02  0.16914678332E+02  0.87639973841E+02  0.92539746498E+02  0.10566000000E+00 0. -1.
        994    1    1    2    0    0  0.13462175032E+02 -0.19250648467E+02  0.67145560151E+01  0.17293450461E+03  0.17120000000E+03 0.  0.
        998    1    1    2    0    0  0.10965722133E+02  0.23359701357E+01  0.14056454664E+04  0.14057257489E+04  0.10000000000E+02 0. -1.
</event>
<event>
 5    1  0.1020718E-008  0.3695558E+03  0.7957747E-01  0.3497935E+00
         13   -1    0    0    0    0  0.00000000000E+00  0.00000000000E+00  0.14999999963E+04  0.15000000000E+04  0.10566000000E+00 0.  1.
        994   -1    0    0    0    0 -0.00000000000E+00 -0.00000000000E+00  0.11368683772E-12  0.17120000000E+03  0.17120000000E+03 0.  0.
         13    1    1    2    0    0 -0.97315679333E+01 -0.57066921737E+02  0.15361796486E+03  0.16416402548E+03  0.10566000000E+00 0.  1.
        994    1    1    2    0    0  0.10547405187E+02  0.60517436646E+02  0.22685245210E+02  0.18329666730E+03  0.17120000000E+03 0.  0.
        998    1    1    2    0    0 -0.81583725395E+00 -0.34505149090E+01  0.13236967862E+04  0.13237393072E+04  0.10000000000E+02 0.  1.
</event>
<event>
 5    1  0.1192714E-008  0.3865028E+03  0.7957747E-01  0.3423323E+00
         13   -1    0    0    0    0  0.00000000000E+00  0.00000000000E+00  0.14999999963E+04  0.15000000000E+04  0.10566000000E+00 0.  1.
        994   -1    0    0    0    0 -0.00000000000E+00 -0.00000000000E+00  0.11368683772E-12  0.17120000000E+03  0.17120000000E+03 0.  0.
         13    1    1    2    0    0  0.47446178643E+01  0.98234094937E+01  0.65860413783E+02  0.66757891223E+02  0.10566000000E+00 0.  1.
        994    1    1    2    0    0 -0.96222794630E+01 -0.88721653059E+01  0.14466592002E+01  0.17170566794E+03  0.17120000000E+03 0.  0.
        998    1    1    2    0    0  0.48776615987E+01 -0.95124418780E+00  0.14326929233E+04  0.14327364408E+04  0.10000000000E+02 0.  1.
</event>
<event>
 5    1  0.1020718E-008  0.3965018E+03  0.7957747E-01  0.3382310E+00
         13   -1    0    0    0    0  0.00000000000E+00  0.00000000000E+00  0.14999999963E+04  0.15000000000E+04  0.10566000000E+00 0. -1.
        994   -1    0    0    0    0 -0.00000000000E+00 -0.00000000000E+00  0.11368683772E-12  0.17120000000E+03  0.17120000000E+03 0.  0.
         13    1    1    2    0    0  0.12476321194E+03  0.18840410160E+02  0.47954001547E+03  0.49586233746E+03  0.10566000000E+00 0. -1.
        994    1    1    2    0    0 -0.34353426409E+01 -0.72713460581E+01  0.25955612851E+02  0.17334303531E+03  0.17120000000E+03 0.  0.
        998    1    1    2    0    0 -0.12132786930E+03 -0.11569064102E+02  0.99450436796E+03  0.10019946272E+04  0.10000000000E+02 0. -1.
</event>
<event>
 5    1  0.1020718E-008  0.3829578E+03  0.7957747E-01  0.3438380E+00
         13   -1    0    0    0    0  0.00000000000E+00  0.00000000000E+00  0.14999999963E+04  0.15000000000E+04  0.10566000000E+00 0.  1.
        994   -1    0    0    0    0 -0.00000000000E+00 -0.00000000000E+00  0.11368683772E-12  0.17120000000E+03  0.17120000000E+03 0.  0.
         13    1    1    2    0    0  0.97501268561E+01 -0.78382287062E+01  0.28128097125E+02  0.30784798438E+02  0.10566000000E+00 0.  1.
        994    1    1    2    0    0 -0.12060515974E+02  0.69679676025E+01  0.32900037232E+01  0.17179718491E+03  0.17120000000E+03 0.  0.
        998    1    1    2    0    0  0.23103891183E+01  0.87026110370E+00  0.14685818954E+04  0.14686180167E+04  0.10000000000E+02 0.  1.
</event>
<event>
 5    1  0.1020718E-008  0.3821628E+03  0.7957747E-01  0.3441795E+00
         13   -1    0    0    0    0  0.00000000000E+00  0.00000000000E+00  0.14999999963E+04  0.15000000000E+04  0.10566000000E+00 0.  1.
        994   -1    0    0    0    0 -0.00000000000E+00 -0.00000000000E+00  0.11368683772E-12  0.17120000000E+03  0.17120000000E+03 0.  0.
         13    1    1    2    0    0 -0.27093214938E+02  0.25285817930E+02  0.18937360762E+03  0.19296577238E+03  0.10566000000E+00 0.  1.
        994    1    1    2    0    0  0.33350100955E+02 -0.26995444602E+02  0.91801527669E+01  0.17673341073E+03  0.17120000000E+03 0.  0.
        998    1    1    2    0    0 -0.62568860173E+01  0.17096266724E+01  0.13014462359E+04  0.13015008169E+04  0.10000000000E+02 0.  1.
</event>
<event>
 5    1  0.1020718E-008  0.3837065E+03  0.7957747E-01  0.3435177E+00
         13   -1    0    0    0    0  0.00000000000E+00  0.00000000000E+00  0.14999999963E+04  0.15000000000E+04  0.10566000000E+00 0. -1.
        994   -1    0    0    0    0 -0.00000000000E+00 -0.00000000000E+00  0.11368683772E-12  0.17120000000E+03  0.17120000000E+03 0.  0.
         13    1    1    2    0    0  0.21672111204E+02  0.98245360311E+01  0.11389204785E+03  0.11635124253E+03  0.10566000000E+00 0. -1.
        994    1    1    2    0    0 -0.22309516122E+02 -0.15274065843E+02  0.46915816434E+01  0.17338530081E+03  0.17120000000E+03 0.  0.
        998    1    1    2    0    0  0.63740491765E+00  0.54495298124E+01  0.13814163668E+04  0.13814634567E+04  0.10000000000E+02 0. -1.
</event>
<event>
 5    1  0.1020718E-008  0.3842323E+03  0.7957747E-01  0.3432935E+00
         13   -1    0    0    0    0  0.00000000000E+00  0.00000000000E+00  0.14999999963E+04  0.15000000000E+04  0.10566000000E+00 0. -1.
        994   -1    0    0    0    0 -0.00000000000E+00 -0.00000000000E+00  0.11368683772E-12  0.17120000000E+03  0.17120000000E+03 0.  0.
         13    1    1    2    0    0 -0.13035839072E+02  0.48963010489E+01  0.48120401130E+02  0.50094820423E+02  0.10566000000E+00 0. -1.
        994    1    1    2    0    0  0.62438423015E+01 -0.59843864444E+01  0.22584170472E+01  0.17143319076E+03  0.17120000000E+03 0.  0.
        998    1    1    2    0    0  0.67919967705E+01  0.10880853955E+01  0.14496211781E+04  0.14496719888E+04  0.10000000000E+02 0. -1.
</event>
<event>
 5    1  0.1020718E-008  0.3787916E+03  0.7957747E-01  0.3456437E+00
         13   -1    0    0    0    0  0.00000000000E+00  0.00000000000E+00  0.14999999963E+04  0.15000000000E+04  0.10566000000E+00 0. -1.
        994   -1    0    0    0    0 -0.00000000000E+00 -0.00000000000E+00  0.11368683772E-12  0.17120000000E+03  0.17120000000E+03 0.  0.
         13    1    1    2    0    0  0.11070891554E+02 -0.75284597989E+01  0.16856908705E+02  0.21526933871E+02  0.10566000000E+00 0. -1.
        994    1    1    2    0    0 -0.10849453735E+02  0.76496689711E+00  0.51415171009E+01  0.17162217520E+03  0.17120000000E+03 0.  0.
        998    1    1    2    0    0 -0.22143781952E+00  0.67634929018E+01  0.14780015705E+04  0.14780508909E+04  0.10000000000E+02 0. -1.
</event>
<event>
 5    1  0.1020718E-008  0.3824768E+03  0.7957747E-01  0.3440444E+00
         13   -1    0    0    0    0  0.00000000000E+00  0.00000000000E+00  0.14999999963E+04  0.15000000000E+04  0.10566000000E+00 0.  1.
        994   -1    0    0    0    0 -0.00000000000E+00 -0.00000000000E+00  0.11368683772E-12  0.17120000000E+03  0.17120000000E+03 0.  0.
         13    1    1    2    0    0 -0.11219285593E+02 -0.17767646260E+02  0.70730208877E+02  0.73785738694E+02  0.10566000000E+00 0.  1.
        994    1    1    2    0    0  0.19158915199E+02  0.19158284515E+02  0.53259957920E+01  0.17341254317E+03  0.17120000000E+03 0.  0.
        998    1    1    2    0    0 -0.79396296056E+01 -0.13906382549E+01  0.14239437916E+04  0.14240017181E+04  0.10000000000E+02 0.  1.
</event>
<event>
 5    1  0.1020718E-008  0.3705557E+03  0.7957747E-01  0.3493341E+00
         13   -1    0    0    0    0  0.00000000000E+00  0.00000000000E+00  0.14999999963E+04  0.15000000000E+04  0.10566000000E+00 0.  1.
        994   -1    0    0    0    0 -0.00000000000E+00 -0.00000000000E+00  0.11368683772E-12  0.17120000000E+03  0.17120000000E+03 0.  0.
         13    1    1    2    0    0  0.14125143202E+02  0.45015730522E+01  0.83071497333E+01  0.16994226406E+02  0.10566000000E+00 0.  1.
        994    1    1    2    0    0 -0.65459072184E+01  0.39562479031E+01  0.91808125170E+01  0.17161651470E+03  0.17120000000E+03 0.  0.
        998    1    1    2    0    0 -0.75792359832E+01 -0.84578209553E+01  0.14825120340E+04  0.14825892589E+04  0.10000000000E+02 0.  1.
</event>
<event>
 5    1  0.1020718E-008  0.3826654E+03  0.7957747E-01  0.3439634E+00
         13   -1    0    0    0    0  0.00000000000E+00  0.00000000000E+00  0.14999999963E+04  0.15000000000E+04  0.10566000000E+00 0.  1.
        994   -1    0    0    0    0 -0.00000000000E+00 -0.00000000000E+00  0.11368683772E-12  0.17120000000E+03  0.17120000000E+03 0.  0.
         13    1    1    2    0    0  0.12929806287E+02  0.28329867128E+02  0.14579627563E+03  0.14908496374E+03  0.10566000000E+00 0.  1.
        994    1    1    2    0    0 -0.63533687894E+01 -0.43382335725E+02  0.91902593878E+01  0.17696410149E+03  0.17120000000E+03 0.  0.
        998    1    1    2    0    0 -0.65764374976E+01  0.15052468598E+02  0.13450134613E+04  0.13451509348E+04  0.10000000000E+02 0.  1.
</event>
<event>
 5    1  0.1020718E-008  0.3813476E+03  0.7957747E-01  0.3445312E+00
         13   -1    0    0    0    0  0.00000000000E+00  0.00000000000E+00  0.14999999963E+04  0.15000000000E+04  0.10566000000E+00 0. -1.
        994   -1    0    0    0    0 -0.00000000000E+00 -0.00000000000E+00  0.11368683772E-12  0.17120000000E+03  0.17120000000E+03 0.  0.
         13    1    1    2    0    0 -0.10349847351E+03 -0.63073515251E+02  0.33137657166E+03  0.35284649035E+03  0.10566000000E+00 0. -1.
        994    1    1    2    0    0  0.97662724394E+02  0.64667298637E+02  0.68915216544E+02  0.21858319771E+03  0.17120000000E+03 0.  0.
        998    1    1    2    0    0  0.58357491203E+01 -0.15937833859E+01  0.10997082081E+04  0.10997703119E+04  0.10000000000E+02 0.  0.
</event>
<event>
 5    1  0.1020718E-008  0.3857254E+03  0.7957747E-01  0.3426601E+00
         13   -1    0    0    0    0  0.00000000000E+00  0.00000000000E+00  0.14999999963E+04  0.15000000000E+04  0.10566000000E+00 0. -1.
        994   -1    0    0    0    0 -0.00000000000E+00 -0.00000000000E+00  0.11368683772E-12  0.17120000000E+03  0.17120000000E+03 0.  0.
         13    1    1    2    0    0 -0.76770818420E+01 -0.65558864663E+01  0.39310488312E+02  0.40586240135E+02  0.10566000000E+00 0. -1.
        994    1    1    2    0    0  0.12242290302E+02  0.35346406074E+01  0.18033111526E+01  0.17168301980E+03  0.17120000000E+03 0.  0.
        998    1    1    2    0    0 -0.45652084602E+01  0.30212458588E+01  0.14588861968E+04  0.14589307401E+04  0.10000000000E+02 0. -1.
</event>
<event>
 5    1  0.1020718E-008  0.3803534E+03  0.7957747E-01  0.3449621E+00
         13   -1    0    0    0    0  0.00000000000E+00  0.00000000000E+00  0.14999999963E+04  0.15000000000E+04  0.10566000000E+00 0.  1.
        994   -1    0    0    0    0 -0.00000000000E+00 -0.00000000000E+00  0.11368683772E-12  0.17120000000E+03  0.17120000000E+03 0.  0.
         13    1    1    2    0    0 -0.13039131256E+02 -0.19693377830E+00  0.19669779932E+02  0.23600193504E+02  0.10566000000E+00 0.  1.
        994    1    1    2    0    0  0.12667217679E+02  0.17789142131E+01  0.45013924298E+01  0.17173620898E+03  0.17120000000E+03 0.  0.
        998    1    1    2    0    0  0.37191357683E+00 -0.15819804348E+01  0.14758288239E+04  0.14758635975E+04  0.10000000000E+02 0.  1.
</event>
<event>
 5    1  0.1020718E-008  0.3746696E+03  0.7957747E-01  0.3474702E+00
         13   -1    0    0    0    0  0.00000000000E+00  0.00000000000E+00  0.14999999963E+04  0.15000000000E+04  0.10566000000E+00 0.  1.
        994   -1    0    0    0    0 -0.00000000000E+00 -0.00000000000E+00  0.11368683772E-12  0.17120000000E+03  0.17120000000E+03 0.  0.
         13    1    1    2    0    0  0.12647262773E+02  0.79441138376E+01  0.13284212000E+02  0.19988588064E+02  0.10566000000E+00 0.  1.
        994    1    1    2    0    0 -0.87191532437E+01 -0.49092726215E+01  0.71892926383E+01  0.17164279921E+03  0.17120000000E+03 0.  0.
        998    1    1    2    0    0 -0.39281095294E+01 -0.30348412161E+01  0.14795264916E+04  0.14795686127E+04  0.10000000000E+02 0.  1.
</event>
<event>
 5    1  0.1020718E-008  0.3825677E+03  0.7957747E-01  0.3440054E+00
         13   -1    0    0    0    0  0.00000000000E+00  0.00000000000E+00  0.14999999963E+04  0.15000000000E+04  0.10566000000E+00 0. -1.
        994   -1    0    0    0    0 -0.00000000000E+00 -0.00000000000E+00  0.11368683772E-12  0.17120000000E+03  0.17120000000E+03 0.  0.
         13    1    1    2    0    0 -0.25384038039E+02 -0.12478262030E+02  0.13572925720E+03  0.13864522652E+03  0.10566000000E+00 0. -1.
        994    1    1    2    0    0  0.24832590352E+02 -0.20074077110E+01  0.49027489587E+01  0.17307271355E+03  0.17120000000E+03 0.  0.
        998    1    1    2    0    0  0.55144768637E+00  0.14485669741E+02  0.13593679901E+04  0.13594820599E+04  0.10000000000E+02 0. -1.
</event>
<event>
 5    1  0.1020718E-008  0.3802351E+03  0.7957747E-01  0.3450136E+00
         13   -1    0    0    0    0  0.00000000000E+00  0.00000000000E+00  0.14999999963E+04  0.15000000000E+04  0.10566000000E+00 0.  1.
        994   -1    0    0    0    0 -0.00000000000E+00 -0.00000000000E+00  0.11368683772E-12  0.17120000000E+03  0.17120000000E+03 0.  0.
         13    1    1    2    0    0 -0.48352133136E+02 -0.98506988775E+01  0.23009152780E+03  0.23532336768E+03  0.10566000000E+00 0.  1.
        994    1    1    2    0    0  0.62493401556E+02  0.10211491189E+02  0.17526440650E+02  0.18337479628E+03  0.17120000000E+03 0.  0.
        998    1    1    2    0    0 -0.14141268420E+02 -0.36079231134E+00  0.12523820278E+04  0.12525018360E+04  0.10000000000E+02 0.  1.
</event>
<event>
 5    1  0.1020718E-008  0.3827179E+03  0.7957747E-01  0.3439409E+00
         13   -1    0    0    0    0  0.00000000000E+00  0.00000000000E+00  0.14999999963E+04  0.15000000000E+04  0.10566000000E+00 0.  1.
        994   -1    0    0    0    0 -0.00000000000E+00 -0.00000000000E+00  0.11368683772E-12  0.17120000000E+03  0.17120000000E+03 0.  0.
         13    1    1    2    0    0  0.20723707991E+02  0.13148927849E+02  0.11408298218E+03  0.11669320615E+03  0.10566000000E+00 0.  1.
        994    1    1    2    0    0 -0.10640238778E+02  0.39407357271E+01  0.31940660343E+01  0.17160532083E+03  0.17120000000E+03 0.  0.
        998    1    1    2    0    0 -0.10083469213E+02 -0.17089663576E+02  0.13827229481E+04  0.13829014730E+04  0.10000000000E+02 0.  1.
</event>
<event>
 5    1  0.1020718E-008  0.3816531E+03  0.7957747E-01  0.3443992E+00
         13   -1    0    0    0    0  0.00000000000E+00  0.00000000000E+00  0.14999999963E+04  0.15000000000E+04  0.10566000000E+00 0. -1.
        994   -1    0    0    0    0 -0.00000000000E+00 -0.00000000000E+00  0.11368683772E-12  0.17120000000E+03  0.17120000000E+03 0.  0.
         13    1    1    2    0    0  0.25340756037E+02  0.28300922112E+02  0.21126682557E+03  0.21465502291E+03  0.10566000000E+00 0. -1.
        994    1    1    2    0    0 -0.25604428749E+02 -0.11463102328E+02  0.59219641692E+01  0.17358427102E+03  0.17120000000E+03 0.  0.
        998    1    1    2    0    0  0.26367271259E+00 -0.16837819785E+02  0.12828112065E+04  0.12829607061E+04  0.10000000000E+02 0. -1.
</event>
<event>
 5    1  0.1020718E-008  0.3733809E+03  0.7957747E-01  0.3480496E+00
         13   -1    0    0    0    0  0.00000000000E+00  0.00000000000E+00  0.14999999963E+04  0.15000000000E+04  0.10566000000E+00 0.  1.
        994   -1    0    0    0    0 -0.00000000000E+00 -0.00000000000E+00  0.11368683772E-12  0.17120000000E+03  0.17120000000E+03 0.  0.
         13    1    1    2    0    0 -0.32536094958E+02 -0.81740823620E+01  0.75387172236E+02  0.82514544168E+02  0.10566000000E+00 0.  1.
        994    1    1    2    0    0  0.45800966699E+01  0.18720347306E+02  0.87830200996E+01  0.17250510175E+03  0.17120000000E+03 0.  0.
        998    1    1    2    0    0  0.27955998288E+02 -0.10546264944E+02  0.14158298039E+04  0.14161803541E+04  0.10000000000E+02 0.  1.
</event>
<event>
 5    1  0.1020718E-008  0.3692954E+03  0.7957747E-01  0.3499135E+00
         13   -1    0    0    0    0  0.00000000000E+00  0.00000000000E+00  0.14999999963E+04  0.15000000000E+04  0.10566000000E+00 0.  1.
        994   -1    0    0    0    0 -0.00000000000E+00 -0.00000000000E+00  0.11368683772E-12  0.17120000000E+03  0.17120000000E+03 0.  0.
         13    1    1    2    0    0 -0.64345269131E+01  0.16792883776E+02  0.12584591391E+02  0.21949651174E+02  0.10566000000E+00 0.  1.
        994    1    1    2    0    0  0.19374131544E+01 -0.11512664835E+02  0.10110366606E+02  0.17189518473E+03  0.17120000000E+03 0.  0.
        998    1    1    2    0    0  0.44971137587E+01 -0.52802189418E+01  0.14773050383E+04  0.14773551641E+04  0.10000000000E+02 0.  1.
</event>
<event>
 5    1  0.1020718E-008  0.4473696E+03  0.7957747E-01  0.3201751E+00
         13   -1    0    0    0    0  0.00000000000E+00  0.00000000000E+00  0.14999999963E+04  0.15000000000E+04  0.10566000000E+00 0.  1.
        994   -1    0    0    0    0 -0.00000000000E+00 -0.00000000000E+00  0.11368683772E-12  0.17120000000E+03  0.17120000000E+03 0.  0.
         13    1    1    2    0    0 -0.77836450465E+02 -0.12289332004E+02  0.30228531726E+02  0.84399739315E+02  0.10566000000E+00 0.  1.
        994    1    1    2    0    0  0.92657902718E+02  0.14726584876E+02  0.10454217443E+03  0.22145172267E+03  0.17120000000E+03 0.  0.
        998    1    1    2    0    0 -0.14821452253E+02 -0.24372528718E+01  0.13652292901E+04  0.13653485380E+04  0.10000000000E+02 0.  1.
</event>
<event>
 5    1  0.1020718E-008  0.3810674E+03  0.7957747E-01  0.3446524E+00
         13   -1    0    0    0    0  0.00000000000E+00  0.00000000000E+00  0.14999999963E+04  0.15000000000E+04  0.10566000000E+00 0.  1.
        994   -1    0    0    0    0 -0.00000000000E+00 -0.00000000000E+00  0.11368683772E-12  0.17120000000E+03  0.17120000000E+03 0.  0.
         13    1    1    2    0    0  0.99562109687E+01 -0.53037928328E+01  0.16185161149E+02  0.19728835767E+02  0.10566000000E+00 0.  1.
        994    1    1    2    0    0 -0.62068093547E+01  0.58315069807E+01  0.38369365914E+01  0.17145463843E+03  0.17120000000E+03 0.  0.
        998    1    1    2    0    0 -0.37494016140E+01 -0.52771414793E+00  0.14799778985E+04  0.14800165258E+04  0.10000000000E+02 0.  1.
</event>
<event>
 5    1  0.1020718E-008  0.3355229E+03  0.7957747E-01  0.3671081E+00
         13   -1    0    0    0    0  0.00000000000E+00  0.00000000000E+00  0.14999999963E+04  0.15000000000E+04  0.10566000000E+00 0.  1.
        994   -1    0    0    0    0 -0.00000000000E+00 -0.00000000000E+00  0.11368683772E-12  0.17120000000E+03  0.17120000000E+03 0.  0.
         13    1    1    2    0    0  0.14085576465E+02 -0.25228928762E+03  0.74400303004E+03  0.78574092930E+03  0.10566000000E+00 0.  1.
        994    1    1    2    0    0 -0.17165938564E+02  0.25901132639E+03  0.30928896304E+03  0.43857797402E+03  0.17120000000E+03 0.  0.
        998    1    1    2    0    0  0.30803620991E+01 -0.67220387620E+01  0.44670800320E+03  0.44688109667E+03  0.10000000000E+02 0.  1.
</event>
<event>
 5    1  0.1020718E-008  0.3746466E+03  0.7957747E-01  0.3474805E+00
         13   -1    0    0    0    0  0.00000000000E+00  0.00000000000E+00  0.14999999963E+04  0.15000000000E+04  0.10566000000E+00 0.  1.
        994   -1    0    0    0    0 -0.00000000000E+00 -0.00000000000E+00  0.11368683772E-12  0.17120000000E+03  0.17120000000E+03 0.  0.
         13    1    1    2    0    0  0.24965409251E+02 -0.14153844194E+01  0.43225942471E+02  0.49937643503E+02  0.10566000000E+00 0.  1.
        994    1    1    2    0    0 -0.14956754886E+02 -0.21808376950E+02  0.92439144437E+01  0.17347679896E+03  0.17120000000E+03 0.  0.
        998    1    1    2    0    0 -0.10008654365E+02  0.23223761370E+02  0.14475301394E+04  0.14477855575E+04  0.10000000000E+02 0.  1.
</event>
<event>
 5    1  0.1020718E-008  0.3812580E+03  0.7957747E-01  0.3445699E+00
         13   -1    0    0    0    0  0.00000000000E+00  0.00000000000E+00  0.14999999963E+04  0.15000000000E+04  0.10566000000E+00 0. -1.
        994   -1    0    0    0    0 -0.00000000000E+00 -0.00000000000E+00  0.11368683772E-12  0.17120000000E+03  0.17120000000E+03 0.  0.
         13    1    1    2    0    0  0.14390065420E+02  0.10073308154E+02  0.42044349830E+02  0.45566259849E+02  0.10566000000E+00 0. -1.
        994    1    1    2    0    0 -0.11549528988E+02 -0.12294161448E+02  0.44472561176E+01  0.17208647859E+03  0.17120000000E+03 0.  0.
        998    1    1    2    0    0 -0.28405364324E+01  0.22208532941E+01  0.14535083903E+04  0.14535472616E+04  0.10000000000E+02 0. -1.
</event>
<event>
 5    1  0.1020718E-008  0.3842615E+03  0.7957747E-01  0.3432810E+00
         13   -1    0    0    0    0  0.00000000000E+00  0.00000000000E+00  0.14999999963E+04  0.15000000000E+04  0.10566000000E+00 0.  1.
        994   -1    0    0    0    0 -0.00000000000E+00 -0.00000000000E+00  0.11368683772E-12  0.17120000000E+03  0.17120000000E+03 0.  0.
         13    1    1    2    0    0  0.39041255556E+01  0.22431578342E+02  0.12146723071E+03  0.12358283539E+03  0.10566000000E+00 0.  1.
        994    1    1    2    0    0  0.35192427394E+01 -0.23230968364E+02  0.38192587014E+01  0.17284701241E+03  0.17120000000E+03 0.  0.
        998    1    1    2    0    0 -0.74233682950E+01  0.79939002266E+00  0.13747135069E+04  0.13747701522E+04  0.10000000000E+02 0.  1.
</event>
<event>
 5    1  0.1020718E-008  0.3759742E+03  0.7957747E-01  0.3468877E+00
         13   -1    0    0    0    0  0.00000000000E+00  0.00000000000E+00  0.14999999963E+04  0.15000000000E+04  0.10566000000E+00 0. -1.
        994   -1    0    0    0    0 -0.00000000000E+00 -0.00000000000E+00  0.11368683772E-12  0.17120000000E+03  0.17120000000E+03 0.  0.
         13    1    1    2    0    0  0.16970622625E+02 -0.81628070510E+01  0.26822648683E+02  0.32773451110E+02  0.10566000000E+00 0. -1.
        994    1    1    2    0    0 -0.87325194866E+01 -0.11567633679E+02  0.68913429396E+01  0.17195056747E+03  0.17120000000E+03 0.  0.
        998    1    1    2    0    0 -0.82381031384E+01  0.19730440730E+02  0.14662860047E+04  0.14664759814E+04  0.10000000000E+02 0. -1.
</event>
<event>
 5    1  0.1020718E-008  0.3849537E+03  0.7957747E-01  0.3429869E+00
         13   -1    0    0    0    0  0.00000000000E+00  0.00000000000E+00  0.14999999963E+04  0.15000000000E+04  0.10566000000E+00 0.  1.
        994   -1    0    0    0    0 -0.00000000000E+00 -0.00000000000E+00  0.11368683772E-12  0.17120000000E+03  0.17120000000E+03 0.  0.
         13    1    1    2    0    0  0.13713943558E+02  0.72599549703E+01  0.74622132266E+02  0.76218455652E+02  0.10566000000E+00 0.  1.
        994    1    1    2    0    0 -0.42566868243E+01 -0.60028624107E+01  0.18312824339E+01  0.17136787136E+03  0.17120000000E+03 0.  0.
        998    1    1    2    0    0 -0.94572567333E+01 -0.12570925596E+01  0.14235465816E+04  0.14236136730E+04  0.10000000000E+02 0.  1.
</event>
<event>
 5    1  0.1020718E-008  0.3798192E+03  0.7957747E-01  0.3451946E+00
         13   -1    0    0    0    0  0.00000000000E+00  0.00000000000E+00  0.14999999963E+04  0.15000000000E+04  0.10566000000E+00 0. -1.
        994   -1    0    0    0    0 -0.00000000000E+00 -0.00000000000E+00  0.11368683772E-12  0.17120000000E+03  0.17120000000E+03 0.  0.
         13    1    1    2    0    0  0.48549376351E+02 -0.56879456092E+02  0.39494942139E+03  0.40196687810E+03  0.10566000000E+00 0. -1.
        994    1    1    2    0    0 -0.10147431781E+03  0.43609638794E+02  0.46171588256E+02  0.20890211424E+03  0.17120000000E+03 0.  0.
        998    1    1    2    0    0  0.52924941456E+02  0.13269817298E+02  0.10588789866E+04  0.10603310077E+04  0.10000000000E+02 0. -1.
</event>
<event>
 5    1  0.1135502E-008  0.3860062E+03  0.7957747E-01  0.3425416E+00
         13   -1    0    0    0    0  0.00000000000E+00  0.00000000000E+00  0.14999999963E+04  0.15000000000E+04  0.10566000000E+00 0.  1.
        994   -1    0    0    0    0 -0.00000000000E+00 -0.00000000000E+00  0.11368683772E-12  0.17120000000E+03  0.17120000000E+03 0.  0.
         13    1    1    2    0    0 -0.86247480945E+01  0.90020654199E+01  0.66357321872E+02  0.67518358922E+02  0.10566000000E+00 0.  1.
        994    1    1    2    0    0  0.70945121726E+01 -0.13170595844E+02  0.18653323080E+01  0.17186249202E+03  0.17120000000E+03 0.  0.
        998    1    1    2    0    0  0.15302359219E+01  0.41685304245E+01  0.14317773421E+04  0.14318191491E+04  0.10000000000E+02 0.  1.
</event>
<event>
 5    1  0.1020718E-008  0.3691852E+03  0.7957747E-01  0.3499644E+00
         13   -1    0    0    0    0  0.00000000000E+00  0.00000000000E+00  0.14999999963E+04  0.15000000000E+04  0.10566000000E+00 0.  1.
        994   -1    0    0    0    0 -0.00000000000E+00 -0.00000000000E+00  0.11368683772E-12  0.17120000000E+03  0.17120000000E+03 0.  0.
         13    1    1    2    0    0 -0.10342483011E+02  0.25763478472E+02  0.35182887454E+02  0.44817078346E+02  0.10566000000E+00 0.  1.
        994    1    1    2    0    0  0.12551769307E+02 -0.23403076126E+02  0.12144850556E+02  0.17367264690E+03  0.17120000000E+03 0.  0.
        998    1    1    2    0    0 -0.22092862954E+01 -0.23604023463E+01  0.14526722583E+04  0.14527102748E+04  0.10000000000E+02 0.  1.
</event>
<event>
 5    1  0.1020718E-008  0.3807764E+03  0.7957747E-01  0.3447785E+00
         13   -1    0    0    0    0  0.00000000000E+00  0.00000000000E+00  0.14999999963E+04  0.15000000000E+04  0.10566000000E+00 0.  1.
        994   -1    0    0    0    0 -0.00000000000E+00 -0.00000000000E+00  0.11368683772E-12  0.17120000000E+03  0.17120000000E+03 0.  0.
         13    1    1    2    0    0  0.10562160479E+02 -0.87163749609E+01  0.23290085679E+02  0.27018025121E+02  0.10566000000E+00 0.  1.
        994    1    1    2    0    0  0.14275076888E+01  0.22611261984E+02  0.54551564603E+01  0.17277877670E+03  0.17120000000E+03 0.  0.
        998    1    1    2    0    0 -0.11989668168E+02 -0.13894887023E+02  0.14712547541E+04  0.14714031982E+04  0.10000000000E+02 0.  1.
</event>
<event>
 5    1  0.1020718E-008  0.3818650E+03  0.7957747E-01  0.3443078E+00
         13   -1    0    0    0    0  0.00000000000E+00  0.00000000000E+00  0.14999999963E+04  0.15000000000E+04  0.10566000000E+00 0.  1.
        994   -1    0    0    0    0 -0.00000000000E+00 -0.00000000000E+00  0.11368683772E-12  0.17120000000E+03  0.17120000000E+03 0.  0.
         13    1    1    2    0    0  0.75853875835E+01  0.15411064834E+02  0.45101273976E+02  0.48261528181E+02  0.10566000000E+00 0.  1.
        994    1    1    2    0    0 -0.27164485901E+01 -0.11096771885E+02  0.36284036270E+01  0.17161912117E+03  0.17120000000E+03 0.  0.
        998    1    1    2    0    0 -0.48689389935E+01 -0.43142929485E+01  0.14512703187E+04  0.14513193506E+04  0.10000000000E+02 0.  1.
</event>
<event>
 5    1  0.1020718E-008  0.3778749E+03  0.7957747E-01  0.3460464E+00
         13   -1    0    0    0    0  0.00000000000E+00  0.00000000000E+00  0.14999999963E+04  0.15000000000E+04  0.10566000000E+00 0. -1.
        994   -1    0    0    0    0 -0.00000000000E+00 -0.00000000000E+00  0.11368683772E-12  0.17120000000E+03  0.17120000000E+03 0.  0.
         13    1    1    2    0    0  0.30365390710E+02 -0.42626404329E+02  0.20845209764E+03  0.21492174268E+03  0.10566000000E+00 0. -1.
        994    1    1    2    0    0 -0.99080563100E+01  0.73465175054E+02  0.23939085051E+02  0.18808992881E+03  0.17120000000E+03 0.  0.
        998    1    1    2    0    0 -0.20457334400E+02 -0.30838770724E+02  0.12676088136E+04  0.12681883285E+04  0.10000000000E+02 0. -1.
</event>
<event>
 5    1  0.1020718E-008  0.3849974E+03  0.7957747E-01  0.3429683E+00
         13   -1    0    0    0    0  0.00000000000E+00  0.00000000000E+00  0.14999999963E+04  0.15000000000E+04  0.10566000000E+00 0.  1.
        994   -1    0    0    0    0 -0.00000000000E+00 -0.00000000000E+00  0.11368683772E-12  0.17120000000E+03  0.17120000000E+03 0.  0.
         13    1    1    2    0    0 -0.12772473046E+02  0.42842475387E+01  0.49969716583E+02  0.51753981336E+02  0.10566000000E+00 0.  1.
        994    1    1    2    0    0  0.21087989141E+02 -0.27535464118E+02  0.55974225000E+01  0.17476749185E+03  0.17120000000E+03 0.  0.
        998    1    1    2    0    0 -0.83155160950E+01  0.23251216580E+02  0.14444328572E+04  0.14446785268E+04  0.10000000000E+02 0.  1.
</event>
<event>
 5    1  0.1020718E-008  0.3737564E+03  0.7957747E-01  0.3478803E+00
         13   -1    0    0    0    0  0.00000000000E+00  0.00000000000E+00  0.14999999963E+04  0.15000000000E+04  0.10566000000E+00 0. -1.
        994   -1    0    0    0    0 -0.00000000000E+00 -0.00000000000E+00  0.11368683772E-12  0.17120000000E+03  0.17120000000E+03 0.  0.
         13    1    1    2    0    0  0.16318756928E+02 -0.32750720007E+02  0.46120856019E+02  0.58873219826E+02  0.10566000000E+00 0. -1.
        994    1    1    2    0    0 -0.12211281928E+02  0.28449947653E+02  0.16342172137E+02  0.17474272951E+03  0.17120000000E+03 0.  0.
        998    1    1    2    0    0 -0.41074749998E+01  0.43007723538E+01  0.14375369681E+04  0.14375840507E+04  0.10000000000E+02 0. -1.
</event>
<event>
 5    1  0.1020718E-008  0.3711418E+03  0.7957747E-01  0.3490660E+00
         13   -1    0    0    0    0  0.00000000000E+00  0.00000000000E+00  0.14999999963E+04  0.15000000000E+04  0.10566000000E+00 0. -1.
        994   -1    0    0    0    0 -0.00000000000E+00 -0.00000000000E+00  0.11368683772E-12  0.17120000000E+03  0.17120000000E+03 0.  0.
         13    1    1    2    0    0  0.48813820835E+02  0.16420888467E+02  0.21301789245E+03  0.21915535209E+03  0.10566000000E+00 0. -1.
        994    1    1    2    0    0  0.26205281745E+02  0.15595155093E+02  0.11882927787E+02  0.17430022842E+03  0.17120000000E+03 0.  0.
        998    1    1    2    0    0 -0.75019102581E+02 -0.32016043560E+02  0.12750991760E+04  0.12777444195E+04  0.10000000000E+02 0. -1.
</event>
<event>
 5    1  0.1292526E-008  0.3863413E+03  0.7957747E-01  0.3424004E+00
         13   -1    0    0    0    0  0.00000000000E+00  0.00000000000E+00  0.14999999963E+04  0.15000000000E+04  0.10566000000E+00 0. -1.
        994   -1    0    0    0    0 -0.00000000000E+00 -0.00000000000E+00  0.11368683772E-12  0.17120000000E+03  0.17120000000E+03 0.  0.
         13    1    1    2    0    0  0.42940035326E+01  0.92790326450E+01  0.57044709056E+02  0.57953851541E+02  0.10566000000E+00 0. -1.
        994    1    1    2    0    0  0.90811628428E+01 -0.70961512058E+01  0.14007182013E+01  0.17159319594E+03  0.17120000000E+03 0.  0.
        998    1    1    2    0    0 -0.13375166375E+02 -0.21828814391E+01  0.14415545690E+04  0.14416529525E+04  0.10000000000E+02 0. -1.
</event>
<event>
 5    1  0.1020718E-008  0.3812106E+03  0.7957747E-01  0.3445904E+00
         13   -1    0    0    0    0  0.00000000000E+00  0.00000000000E+00  0.14999999963E+04  0.15000000000E+04  0.10566000000E+00 0. -1.
        994   -1    0    0    0    0 -0.00000000000E+00 -0.00000000000E+00  0.11368683772E-12  0.17120000000E+03  0.17120000000E+03 0.  0.
         13    1    1    2    0    0 -0.16025036812E+02 -0.84400857990E+01  0.44353336255E+02  0.47908939188E+02  0.10566000000E+00 0. -1.
        994    1    1    2    0    0  0.12494552973E+02  0.13610154710E+02  0.46606740049E+01  0.17225711030E+03  0.17120000000E+03 0.  0.
        998    1    1    2    0    0  0.35304838390E+01 -0.51700689113E+01  0.14509859860E+04  0.14510339505E+04  0.10000000000E+02 0. -1.
</event>
<event>
 5    1  0.1020718E-008  0.3849325E+03  0.7957747E-01  0.3429959E+00
         13   -1    0    0    0    0  0.00000000000E+00  0.00000000000E+00  0.14999999963E+04  0.15000000000E+04  0.10566000000E+00 0. -1.
        994   -1    0    0    0    0 -0.00000000000E+00 -0.00000000000E+00  0.11368683772E-12  0.17120000000E+03  0.17120000000E+03 0.  0.
         13    1    1    2    0    0  0.38383543441E+01 -0.10187271232E+02  0.30872872699E+02  0.32736201551E+02  0.10566000000E+00 0. -1.
        994    1    1    2    0    0 -0.15384478380E+02  0.35575227568E+02  0.66209113312E+01  0.17565749474E+03  0.17120000000E+03 0.  0.
        998    1    1    2    0    0  0.11546124036E+02 -0.25387956336E+02  0.14625062122E+04  0.14628063037E+04  0.10000000000E+02 0. -1.
</event>
<event>
 5    1  0.1020718E-008  0.3844333E+03  0.7957747E-01  0.3432079E+00
         13   -1    0    0    0    0  0.00000000000E+00  0.00000000000E+00  0.14999999963E+04  0.15000000000E+04  0.10566000000E+00 0.  1.
        994   -1    0    0    0    0 -0.00000000000E+00 -0.00000000000E+00  0.11368683772E-12  0.17120000000E+03  0.17120000000E+03 0.  0.
         13    1    1    2    0    0 -0.15533882804E+01 -0.11533706159E+02  0.37080530026E+02  0.38864074207E+02  0.10566000000E+00 0.  1.
        994    1    1    2    0    0  0.59750089095E+01 -0.54484767061E+01  0.21272251022E+01  0.17140405980E+03  0.17120000000E+03 0.  0.
        998    1    1    2    0    0 -0.44216206292E+01  0.16982182865E+02  0.14607922412E+04  0.14609318660E+04  0.10000000000E+02 0.  1.
</event>
<event>
 5    1  0.1020718E-008  0.3856277E+03  0.7957747E-01  0.3427014E+00
         13   -1    0    0    0    0  0.00000000000E+00  0.00000000000E+00  0.14999999963E+04  0.15000000000E+04  0.10566000000E+00 0.  1.
        994   -1    0    0    0    0 -0.00000000000E+00 -0.00000000000E+00  0.11368683772E-12  0.17120000000E+03  0.17120000000E+03 0.  0.
         13    1    1    2    0    0  0.50214070446E+01  0.12894899949E+02  0.78601243610E+02  0.79810147441E+02  0.10566000000E+00 0.  1.
        994    1    1    2    0    0  0.81904023949E+01 -0.30830199995E+01  0.15702063702E+01  0.17143072435E+03  0.17120000000E+03 0.  0.
        998    1    1    2    0    0 -0.13211809439E+02 -0.98118799492E+01  0.14198285463E+04  0.14199591282E+04  0.10000000000E+02 0.  1.
</event>
<event>
 5    1  0.1020718E-008  0.4065641E+03  0.7957747E-01  0.3343067E+00
         13   -1    0    0    0    0  0.00000000000E+00  0.00000000000E+00  0.14999999963E+04  0.15000000000E+04  0.10566000000E+00 0. -1.
        994   -1    0    0    0    0 -0.00000000000E+00 -0.00000000000E+00  0.11368683772E-12  0.17120000000E+03  0.17120000000E+03 0.  0.
         13    1    1    2    0    0 -0.44406701862E+02 -0.20417696663E+02  0.25205809853E+02  0.54992558785E+02  0.10566000000E+00 0. -1.
        994    1    1    2    0    0  0.46710811481E+02  0.14494412063E+02  0.41444584511E+02  0.18280886597E+03  0.17120000000E+03 0.  0.
        998    1    1    2    0    0 -0.23041096187E+01  0.59232846007E+01  0.14333496019E+04  0.14333985753E+04  0.10000000000E+02 0. -1.
</event>
<event>
 5    1  0.1020718E-008  0.3833702E+03  0.7957747E-01  0.3436614E+00
         13   -1    0    0    0    0  0.00000000000E+00  0.00000000000E+00  0.14999999963E+04  0.15000000000E+04  0.10566000000E+00 0.  1.
        994   -1    0    0    0    0 -0.00000000000E+00 -0.00000000000E+00  0.11368683772E-12  0.17120000000E+03  0.17120000000E+03 0.  0.
         13    1    1    2    0    0  0.28086117061E+02  0.98079268850E-01  0.16143819350E+03  0.16386317791E+03  0.10566000000E+00 0.  1.
        994    1    1    2    0    0 -0.16354353727E+02 -0.56839521392E+01  0.34331762542E+01  0.17210752133E+03  0.17120000000E+03 0.  0.
        998    1    1    2    0    0 -0.11731763334E+02  0.55858728704E+01  0.13351286265E+04  0.13352293008E+04  0.10000000000E+02 0.  1.
</event>
<event>
 5    1  0.1020718E-008  0.3786140E+03  0.7957747E-01  0.3457216E+00
         13   -1    0    0    0    0  0.00000000000E+00  0.00000000000E+00  0.14999999963E+04  0.15000000000E+04  0.10566000000E+00 0. -1.
        994   -1    0    0    0    0 -0.00000000000E+00 -0.00000000000E+00  0.11368683772E-12  0.17120000000E+03  0.17120000000E+03 0.  0.
         13    1    1    2    0    0  0.75952727069E+01  0.68261296385E+01  0.85245159657E+01  0.13302734674E+02  0.10566000000E+00 0. -1.
        994    1    1    2    0    0 -0.94348686847E+01 -0.68594274859E+01  0.52914998958E+01  0.17167850321E+03  0.17120000000E+03 0.  0.
        998    1    1    2    0    0  0.18395959778E+01  0.33297847329E-01  0.14861839804E+04  0.14862187621E+04  0.10000000000E+02 0. -1.
</event>
<event>
 5    1  0.1020718E-008  0.3780251E+03  0.7957747E-01  0.3459803E+00
         13   -1    0    0    0    0  0.00000000000E+00  0.00000000000E+00  0.14999999963E+04  0.15000000000E+04  0.10566000000E+00 0. -1.
        994   -1    0    0    0    0 -0.00000000000E+00 -0.00000000000E+00  0.11368683772E-12  0.17120000000E+03  0.17120000000E+03 0.  0.
         13    1    1    2    0    0 -0.29528832967E+02  0.41172001189E+02  0.22137029929E+03  0.22709448745E+03  0.10566000000E+00 0. -1.
        994    1    1    2    0    0  0.38158539929E+02 -0.28977015443E+02  0.12897543202E+02  0.17824569620E+03  0.17120000000E+03 0.  0.
        998    1    1    2    0    0 -0.86297069623E+01 -0.12194985745E+02  0.12657321538E+04  0.12658598164E+04  0.10000000000E+02 0. -1.
</event>
<event>
 5    1  0.1020718E-008  0.3856274E+03  0.7957747E-01  0.3427016E+00
         13   -1    0    0    0    0  0.00000000000E+00  0.00000000000E+00  0.14999999963E+04  0.15000000000E+04  0.10566000000E+00 0.  1.
        994   -1    0    0    0    0 -0.00000000000E+00 -0.00000000000E+00  0.11368683772E-12  0.17120000000E+03  0.17120000000E+03 0.  0.
         13    1    1    2    0    0  0.15315635290E+02 -0.37642680862E+01  0.87608841931E+02  0.89017182314E+02  0.10566000000E+00 0.  1.
        994    1    1    2    0    0 -0.19599855325E+02  0.47227299234E+01  0.26540691225E+01  0.17240342975E+03  0.17120000000E+03 0.  0.
        998    1    1    2    0    0  0.42842200343E+01 -0.95846183724E+00  0.14097370852E+04  0.14097793879E+04  0.10000000000E+02 0.  1.
</event>
<event>
 5    1  0.1020718E-008  0.3751940E+03  0.7957747E-01  0.3472356E+00
         13   -1    0    0    0    0  0.00000000000E+00  0.00000000000E+00  0.14999999963E+04  0.15000000000E+04  0.10566000000E+00 0. -1.
        994   -1    0    0    0    0 -0.00000000000E+00 -0.00000000000E+00  0.11368683772E-12  0.17120000000E+03  0.17120000000E+03 0.  0.
         13    1    1    2    0    0 -0.35887959263E+02 -0.36874202294E+02  0.23594103067E+03  0.24148671503E+03  0.10566000000E+00 0. -1.
        994    1    1    2    0    0  0.59174760412E+01  0.61496756482E+00  0.66994068101E+01  0.17143429283E+03  0.17120000000E+03 0.  0.
        998    1    1    2    0    0  0.29970483222E+02  0.36259234729E+02  0.12573595588E+04  0.12582789921E+04  0.10000000000E+02 0. -1.
</event>
<event>
 5    1  0.1020718E-008  0.3816054E+03  0.7957747E-01  0.3444198E+00
         13   -1    0    0    0    0  0.00000000000E+00  0.00000000000E+00  0.14999999963E+04  0.15000000000E+04  0.10566000000E+00 0.  1.
        994   -1    0    0    0    0 -0.00000000000E+00 -0.00000000000E+00  0.11368683772E-12  0.17120000000E+03  0.17120000000E+03 0.  0.
         13    1    1    2    0    0 -0.36581712982E+02  0.15725824565E+02  0.21432703390E+03  0.21799452265E+03  0.10566000000E+00 0.  1.
        994    1    1    2    0    0  0.29462993735E+02 -0.20755391167E+02  0.76560283326E+01  0.17511969916E+03  0.17120000000E+03 0.  0.
        998    1    1    2    0    0  0.71187192466E+01  0.50295666012E+01  0.12780169340E+04  0.12780857782E+04  0.10000000000E+02 0.  1.
</event>
<event>
 5    1  0.1020718E-008  0.3848985E+03  0.7957747E-01  0.3430103E+00
         13   -1    0    0    0    0  0.00000000000E+00  0.00000000000E+00  0.14999999963E+04  0.15000000000E+04  0.10566000000E+00 0.  1.
        994   -1    0    0    0    0 -0.00000000000E+00 -0.00000000000E+00  0.11368683772E-12  0.17120000000E+03  0.17120000000E+03 0.  0.
         13    1    1    2    0    0 -0.37332720367E+01 -0.14952030316E+02  0.73346010529E+02  0.74947641426E+02  0.10566000000E+00 0.  1.
        994    1    1    2    0    0 -0.42229104740E+01  0.56718907017E+01  0.18450617152E+01  0.17135590906E+03  0.17120000000E+03 0.  0.
        998    1    1    2    0    0  0.79561825107E+01  0.92801396145E+01  0.14248089240E+04  0.14248964495E+04  0.10000000000E+02 0.  1.
</event>
<event>
 5    1  0.1020718E-008  0.3860736E+03  0.7957747E-01  0.3425132E+00
         13   -1    0    0    0    0  0.00000000000E+00  0.00000000000E+00  0.14999999963E+04  0.15000000000E+04  0.10566000000E+00 0. -1.
        994   -1    0    0    0    0 -0.00000000000E+00 -0.00000000000E+00  0.11368683772E-12  0.17120000000E+03  0.17120000000E+03 0.  0.
         13    1    1    2    0    0  0.93358409919E+01 -0.58372864411E+01  0.53587754557E+02  0.54707316169E+02  0.10566000000E+00 0. -1.
        994    1    1    2    0    0 -0.12544127707E+02  0.55589635241E+01  0.17152574100E+01  0.17175750151E+03  0.17120000000E+03 0.  0.
        998    1    1    2    0    0  0.32082867156E+01  0.27832291700E+00  0.14446969843E+04  0.14447351823E+04  0.10000000000E+02 0. -1.
</event>
<event>
 5    1  0.1020718E-008  0.3843638E+03  0.7957747E-01  0.3432375E+00
         13   -1    0    0    0    0  0.00000000000E+00  0.00000000000E+00  0.14999999963E+04  0.15000000000E+04  0.10566000000E+00 0. -1.
        994   -1    0    0    0    0 -0.00000000000E+00 -0.00000000000E+00  0.11368683772E-12  0.17120000000E+03  0.17120000000E+03 0.  0.
         13    1    1    2    0    0  0.15491977956E+02  0.39222210204E+01  0.63373182634E+02  0.65357146816E+02  0.10566000000E+00 0. -1.
        994    1    1    2    0    0 -0.14168645644E+02 -0.82210855125E+01  0.28310963780E+01  0.17200520885E+03  0.17120000000E+03 0.  0.
        998    1    1    2    0    0 -0.13233323116E+01  0.42988644921E+01  0.14337957173E+04  0.14338376443E+04  0.10000000000E+02 0. -1.
</event>
<event>
 5    1  0.1020718E-008  0.3821088E+03  0.7957747E-01  0.3442027E+00
         13   -1    0    0    0    0  0.00000000000E+00  0.00000000000E+00  0.14999999963E+04  0.15000000000E+04  0.10566000000E+00 0. -1.
        994   -1    0    0    0    0 -0.00000000000E+00 -0.00000000000E+00  0.11368683772E-12  0.17120000000E+03  0.17120000000E+03 0.  0.
         13    1    1    2    0    0 -0.10240921004E+02 -0.17699742052E+02  0.68492998723E+02  0.71480482440E+02  0.10566000000E+00 0. -1.
        994    1    1    2    0    0  0.54485918243E+01  0.69185668569E+01  0.33299096681E+01  0.17145868896E+03  0.17120000000E+03 0.  0.
        998    1    1    2    0    0  0.47923291794E+01  0.10781175195E+02  0.14281770879E+04  0.14282608286E+04  0.10000000000E+02 0. -1.
</event>
<event>
 5    1  0.1020718E-008  0.3787432E+03  0.7957747E-01  0.3456649E+00
         13   -1    0    0    0    0  0.00000000000E+00  0.00000000000E+00  0.14999999963E+04  0.15000000000E+04  0.10566000000E+00 0. -1.
        994   -1    0    0    0    0 -0.00000000000E+00 -0.00000000000E+00  0.11368683772E-12  0.17120000000E+03  0.17120000000E+03 0.  0.
         13    1    1    2    0    0 -0.25890348455E+02  0.68714283655E+02  0.33337706166E+03  0.34136818734E+03  0.10566000000E+00 0. -1.
        994    1    1    2    0    0  0.43942056428E+02 -0.93290267940E+02  0.41337305620E+02  0.20408868477E+03  0.17120000000E+03 0.  0.
        998    1    1    2    0    0 -0.18051707973E+02  0.24575984285E+02  0.11252856290E+04  0.11257431279E+04  0.10000000000E+02 0. -1.
</event>
<event>
 5    1  0.1020718E-008  0.3963077E+03  0.7957747E-01  0.3383086E+00
         13   -1    0    0    0    0  0.00000000000E+00  0.00000000000E+00  0.14999999963E+04  0.15000000000E+04  0.10566000000E+00 0. -1.
        994   -1    0    0    0    0 -0.00000000000E+00 -0.00000000000E+00  0.11368683772E-12  0.17120000000E+03  0.17120000000E+03 0.  0.
         13    1    1    2    0    0 -0.60673291318E+02  0.25855415774E+02  0.76893174644E+02  0.10130312076E+03  0.10566000000E+00 0. -1.
        994    1    1    2    0    0  0.31233289686E+02 -0.45289235631E+02  0.37356534719E+02  0.18366160169E+03  0.17120000000E+03 0.  0.
        998    1    1    2    0    0  0.29440001632E+02  0.19433819857E+02  0.13857502869E+04  0.13862352776E+04  0.10000000000E+02 0. -1.
</event>
<event>
 5    1  0.1020718E-008  0.3761717E+03  0.7957747E-01  0.3467999E+00
         13   -1    0    0    0    0  0.00000000000E+00  0.00000000000E+00  0.14999999963E+04  0.15000000000E+04  0.10566000000E+00 0.  1.
        994   -1    0    0    0    0 -0.00000000000E+00 -0.00000000000E+00  0.11368683772E-12  0.17120000000E+03  0.17120000000E+03 0.  0.
         13    1    1    2    0    0  0.30565288867E+02 -0.12574844589E+02  0.82423973311E+02  0.88803638103E+02  0.10566000000E+00 0.  1.
        994    1    1    2    0    0 -0.36206730055E+02  0.63257909197E+01  0.10666002783E+02  0.17542561543E+03  0.17120000000E+03 0.  0.
        998    1    1    2    0    0  0.56414411875E+01  0.62490536693E+01  0.14069100202E+04  0.14069707465E+04  0.10000000000E+02 0.  1.
</event>
<event>
 5    1  0.1020718E-008  0.4164258E+03  0.7957747E-01  0.3306429E+00
         13   -1    0    0    0    0  0.00000000000E+00  0.00000000000E+00  0.14999999963E+04  0.15000000000E+04  0.10566000000E+00 0.  1.
        994   -1    0    0    0    0 -0.00000000000E+00 -0.00000000000E+00  0.11368683772E-12  0.17120000000E+03  0.17120000000E+03 0.  0.
         13    1    1    2    0    0  0.32174522970E+02  0.65128726368E+02  0.59776112384E+02  0.94075213008E+02  0.10566000000E+00 0.  1.
        994    1    1    2    0    0  0.32328455503E+02 -0.59877507701E+02  0.57701929202E+02  0.19305283628E+03  0.17120000000E+03 0.  0.
        998    1    1    2    0    0 -0.64502978474E+02 -0.52512186675E+01  0.13825219547E+04  0.13840719507E+04  0.10000000000E+02 0.  1.
</event>
<event>
 5    1  0.1020718E-008  0.3803467E+03  0.7957747E-01  0.3449650E+00
         13   -1    0    0    0    0  0.00000000000E+00  0.00000000000E+00  0.14999999963E+04  0.15000000000E+04  0.10566000000E+00 0.  1.
        994   -1    0    0    0    0 -0.00000000000E+00 -0.00000000000E+00  0.11368683772E-12  0.17120000000E+03  0.17120000000E+03 0.  0.
         13    1    1    2    0    0  0.98972322522E+01  0.14549422712E+02  0.36931503605E+02  0.40909510264E+02  0.10566000000E+00 0.  1.
        994    1    1    2    0    0  0.85523510110E+01 -0.26500774703E+02  0.65518160746E+01  0.17357361568E+03  0.17120000000E+03 0.  0.
        998    1    1    2    0    0 -0.18449583263E+02  0.11951351991E+02  0.14565166766E+04  0.14567168741E+04  0.10000000000E+02 0.  1.
</event>
<event>
 5    1  0.1020718E-008  0.3851241E+03  0.7957747E-01  0.3429146E+00
         13   -1    0    0    0    0  0.00000000000E+00  0.00000000000E+00  0.14999999963E+04  0.15000000000E+04  0.10566000000E+00 0. -1.
        994   -1    0    0    0    0 -0.00000000000E+00 -0.00000000000E+00  0.11368683772E-12  0.17120000000E+03  0.17120000000E+03 0.  0.
         13    1    1    2    0    0  0.18498807657E+02  0.20292297304E+01  0.10548235993E+03  0.10711145167E+03  0.10566000000E+00 0. -1.
        994    1    1    2    0    0 -0.18689005986E+02  0.77122390186E+01  0.29134095758E+01  0.17241428459E+03  0.17120000000E+03 0.  0.
        998    1    1    2    0    0  0.19019832893E+00 -0.97414687490E+01  0.13916042268E+04  0.13916742637E+04  0.10000000000E+02 0. -1.
</event>
<event>
 5    1  0.1020718E-008  0.3084978E+03  0.7957747E-01  0.3837160E+00
         13   -1    0    0    0    0  0.00000000000E+00  0.00000000000E+00  0.14999999963E+04  0.15000000000E+04  0.10566000000E+00 0.  1.
        994   -1    0    0    0    0 -0.00000000000E+00 -0.00000000000E+00  0.11368683772E-12  0.17120000000E+03  0.17120000000E+03 0.  0.
         13    1    1    2    0    0 -0.12992759889E+02  0.85634128746E+02 -0.47996285137E+02  0.99023584901E+02  0.10566000000E+00 0.  1.
        994    1    1    2    0    0 -0.36558892446E+02 -0.10062004940E+03  0.91630039283E+03  0.93828396387E+03  0.17120000000E+03 0.  0.
        998    1    1    2    0    0  0.49551652335E+02  0.14985920655E+02  0.63169588858E+03  0.63389245123E+03  0.10000000000E+02 0.  1.
</event>
<event>
 5    1  0.1020718E-008  0.3731556E+03  0.7957747E-01  0.3481513E+00
         13   -1    0    0    0    0  0.00000000000E+00  0.00000000000E+00  0.14999999963E+04  0.15000000000E+04  0.10566000000E+00 0. -1.
        994   -1    0    0    0    0 -0.00000000000E+00 -0.00000000000E+00  0.11368683772E-12  0.17120000000E+03  0.17120000000E+03 0.  0.
         13    1    1    2    0    0  0.51714191237E+02  0.51616632108E+02  0.22384548531E+03  0.23546856849E+03  0.10566000000E+00 0. -1.
        994    1    1    2    0    0 -0.19328256521E+02 -0.21044945385E+02  0.15508839727E+02  0.17425967788E+03  0.17120000000E+03 0.  0.
        998    1    1    2    0    0 -0.32385934716E+02 -0.30571686723E+02  0.12606456712E+04  0.12614717536E+04  0.10000000000E+02 0. -1.
</event>
<event>
 5    1  0.1020718E-008  0.3836289E+03  0.7957747E-01  0.3435508E+00
         13   -1    0    0    0    0  0.00000000000E+00  0.00000000000E+00  0.14999999963E+04  0.15000000000E+04  0.10566000000E+00 0.  1.
        994   -1    0    0    0    0 -0.00000000000E+00 -0.00000000000E+00  0.11368683772E-12  0.17120000000E+03  0.17120000000E+03 0.  0.
         13    1    1    2    0    0  0.21864293840E+02  0.19022621507E+01  0.87267459473E+02  0.89984924256E+02  0.10566000000E+00 0.  1.
        994    1    1    2    0    0 -0.41992201911E+02 -0.21319429441E+01  0.81743398217E+01  0.17647705243E+03  0.17120000000E+03 0.  0.
        998    1    1    2    0    0  0.20127908071E+02  0.22968079339E+00  0.14045581970E+04  0.14047380233E+04  0.10000000000E+02 0.  1.
</event>
<event>
 5    1  0.1020718E-008  0.3802993E+03  0.7957747E-01  0.3449856E+00
         13   -1    0    0    0    0  0.00000000000E+00  0.00000000000E+00  0.14999999963E+04  0.15000000000E+04  0.10566000000E+00 0.  1.
        994   -1    0    0    0    0 -0.00000000000E+00 -0.00000000000E+00  0.11368683772E-12  0.17120000000E+03  0.17120000000E+03 0.  0.
         13    1    1    2    0    0 -0.13971397738E+01 -0.13128344802E+02  0.20558377182E+02  0.24432835963E+02  0.10566000000E+00 0.  1.
        994    1    1    2    0    0 -0.18983406435E+01  0.37434025637E+01  0.40409851946E+01  0.17129911360E+03  0.17120000000E+03 0.  0.
        998    1    1    2    0    0  0.32954804173E+01  0.93849422387E+01  0.14754006339E+04  0.14754680504E+04  0.10000000000E+02 0.  1.
</event>
<event>
 5    1  0.1020718E-008  0.3824768E+03  0.7957747E-01  0.3440444E+00
         13   -1    0    0    0    0  0.00000000000E+00  0.00000000000E+00  0.14999999963E+04  0.15000000000E+04  0.10566000000E+00 0.  1.
        994   -1    0    0    0    0 -0.00000000000E+00 -0.00000000000E+00  0.11368683772E-12  0.17120000000E+03  0.17120000000E+03 0.  0.
         13    1    1    2    0    0  0.12132983980E+02 -0.14886546108E+02  0.60428401459E+02  0.63406793187E+02  0.10566000000E+00 0.  1.
        994    1    1    2    0    0 -0.17646778786E+02  0.12801901242E+02  0.44656525609E+01  0.17264031838E+03  0.17120000000E+03 0.  0.
        998    1    1    2    0    0  0.55137948051E+01  0.20846448661E+01  0.14351059423E+04  0.14351528884E+04  0.10000000000E+02 0.  1.
</event>
<event>
 5    1  0.1020718E-008  0.3818717E+03  0.7957747E-01  0.3443049E+00
         13   -1    0    0    0    0  0.00000000000E+00  0.00000000000E+00  0.14999999963E+04  0.15000000000E+04  0.10566000000E+00 0. -1.
        994   -1    0    0    0    0 -0.00000000000E+00 -0.00000000000E+00  0.11368683772E-12  0.17120000000E+03  0.17120000000E+03 0.  0.
         13    1    1    2    0    0  0.22853521297E+02 -0.44133606971E+02  0.22621057209E+03  0.23160589973E+03  0.10566000000E+00 0. -1.
        994    1    1    2    0    0 -0.26134907641E+02  0.92975962883E+02  0.34826760607E+02  0.19962441315E+03  0.17120000000E+03 0.  0.
        998    1    1    2    0    0  0.32813863444E+01 -0.48842355912E+02  0.12389626636E+04  0.12399696871E+04  0.10000000000E+02 0. -1.
</event>
<event>
 5    1  0.1020718E-008  0.3740673E+03  0.7957747E-01  0.3477405E+00
         13   -1    0    0    0    0  0.00000000000E+00  0.00000000000E+00  0.14999999963E+04  0.15000000000E+04  0.10566000000E+00 0. -1.
        994   -1    0    0    0    0 -0.00000000000E+00 -0.00000000000E+00  0.11368683772E-12  0.17120000000E+03  0.17120000000E+03 0.  0.
         13    1    1    2    0    0 -0.51820708855E+02  0.17756699048E+02  0.92834009419E+02  0.10779077278E+03  0.10566000000E+00 0. -1.
        994    1    1    2    0    0  0.89629280554E+02 -0.37988507663E+01  0.42227741096E+02  0.19783948372E+03  0.17120000000E+03 0.  0.
        998    1    1    2    0    0 -0.37808571699E+02 -0.13957848282E+02  0.13649382458E+04  0.13655697435E+04  0.10000000000E+02 0. -1.
</event>
<event>
 5    1  0.1020718E-008  0.3888344E+03  0.7957747E-01  0.3413571E+00
         13   -1    0    0    0    0  0.00000000000E+00  0.00000000000E+00  0.14999999963E+04  0.15000000000E+04  0.10566000000E+00 0.  1.
        994   -1    0    0    0    0 -0.00000000000E+00 -0.00000000000E+00  0.11368683772E-12  0.17120000000E+03  0.17120000000E+03 0.  0.
         13    1    1    2    0    0  0.18944732583E+02 -0.60414799823E+02  0.81974263032E+02  0.10357915762E+03  0.10566000000E+00 0.  1.
        994    1    1    2    0    0 -0.20668425736E+02  0.62713405827E+02  0.37787309670E+02  0.18734320341E+03  0.17120000000E+03 0.  0.
        998    1    1    2    0    0  0.17236931536E+01 -0.22986060049E+01  0.13802384236E+04  0.13802776390E+04  0.10000000000E+02 0.  1.
</event>
<event>
 5    1  0.1020718E-008  0.3782289E+03  0.7957747E-01  0.3458907E+00
         13   -1    0    0    0    0  0.00000000000E+00  0.00000000000E+00  0.14999999963E+04  0.15000000000E+04  0.10566000000E+00 0. -1.
        994   -1    0    0    0    0 -0.00000000000E+00 -0.00000000000E+00  0.11368683772E-12  0.17120000000E+03  0.17120000000E+03 0.  0.
         13    1    1    2    0    0  0.18648401095E+01 -0.15280874268E+02  0.21153767289E+02  0.26162488062E+02  0.10566000000E+00 0. -1.
        994    1    1    2    0    0 -0.29103550712E+01  0.15627379684E+02  0.58799864805E+01  0.17203691291E+03  0.17120000000E+03 0.  0.
        998    1    1    2    0    0  0.10455149617E+01 -0.34650541580E+00  0.14729662425E+04  0.14730005990E+04  0.10000000000E+02 0. -1.
</event>
<event>
 5    1  0.1020718E-008  0.3875732E+03  0.7957747E-01  0.3418832E+00
         13   -1    0    0    0    0  0.00000000000E+00  0.00000000000E+00  0.14999999963E+04  0.15000000000E+04  0.10566000000E+00 0.  1.
        994   -1    0    0    0    0 -0.00000000000E+00 -0.00000000000E+00  0.11368683772E-12  0.17120000000E+03  0.17120000000E+03 0.  0.
         13    1    1    2    0    0 -0.20750589367E+01 -0.11964816033E+02 -0.59156654125E+01  0.13508106958E+02  0.10566000000E+00 0.  1.
        994    1    1    2    0    0  0.30037679319E+01  0.20083393705E+02  0.22089489485E+02  0.17380952468E+03  0.17120000000E+03 0.  0.
        998    1    1    2    0    0 -0.92870899526E+00 -0.81185776723E+01  0.14838261722E+04  0.14838823684E+04  0.10000000000E+02 0.  1.
</event>
<event>
 5    1  0.1020718E-008  0.3212290E+03  0.7957747E-01  0.3755227E+00
         13   -1    0    0    0    0  0.00000000000E+00  0.00000000000E+00  0.14999999963E+04  0.15000000000E+04  0.10566000000E+00 0. -1.
        994   -1    0    0    0    0 -0.00000000000E+00 -0.00000000000E+00  0.11368683772E-12  0.17120000000E+03  0.17120000000E+03 0.  0.
         13    1    1    2    0    0 -0.42461728341E+02 -0.18126575477E+03  0.84139668647E+03  0.86174744989E+03  0.10566000000E+00 0. -1.
        994    1    1    2    0    0  0.42806985126E+02  0.15371639368E+03  0.10744777785E+03  0.25751821805E+03  0.17120000000E+03 0.  0.
        998    1    1    2    0    0 -0.34525678548E+00  0.27549361086E+02  0.55115553196E+03  0.55193433206E+03  0.10000000000E+02 0. -1.
</event>
<event>
 5    1  0.1020718E-008  0.3712017E+03  0.7957747E-01  0.3490386E+00
         13   -1    0    0    0    0  0.00000000000E+00  0.00000000000E+00  0.14999999963E+04  0.15000000000E+04  0.10566000000E+00 0.  1.
        994   -1    0    0    0    0 -0.00000000000E+00 -0.00000000000E+00  0.11368683772E-12  0.17120000000E+03  0.17120000000E+03 0.  0.
         13    1    1    2    0    0 -0.45099055509E+01  0.11116324698E+02  0.42247685490E+01  0.12718952638E+02  0.10566000000E+00 0.  1.
        994    1    1    2    0    0  0.14891117617E+01 -0.18909976046E+02  0.98822138115E+01  0.17253087491E+03  0.17120000000E+03 0.  0.
        998    1    1    2    0    0  0.30207937892E+01  0.77936513483E+01  0.14858930139E+04  0.14859501725E+04  0.10000000000E+02 0.  1.
</event>
<event>
 5    1  0.1020718E-008  0.3821983E+03  0.7957747E-01  0.3441642E+00
         13   -1    0    0    0    0  0.00000000000E+00  0.00000000000E+00  0.14999999963E+04  0.15000000000E+04  0.10566000000E+00 0. -1.
        994   -1    0    0    0    0 -0.00000000000E+00 -0.00000000000E+00  0.11368683772E-12  0.17120000000E+03  0.17120000000E+03 0.  0.
         13    1    1    2    0    0 -0.10217321912E+02  0.27692552260E+02  0.14105915659E+03  0.14411442655E+03  0.10566000000E+00 0. -1.
        994    1    1    2    0    0 -0.98695641183E+01 -0.24850372043E+02  0.54039431679E+01  0.17335971818E+03  0.17120000000E+03 0.  0.
        998    1    1    2    0    0  0.20086886031E+02 -0.28421802174E+01  0.13535368965E+04  0.13537258553E+04  0.10000000000E+02 0. -1.
</event>
<event>
 5    1  0.1020718E-008  0.3810137E+03  0.7957747E-01  0.3446756E+00
         13   -1    0    0    0    0  0.00000000000E+00  0.00000000000E+00  0.14999999963E+04  0.15000000000E+04  0.10566000000E+00 0. -1.
        994   -1    0    0    0    0 -0.00000000000E+00 -0.00000000000E+00  0.11368683772E-12  0.17120000000E+03  0.17120000000E+03 0.  0.
         13    1    1    2    0    0 -0.76187132904E+01 -0.18837950298E+02  0.53687078197E+02  0.57404065126E+02  0.10566000000E+00 0. -1.
        994    1    1    2    0    0  0.10811650045E+02  0.19618596665E+02  0.52958923269E+01  0.17274046309E+03  0.17120000000E+03 0.  0.
        998    1    1    2    0    0 -0.31929367545E+01 -0.78064636775E+00  0.14410170258E+04  0.14410554718E+04  0.10000000000E+02 0. -1.
</event>
<event>
 5    1  0.1020718E-008  0.3828553E+03  0.7957747E-01  0.3438819E+00
         13   -1    0    0    0    0  0.00000000000E+00  0.00000000000E+00  0.14999999963E+04  0.15000000000E+04  0.10566000000E+00 0.  1.
        994   -1    0    0    0    0 -0.00000000000E+00 -0.00000000000E+00  0.11368683772E-12  0.17120000000E+03  0.17120000000E+03 0.  0.
         13    1    1    2    0    0  0.13247654968E+02  0.52820169542E+01  0.36346686479E+02  0.39044754415E+02  0.10566000000E+00 0.  1.
        994    1    1    2    0    0 -0.13116645756E+02 -0.16788169757E+01  0.32779821904E+01  0.17174122973E+03  0.17120000000E+03 0.  0.
        998    1    1    2    0    0 -0.13100921258E+00 -0.36031999785E+01  0.14603753276E+04  0.14604140159E+04  0.10000000000E+02 0.  1.
</event>
<event>
 5    1  0.1020718E-008  0.3790739E+03  0.7957747E-01  0.3455201E+00
         13   -1    0    0    0    0  0.00000000000E+00  0.00000000000E+00  0.14999999963E+04  0.15000000000E+04  0.10566000000E+00 0.  1.
        994   -1    0    0    0    0 -0.00000000000E+00 -0.00000000000E+00  0.11368683772E-12  0.17120000000E+03  0.17120000000E+03 0.  0.
         13    1    1    2    0    0 -0.62863634519E+01  0.10955756966E+02  0.15250986193E+02  0.19802795764E+02  0.10566000000E+00 0.  1.
        994    1    1    2    0    0  0.82116451832E+01 -0.86804386317E+01  0.50802708315E+01  0.17169167214E+03  0.17120000000E+03 0.  0.
        998    1    1    2    0    0 -0.19252817313E+01 -0.22753183347E+01  0.14796687393E+04  0.14797055321E+04  0.10000000000E+02 0.  1.
</event>
<event>
 5    1  0.1020718E-008  0.3836583E+03  0.7957747E-01  0.3435382E+00
         13   -1    0    0    0    0  0.00000000000E+00  0.00000000000E+00  0.14999999963E+04  0.15000000000E+04  0.10566000000E+00 0. -1.
        994   -1    0    0    0    0 -0.00000000000E+00 -0.00000000000E+00  0.11368683772E-12  0.17120000000E+03  0.17120000000E+03 0.  0.
         13    1    1    2    0    0 -0.24912302673E+02 -0.13761072700E+02  0.14671639877E+03  0.14945133916E+03  0.10566000000E+00 0. -1.
        994    1    1    2    0    0  0.31810931295E+02  0.24838352607E+02  0.76966015417E+01  0.17606123022E+03  0.17120000000E+03 0.  0.
        998    1    1    2    0    0 -0.68986286217E+01 -0.11077279906E+02  0.13455869960E+04  0.13456874306E+04  0.10000000000E+02 0. -1.
</event>
<event>
 5    1  0.1020718E-008  0.3837400E+03  0.7957747E-01  0.3435033E+00
         13   -1    0    0    0    0  0.00000000000E+00  0.00000000000E+00  0.14999999963E+04  0.15000000000E+04  0.10566000000E+00 0. -1.
        994   -1    0    0    0    0 -0.00000000000E+00 -0.00000000000E+00  0.11368683772E-12  0.17120000000E+03  0.17120000000E+03 0.  0.
         13    1    1    2    0    0  0.13709780420E+02 -0.12965413706E+02  0.76673598103E+02  0.78961457952E+02  0.10566000000E+00 0. -1.
        994    1    1    2    0    0 -0.12329244873E+02  0.99357415595E+01  0.30853555435E+01  0.17195839223E+03  0.17120000000E+03 0.  0.
        998    1    1    2    0    0 -0.13805355476E+01  0.30296721465E+01  0.14202410426E+04  0.14202801498E+04  0.10000000000E+02 0. -1.
</event>
<event>
 5    1  0.1020718E-008  0.3814866E+03  0.7957747E-01  0.3444711E+00
         13   -1    0    0    0    0  0.00000000000E+00  0.00000000000E+00  0.14999999963E+04  0.15000000000E+04  0.10566000000E+00 0.  1.
        994   -1    0    0    0    0 -0.00000000000E+00 -0.00000000000E+00  0.11368683772E-12  0.17120000000E+03  0.17120000000E+03 0.  0.
         13    1    1    2    0    0  0.16264401316E+02  0.57997860139E+01  0.45754257591E+02  0.48904309827E+02  0.10566000000E+00 0.  1.
        994    1    1    2    0    0  0.48221677463E+01  0.24261967240E+01  0.34815255441E+01  0.17132046215E+03  0.17120000000E+03 0.  0.
        998    1    1    2    0    0 -0.21086569062E+02 -0.82259827378E+01  0.14507642131E+04  0.14509752280E+04  0.10000000000E+02 0.  1.
</event>
<event>
 5    1  0.1020718E-008  0.3841993E+03  0.7957747E-01  0.3433075E+00
         13   -1    0    0    0    0  0.00000000000E+00  0.00000000000E+00  0.14999999963E+04  0.15000000000E+04  0.10566000000E+00 0. -1.
        994   -1    0    0    0    0 -0.00000000000E+00 -0.00000000000E+00  0.11368683772E-12  0.17120000000E+03  0.17120000000E+03 0.  0.
         13    1    1    2    0    0 -0.29336731575E+01  0.20109236403E+02  0.94020213985E+02  0.96191473784E+02  0.10566000000E+00 0. -1.
        994    1    1    2    0    0  0.21196950416E+01 -0.24004510436E+02  0.39452535530E+01  0.17293268822E+03  0.17120000000E+03 0.  0.
        998    1    1    2    0    0  0.81397811588E+00  0.38952740330E+01  0.14020345287E+04  0.14020758380E+04  0.10000000000E+02 0. -1.
</event>
<event>
 5    1  0.1020718E-008  0.3778523E+03  0.7957747E-01  0.3460564E+00
         13   -1    0    0    0    0  0.00000000000E+00  0.00000000000E+00  0.14999999963E+04  0.15000000000E+04  0.10566000000E+00 0.  1.
        994   -1    0    0    0    0 -0.00000000000E+00 -0.00000000000E+00  0.11368683772E-12  0.17120000000E+03  0.17120000000E+03 0.  0.
         13    1    1    2    0    0  0.16799280199E+02  0.65965955127E+00  0.25512815965E+02  0.30554310799E+02  0.10566000000E+00 0.  1.
        994    1    1    2    0    0 -0.23932754071E+01 -0.56620605310E+01  0.53484620426E+01  0.17139379435E+03  0.17120000000E+03 0.  0.
        998    1    1    2    0    0 -0.14406004792E+02  0.50024009798E+01  0.14691387183E+04  0.14692518948E+04  0.10000000000E+02 0.  1.
</event>
<event>
 5    1  0.1020718E-008  0.3770960E+03  0.7957747E-01  0.3463901E+00
         13   -1    0    0    0    0  0.00000000000E+00  0.00000000000E+00  0.14999999963E+04  0.15000000000E+04  0.10566000000E+00 0.  1.
        994   -1    0    0    0    0 -0.00000000000E+00 -0.00000000000E+00  0.11368683772E-12  0.17120000000E+03  0.17120000000E+03 0.  0.
         13    1    1    2    0    0  0.57968893158E+01  0.43194490807E+02  0.15820309664E+03  0.16409630987E+03  0.10566000000E+00 0.  1.
        994    1    1    2    0    0 -0.43727378382E+02 -0.31480583866E+02  0.15468780788E+02  0.18014392568E+03  0.17120000000E+03 0.  0.
        998    1    1    2    0    0  0.37930489066E+02 -0.11713906941E+02  0.13263281188E+04  0.13269597644E+04  0.10000000000E+02 0.  1.
</event>
<event>
 5    1  0.1020718E-008  0.3840620E+03  0.7957747E-01  0.3433660E+00
         13   -1    0    0    0    0  0.00000000000E+00  0.00000000000E+00  0.14999999963E+04  0.15000000000E+04  0.10566000000E+00 0.  1.
        994   -1    0    0    0    0 -0.00000000000E+00 -0.00000000000E+00  0.11368683772E-12  0.17120000000E+03  0.17120000000E+03 0.  0.
         13    1    1    2    0    0 -0.11146136082E+02 -0.14458542713E+02  0.88680020199E+02  0.90539731353E+02  0.10566000000E+00 0.  1.
        994    1    1    2    0    0  0.19123329316E+01 -0.82054976372E+01  0.23307508465E+01  0.17142304282E+03  0.17120000000E+03 0.  0.
        998    1    1    2    0    0  0.92338031502E+01  0.22664040350E+02  0.14089892252E+04  0.14092372258E+04  0.10000000000E+02 0.  1.
</event>
<event>
 5    1  0.1020718E-008  0.3889807E+03  0.7957747E-01  0.3412963E+00
         13   -1    0    0    0    0  0.00000000000E+00  0.00000000000E+00  0.14999999963E+04  0.15000000000E+04  0.10566000000E+00 0. -1.
        994   -1    0    0    0    0 -0.00000000000E+00 -0.00000000000E+00  0.11368683772E-12  0.17120000000E+03  0.17120000000E+03 0.  0.
         13    1    1    2    0    0 -0.49669632742E+02 -0.39585978485E+02  0.83931024701E+02  0.10525469197E+03  0.10566000000E+00 0. -1.
        994    1    1    2    0    0  0.57827607731E+02  0.21558796785E+02  0.35767522237E+02  0.18546581783E+03  0.17120000000E+03 0.  0.
        998    1    1    2    0    0 -0.81579749891E+01  0.18027181700E+02  0.13803014493E+04  0.13804794902E+04  0.10000000000E+02 0. -1.
</event>
<event>
 5    1  0.1020718E-008  0.3804287E+03  0.7957747E-01  0.3449294E+00
         13   -1    0    0    0    0  0.00000000000E+00  0.00000000000E+00  0.14999999963E+04  0.15000000000E+04  0.10566000000E+00 0.  1.
        994   -1    0    0    0    0 -0.00000000000E+00 -0.00000000000E+00  0.11368683772E-12  0.17120000000E+03  0.17120000000E+03 0.  0.
         13    1    1    2    0    0 -0.21720846909E+02 -0.47793416456E+01  0.61401579586E+02  0.65305454877E+02  0.10566000000E+00 0.  1.
        994    1    1    2    0    0  0.13848247320E+02  0.93526250839E+01  0.48496213960E+01  0.17208196994E+03  0.17120000000E+03 0.  0.
        998    1    1    2    0    0  0.78725995895E+01 -0.45732834383E+01  0.14337487953E+04  0.14338125752E+04  0.10000000000E+02 0.  1.
</event>
<event>
 5    1  0.1020718E-008  0.3684248E+03  0.7957747E-01  0.3503162E+00
         13   -1    0    0    0    0  0.00000000000E+00  0.00000000000E+00  0.14999999963E+04  0.15000000000E+04  0.10566000000E+00 0.  1.
        994   -1    0    0    0    0 -0.00000000000E+00 -0.00000000000E+00  0.11368683772E-12  0.17120000000E+03  0.17120000000E+03 0.  0.
         13    1    1    2    0    0  0.19656260697E+02  0.16791740923E+02  0.28870037825E+02  0.38753340447E+02  0.10566000000E+00 0.  1.
        994    1    1    2    0    0  0.28658056764E+01 -0.31380291711E+02  0.13568355284E+02  0.17460376804E+03  0.17120000000E+03 0.  0.
        998    1    1    2    0    0 -0.22522066373E+02  0.14588550788E+02  0.14575616032E+04  0.14578428915E+04  0.10000000000E+02 0.  1.
</event>
<event>
 5    1  0.1020718E-008  0.3791957E+03  0.7957747E-01  0.3454668E+00
         13   -1    0    0    0    0  0.00000000000E+00  0.00000000000E+00  0.14999999963E+04  0.15000000000E+04  0.10566000000E+00 0.  1.
        994   -1    0    0    0    0 -0.00000000000E+00 -0.00000000000E+00  0.11368683772E-12  0.17120000000E+03  0.17120000000E+03 0.  0.
         13    1    1    2    0    0  0.11299278509E+02 -0.11880704953E+02  0.26876820941E+02  0.31483321187E+02  0.10566000000E+00 0.  1.
        994    1    1    2    0    0 -0.21958357726E+02  0.10103290419E+02  0.65004597158E+01  0.17302006221E+03  0.17120000000E+03 0.  0.
        998    1    1    2    0    0  0.10659079217E+02  0.17774145343E+01  0.14666227156E+04  0.14666966166E+04  0.10000000000E+02 0.  1.
</event>
<event>
 5    1  0.1020718E-008  0.3800010E+03  0.7957747E-01  0.3451154E+00
         13   -1    0    0    0    0  0.00000000000E+00  0.00000000000E+00  0.14999999963E+04  0.15000000000E+04  0.10566000000E+00 0.  1.
        994   -1    0    0    0    0 -0.00000000000E+00 -0.00000000000E+00  0.11368683772E-12  0.17120000000E+03  0.17120000000E+03 0.  0.
         13    1    1    2    0    0 -0.12000331543E+02  0.24015578335E+01  0.16340973499E+02  0.20416023513E+02  0.10566000000E+00 0.  1.
        994    1    1    2    0    0  0.10084785247E+02  0.34733613546E+01  0.45130580092E+01  0.17159130172E+03  0.17120000000E+03 0.  0.
        998    1    1    2    0    0  0.19155462959E+01 -0.58749191881E+01  0.14791459648E+04  0.14791926748E+04  0.10000000000E+02 0.  1.
</event>
<event>
 5    1  0.1020718E-008  0.3849155E+03  0.7957747E-01  0.3430031E+00
         13   -1    0    0    0    0  0.00000000000E+00  0.00000000000E+00  0.14999999963E+04  0.15000000000E+04  0.10566000000E+00 0. -1.
        994   -1    0    0    0    0 -0.00000000000E+00 -0.00000000000E+00  0.11368683772E-12  0.17120000000E+03  0.17120000000E+03 0.  0.
         13    1    1    2    0    0  0.23694955283E+01  0.27271554110E+02  0.13943497697E+03  0.14209671404E+03  0.10566000000E+00 0. -1.
        994    1    1    2    0    0  0.83376802426E+01 -0.74061065913E+02  0.20162643709E+02  0.18780450100E+03  0.17120000000E+03 0.  0.
        998    1    1    2    0    0 -0.10707175771E+02  0.46789511802E+02  0.13404023756E+04  0.13412987850E+04  0.10000000000E+02 0. -1.
</event>
<event>
 5    1  0.1020718E-008  0.3946123E+03  0.7957747E-01  0.3389901E+00
         13   -1    0    0    0    0  0.00000000000E+00  0.00000000000E+00  0.14999999963E+04  0.15000000000E+04  0.10566000000E+00 0. -1.
        994   -1    0    0    0    0 -0.00000000000E+00 -0.00000000000E+00  0.11368683772E-12  0.17120000000E+03  0.17120000000E+03 0.  0.
         13    1    1    2    0    0  0.35246698269E+02  0.59244334301E+02  0.88395614349E+02  0.11209824569E+03  0.10566000000E+00 0. -1.
        994    1    1    2    0    0 -0.44036661827E+01 -0.55994724879E+02  0.36783462562E+02  0.18389471066E+03  0.17120000000E+03 0.  0.
        998    1    1    2    0    0 -0.30843032086E+02 -0.32496094221E+01  0.13748209194E+04  0.13752070437E+04  0.10000000000E+02 0. -1.
</event>
<event>
 5    1  0.1020718E-008  0.3806633E+03  0.7957747E-01  0.3448276E+00
         13   -1    0    0    0    0  0.00000000000E+00  0.00000000000E+00  0.14999999963E+04  0.15000000000E+04  0.10566000000E+00 0. -1.
        994   -1    0    0    0    0 -0.00000000000E+00 -0.00000000000E+00  0.11368683772E-12  0.17120000000E+03  0.17120000000E+03 0.  0.
         13    1    1    2    0    0 -0.15957908250E+02 -0.98821325544E+01  0.45564847266E+02  0.49279588573E+02  0.10566000000E+00 0. -1.
        994    1    1    2    0    0 -0.30537774899E+01  0.21894349887E+02  0.54304815987E+01  0.17270674059E+03  0.17120000000E+03 0.  0.
        998    1    1    2    0    0  0.19011685740E+02 -0.12012217333E+02  0.14490046674E+04  0.14492136708E+04  0.10000000000E+02 0. -1.
</event>
<event>
 5    1  0.1020718E-008  0.3798042E+03  0.7957747E-01  0.3452011E+00
         13   -1    0    0    0    0  0.00000000000E+00  0.00000000000E+00  0.14999999963E+04  0.15000000000E+04  0.10566000000E+00 0. -1.
        994   -1    0    0    0    0 -0.00000000000E+00 -0.00000000000E+00  0.11368683772E-12  0.17120000000E+03  0.17120000000E+03 0.  0.
         13    1    1    2    0    0  0.15361467358E+02 -0.10649015796E+01  0.26155322235E+02  0.30351618409E+02  0.10566000000E+00 0. -1.
        994    1    1    2    0    0 -0.12435492236E+02  0.12407554680E+01  0.47546163575E+01  0.17172136535E+03  0.17120000000E+03 0.  0.
        998    1    1    2    0    0 -0.29259751222E+01 -0.17585388835E+00  0.14690900577E+04  0.14691270162E+04  0.10000000000E+02 0. -1.
</event>
<event>
 5    1  0.1020718E-008  0.3733095E+03  0.7957747E-01  0.3480818E+00
         13   -1    0    0    0    0  0.00000000000E+00  0.00000000000E+00  0.14999999963E+04  0.15000000000E+04  0.10566000000E+00 0. -1.
        994   -1    0    0    0    0 -0.00000000000E+00 -0.00000000000E+00  0.11368683772E-12  0.17120000000E+03  0.17120000000E+03 0.  0.
         13    1    1    2    0    0 -0.15144660147E+02  0.77613533461E+01  0.15841364894E+02  0.23249932096E+02  0.10566000000E+00 0. -1.
        994    1    1    2    0    0  0.86232563454E+01 -0.12607523720E+02  0.83474324513E+01  0.17208262502E+03  0.17120000000E+03 0.  0.
        998    1    1    2    0    0  0.65214038018E+01  0.48461703742E+01  0.14758111989E+04  0.14758674429E+04  0.10000000000E+02 0. -1.
</event>
<event>
 5    1  0.1020718E-008  0.3850266E+03  0.7957747E-01  0.3429559E+00
         13   -1    0    0    0    0  0.00000000000E+00  0.00000000000E+00  0.14999999963E+04  0.15000000000E+04  0.10566000000E+00 0.  1.
        994   -1    0    0    0    0 -0.00000000000E+00 -0.00000000000E+00  0.11368683772E-12  0.17120000000E+03  0.17120000000E+03 0.  0.
         13    1    1    2    0    0  0.14237332059E+02 -0.53048860664E+01  0.67911030396E+02  0.69589960870E+02  0.10566000000E+00 0.  1.
        994    1    1    2    0    0 -0.16212884752E+02  0.75290238552E+01  0.26684000109E+01  0.17215139904E+03  0.17120000000E+03 0.  0.
        998    1    1    2    0    0  0.19755526933E+01 -0.22241377887E+01  0.14294205659E+04  0.14294586401E+04  0.10000000000E+02 0.  1.
</event>
<event>
 5    1  0.1020718E-008  0.3852323E+03  0.7957747E-01  0.3428688E+00
         13   -1    0    0    0    0  0.00000000000E+00  0.00000000000E+00  0.14999999963E+04  0.15000000000E+04  0.10566000000E+00 0. -1.
        994   -1    0    0    0    0 -0.00000000000E+00 -0.00000000000E+00  0.11368683772E-12  0.17120000000E+03  0.17120000000E+03 0.  0.
         13    1    1    2    0    0 -0.55774330893E+01  0.19197645545E+02  0.11606834107E+03  0.11777745250E+03  0.10566000000E+00 0. -1.
        994    1    1    2    0    0  0.14027377265E+02 -0.24853870515E+02  0.41959707214E+01  0.17361315723E+03  0.17120000000E+03 0.  0.
        998    1    1    2    0    0 -0.84499441760E+01  0.56562249699E+01  0.13797356845E+04  0.13798093903E+04  0.10000000000E+02 0. -1.
</event>
<event>
 5    1  0.1020718E-008  0.3818033E+03  0.7957747E-01  0.3443344E+00
         13   -1    0    0    0    0  0.00000000000E+00  0.00000000000E+00  0.14999999963E+04  0.15000000000E+04  0.10566000000E+00 0. -1.
        994   -1    0    0    0    0 -0.00000000000E+00 -0.00000000000E+00  0.11368683772E-12  0.17120000000E+03  0.17120000000E+03 0.  0.
         13    1    1    2    0    0  0.18550693778E+02 -0.12376366495E+02  0.78954628647E+02  0.82043569133E+02  0.10566000000E+00 0. -1.
        994    1    1    2    0    0 -0.10010264311E+02 -0.28971840369E+01  0.35865937610E+01  0.17155437249E+03  0.17120000000E+03 0.  0.
        998    1    1    2    0    0 -0.85404294665E+01  0.15273550532E+02  0.14174587739E+04  0.14176020584E+04  0.10000000000E+02 0. -1.
</event>
<event>
 5    1  0.1020718E-008  0.3858157E+03  0.7957747E-01  0.3426220E+00
         13   -1    0    0    0    0  0.00000000000E+00  0.00000000000E+00  0.14999999963E+04  0.15000000000E+04  0.10566000000E+00 0. -1.
        994   -1    0    0    0    0 -0.00000000000E+00 -0.00000000000E+00  0.11368683772E-12  0.17120000000E+03  0.17120000000E+03 0.  0.
         13    1    1    2    0    0  0.60908829240E+01  0.97596668936E+01  0.55551290694E+02  0.56730124400E+02  0.10566000000E+00 0. -1.
        994    1    1    2    0    0  0.14044569869E+01 -0.65677217852E+01  0.13736677465E+01  0.17133719512E+03  0.17120000000E+03 0.  0.
        998    1    1    2    0    0 -0.74953399108E+01 -0.31919451084E+01  0.14430750378E+04  0.14431326805E+04  0.10000000000E+02 0. -1.
</event>
<event>
 5    1  0.1020718E-008  0.2562147E+03  0.7957747E-01  0.4268535E+00
         13   -1    0    0    0    0  0.00000000000E+00  0.00000000000E+00  0.14999999963E+04  0.15000000000E+04  0.10566000000E+00 0. -1.
        994   -1    0    0    0    0 -0.00000000000E+00 -0.00000000000E+00  0.11368683772E-12  0.17120000000E+03  0.17120000000E+03 0.  0.
         13    1    1    2    0    0  0.44020064547E+01  0.12364193904E+03  0.10638315806E+02  0.12417685645E+03  0.10566000000E+00 0. -1.
        994    1    1    2    0    0 -0.28501428086E+02 -0.11294635967E+03  0.34541116170E+03  0.40272511990E+03  0.17120000000E+03 0.  0.
        998    1    1    2    0    0  0.24099421631E+02 -0.10695579369E+02  0.11439505188E+04  0.11442980237E+04  0.10000000000E+02 0. -1.
</event>
<event>
 5    1  0.1020718E-008  0.3857163E+03  0.7957747E-01  0.3426640E+00
         13   -1    0    0    0    0  0.00000000000E+00  0.00000000000E+00  0.14999999963E+04  0.15000000000E+04  0.10566000000E+00 0.  1.
        994   -1    0    0    0    0 -0.00000000000E+00 -0.00000000000E+00  0.11368683772E-12  0.17120000000E+03  0.17120000000E+03 0.  0.
         13    1    1    2    0    0 -0.21991078082E+01 -0.12239197784E+02  0.61399385470E+02  0.62646067216E+02  0.10566000000E+00 0.  1.
        994    1    1    2    0    0  0.34140154967E+00  0.76601485574E+01  0.14678776160E+01  0.17137791309E+03  0.17120000000E+03 0.  0.
        998    1    1    2    0    0  0.18577062586E+01  0.45790492262E+01  0.14371327332E+04  0.14371760197E+04  0.10000000000E+02 0.  1.
</event>
<event>
 5    1  0.1020718E-008  0.4059802E+03  0.7957747E-01  0.3345291E+00
         13   -1    0    0    0    0  0.00000000000E+00  0.00000000000E+00  0.14999999963E+04  0.15000000000E+04  0.10566000000E+00 0. -1.
        994   -1    0    0    0    0 -0.00000000000E+00 -0.00000000000E+00  0.11368683772E-12  0.17120000000E+03  0.17120000000E+03 0.  0.
         13    1    1    2    0    0  0.21207222782E+02  0.64677045814E+02  0.62197331233E+02  0.92202959442E+02  0.10566000000E+00 0. -1.
        994    1    1    2    0    0 -0.14042259932E+02 -0.58897096284E+02  0.46264321189E+02  0.18739231689E+03  0.17120000000E+03 0.  0.
        998    1    1    2    0    0 -0.71649628492E+01 -0.57799495298E+01  0.13915383439E+04  0.13916047237E+04  0.10000000000E+02 0. -1.
</event>
<event>
 5    1  0.1020718E-008  0.3764782E+03  0.7957747E-01  0.3466638E+00
         13   -1    0    0    0    0  0.00000000000E+00  0.00000000000E+00  0.14999999963E+04  0.15000000000E+04  0.10566000000E+00 0. -1.
        994   -1    0    0    0    0 -0.00000000000E+00 -0.00000000000E+00  0.11368683772E-12  0.17120000000E+03  0.17120000000E+03 0.  0.
         13    1    1    2    0    0  0.13087511331E+02 -0.12013785053E+02  0.23555816723E+02  0.29504264940E+02  0.10566000000E+00 0. -1.
        994    1    1    2    0    0 -0.13209736440E+02  0.18303228834E+02  0.76468140118E+01  0.17285085793E+03  0.17120000000E+03 0.  0.
        998    1    1    2    0    0  0.12222510925E+00 -0.62894437811E+01  0.14687973655E+04  0.14688448771E+04  0.10000000000E+02 0. -1.
</event>
<event>
 5    1  0.1020718E-008  0.3784507E+03  0.7957747E-01  0.3457932E+00
         13   -1    0    0    0    0  0.00000000000E+00  0.00000000000E+00  0.14999999963E+04  0.15000000000E+04  0.10566000000E+00 0. -1.
        994   -1    0    0    0    0 -0.00000000000E+00 -0.00000000000E+00  0.11368683772E-12  0.17120000000E+03  0.17120000000E+03 0.  0.
         13    1    1    2    0    0 -0.33993355590E+02 -0.92269356926E+01  0.11740502641E+03  0.12257502175E+03  0.10566000000E+00 0. -1.
        994    1    1    2    0    0  0.32962052564E+02  0.24312526303E+01  0.85966233338E+01  0.17457305013E+03  0.17120000000E+03 0.  0.
        998    1    1    2    0    0  0.10313030257E+01  0.67956830623E+01  0.13739983465E+04  0.13740519281E+04  0.10000000000E+02 0. -1.
</event>
<event>
 5    1  0.1020718E-008  0.3820633E+03  0.7957747E-01  0.3442223E+00
         13   -1    0    0    0    0  0.00000000000E+00  0.00000000000E+00  0.14999999963E+04  0.15000000000E+04  0.10566000000E+00 0.  1.
        994   -1    0    0    0    0 -0.00000000000E+00 -0.00000000000E+00  0.11368683772E-12  0.17120000000E+03  0.17120000000E+03 0.  0.
         13    1    1    2    0    0  0.11851656878E+02 -0.65588118379E+01  0.27944525974E+02  0.31054588702E+02  0.10566000000E+00 0.  1.
        994    1    1    2    0    0 -0.13741133614E+02  0.63815254815E+01  0.38577151969E+01  0.17191237473E+03  0.17120000000E+03 0.  0.
        998    1    1    2    0    0  0.18894767363E+01  0.17728635639E+00  0.14681977551E+04  0.14682330366E+04  0.10000000000E+02 0.  1.
</event>
<event>
 5    1  0.1020718E-008  0.3827620E+03  0.7957747E-01  0.3439220E+00
         13   -1    0    0    0    0  0.00000000000E+00  0.00000000000E+00  0.14999999963E+04  0.15000000000E+04  0.10566000000E+00 0.  1.
        994   -1    0    0    0    0 -0.00000000000E+00 -0.00000000000E+00  0.11368683772E-12  0.17120000000E+03  0.17120000000E+03 0.  0.
         13    1    1    2    0    0 -0.20208631611E+02  0.94082726666E+01  0.79020666152E+02  0.82104696755E+02  0.10566000000E+00 0.  1.
        994    1    1    2    0    0  0.30678835537E+02 -0.22949126635E+02  0.76231751495E+01  0.17560013144E+03  0.17120000000E+03 0.  0.
        998    1    1    2    0    0 -0.10470203926E+02  0.13540853968E+02  0.14133561550E+04  0.14134951718E+04  0.10000000000E+02 0.  1.
</event>
<event>
 5    1  0.1020718E-008  0.3778699E+03  0.7957747E-01  0.3460486E+00
         13   -1    0    0    0    0  0.00000000000E+00  0.00000000000E+00  0.14999999963E+04  0.15000000000E+04  0.10566000000E+00 0.  1.
        994   -1    0    0    0    0 -0.00000000000E+00 -0.00000000000E+00  0.11368683772E-12  0.17120000000E+03  0.17120000000E+03 0.  0.
         13    1    1    2    0    0  0.14902575644E+02  0.31843962483E+02  0.10863299467E+03  0.11418083641E+03  0.10566000000E+00 0.  1.
        994    1    1    2    0    0 -0.22743699638E+02 -0.29287663421E+02  0.98555466399E+01  0.17544690052E+03  0.17120000000E+03 0.  0.
        998    1    1    2    0    0  0.78411239934E+01 -0.25562990615E+01  0.13815114550E+04  0.13815722631E+04  0.10000000000E+02 0.  1.
</event>
<event>
 5    1  0.1020718E-008  0.3717691E+03  0.7957747E-01  0.3487800E+00
         13   -1    0    0    0    0  0.00000000000E+00  0.00000000000E+00  0.14999999963E+04  0.15000000000E+04  0.10566000000E+00 0.  1.
        994   -1    0    0    0    0 -0.00000000000E+00 -0.00000000000E+00  0.11368683772E-12  0.17120000000E+03  0.17120000000E+03 0.  0.
         13    1    1    2    0    0  0.44930820286E+02  0.84982478948E+01  0.11452945633E+03  0.12332074587E+03  0.10566000000E+00 0.  1.
        994    1    1    2    0    0 -0.41594367861E+02 -0.17028747989E+02  0.15321742947E+02  0.17766334879E+03  0.17120000000E+03 0.  0.
        998    1    1    2    0    0 -0.33364524244E+01  0.85305000941E+01  0.13701487970E+04  0.13702159053E+04  0.10000000000E+02 0.  1.
</event>
<event>
 5    1  0.1020718E-008  0.3840487E+03  0.7957747E-01  0.3433717E+00
         13   -1    0    0    0    0  0.00000000000E+00  0.00000000000E+00  0.14999999963E+04  0.15000000000E+04  0.10566000000E+00 0.  1.
        994   -1    0    0    0    0 -0.00000000000E+00 -0.00000000000E+00  0.11368683772E-12  0.17120000000E+03  0.17120000000E+03 0.  0.
         13    1    1    2    0    0  0.21125918738E+02 -0.96516239326E+01  0.12711173769E+03  0.12921634304E+03  0.10566000000E+00 0.  1.
        994    1    1    2    0    0 -0.13222165258E+02  0.70771721003E+01  0.28454817369E+01  0.17187916914E+03  0.17120000000E+03 0.  0.
        998    1    1    2    0    0 -0.79037534793E+01  0.25744518322E+01  0.13700427769E+04  0.13701044878E+04  0.10000000000E+02 0.  1.
</event>
<event>
 5    1  0.1020718E-008  0.3714728E+03  0.7957747E-01  0.3489149E+00
         13   -1    0    0    0    0  0.00000000000E+00  0.00000000000E+00  0.14999999963E+04  0.15000000000E+04  0.10566000000E+00 0. -1.
        994   -1    0    0    0    0 -0.00000000000E+00 -0.00000000000E+00  0.11368683772E-12  0.17120000000E+03  0.17120000000E+03 0.  0.
         13    1    1    2    0    0 -0.83520804108E+02 -0.29582731944E+02  0.49149103584E+03  0.49941396879E+03  0.10566000000E+00 0. -1.
        994    1    1    2    0    0  0.50582386555E+02 -0.76116443315E+01  0.17556835218E+02  0.17953884655E+03  0.17120000000E+03 0.  0.
        998    1    1    2    0    0  0.32938417553E+02  0.37194376276E+02  0.99095212523E+03  0.99224718466E+03  0.10000000000E+02 0. -1.
</event>
<event>
 5    1  0.1685865E-008  0.3860934E+03  0.7957747E-01  0.3425048E+00
         13   -1    0    0    0    0  0.00000000000E+00  0.00000000000E+00  0.14999999963E+04  0.15000000000E+04  0.10566000000E+00 0.  1.
        994   -1    0    0    0    0 -0.00000000000E+00 -0.00000000000E+00  0.11368683772E-12  0.17120000000E+03  0.17120000000E+03 0.  0.
         13    1    1    2    0    0 -0.63271170694E+01  0.87143397465E+01  0.54151498033E+02  0.55212027955E+02  0.10566000000E+00 0.  1.
        994    1    1    2    0    0  0.62822845772E+01 -0.39020175362E+01  0.12675009375E+01  0.17136434693E+03  0.17120000000E+03 0.  0.
        998    1    1    2    0    0  0.44832492128E-01 -0.48123222103E+01  0.14445809973E+04  0.14446236251E+04  0.10000000000E+02 0.  1.
</event>
<event>
 5    1  0.1020718E-008  0.3861635E+03  0.7957747E-01  0.3424753E+00
         13   -1    0    0    0    0  0.00000000000E+00  0.00000000000E+00  0.14999999963E+04  0.15000000000E+04  0.10566000000E+00 0.  1.
        994   -1    0    0    0    0 -0.00000000000E+00 -0.00000000000E+00  0.11368683772E-12  0.17120000000E+03  0.17120000000E+03 0.  0.
         13    1    1    2    0    0 -0.39182469035E+01  0.10696718843E+02  0.60822140129E+02  0.61879854127E+02  0.10566000000E+00 0.  1.
        994    1    1    2    0    0  0.13331230401E+02 -0.72219262539E+01  0.18070769379E+01  0.17187956088E+03  0.17120000000E+03 0.  0.
        998    1    1    2    0    0 -0.94129834974E+01 -0.34747925887E+01  0.14373707792E+04  0.14374405850E+04  0.10000000000E+02 0.  1.
</event>
<event>
 5    1  0.1020718E-008  0.3787464E+03  0.7957747E-01  0.3456635E+00
         13   -1    0    0    0    0  0.00000000000E+00  0.00000000000E+00  0.14999999963E+04  0.15000000000E+04  0.10566000000E+00 0. -1.
        994   -1    0    0    0    0 -0.00000000000E+00 -0.00000000000E+00  0.11368683772E-12  0.17120000000E+03  0.17120000000E+03 0.  0.
         13    1    1    2    0    0 -0.75897384645E+02 -0.91626686651E+02  0.70032288444E+03  0.71035766789E+03  0.10566000000E+00 0. -1.
        994    1    1    2    0    0  0.88442381795E+02  0.87537403444E+02  0.58639581048E+02  0.21961988153E+03  0.17120000000E+03 0.  0.
        998    1    1    2    0    0 -0.12544997150E+02  0.40892832069E+01  0.74103753079E+03  0.74122245057E+03  0.10000000000E+02 0. -1.
</event>
<event>
 5    1  0.1020718E-008  0.3851634E+03  0.7957747E-01  0.3428980E+00
         13   -1    0    0    0    0  0.00000000000E+00  0.00000000000E+00  0.14999999963E+04  0.15000000000E+04  0.10566000000E+00 0. -1.
        994   -1    0    0    0    0 -0.00000000000E+00 -0.00000000000E+00  0.11368683772E-12  0.17120000000E+03  0.17120000000E+03 0.  0.
         13    1    1    2    0    0  0.21932484889E+02  0.38758594804E+02  0.42987588707E+02  0.61896740717E+02  0.10566000000E+00 0. -1.
        994    1    1    2    0    0 -0.23162987380E+02 -0.40394464276E+02  0.27244758196E+02  0.17949917431E+03  0.17120000000E+03 0.  0.
        998    1    1    2    0    0  0.12305024910E+01  0.16358694716E+01  0.14297676494E+04  0.14298040850E+04  0.10000000000E+02 0. -1.
</event>
<event>
 5    1  0.1020718E-008  0.2498202E+03  0.7957747E-01  0.4335460E+00
         13   -1    0    0    0    0  0.00000000000E+00  0.00000000000E+00  0.14999999963E+04  0.15000000000E+04  0.10566000000E+00 0. -1.
        994   -1    0    0    0    0 -0.00000000000E+00 -0.00000000000E+00  0.11368683772E-12  0.17120000000E+03  0.17120000000E+03 0.  0.
         13    1    1    2    0    0 -0.21544910333E+02  0.17344340873E+03  0.62046687547E+03  0.64461302648E+03  0.10566000000E+00 0. -1.
        994    1    1    2    0    0  0.97169065274E+02  0.19137051949E+02  0.10318379084E+03  0.22307933274E+03  0.17120000000E+03 0.  0.
        998    1    1    2    0    0 -0.75624154941E+02 -0.19258046068E+03  0.77634932996E+03  0.80350764077E+03  0.10000000000E+02 0. -1.
</event>
<event>
 5    1  0.1020718E-008  0.3834886E+03  0.7957747E-01  0.3436108E+00
         13   -1    0    0    0    0  0.00000000000E+00  0.00000000000E+00  0.14999999963E+04  0.15000000000E+04  0.10566000000E+00 0.  1.
        994   -1    0    0    0    0 -0.00000000000E+00 -0.00000000000E+00  0.11368683772E-12  0.17120000000E+03  0.17120000000E+03 0.  0.
         13    1    1    2    0    0 -0.47535913776E+01 -0.12146579847E+02  0.36095722193E+02  0.38380312110E+02  0.10566000000E+00 0.  1.
        994    1    1    2    0    0 -0.93393825317E+01  0.50505172214E+01  0.27550441973E+01  0.17155104797E+03  0.17120000000E+03 0.  0.
        998    1    1    2    0    0  0.14092973909E+02  0.70960626254E+01  0.14611492299E+04  0.14612686399E+04  0.10000000000E+02 0.  1.
</event>
<event>
 5    1  0.1020718E-008  0.3851385E+03  0.7957747E-01  0.3429085E+00
         13   -1    0    0    0    0  0.00000000000E+00  0.00000000000E+00  0.14999999963E+04  0.15000000000E+04  0.10566000000E+00 0.  1.
        994   -1    0    0    0    0 -0.00000000000E+00 -0.00000000000E+00  0.11368683772E-12  0.17120000000E+03  0.17120000000E+03 0.  0.
         13    1    1    2    0    0  0.11142805025E+02  0.80262124713E+00  0.42003355727E+02  0.43463770672E+02  0.10566000000E+00 0.  1.
        994    1    1    2    0    0  0.26883936903E+01 -0.79010339703E+01  0.17903861921E+01  0.17141265788E+03  0.17120000000E+03 0.  0.
        998    1    1    2    0    0 -0.13831198715E+02  0.70984127232E+01  0.14562062544E+04  0.14563235714E+04  0.10000000000E+02 0.  1.
</event>
<event>
 5    1  0.1020718E-008  0.3806083E+03  0.7957747E-01  0.3448514E+00
         13   -1    0    0    0    0  0.00000000000E+00  0.00000000000E+00  0.14999999963E+04  0.15000000000E+04  0.10566000000E+00 0. -1.
        994   -1    0    0    0    0 -0.00000000000E+00 -0.00000000000E+00  0.11368683772E-12  0.17120000000E+03  0.17120000000E+03 0.  0.
         13    1    1    2    0    0  0.17633585565E+02 -0.10579483837E+02  0.52291957449E+02  0.56190112974E+02  0.10566000000E+00 0. -1.
        994    1    1    2    0    0 -0.19346233226E+02  0.83520988801E+01  0.53091941314E+01  0.17257364178E+03  0.17120000000E+03 0.  0.
        998    1    1    2    0    0  0.17126476606E+01  0.22273849564E+01  0.14423988447E+04  0.14424362452E+04  0.10000000000E+02 0. -1.
</event>
<event>
 5    1  0.1020718E-008  0.3861643E+03  0.7957747E-01  0.3424749E+00
         13   -1    0    0    0    0  0.00000000000E+00  0.00000000000E+00  0.14999999963E+04  0.15000000000E+04  0.10566000000E+00 0.  1.
        994   -1    0    0    0    0 -0.00000000000E+00 -0.00000000000E+00  0.11368683772E-12  0.17120000000E+03  0.17120000000E+03 0.  0.
         13    1    1    2    0    0 -0.12615204936E+02 -0.29952248659E+01  0.71316493522E+02  0.72485641198E+02  0.10566000000E+00 0.  1.
        994    1    1    2    0    0  0.21255016787E+02  0.17174214241E+02  0.35034907788E+01  0.17340254848E+03  0.17120000000E+03 0.  0.
        998    1    1    2    0    0 -0.86398118510E+01 -0.14178989376E+02  0.14251800120E+04  0.14253118103E+04  0.10000000000E+02 0.  1.
</event>
<event>
 5    1  0.1020718E-008  0.3817381E+03  0.7957747E-01  0.3443625E+00
         13   -1    0    0    0    0  0.00000000000E+00  0.00000000000E+00  0.14999999963E+04  0.15000000000E+04  0.10566000000E+00 0.  1.
        994   -1    0    0    0    0 -0.00000000000E+00 -0.00000000000E+00  0.11368683772E-12  0.17120000000E+03  0.17120000000E+03 0.  0.
         13    1    1    2    0    0 -0.59085258532E+01 -0.20019554892E+02  0.59340326940E+02  0.62904521469E+02  0.10566000000E+00 0.  1.
        994    1    1    2    0    0  0.19713409161E+02  0.32437281642E+02  0.80620979503E+01  0.17554268189E+03  0.17120000000E+03 0.  0.
        998    1    1    2    0    0 -0.13804883308E+02 -0.12417726750E+02  0.14325975714E+04  0.14327527966E+04  0.10000000000E+02 0.  1.
</event>
<event>
 5    1  0.1020718E-008  0.3828842E+03  0.7957747E-01  0.3438696E+00
         13   -1    0    0    0    0  0.00000000000E+00  0.00000000000E+00  0.14999999963E+04  0.15000000000E+04  0.10566000000E+00 0. -1.
        994   -1    0    0    0    0 -0.00000000000E+00 -0.00000000000E+00  0.11368683772E-12  0.17120000000E+03  0.17120000000E+03 0.  0.
         13    1    1    2    0    0 -0.11423878122E+02  0.18251673214E+02  0.92958591087E+02  0.95419806054E+02  0.10566000000E+00 0. -1.
        994    1    1    2    0    0 -0.11254366602E+02 -0.71758707241E+01  0.32744234032E+01  0.17175073722E+03  0.17120000000E+03 0.  0.
        998    1    1    2    0    0  0.22678244724E+02 -0.11075802490E+02  0.14037669818E+04  0.14040294567E+04  0.10000000000E+02 0. -1.
</event>
<event>
 5    1  0.1020718E-008  0.3904723E+03  0.7957747E-01  0.3406790E+00
         13   -1    0    0    0    0  0.00000000000E+00  0.00000000000E+00  0.14999999963E+04  0.15000000000E+04  0.10566000000E+00 0. -1.
        994   -1    0    0    0    0 -0.00000000000E+00 -0.00000000000E+00  0.11368683772E-12  0.17120000000E+03  0.17120000000E+03 0.  0.
         13    1    1    2    0    0  0.62719213167E+02  0.47555902177E+00  0.76253795424E+02  0.98734889159E+02  0.10566000000E+00 0. -1.
        994    1    1    2    0    0 -0.66999745220E+02  0.50597081769E-01  0.39326544070E+02  0.18800262096E+03  0.17120000000E+03 0.  0.
        998    1    1    2    0    0  0.42805320529E+01 -0.52615610354E+00  0.13844196568E+04  0.13844624899E+04  0.10000000000E+02 0. -1.
</event>
<event>
 5    1  0.1020718E-008  0.3784013E+03  0.7957747E-01  0.3458149E+00
         13   -1    0    0    0    0  0.00000000000E+00  0.00000000000E+00  0.14999999963E+04  0.15000000000E+04  0.10566000000E+00 0.  1.
        994   -1    0    0    0    0 -0.00000000000E+00 -0.00000000000E+00  0.11368683772E-12  0.17120000000E+03  0.17120000000E+03 0.  0.
         13    1    1    2    0    0 -0.36393924642E+02 -0.34214904113E+02  0.22852502883E+03  0.23392066471E+03  0.10566000000E+00 0.  1.
        994    1    1    2    0    0  0.22033505822E+02  0.37346542104E+02  0.11287350936E+02  0.17696633543E+03  0.17120000000E+03 0.  0.
        998    1    1    2    0    0  0.14360418820E+02 -0.31316379910E+01  0.12601876165E+04  0.12603129999E+04  0.10000000000E+02 0.  1.
</event>
<event>
 5    1  0.1020718E-008  0.3797939E+03  0.7957747E-01  0.3452057E+00
         13   -1    0    0    0    0  0.00000000000E+00  0.00000000000E+00  0.14999999963E+04  0.15000000000E+04  0.10566000000E+00 0. -1.
        994   -1    0    0    0    0 -0.00000000000E+00 -0.00000000000E+00  0.11368683772E-12  0.17120000000E+03  0.17120000000E+03 0.  0.
         13    1    1    2    0    0 -0.33242301021E+02  0.17797640434E+02  0.15527422357E+03  0.15978705282E+03  0.10566000000E+00 0. -1.
        994    1    1    2    0    0  0.28952978273E+02 -0.15807468027E+02  0.78858884421E+01  0.17452729939E+03  0.17120000000E+03 0.  0.
        998    1    1    2    0    0  0.42893227480E+01 -0.19901724074E+01  0.13368398843E+04  0.13368856478E+04  0.10000000000E+02 0. -1.
</event>
<event>
 5    1  0.1020718E-008  0.3825795E+03  0.7957747E-01  0.3440003E+00
         13   -1    0    0    0    0  0.00000000000E+00  0.00000000000E+00  0.14999999963E+04  0.15000000000E+04  0.10566000000E+00 0. -1.
        994   -1    0    0    0    0 -0.00000000000E+00 -0.00000000000E+00  0.11368683772E-12  0.17120000000E+03  0.17120000000E+03 0.  0.
         13    1    1    2    0    0 -0.76091388777E+01  0.86912676746E+01  0.22136783364E+02  0.24969691027E+02  0.10566000000E+00 0. -1.
        994    1    1    2    0    0  0.68522978463E+01 -0.10765369414E+02  0.33766164252E+01  0.17170814979E+03  0.17120000000E+03 0.  0.
        998    1    1    2    0    0  0.75684103141E+00  0.20741017397E+01  0.14744865965E+04  0.14745221592E+04  0.10000000000E+02 0. -1.
</event>
<event>
 5    1  0.1020718E-008  0.3822642E+03  0.7957747E-01  0.3441359E+00
         13   -1    0    0    0    0  0.00000000000E+00  0.00000000000E+00  0.14999999963E+04  0.15000000000E+04  0.10566000000E+00 0. -1.
        994   -1    0    0    0    0 -0.00000000000E+00 -0.00000000000E+00  0.11368683772E-12  0.17120000000E+03  0.17120000000E+03 0.  0.
         13    1    1    2    0    0 -0.78769260691E+01 -0.12770221027E+02  0.35909814996E+02  0.38918510846E+02  0.10566000000E+00 0. -1.
        994    1    1    2    0    0  0.62870070116E+01  0.13522416508E+02  0.37327782626E+01  0.17188878916E+03  0.17120000000E+03 0.  0.
        998    1    1    2    0    0  0.15899190576E+01 -0.75219548138E+00  0.14603574030E+04  0.14603927000E+04  0.10000000000E+02 0. -1.
</event>
<event>
 5    1  0.1020718E-008  0.3762331E+03  0.7957747E-01  0.3467726E+00
         13   -1    0    0    0    0  0.00000000000E+00  0.00000000000E+00  0.14999999963E+04  0.15000000000E+04  0.10566000000E+00 0.  1.
        994   -1    0    0    0    0 -0.00000000000E+00 -0.00000000000E+00  0.11368683772E-12  0.17120000000E+03  0.17120000000E+03 0.  0.
         13    1    1    2    0    0  0.36232363812E+02  0.35307928153E+02  0.28245828726E+03  0.28695318291E+03  0.10566000000E+00 0.  1.
        994    1    1    2    0    0  0.12893867490E+02 -0.16765529944E+01  0.66193855142E+01  0.17182060096E+03  0.17120000000E+03 0.  0.
        998    1    1    2    0    0 -0.49126231302E+02 -0.33631375159E+02  0.12109223235E+04  0.12124262161E+04  0.10000000000E+02 0.  1.
</event>
<event>
 5    1  0.1133627E-008  0.3860814E+03  0.7957747E-01  0.3425099E+00
         13   -1    0    0    0    0  0.00000000000E+00  0.00000000000E+00  0.14999999963E+04  0.15000000000E+04  0.10566000000E+00 0. -1.
        994   -1    0    0    0    0 -0.00000000000E+00 -0.00000000000E+00  0.11368683772E-12  0.17120000000E+03  0.17120000000E+03 0.  0.
         13    1    1    2    0    0 -0.48612485393E+01  0.93372510795E+01  0.45466996893E+02  0.46669850713E+02  0.10566000000E+00 0. -1.
        994    1    1    2    0    0 -0.65875933348E+01 -0.33660252890E+02  0.49589701408E+01  0.17467238017E+03  0.17120000000E+03 0.  0.
        998    1    1    2    0    0  0.11448841874E+02  0.24323001811E+02  0.14495740292E+04  0.14498577691E+04  0.10000000000E+02 0. -1.
</event>
<event>
 5    1  0.1020718E-008  0.3801367E+03  0.7957747E-01  0.3450564E+00
         13   -1    0    0    0    0  0.00000000000E+00  0.00000000000E+00  0.14999999963E+04  0.15000000000E+04  0.10566000000E+00 0.  1.
        994   -1    0    0    0    0 -0.00000000000E+00 -0.00000000000E+00  0.11368683772E-12  0.17120000000E+03  0.17120000000E+03 0.  0.
         13    1    1    2    0    0 -0.70315449071E+01 -0.26706364766E+02  0.94199722195E+02  0.98164511757E+02  0.10566000000E+00 0.  1.
        994    1    1    2    0    0 -0.91039090184E+01  0.16124533565E+02  0.52107081418E+01  0.17227731488E+03  0.17120000000E+03 0.  0.
        998    1    1    2    0    0  0.16135453926E+02  0.10581831202E+02  0.14005895659E+04  0.14007581734E+04  0.10000000000E+02 0.  1.
</event>
<event>
 5    1  0.1020718E-008  0.3709189E+03  0.7957747E-01  0.3491678E+00
         13   -1    0    0    0    0  0.00000000000E+00  0.00000000000E+00  0.14999999963E+04  0.15000000000E+04  0.10566000000E+00 0.  1.
        994   -1    0    0    0    0 -0.00000000000E+00 -0.00000000000E+00  0.11368683772E-12  0.17120000000E+03  0.17120000000E+03 0.  0.
         13    1    1    2    0    0  0.15573411364E+03 -0.78675276635E+02  0.70980697103E+03  0.73093697443E+03  0.10566000000E+00 0.  1.
        994    1    1    2    0    0 -0.16302286905E+03  0.79795299854E+02  0.13259986060E+03  0.28255248848E+03  0.17120000000E+03 0.  0.
        998    1    1    2    0    0  0.72887554144E+01 -0.11200232186E+01  0.65759316465E+03  0.65771053709E+03  0.10000000000E+02 0.  1.
</event>
<event>
 5    1  0.1020718E-008  0.3730642E+03  0.7957747E-01  0.3481926E+00
         13   -1    0    0    0    0  0.00000000000E+00  0.00000000000E+00  0.14999999963E+04  0.15000000000E+04  0.10566000000E+00 0. -1.
        994   -1    0    0    0    0 -0.00000000000E+00 -0.00000000000E+00  0.11368683772E-12  0.17120000000E+03  0.17120000000E+03 0.  0.
         13    1    1    2    0    0 -0.22442603688E+02  0.10192293965E+02  0.34111404918E+02  0.42085061792E+02  0.10566000000E+00 0. -1.
        994    1    1    2    0    0  0.46739284226E+02  0.37643150725E+01  0.15236864135E+02  0.17815816789E+03  0.17120000000E+03 0.  0.
        998    1    1    2    0    0 -0.24296680538E+02 -0.13956609037E+02  0.14506517272E+04  0.14509567703E+04  0.10000000000E+02 0. -1.
</event>
<event>
 5    1  0.1020718E-008  0.3843798E+03  0.7957747E-01  0.3432307E+00
         13   -1    0    0    0    0  0.00000000000E+00  0.00000000000E+00  0.14999999963E+04  0.15000000000E+04  0.10566000000E+00 0.  1.
        994   -1    0    0    0    0 -0.00000000000E+00 -0.00000000000E+00  0.11368683772E-12  0.17120000000E+03  0.17120000000E+03 0.  0.
         13    1    1    2    0    0 -0.57067734017E+01 -0.14592745140E+02  0.60620502207E+02  0.62612873479E+02  0.10566000000E+00 0.  1.
        994    1    1    2    0    0  0.73612633644E+01  0.15656298419E+02  0.29253121515E+01  0.17209679059E+03  0.17120000000E+03 0.  0.
        998    1    1    2    0    0 -0.16544899627E+01 -0.10635532784E+01  0.14364541819E+04  0.14364903359E+04  0.10000000000E+02 0.  1.
</event>
<event>
 5    1  0.1020718E-008  0.3707703E+03  0.7957747E-01  0.3492358E+00
         13   -1    0    0    0    0  0.00000000000E+00  0.00000000000E+00  0.14999999963E+04  0.15000000000E+04  0.10566000000E+00 0. -1.
        994   -1    0    0    0    0 -0.00000000000E+00 -0.00000000000E+00  0.11368683772E-12  0.17120000000E+03  0.17120000000E+03 0.  0.
         13    1    1    2    0    0  0.56154950233E+02  0.28574662426E+02  0.22880412562E+03  0.23732094057E+03  0.10566000000E+00 0. -1.
        994    1    1    2    0    0 -0.21946051322E+02 -0.24854504508E+02  0.12667600631E+02  0.17484073801E+03  0.17120000000E+03 0.  0.
        998    1    1    2    0    0 -0.34208898910E+02 -0.37201579185E+01  0.12585282700E+04  0.12590383214E+04  0.10000000000E+02 0. -1.
</event>
<event>
 5    1  0.1020718E-008  0.3714584E+03  0.7957747E-01  0.3489215E+00
         13   -1    0    0    0    0  0.00000000000E+00  0.00000000000E+00  0.14999999963E+04  0.15000000000E+04  0.10566000000E+00 0. -1.
        994   -1    0    0    0    0 -0.00000000000E+00 -0.00000000000E+00  0.11368683772E-12  0.17120000000E+03  0.17120000000E+03 0.  0.
         13    1    1    2    0    0 -0.59530026441E+02  0.12749529875E+01  0.28087027953E+03  0.28711247733E+03  0.10566000000E+00 0. -1.
        994    1    1    2    0    0 -0.10457824361E+02  0.14771894580E+02  0.96365151810E+01  0.17242354069E+03  0.17120000000E+03 0.  0.
        998    1    1    2    0    0  0.69987850802E+02 -0.16046847568E+02  0.12094932016E+04  0.12116639820E+04  0.10000000000E+02 0. -1.
</event>
<event>
 5    1  0.1020718E-008  0.3838832E+03  0.7957747E-01  0.3434422E+00
         13   -1    0    0    0    0  0.00000000000E+00  0.00000000000E+00  0.14999999963E+04  0.15000000000E+04  0.10566000000E+00 0.  1.
        994   -1    0    0    0    0 -0.00000000000E+00 -0.00000000000E+00  0.11368683772E-12  0.17120000000E+03  0.17120000000E+03 0.  0.
         13    1    1    2    0    0 -0.13889614876E+02  0.11502275735E+02  0.79140367058E+02  0.81169160465E+02  0.10566000000E+00 0.  1.
        994    1    1    2    0    0  0.46738407366E+01  0.47032730063E+01  0.23307413679E+01  0.17134420889E+03  0.17120000000E+03 0.  0.
        998    1    1    2    0    0  0.92157741397E+01 -0.16205548741E+02  0.14185288879E+04  0.14186866306E+04  0.10000000000E+02 0.  1.
</event>
<event>
 5    1  0.1020718E-008  0.3778730E+03  0.7957747E-01  0.3460473E+00
         13   -1    0    0    0    0  0.00000000000E+00  0.00000000000E+00  0.14999999963E+04  0.15000000000E+04  0.10566000000E+00 0. -1.
        994   -1    0    0    0    0 -0.00000000000E+00 -0.00000000000E+00  0.11368683772E-12  0.17120000000E+03  0.17120000000E+03 0.  0.
         13    1    1    2    0    0 -0.25323829995E+02 -0.39366226193E+02  0.23732627013E+03  0.24189825503E+03  0.10566000000E+00 0. -1.
        994    1    1    2    0    0  0.76267937914E+01  0.64908683924E+01  0.55484572567E+01  0.17158241382E+03  0.17120000000E+03 0.  0.
        998    1    1    2    0    0  0.17697036203E+02  0.32875357801E+02  0.12571252689E+04  0.12577193311E+04  0.10000000000E+02 0. -1.
</event>
<event>
 5    1  0.1020718E-008  0.3760310E+03  0.7957747E-01  0.3468625E+00
         13   -1    0    0    0    0  0.00000000000E+00  0.00000000000E+00  0.14999999963E+04  0.15000000000E+04  0.10566000000E+00 0.  1.
        994   -1    0    0    0    0 -0.00000000000E+00 -0.00000000000E+00  0.11368683772E-12  0.17120000000E+03  0.17120000000E+03 0.  0.
         13    1    1    2    0    0 -0.14548490257E+02 -0.60760075251E+01  0.17511649325E+02  0.23563647050E+02  0.10566000000E+00 0.  1.
        994    1    1    2    0    0  0.11218001917E+02  0.44824698612E+01  0.66447596849E+01  0.17175426904E+03  0.17120000000E+03 0.  0.
        998    1    1    2    0    0  0.33304883399E+01  0.15935376638E+01  0.14758435873E+04  0.14758820839E+04  0.10000000000E+02 0.  1.
</event>
<event>
 5    1  0.1020718E-008  0.3796989E+03  0.7957747E-01  0.3452471E+00
         13   -1    0    0    0    0  0.00000000000E+00  0.00000000000E+00  0.14999999963E+04  0.15000000000E+04  0.10566000000E+00 0. -1.
        994   -1    0    0    0    0 -0.00000000000E+00 -0.00000000000E+00  0.11368683772E-12  0.17120000000E+03  0.17120000000E+03 0.  0.
         13    1    1    2    0    0  0.20453879721E+02 -0.50792474695E+01  0.49898427698E+02  0.54166633652E+02  0.10566000000E+00 0. -1.
        994    1    1    2    0    0 -0.15801482252E+02  0.56727444431E+00  0.51222390017E+01  0.17200490102E+03  0.17120000000E+03 0.  0.
        998    1    1    2    0    0 -0.46523974686E+01  0.45119730252E+01  0.14449793296E+04  0.14450284653E+04  0.10000000000E+02 0. -1.
</event>
<event>
 5    1  0.1020718E-008  0.3850247E+03  0.7957747E-01  0.3429568E+00
         13   -1    0    0    0    0  0.00000000000E+00  0.00000000000E+00  0.14999999963E+04  0.15000000000E+04  0.10566000000E+00 0. -1.
        994   -1    0    0    0    0 -0.00000000000E+00 -0.00000000000E+00  0.11368683772E-12  0.17120000000E+03  0.17120000000E+03 0.  0.
         13    1    1    2    0    0 -0.13107283714E+02  0.10562990111E+02  0.88832045912E+02  0.90413058744E+02  0.10566000000E+00 0. -1.
        994    1    1    2    0    0  0.69910617034E+01 -0.57657722160E+01  0.18879854963E+01  0.17145006142E+03  0.17120000000E+03 0.  0.
        998    1    1    2    0    0  0.61162220109E+01 -0.47972178946E+01  0.14092799649E+04  0.14093368798E+04  0.10000000000E+02 0. -1.
</event>
<event>
 5    1  0.1020718E-008  0.3748481E+03  0.7957747E-01  0.3473903E+00
         13   -1    0    0    0    0  0.00000000000E+00  0.00000000000E+00  0.14999999963E+04  0.15000000000E+04  0.10566000000E+00 0.  1.
        994   -1    0    0    0    0 -0.00000000000E+00 -0.00000000000E+00  0.11368683772E-12  0.17120000000E+03  0.17120000000E+03 0.  0.
         13    1    1    2    0    0 -0.48263025444E+02 -0.22561647723E+02  0.30780957259E+03  0.31238612600E+03  0.10566000000E+00 0.  1.
        994    1    1    2    0    0 -0.20981341013E+02  0.42538141209E+01  0.83170066546E+01  0.17273368000E+03  0.17120000000E+03 0.  0.
        998    1    1    2    0    0  0.69244366456E+02  0.18307833602E+02  0.11838734170E+04  0.11860801940E+04  0.10000000000E+02 0.  1.
</event>
<event>
 5    1  0.1020718E-008  0.3713305E+03  0.7957747E-01  0.3489798E+00
         13   -1    0    0    0    0  0.00000000000E+00  0.00000000000E+00  0.14999999963E+04  0.15000000000E+04  0.10566000000E+00 0. -1.
        994   -1    0    0    0    0 -0.00000000000E+00 -0.00000000000E+00  0.11368683772E-12  0.17120000000E+03  0.17120000000E+03 0.  0.
         13    1    1    2    0    0  0.46806753521E+02 -0.12348633020E+03  0.52528883224E+03  0.54163466872E+03  0.10566000000E+00 0. -1.
        994    1    1    2    0    0 -0.26263088549E+02  0.11743248982E+03  0.64396753816E+02  0.21894410562E+03  0.17120000000E+03 0.  0.
        998    1    1    2    0    0 -0.20543664972E+02  0.60538403844E+01  0.91031441022E+03  0.91062122566E+03  0.10000000000E+02 0. -1.
</event>
<event>
 5    1  0.1020718E-008  0.3836348E+03  0.7957747E-01  0.3435483E+00
         13   -1    0    0    0    0  0.00000000000E+00  0.00000000000E+00  0.14999999963E+04  0.15000000000E+04  0.10566000000E+00 0. -1.
        994   -1    0    0    0    0 -0.00000000000E+00 -0.00000000000E+00  0.11368683772E-12  0.17120000000E+03  0.17120000000E+03 0.  0.
         13    1    1    2    0    0 -0.25718500382E+00 -0.23253202613E+02  0.11978647784E+03  0.12202290364E+03  0.10566000000E+00 0. -1.
        994    1    1    2    0    0  0.19670994695E+01  0.10518309815E+02  0.26877896528E+01  0.17155514721E+03  0.17120000000E+03 0.  0.
        998    1    1    2    0    0 -0.17099144657E+01  0.12734892797E+02  0.13775257288E+04  0.13776219491E+04  0.10000000000E+02 0. -1.
</event>
<event>
 5    1  0.1020718E-008  0.3832838E+03  0.7957747E-01  0.3436983E+00
         13   -1    0    0    0    0  0.00000000000E+00  0.00000000000E+00  0.14999999963E+04  0.15000000000E+04  0.10566000000E+00 0.  1.
        994   -1    0    0    0    0 -0.00000000000E+00 -0.00000000000E+00  0.11368683772E-12  0.17120000000E+03  0.17120000000E+03 0.  0.
         13    1    1    2    0    0  0.12412652372E+02  0.22857621956E+01  0.31273214778E+02  0.33724231263E+02  0.10566000000E+00 0.  1.
        994    1    1    2    0    0 -0.99967961296E+01  0.73155771371E+01  0.29922259757E+01  0.17167366431E+03  0.17120000000E+03 0.  0.
        998    1    1    2    0    0 -0.24158562423E+01 -0.96013393327E+01  0.14657345555E+04  0.14658021044E+04  0.10000000000E+02 0.  1.
</event>
<event>
 5    1  0.1020718E-008  0.3084661E+03  0.7957747E-01  0.3837373E+00
         13   -1    0    0    0    0  0.00000000000E+00  0.00000000000E+00  0.14999999963E+04  0.15000000000E+04  0.10566000000E+00 0. -1.
        994   -1    0    0    0    0 -0.00000000000E+00 -0.00000000000E+00  0.11368683772E-12  0.17120000000E+03  0.17120000000E+03 0.  0.
         13    1    1    2    0    0 -0.17227957393E+01 -0.22518611648E+03  0.72702805246E+03  0.76110548238E+03  0.10566000000E+00 0. -1.
        994    1    1    2    0    0  0.49809128528E+02  0.17035874363E+03  0.16278815189E+03  0.29548684101E+03  0.17120000000E+03 0.  0.
        998    1    1    2    0    0 -0.48086332789E+02  0.54827372847E+02  0.61018379193E+03  0.61460767661E+03  0.10000000000E+02 0. -1.
</event>
<event>
 5    1  0.1020718E-008  0.3848928E+03  0.7957747E-01  0.3430127E+00
         13   -1    0    0    0    0  0.00000000000E+00  0.00000000000E+00  0.14999999963E+04  0.15000000000E+04  0.10566000000E+00 0. -1.
        994   -1    0    0    0    0 -0.00000000000E+00 -0.00000000000E+00  0.11368683772E-12  0.17120000000E+03  0.17120000000E+03 0.  0.
         13    1    1    2    0    0  0.10125138266E+02  0.61253093181E+01  0.40657526044E+02  0.42344815824E+02  0.10566000000E+00 0. -1.
        994    1    1    2    0    0 -0.90749188543E+01 -0.76953234048E+01  0.21492523034E+01  0.17162642990E+03  0.17120000000E+03 0.  0.
        998    1    1    2    0    0 -0.10502194114E+01  0.15700140867E+01  0.14571932179E+04  0.14572287543E+04  0.10000000000E+02 0. -1.
</event>
<event>
 5    1  0.1020718E-008  0.3821230E+03  0.7957747E-01  0.3441966E+00
         13   -1    0    0    0    0  0.00000000000E+00  0.00000000000E+00  0.14999999963E+04  0.15000000000E+04  0.10566000000E+00 0.  1.
        994   -1    0    0    0    0 -0.00000000000E+00 -0.00000000000E+00  0.11368683772E-12  0.17120000000E+03  0.17120000000E+03 0.  0.
         13    1    1    2    0    0 -0.79369764642E+01 -0.32929417957E+02  0.17886120760E+03  0.18204033869E+03  0.10566000000E+00 0.  1.
        994    1    1    2    0    0  0.60475082123E+01  0.24100550748E+02  0.51175513490E+01  0.17306946072E+03  0.17120000000E+03 0.  0.
        998    1    1    2    0    0  0.18894682520E+01  0.88288672083E+01  0.13160212373E+04  0.13160902006E+04  0.10000000000E+02 0.  1.
</event>
<event>
 5    1  0.1020718E-008  0.3842918E+03  0.7957747E-01  0.3432681E+00
         13   -1    0    0    0    0  0.00000000000E+00  0.00000000000E+00  0.14999999963E+04  0.15000000000E+04  0.10566000000E+00 0. -1.
        994   -1    0    0    0    0 -0.00000000000E+00 -0.00000000000E+00  0.11368683772E-12  0.17120000000E+03  0.17120000000E+03 0.  0.
         13    1    1    2    0    0  0.95536564262E+01  0.78294323552E+01  0.37137626393E+02  0.39138048243E+02  0.10566000000E+00 0. -1.
        994    1    1    2    0    0 -0.12310944873E+02 -0.68247652260E+01  0.26355203001E+01  0.17179791253E+03  0.17120000000E+03 0.  0.
        998    1    1    2    0    0  0.27572884466E+01 -0.10046671291E+01  0.14602268496E+04  0.14602640392E+04  0.10000000000E+02 0. -1.
</event>
<event>
 5    1  0.1020718E-008  0.3742469E+03  0.7957747E-01  0.3476598E+00
         13   -1    0    0    0    0  0.00000000000E+00  0.00000000000E+00  0.14999999963E+04  0.15000000000E+04  0.10566000000E+00 0.  1.
        994   -1    0    0    0    0 -0.00000000000E+00 -0.00000000000E+00  0.11368683772E-12  0.17120000000E+03  0.17120000000E+03 0.  0.
         13    1    1    2    0    0 -0.38637210953E+02 -0.60362319075E+02  0.20458394749E+03  0.21677418289E+03  0.10566000000E+00 0.  1.
        994    1    1    2    0    0  0.54544205199E+02 -0.47724616943E+00  0.23837354045E+02  0.18125384832E+03  0.17120000000E+03 0.  0.
        998    1    1    2    0    0 -0.15906994246E+02  0.60839565245E+02  0.12715786947E+04  0.12731719688E+04  0.10000000000E+02 0.  1.
</event>
<event>
 5    1  0.1020718E-008  0.3835633E+03  0.7957747E-01  0.3435788E+00
         13   -1    0    0    0    0  0.00000000000E+00  0.00000000000E+00  0.14999999963E+04  0.15000000000E+04  0.10566000000E+00 0.  1.
        994   -1    0    0    0    0 -0.00000000000E+00 -0.00000000000E+00  0.11368683772E-12  0.17120000000E+03  0.17120000000E+03 0.  0.
         13    1    1    2    0    0  0.16801054525E+02 -0.18839440862E+02  0.12729660254E+03  0.12977532951E+03  0.10566000000E+00 0.  1.
        994    1    1    2    0    0 -0.97573480804E+01  0.22928094916E+02  0.43993103099E+01  0.17305980847E+03  0.17120000000E+03 0.  0.
        998    1    1    2    0    0 -0.70437064447E+01 -0.40886540533E+01  0.13683040834E+04  0.13683648620E+04  0.10000000000E+02 0.  1.
</event>
<event>
 5    1  0.1020718E-008  0.3817744E+03  0.7957747E-01  0.3443469E+00
         13   -1    0    0    0    0  0.00000000000E+00  0.00000000000E+00  0.14999999963E+04  0.15000000000E+04  0.10566000000E+00 0. -1.
        994   -1    0    0    0    0 -0.00000000000E+00 -0.00000000000E+00  0.11368683772E-12  0.17120000000E+03  0.17120000000E+03 0.  0.
         13    1    1    2    0    0  0.98682955949E+01 -0.11878775783E+02  0.34702179664E+02  0.37983430723E+02  0.10566000000E+00 0. -1.
        994    1    1    2    0    0 -0.12028039663E+02  0.13143972588E+02  0.42958117930E+01  0.17217819767E+03  0.17120000000E+03 0.  0.
        998    1    1    2    0    0  0.21597440684E+01 -0.12651968055E+01  0.14610020048E+04  0.14610383716E+04  0.10000000000E+02 0. -1.
</event>
<event>
 5    1  0.1020718E-008  0.3818170E+03  0.7957747E-01  0.3443285E+00
         13   -1    0    0    0    0  0.00000000000E+00  0.00000000000E+00  0.14999999963E+04  0.15000000000E+04  0.10566000000E+00 0. -1.
        994   -1    0    0    0    0 -0.00000000000E+00 -0.00000000000E+00  0.11368683772E-12  0.17120000000E+03  0.17120000000E+03 0.  0.
         13    1    1    2    0    0 -0.10987364243E+01  0.14021316334E+02  0.28897240189E+02  0.32138235609E+02  0.10566000000E+00 0. -1.
        994    1    1    2    0    0 -0.42953429999E+01 -0.16457683491E+02  0.41806633744E+01  0.17209364678E+03  0.17120000000E+03 0.  0.
        998    1    1    2    0    0  0.53940794241E+01  0.24363671566E+01  0.14669220927E+04  0.14669681176E+04  0.10000000000E+02 0. -1.
</event>
<event>
 5    1  0.1020718E-008  0.3858712E+03  0.7957747E-01  0.3425986E+00
         13   -1    0    0    0    0  0.00000000000E+00  0.00000000000E+00  0.14999999963E+04  0.15000000000E+04  0.10566000000E+00 0. -1.
        994   -1    0    0    0    0 -0.00000000000E+00 -0.00000000000E+00  0.11368683772E-12  0.17120000000E+03  0.17120000000E+03 0.  0.
         13    1    1    2    0    0 -0.11535974336E+02 -0.11090779330E+01  0.54826893389E+02  0.56038452517E+02  0.10566000000E+00 0. -1.
        994    1    1    2    0    0  0.12287677298E+02  0.27994070736E+01  0.17192158984E+01  0.17167183635E+03  0.17120000000E+03 0.  0.
        998    1    1    2    0    0 -0.75170296116E+00 -0.16903291407E+01  0.14434538870E+04  0.14434897111E+04  0.10000000000E+02 0. -1.
</event>
<event>
 5    1  0.1020718E-008  0.3720884E+03  0.7957747E-01  0.3486347E+00
         13   -1    0    0    0    0  0.00000000000E+00  0.00000000000E+00  0.14999999963E+04  0.15000000000E+04  0.10566000000E+00 0. -1.
        994   -1    0    0    0    0 -0.00000000000E+00 -0.00000000000E+00  0.11368683772E-12  0.17120000000E+03  0.17120000000E+03 0.  0.
         13    1    1    2    0    0 -0.10989868616E+02 -0.24453010575E+02  0.45524539082E+02  0.52832014546E+02  0.10566000000E+00 0. -1.
        994    1    1    2    0    0 -0.38841232582E+02 -0.63671305157E+01  0.13518495329E+02  0.17618561637E+03  0.17120000000E+03 0.  0.
        998    1    1    2    0    0  0.49831101198E+02  0.30820141091E+02  0.14409569619E+04  0.14421823691E+04  0.10000000000E+02 0. -1.
</event>
<event>
 5    1  0.1020718E-008  0.2910807E+03  0.7957747E-01  0.3961827E+00
         13   -1    0    0    0    0  0.00000000000E+00  0.00000000000E+00  0.14999999963E+04  0.15000000000E+04  0.10566000000E+00 0.  1.
        994   -1    0    0    0    0 -0.00000000000E+00 -0.00000000000E+00  0.11368683772E-12  0.17120000000E+03  0.17120000000E+03 0.  0.
         13    1    1    2    0    0  0.14475029570E+03 -0.53228683714E+01  0.71210877879E+03  0.72669106574E+03  0.10566000000E+00 0.  1.
        994    1    1    2    0    0 -0.80043636519E+02  0.10397545257E+02  0.39638367678E+02  0.19337976338E+03  0.17120000000E+03 0.  0.
        998    1    1    2    0    0 -0.64706659185E+02 -0.50746768860E+01  0.74825284981E+03  0.75112917087E+03  0.10000000000E+02 0. -1.
</event>
<event>
 5    1  0.1020718E-008  0.3838960E+03  0.7957747E-01  0.3434368E+00
         13   -1    0    0    0    0  0.00000000000E+00  0.00000000000E+00  0.14999999963E+04  0.15000000000E+04  0.10566000000E+00 0.  1.
        994   -1    0    0    0    0 -0.00000000000E+00 -0.00000000000E+00  0.11368683772E-12  0.17120000000E+03  0.17120000000E+03 0.  0.
         13    1    1    2    0    0  0.58652146680E+01 -0.17996175590E+02  0.93158475738E+02  0.95061957926E+02  0.10566000000E+00 0.  1.
        994    1    1    2    0    0 -0.12397981547E+00 -0.76663708128E+01  0.23732818449E+01  0.17138804240E+03  0.17120000000E+03 0.  0.
        998    1    1    2    0    0 -0.57412348525E+01  0.25662546403E+02  0.14044682387E+04  0.14047499997E+04  0.10000000000E+02 0.  1.
</event>
<event>
 5    1  0.1020718E-008  0.3829172E+03  0.7957747E-01  0.3438554E+00
         13   -1    0    0    0    0  0.00000000000E+00  0.00000000000E+00  0.14999999963E+04  0.15000000000E+04  0.10566000000E+00 0.  1.
        994   -1    0    0    0    0 -0.00000000000E+00 -0.00000000000E+00  0.11368683772E-12  0.17120000000E+03  0.17120000000E+03 0.  0.
         13    1    1    2    0    0  0.18205673272E+02  0.15339915873E+02  0.10165692789E+03  0.10440738341E+03  0.10566000000E+00 0.  1.
        994    1    1    2    0    0 -0.20935922517E+02 -0.71388290679E+01  0.42894440682E+01  0.17267633035E+03  0.17120000000E+03 0.  0.
        998    1    1    2    0    0  0.27302492450E+01 -0.82010868052E+01  0.13940536243E+04  0.13941162862E+04  0.10000000000E+02 0.  1.
</event>
<event>
 5    1  0.1020718E-008  0.3822338E+03  0.7957747E-01  0.3441489E+00
         13   -1    0    0    0    0  0.00000000000E+00  0.00000000000E+00  0.14999999963E+04  0.15000000000E+04  0.10566000000E+00 0. -1.
        994   -1    0    0    0    0 -0.00000000000E+00 -0.00000000000E+00  0.11368683772E-12  0.17120000000E+03  0.17120000000E+03 0.  0.
         13    1    1    2    0    0  0.13134049797E+02  0.17135887454E+02  0.81091262057E+02  0.83916302641E+02  0.10566000000E+00 0. -1.
        994    1    1    2    0    0  0.18007260391E+02 -0.17968198703E+02  0.51601116778E+01  0.17315653133E+03  0.17120000000E+03 0.  0.
        998    1    1    2    0    0 -0.31141310188E+02  0.83231124907E+00  0.14137486225E+04  0.14141271660E+04  0.10000000000E+02 0. -1.
</event>
<event>
 5    1  0.1020718E-008  0.3774690E+03  0.7957747E-01  0.3462254E+00
         13   -1    0    0    0    0  0.00000000000E+00  0.00000000000E+00  0.14999999963E+04  0.15000000000E+04  0.10566000000E+00 0. -1.
        994   -1    0    0    0    0 -0.00000000000E+00 -0.00000000000E+00  0.11368683772E-12  0.17120000000E+03  0.17120000000E+03 0.  0.
         13    1    1    2    0    0 -0.14926077859E+02  0.43120373458E+02  0.16984391208E+03  0.17586676787E+03  0.10566000000E+00 0. -1.
        994    1    1    2    0    0  0.18030858678E+02 -0.42316005643E+02  0.12582198252E+02  0.17771749467E+03  0.17120000000E+03 0.  0.
        998    1    1    2    0    0 -0.31047808189E+01 -0.80436781473E+00  0.13175738859E+04  0.13176157375E+04  0.10000000000E+02 0. -1.
</event>
<event>
 5    1  0.1020718E-008  0.3835716E+03  0.7957747E-01  0.3435753E+00
         13   -1    0    0    0    0  0.00000000000E+00  0.00000000000E+00  0.14999999963E+04  0.15000000000E+04  0.10566000000E+00 0.  1.
        994   -1    0    0    0    0 -0.00000000000E+00 -0.00000000000E+00  0.11368683772E-12  0.17120000000E+03  0.17120000000E+03 0.  0.
         13    1    1    2    0    0  0.23832608532E+02 -0.91002025159E+01  0.13195232286E+03  0.13439580941E+03  0.10566000000E+00 0.  1.
        994    1    1    2    0    0 -0.26543463429E+02 -0.73555356763E+01  0.48515848659E+01  0.17346941296E+03  0.17120000000E+03 0.  0.
        998    1    1    2    0    0  0.27108548970E+01  0.16455738192E+02  0.13631960886E+04  0.13633347776E+04  0.10000000000E+02 0.  1.
</event>
<event>
 5    1  0.1020718E-008  0.3857238E+03  0.7957747E-01  0.3426608E+00
         13   -1    0    0    0    0  0.00000000000E+00  0.00000000000E+00  0.14999999963E+04  0.15000000000E+04  0.10566000000E+00 0. -1.
        994   -1    0    0    0    0 -0.00000000000E+00 -0.00000000000E+00  0.11368683772E-12  0.17120000000E+03  0.17120000000E+03 0.  0.
         13    1    1    2    0    0  0.41600104197E+00 -0.10640786958E+02  0.44239750009E+02  0.45503472932E+02  0.10566000000E+00 0. -1.
        994    1    1    2    0    0 -0.27567449764E+01  0.96433369163E+01  0.16013431561E+01  0.17150101425E+03  0.17120000000E+03 0.  0.
        998    1    1    2    0    0  0.23407439344E+01  0.99745004215E+00  0.14541589031E+04  0.14541955128E+04  0.10000000000E+02 0. -1.
</event>
<event>
 5    1  0.1020718E-008  0.3820304E+03  0.7957747E-01  0.3442365E+00
         13   -1    0    0    0    0  0.00000000000E+00  0.00000000000E+00  0.14999999963E+04  0.15000000000E+04  0.10566000000E+00 0.  1.
        994   -1    0    0    0    0 -0.00000000000E+00 -0.00000000000E+00  0.11368683772E-12  0.17120000000E+03  0.17120000000E+03 0.  0.
         13    1    1    2    0    0  0.15097067628E+02  0.62736244184E+01  0.42216787345E+02  0.45271935148E+02  0.10566000000E+00 0.  1.
        994    1    1    2    0    0 -0.41571190229E+01 -0.12860269873E+02  0.37185188266E+01  0.17177291859E+03  0.17120000000E+03 0.  0.
        998    1    1    2    0    0 -0.10939948605E+02  0.65866454541E+01  0.14540646901E+04  0.14541551463E+04  0.10000000000E+02 0.  1.
</event>
<event>
 5    1  0.1020718E-008  0.4104815E+03  0.7957747E-01  0.3328305E+00
         13   -1    0    0    0    0  0.00000000000E+00  0.00000000000E+00  0.14999999963E+04  0.15000000000E+04  0.10566000000E+00 0.  1.
        994   -1    0    0    0    0 -0.00000000000E+00 -0.00000000000E+00  0.11368683772E-12  0.17120000000E+03  0.17120000000E+03 0.  0.
         13    1    1    2    0    0  0.13781780360E+03 -0.66792820235E+01  0.25000139310E+03  0.28555046404E+03  0.10566000000E+00 0.  1.
        994    1    1    2    0    0 -0.10907774884E+03 -0.70003860849E+01  0.85018955375E+02  0.22019224208E+03  0.17120000000E+03 0.  0.
        998    1    1    2    0    0 -0.28740054764E+02  0.13679668108E+02  0.11649796478E+04  0.11654572939E+04  0.10000000000E+02 0.  1.
</event>
<event>
 5    1  0.1020718E-008  0.3787219E+03  0.7957747E-01  0.3456742E+00
         13   -1    0    0    0    0  0.00000000000E+00  0.00000000000E+00  0.14999999963E+04  0.15000000000E+04  0.10566000000E+00 0. -1.
        994   -1    0    0    0    0 -0.00000000000E+00 -0.00000000000E+00  0.11368683772E-12  0.17120000000E+03  0.17120000000E+03 0.  0.
         13    1    1    2    0    0  0.51277557378E+02  0.23522154122E+02  0.27119467806E+03  0.27700044079E+03  0.10566000000E+00 0. -1.
        994    1    1    2    0    0 -0.53831756203E+02 -0.19962164116E+02  0.15926636233E+02  0.18127173998E+03  0.17120000000E+03 0.  0.
        998    1    1    2    0    0  0.25541988249E+01 -0.35599900056E+01  0.12128786820E+04  0.12129278192E+04  0.10000000000E+02 0. -1.
</event>
<event>
 5    1  0.1020718E-008  0.3798950E+03  0.7957747E-01  0.3451616E+00
         13   -1    0    0    0    0  0.00000000000E+00  0.00000000000E+00  0.14999999963E+04  0.15000000000E+04  0.10566000000E+00 0.  1.
        994   -1    0    0    0    0 -0.00000000000E+00 -0.00000000000E+00  0.11368683772E-12  0.17120000000E+03  0.17120000000E+03 0.  0.
         13    1    1    2    0    0 -0.38543131739E+02  0.99984901660E+01  0.17088816263E+03  0.17546600269E+03  0.10566000000E+00 0.  1.
        994    1    1    2    0    0  0.30477681505E+02 -0.35249671013E+02  0.11482011351E+02  0.17779962025E+03  0.17120000000E+03 0.  0.
        998    1    1    2    0    0  0.80654502340E+01  0.25251180847E+02  0.13176298223E+04  0.13179343771E+04  0.10000000000E+02 0.  1.
</event>
<event>
 5    1  0.1020718E-008  0.3739233E+03  0.7957747E-01  0.3478052E+00
         13   -1    0    0    0    0  0.00000000000E+00  0.00000000000E+00  0.14999999963E+04  0.15000000000E+04  0.10566000000E+00 0. -1.
        994   -1    0    0    0    0 -0.00000000000E+00 -0.00000000000E+00  0.11368683772E-12  0.17120000000E+03  0.17120000000E+03 0.  0.
         13    1    1    2    0    0  0.31427857857E+02  0.43159123839E+02  0.22502526925E+03  0.23127214096E+03  0.10566000000E+00 0. -1.
        994    1    1    2    0    0 -0.91982388827E+01 -0.31340975579E+01  0.75548746353E+01  0.17164191300E+03  0.17120000000E+03 0.  0.
        998    1    1    2    0    0 -0.22229618974E+02 -0.40025026281E+02  0.12674198524E+04  0.12682859460E+04  0.10000000000E+02 0. -1.
</event>
<event>
 5    1  0.1020718E-008  0.3840168E+03  0.7957747E-01  0.3433853E+00
         13   -1    0    0    0    0  0.00000000000E+00  0.00000000000E+00  0.14999999963E+04  0.15000000000E+04  0.10566000000E+00 0. -1.
        994   -1    0    0    0    0 -0.00000000000E+00 -0.00000000000E+00  0.11368683772E-12  0.17120000000E+03  0.17120000000E+03 0.  0.
         13    1    1    2    0    0 -0.11466301474E+02 -0.76129875391E+01  0.43716672224E+02  0.45832218396E+02  0.10566000000E+00 0. -1.
        994    1    1    2    0    0  0.11162624006E+02  0.41915200144E+01  0.25882341356E+01  0.17163423892E+03  0.17120000000E+03 0.  0.
        998    1    1    2    0    0  0.30367746790E+00  0.34214675248E+01  0.14536950899E+04  0.14537335427E+04  0.10000000000E+02 0. -1.
</event>
<event>
 5    1  0.1020718E-008  0.3826762E+03  0.7957747E-01  0.3439588E+00
         13   -1    0    0    0    0  0.00000000000E+00  0.00000000000E+00  0.14999999963E+04  0.15000000000E+04  0.10566000000E+00 0.  1.
        994   -1    0    0    0    0 -0.00000000000E+00 -0.00000000000E+00  0.11368683772E-12  0.17120000000E+03  0.17120000000E+03 0.  0.
         13    1    1    2    0    0  0.15981748090E+02 -0.15517081916E+02  0.92978568996E+02  0.95609735696E+02  0.10566000000E+00 0.  1.
        994    1    1    2    0    0 -0.11746879511E+01  0.58936753241E+01  0.29079409844E+01  0.17133012409E+03  0.17120000000E+03 0.  0.
        998    1    1    2    0    0 -0.14807060139E+02  0.96234065922E+01  0.14041134863E+04  0.14042601402E+04  0.10000000000E+02 0.  1.
</event>
<event>
 5    1  0.1020718E-008  0.3822793E+03  0.7957747E-01  0.3441294E+00
         13   -1    0    0    0    0  0.00000000000E+00  0.00000000000E+00  0.14999999963E+04  0.15000000000E+04  0.10566000000E+00 0. -1.
        994   -1    0    0    0    0 -0.00000000000E+00 -0.00000000000E+00  0.11368683772E-12  0.17120000000E+03  0.17120000000E+03 0.  0.
         13    1    1    2    0    0 -0.49504808597E+01 -0.88443704565E+01  0.15947844891E+02  0.18896430092E+02  0.10566000000E+00 0. -1.
        994    1    1    2    0    0  0.11445406986E+02  0.29344494129E+01  0.34503235433E+01  0.17164193272E+03  0.17120000000E+03 0.  0.
        998    1    1    2    0    0 -0.64949261258E+01  0.59099210436E+01  0.14806018278E+04  0.14806616372E+04  0.10000000000E+02 0. -1.
</event>
<event>
 5    1  0.1020718E-008  0.3822239E+03  0.7957747E-01  0.3441532E+00
         13   -1    0    0    0    0  0.00000000000E+00  0.00000000000E+00  0.14999999963E+04  0.15000000000E+04  0.10566000000E+00 0.  1.
        994   -1    0    0    0    0 -0.00000000000E+00 -0.00000000000E+00  0.11368683772E-12  0.17120000000E+03  0.17120000000E+03 0.  0.
         13    1    1    2    0    0 -0.31021764568E+02 -0.86622512179E+01  0.16169020825E+03  0.16486697390E+03  0.10566000000E+00 0.  1.
        994    1    1    2    0    0  0.22669797586E+02  0.17927683645E+02  0.57917102235E+01  0.17371904176E+03  0.17120000000E+03 0.  0.
        998    1    1    2    0    0  0.83519669813E+01 -0.92654324273E+01  0.13325180778E+04  0.13326139843E+04  0.10000000000E+02 0.  1.
</event>
<event>
 5    1  0.1020718E-008  0.3920504E+03  0.7957747E-01  0.3400310E+00
         13   -1    0    0    0    0  0.00000000000E+00  0.00000000000E+00  0.14999999963E+04  0.15000000000E+04  0.10566000000E+00 0.  1.
        994   -1    0    0    0    0 -0.00000000000E+00 -0.00000000000E+00  0.11368683772E-12  0.17120000000E+03  0.17120000000E+03 0.  0.
         13    1    1    2    0    0  0.61570723062E+02 -0.12095499819E+03  0.30331138338E+03  0.33229335229E+03  0.10566000000E+00 0.  1.
        994    1    1    2    0    0 -0.54501387657E+02  0.12367613824E+03  0.96273871550E+02  0.23842039923E+03  0.17120000000E+03 0.  0.
        998    1    1    2    0    0 -0.70693354049E+01 -0.27211400582E+01  0.11004147414E+04  0.11004862485E+04  0.10000000000E+02 0.  0.
</event>
<event>
 5    1  0.1020718E-008  0.3701557E+03  0.7957747E-01  0.3495175E+00
         13   -1    0    0    0    0  0.00000000000E+00  0.00000000000E+00  0.14999999963E+04  0.15000000000E+04  0.10566000000E+00 0. -1.
        994   -1    0    0    0    0 -0.00000000000E+00 -0.00000000000E+00  0.11368683772E-12  0.17120000000E+03  0.17120000000E+03 0.  0.
         13    1    1    2    0    0 -0.10576259062E+02  0.33648992099E+02  0.66194748142E+02  0.75005784915E+02  0.10566000000E+00 0. -1.
        994    1    1    2    0    0  0.39712026803E+01 -0.13184944952E+02  0.98432095459E+01  0.17203471161E+03  0.17120000000E+03 0.  0.
        998    1    1    2    0    0  0.66050563815E+01 -0.20464047148E+02  0.14239620386E+04  0.14241595035E+04  0.10000000000E+02 0. -1.
</event>
<event>
 5    1  0.1020718E-008  0.3854848E+03  0.7957747E-01  0.3427619E+00
         13   -1    0    0    0    0  0.00000000000E+00  0.00000000000E+00  0.14999999963E+04  0.15000000000E+04  0.10566000000E+00 0.  1.
        994   -1    0    0    0    0 -0.00000000000E+00 -0.00000000000E+00  0.11368683772E-12  0.17120000000E+03  0.17120000000E+03 0.  0.
         13    1    1    2    0    0 -0.10481614427E+02  0.10562485327E+01  0.40152860521E+02  0.41511965432E+02  0.10566000000E+00 0.  1.
        994    1    1    2    0    0  0.58758946535E+01 -0.80794328516E+01  0.17174117334E+01  0.17149983346E+03  0.17120000000E+03 0.  0.
        998    1    1    2    0    0  0.46057197740E+01  0.70231843189E+01  0.14581297240E+04  0.14581882011E+04  0.10000000000E+02 0.  1.
</event>
<event>
 5    1  0.1020718E-008  0.3823136E+03  0.7957747E-01  0.3441146E+00
         13   -1    0    0    0    0  0.00000000000E+00  0.00000000000E+00  0.14999999963E+04  0.15000000000E+04  0.10566000000E+00 0. -1.
        994   -1    0    0    0    0 -0.00000000000E+00 -0.00000000000E+00  0.11368683772E-12  0.17120000000E+03  0.17120000000E+03 0.  0.
         13    1    1    2    0    0  0.11517596954E+02 -0.28775613451E+02  0.13341715265E+03  0.13697021119E+03  0.10566000000E+00 0. -1.
        994    1    1    2    0    0 -0.14370594557E+02  0.44148912572E+02  0.10154430061E+02  0.17767440142E+03  0.17120000000E+03 0.  0.
        998    1    1    2    0    0  0.28529976031E+01 -0.15373299121E+02  0.13564284136E+04  0.13565553874E+04  0.10000000000E+02 0. -1.
</event>
<event>
 5    1  0.1020718E-008  0.3844704E+03  0.7957747E-01  0.3431921E+00
         13   -1    0    0    0    0  0.00000000000E+00  0.00000000000E+00  0.14999999963E+04  0.15000000000E+04  0.10566000000E+00 0.  1.
        994   -1    0    0    0    0 -0.00000000000E+00 -0.00000000000E+00  0.11368683772E-12  0.17120000000E+03  0.17120000000E+03 0.  0.
         13    1    1    2    0    0  0.94060243618E+01  0.92256485102E+01  0.34751702461E+02  0.37165546850E+02  0.10566000000E+00 0.  1.
        994    1    1    2    0    0 -0.31584276716E+02 -0.69798471061E+02  0.21474243269E+02  0.18878552969E+03  0.17120000000E+03 0.  0.
        998    1    1    2    0    0  0.22178252354E+02  0.60572822551E+02  0.14437740505E+04  0.14452489235E+04  0.10000000000E+02 0.  1.
</event>
<event>
 5    1  0.1020718E-008  0.3744567E+03  0.7957747E-01  0.3475656E+00
         13   -1    0    0    0    0  0.00000000000E+00  0.00000000000E+00  0.14999999963E+04  0.15000000000E+04  0.10566000000E+00 0.  1.
        994   -1    0    0    0    0 -0.00000000000E+00 -0.00000000000E+00  0.11368683772E-12  0.17120000000E+03  0.17120000000E+03 0.  0.
         13    1    1    2    0    0  0.17095351255E+02 -0.21834864746E+02  0.50552878197E+02  0.57659491942E+02  0.10566000000E+00 0.  1.
        994    1    1    2    0    0 -0.18128661134E+02  0.24683031733E+02  0.10158594315E+02  0.17421405640E+03  0.17120000000E+03 0.  0.
        998    1    1    2    0    0  0.10333098793E+01 -0.28481669876E+01  0.14392885238E+04  0.14393264517E+04  0.10000000000E+02 0.  1.
</event>
<event>
 5    1  0.1020718E-008  0.3826575E+03  0.7957747E-01  0.3439668E+00
         13   -1    0    0    0    0  0.00000000000E+00  0.00000000000E+00  0.14999999963E+04  0.15000000000E+04  0.10566000000E+00 0. -1.
        994   -1    0    0    0    0 -0.00000000000E+00 -0.00000000000E+00  0.11368683772E-12  0.17120000000E+03  0.17120000000E+03 0.  0.
         13    1    1    2    0    0 -0.25714862453E+02 -0.65236574876E+01  0.10124147582E+03  0.10465973365E+03  0.10566000000E+00 0. -1.
        994    1    1    2    0    0  0.53591760218E+02 -0.12502209689E+01  0.12379393230E+02  0.17982304967E+03  0.17120000000E+03 0.  0.
        998    1    1    2    0    0 -0.27876897765E+02  0.77738784565E+01  0.13863791272E+04  0.13867172167E+04  0.10000000000E+02 0. -1.
</event>
<event>
 5    1  0.1020718E-008  0.3686511E+03  0.7957747E-01  0.3502113E+00
         13   -1    0    0    0    0  0.00000000000E+00  0.00000000000E+00  0.14999999963E+04  0.15000000000E+04  0.10566000000E+00 0.  1.
        994   -1    0    0    0    0 -0.00000000000E+00 -0.00000000000E+00  0.11368683772E-12  0.17120000000E+03  0.17120000000E+03 0.  0.
         13    1    1    2    0    0  0.10651229629E+03 -0.11554233197E+03  0.92975242057E+03  0.94293927400E+03  0.10566000000E+00 0.  1.
        994    1    1    2    0    0 -0.91144622478E+02  0.77305295481E+02  0.61373183198E+02  0.21762251384E+03  0.17120000000E+03 0.  0.
        998    1    1    2    0    0 -0.15367673811E+02  0.38237036486E+02  0.50887439251E+03  0.51063821216E+03  0.10000000000E+02 0.  1.
</event>
<event>
 5    1  0.1020718E-008  0.3809970E+03  0.7957747E-01  0.3446829E+00
         13   -1    0    0    0    0  0.00000000000E+00  0.00000000000E+00  0.14999999963E+04  0.15000000000E+04  0.10566000000E+00 0.  1.
        994   -1    0    0    0    0 -0.00000000000E+00 -0.00000000000E+00  0.11368683772E-12  0.17120000000E+03  0.17120000000E+03 0.  0.
         13    1    1    2    0    0  0.59434411377E+01  0.13426198119E+02  0.28417495000E+02  0.31986754675E+02  0.10566000000E+00 0.  1.
        994    1    1    2    0    0  0.49156848769E+01 -0.11407789768E+02  0.41449890375E+01  0.17170009481E+03  0.17120000000E+03 0.  0.
        998    1    1    2    0    0 -0.10859126015E+02 -0.20184083517E+01  0.14674375122E+04  0.14675131505E+04  0.10000000000E+02 0.  1.
</event>
<event>
 5    1  0.1020718E-008  0.3807714E+03  0.7957747E-01  0.3447806E+00
         13   -1    0    0    0    0  0.00000000000E+00  0.00000000000E+00  0.14999999963E+04  0.15000000000E+04  0.10566000000E+00 0. -1.
        994   -1    0    0    0    0 -0.00000000000E+00 -0.00000000000E+00  0.11368683772E-12  0.17120000000E+03  0.17120000000E+03 0.  0.
         13    1    1    2    0    0  0.11815241879E+02 -0.39616642544E+02  0.18949939927E+03  0.19395646882E+03  0.10566000000E+00 0. -1.
        994    1    1    2    0    0 -0.22198891762E+02  0.44264813290E+02  0.11964415739E+02  0.17861901280E+03  0.17120000000E+03 0.  0.
        998    1    1    2    0    0  0.10383649883E+02 -0.46481707452E+01  0.12985361813E+04  0.12986245184E+04  0.10000000000E+02 0. -1.
</event>
<event>
 5    1  0.1020718E-008  0.3718204E+03  0.7957747E-01  0.3487566E+00
         13   -1    0    0    0    0  0.00000000000E+00  0.00000000000E+00  0.14999999963E+04  0.15000000000E+04  0.10566000000E+00 0. -1.
        994   -1    0    0    0    0 -0.00000000000E+00 -0.00000000000E+00  0.11368683772E-12  0.17120000000E+03  0.17120000000E+03 0.  0.
         13    1    1    2    0    0  0.10453941196E+02  0.85591110453E+02  0.34688842020E+03  0.35744469545E+03  0.10566000000E+00 0. -1.
        994    1    1    2    0    0 -0.99599519863E+01 -0.82759901284E+02  0.32587953843E+02  0.19318337568E+03  0.17120000000E+03 0.  0.
        998    1    1    2    0    0 -0.49398920938E+00 -0.28312091682E+01  0.11205236222E+04  0.11205719289E+04  0.10000000000E+02 0.  0.
</event>
<event>
 5    1  0.1020718E-008  0.3828155E+03  0.7957747E-01  0.3438990E+00
         13   -1    0    0    0    0  0.00000000000E+00  0.00000000000E+00  0.14999999963E+04  0.15000000000E+04  0.10566000000E+00 0. -1.
        994   -1    0    0    0    0 -0.00000000000E+00 -0.00000000000E+00  0.11368683772E-12  0.17120000000E+03  0.17120000000E+03 0.  0.
         13    1    1    2    0    0  0.25669928845E+02  0.49518846401E+01  0.12166505863E+03  0.12444221174E+03  0.10566000000E+00 0. -1.
        994    1    1    2    0    0 -0.19854575338E+02 -0.10763073405E+01  0.40292020540E+01  0.17239790332E+03  0.17120000000E+03 0.  0.
        998    1    1    2    0    0 -0.58153535075E+01 -0.38755772996E+01  0.13743057356E+04  0.13743598849E+04  0.10000000000E+02 0. -1.
</event>
<event>
 5    1  0.1020718E-008  0.4232623E+03  0.7957747E-01  0.3282016E+00
         13   -1    0    0    0    0  0.00000000000E+00  0.00000000000E+00  0.14999999963E+04  0.15000000000E+04  0.10566000000E+00 0. -1.
        994   -1    0    0    0    0 -0.00000000000E+00 -0.00000000000E+00  0.11368683772E-12  0.17120000000E+03  0.17120000000E+03 0.  0.
         13    1    1    2    0    0 -0.56153033517E+02  0.19294057514E+01  0.18487527804E+02  0.59149688318E+02  0.10566000000E+00 0. -1.
        994    1    1    2    0    0  0.91711406567E+02 -0.21024926287E+01  0.80012900718E+02  0.21006405416E+03  0.17120000000E+03 0.  0.
        998    1    1    2    0    0 -0.35558373050E+02  0.17308687729E+00  0.14014995678E+04  0.14019862575E+04  0.10000000000E+02 0. -1.
</event>
<event>
 5    1  0.1020718E-008  0.3844508E+03  0.7957747E-01  0.3432005E+00
         13   -1    0    0    0    0  0.00000000000E+00  0.00000000000E+00  0.14999999963E+04  0.15000000000E+04  0.10566000000E+00 0. -1.
        994   -1    0    0    0    0 -0.00000000000E+00 -0.00000000000E+00  0.11368683772E-12  0.17120000000E+03  0.17120000000E+03 0.  0.
         13    1    1    2    0    0 -0.19710642189E+02 -0.92770301636E+01  0.13126297153E+03  0.13305845168E+03  0.10566000000E+00 0. -1.
        994    1    1    2    0    0  0.72241369149E+01  0.15571698051E+01  0.20829885091E+01  0.17137208575E+03  0.17120000000E+03 0.  0.
        998    1    1    2    0    0  0.12486505274E+02  0.77198603585E+01  0.13666540362E+04  0.13667694626E+04  0.10000000000E+02 0. -1.
</event>
<event>
 5    1  0.1020718E-008  0.3847729E+03  0.7957747E-01  0.3430636E+00
         13   -1    0    0    0    0  0.00000000000E+00  0.00000000000E+00  0.14999999963E+04  0.15000000000E+04  0.10566000000E+00 0. -1.
        994   -1    0    0    0    0 -0.00000000000E+00 -0.00000000000E+00  0.11368683772E-12  0.17120000000E+03  0.17120000000E+03 0.  0.
         13    1    1    2    0    0 -0.17017978792E+02  0.19881920485E+01  0.88588877413E+02  0.90230620496E+02  0.10566000000E+00 0. -1.
        994    1    1    2    0    0  0.31730593562E+01 -0.71094825579E+01  0.19424517337E+01  0.17138794055E+03  0.17120000000E+03 0.  0.
        998    1    1    2    0    0  0.13844919436E+02  0.51212905094E+01  0.14094686671E+04  0.14095814390E+04  0.10000000000E+02 0. -1.
</event>
<event>
 5    1  0.1020718E-008  0.3770826E+03  0.7957747E-01  0.3463961E+00
         13   -1    0    0    0    0  0.00000000000E+00  0.00000000000E+00  0.14999999963E+04  0.15000000000E+04  0.10566000000E+00 0. -1.
        994   -1    0    0    0    0 -0.00000000000E+00 -0.00000000000E+00  0.11368683772E-12  0.17120000000E+03  0.17120000000E+03 0.  0.
         13    1    1    2    0    0  0.49832587473E+02 -0.27262871035E+02  0.24270391994E+03  0.24926242162E+03  0.10566000000E+00 0. -1.
        994    1    1    2    0    0 -0.54690878186E+02  0.16359726570E+02  0.16693179723E+02  0.18123695832E+03  0.17120000000E+03 0.  0.
        998    1    1    2    0    0  0.48582907131E+01  0.10903144464E+02  0.12406028966E+04  0.12407006201E+04  0.10000000000E+02 0. -1.
</event>
<event>
 5    1  0.1020718E-008  0.3904040E+03  0.7957747E-01  0.3407072E+00
         13   -1    0    0    0    0  0.00000000000E+00  0.00000000000E+00  0.14999999963E+04  0.15000000000E+04  0.10566000000E+00 0.  1.
        994   -1    0    0    0    0 -0.00000000000E+00 -0.00000000000E+00  0.11368683772E-12  0.17120000000E+03  0.17120000000E+03 0.  0.
         13    1    1    2    0    0  0.93192191212E+02 -0.26793832408E+02  0.17330530960E+03  0.19858860858E+03  0.10566000000E+00 0.  1.
        994    1    1    2    0    0 -0.10319686267E+03  0.31083926081E+02  0.67403394258E+02  0.21323334749E+03  0.17120000000E+03 0.  0.
        998    1    1    2    0    0  0.10004671462E+02 -0.42900936729E+01  0.12592912924E+04  0.12593780439E+04  0.10000000000E+02 0.  1.
</event>
<event>
 5    1  0.1020718E-008  0.3814319E+03  0.7957747E-01  0.3444947E+00
         13   -1    0    0    0    0  0.00000000000E+00  0.00000000000E+00  0.14999999963E+04  0.15000000000E+04  0.10566000000E+00 0. -1.
        994   -1    0    0    0    0 -0.00000000000E+00 -0.00000000000E+00  0.11368683772E-12  0.17120000000E+03  0.17120000000E+03 0.  0.
         13    1    1    2    0    0  0.11576877432E+02  0.19784078228E+02  0.78248796490E+02  0.81537225600E+02  0.10566000000E+00 0. -1.
        994    1    1    2    0    0 -0.13130747338E+02 -0.18442087676E+01  0.39972772214E+01  0.17175923805E+03  0.17120000000E+03 0.  0.
        998    1    1    2    0    0  0.15538699063E+01 -0.17939869460E+02  0.14177539226E+04  0.14179035363E+04  0.10000000000E+02 0. -1.
</event>
<event>
 5    1  0.1020718E-008  0.3828319E+03  0.7957747E-01  0.3438920E+00
         13   -1    0    0    0    0  0.00000000000E+00  0.00000000000E+00  0.14999999963E+04  0.15000000000E+04  0.10566000000E+00 0.  1.
        994   -1    0    0    0    0 -0.00000000000E+00 -0.00000000000E+00  0.11368683772E-12  0.17120000000E+03  0.17120000000E+03 0.  0.
         13    1    1    2    0    0 -0.16264222785E+02 -0.19660868263E+01  0.51740888663E+02  0.54272655766E+02  0.10566000000E+00 0.  1.
        994    1    1    2    0    0 -0.68416929412E+01  0.45631079092E+02  0.97937256408E+01  0.17757916883E+03  0.17120000000E+03 0.  0.
        998    1    1    2    0    0  0.23105915727E+02 -0.43664992266E+02  0.14384653820E+04  0.14393481754E+04  0.10000000000E+02 0.  1.
</event>
<event>
 5    1  0.1020718E-008  0.3843112E+03  0.7957747E-01  0.3432599E+00
         13   -1    0    0    0    0  0.00000000000E+00  0.00000000000E+00  0.14999999963E+04  0.15000000000E+04  0.10566000000E+00 0. -1.
        994   -1    0    0    0    0 -0.00000000000E+00 -0.00000000000E+00  0.11368683772E-12  0.17120000000E+03  0.17120000000E+03 0.  0.
         13    1    1    2    0    0  0.13993549472E+02  0.93342980914E+01  0.73551822369E+02  0.75450846818E+02  0.10566000000E+00 0. -1.
        994    1    1    2    0    0 -0.42184141034E+01 -0.47947789986E+01  0.21069283100E+01  0.17133202873E+03  0.17120000000E+03 0.  0.
        998    1    1    2    0    0 -0.97751353685E+01 -0.45395190928E+01  0.14243412456E+04  0.14244171244E+04  0.10000000000E+02 0. -1.
</event>
<event>
 5    1  0.1020718E-008  0.3834868E+03  0.7957747E-01  0.3436115E+00
         13   -1    0    0    0    0  0.00000000000E+00  0.00000000000E+00  0.14999999963E+04  0.15000000000E+04  0.10566000000E+00 0. -1.
        994   -1    0    0    0    0 -0.00000000000E+00 -0.00000000000E+00  0.11368683772E-12  0.17120000000E+03  0.17120000000E+03 0.  0.
         13    1    1    2    0    0 -0.14988656515E+02 -0.27717017785E+02  0.17971591778E+03  0.18245743385E+03  0.10566000000E+00 0. -1.
        994    1    1    2    0    0  0.21822643784E+02  0.28153819094E+02  0.65880116679E+01  0.17499059177E+03  0.17120000000E+03 0.  0.
        998    1    1    2    0    0 -0.68339872686E+01 -0.43680130968E+00  0.13136960668E+04  0.13137519744E+04  0.10000000000E+02 0. -1.
</event>
<event>
 5    1  0.1020718E-008  0.3779245E+03  0.7957747E-01  0.3460246E+00
         13   -1    0    0    0    0  0.00000000000E+00  0.00000000000E+00  0.14999999963E+04  0.15000000000E+04  0.10566000000E+00 0.  1.
        994   -1    0    0    0    0 -0.00000000000E+00 -0.00000000000E+00  0.11368683772E-12  0.17120000000E+03  0.17120000000E+03 0.  0.
         13    1    1    2    0    0  0.17745356171E+02  0.27871474847E+01  0.32633737323E+01  0.18257234974E+02  0.10566000000E+00 0.  1.
        994    1    1    2    0    0 -0.45500245262E+02 -0.29620467934E+01  0.22706120297E+02  0.17861705948E+03  0.17120000000E+03 0.  0.
        998    1    1    2    0    0  0.27754889090E+02  0.17489930863E+00  0.14740305022E+04  0.14743257055E+04  0.10000000000E+02 0.  1.
</event>
<event>
 5    1  0.1020718E-008  0.3701487E+03  0.7957747E-01  0.3495208E+00
         13   -1    0    0    0    0  0.00000000000E+00  0.00000000000E+00  0.14999999963E+04  0.15000000000E+04  0.10566000000E+00 0.  1.
        994   -1    0    0    0    0 -0.00000000000E+00 -0.00000000000E+00  0.11368683772E-12  0.17120000000E+03  0.17120000000E+03 0.  0.
         13    1    1    2    0    0  0.13974763014E+03  0.21298186036E+02  0.81475506788E+03  0.82692735150E+03  0.10566000000E+00 0.  1.
        994    1    1    2    0    0 -0.93817117404E+02 -0.12772788447E+02  0.43069645153E+02  0.20032281442E+03  0.17120000000E+03 0.  0.
        998    1    1    2    0    0 -0.45930512731E+02 -0.85253975888E+01  0.64217528325E+03  0.64394983408E+03  0.10000000000E+02 0. -1.
</event>
<event>
 5    1  0.1020718E-008  0.3735354E+03  0.7957747E-01  0.3479799E+00
         13   -1    0    0    0    0  0.00000000000E+00  0.00000000000E+00  0.14999999963E+04  0.15000000000E+04  0.10566000000E+00 0. -1.
        994   -1    0    0    0    0 -0.00000000000E+00 -0.00000000000E+00  0.11368683772E-12  0.17120000000E+03  0.17120000000E+03 0.  0.
         13    1    1    2    0    0 -0.12136955646E+02 -0.33915973202E+02  0.77046616346E+02  0.85051697131E+02  0.10566000000E+00 0. -1.
        994    1    1    2    0    0  0.24580989550E+02  0.42590438444E+02  0.15738804191E+02  0.17881644346E+03  0.17120000000E+03 0.  0.
        998    1    1    2    0    0 -0.12444033904E+02 -0.86744652427E+01  0.14072145757E+04  0.14073318594E+04  0.10000000000E+02 0. -1.
</event>
<event>
 5    1  0.1020718E-008  0.3857778E+03  0.7957747E-01  0.3426380E+00
         13   -1    0    0    0    0  0.00000000000E+00  0.00000000000E+00  0.14999999963E+04  0.15000000000E+04  0.10566000000E+00 0. -1.
        994   -1    0    0    0    0 -0.00000000000E+00 -0.00000000000E+00  0.11368683772E-12  0.17120000000E+03  0.17120000000E+03 0.  0.
         13    1    1    2    0    0  0.12561525438E+02 -0.74719809096E+01  0.84468424668E+02  0.85723674385E+02  0.10566000000E+00 0. -1.
        994    1    1    2    0    0 -0.91696835072E+01  0.90121674212E+01  0.17869158997E+01  0.17169139561E+03  0.17120000000E+03 0.  0.
        998    1    1    2    0    0 -0.33918419310E+01 -0.15401865117E+01  0.14137446557E+04  0.14137849300E+04  0.10000000000E+02 0. -1.
</event>
<event>
 5    1  0.1020718E-008  0.3789577E+03  0.7957747E-01  0.3455709E+00
         13   -1    0    0    0    0  0.00000000000E+00  0.00000000000E+00  0.14999999963E+04  0.15000000000E+04  0.10566000000E+00 0.  1.
        994   -1    0    0    0    0 -0.00000000000E+00 -0.00000000000E+00  0.11368683772E-12  0.17120000000E+03  0.17120000000E+03 0.  0.
         13    1    1    2    0    0  0.27876100577E+00 -0.54597398516E+02  0.30182817120E+03  0.30672660421E+03  0.10566000000E+00 0.  1.
        994    1    1    2    0    0 -0.10884893145E+02  0.37210079589E+02  0.97187668055E+01  0.17580376944E+03  0.17120000000E+03 0.  0.
        998    1    1    2    0    0  0.10606132139E+02  0.17387318927E+02  0.11884530583E+04  0.11886696264E+04  0.10000000000E+02 0.  1.
</event>
<event>
 5    1  0.1020718E-008  0.3727501E+03  0.7957747E-01  0.3483347E+00
         13   -1    0    0    0    0  0.00000000000E+00  0.00000000000E+00  0.14999999963E+04  0.15000000000E+04  0.10566000000E+00 0. -1.
        994   -1    0    0    0    0 -0.00000000000E+00 -0.00000000000E+00  0.11368683772E-12  0.17120000000E+03  0.17120000000E+03 0.  0.
         13    1    1    2    0    0  0.35455205972E+02  0.11588008862E+02  0.52445406885E+02  0.64357481673E+02  0.10566000000E+00 0. -1.
        994    1    1    2    0    0 -0.20738475986E+02  0.47810263686E+01  0.14000903188E+02  0.17308497303E+03  0.17120000000E+03 0.  0.
        998    1    1    2    0    0 -0.14716729986E+02 -0.16369035231E+02  0.14335536862E+04  0.14337575453E+04  0.10000000000E+02 0. -1.
</event>
<event>
 5    1  0.1020718E-008  0.3817697E+03  0.7957747E-01  0.3443489E+00
         13   -1    0    0    0    0  0.00000000000E+00  0.00000000000E+00  0.14999999963E+04  0.15000000000E+04  0.10566000000E+00 0. -1.
        994   -1    0    0    0    0 -0.00000000000E+00 -0.00000000000E+00  0.11368683772E-12  0.17120000000E+03  0.17120000000E+03 0.  0.
         13    1    1    2    0    0 -0.29321762759E+02 -0.17848193657E+02  0.16949910436E+03  0.17294010908E+03  0.10566000000E+00 0. -1.
        994    1    1    2    0    0  0.23964257051E+02  0.15669150893E+02  0.59718623644E+01  0.17368048551E+03  0.17120000000E+03 0.  0.
        998    1    1    2    0    0  0.53575057073E+01  0.21790427637E+01  0.13245290296E+04  0.13245794054E+04  0.10000000000E+02 0. -1.
</event>
<event>
 5    1  0.1020718E-008  0.3688524E+03  0.7957747E-01  0.3501182E+00
         13   -1    0    0    0    0  0.00000000000E+00  0.00000000000E+00  0.14999999963E+04  0.15000000000E+04  0.10566000000E+00 0.  1.
        994   -1    0    0    0    0 -0.00000000000E+00 -0.00000000000E+00  0.11368683772E-12  0.17120000000E+03  0.17120000000E+03 0.  0.
         13    1    1    2    0    0 -0.21271936790E+02  0.73456236311E+02  0.40824909575E+03  0.41535003226E+03  0.10566000000E+00 0.  1.
        994    1    1    2    0    0 -0.96900107434E+01 -0.39500264306E+00  0.10660839028E+02  0.17180554655E+03  0.17120000000E+03 0.  0.
        998    1    1    2    0    0  0.30961947533E+02 -0.73061233668E+02  0.10810900615E+04  0.10840444212E+04  0.10000000000E+02 0.  1.
</event>
<event>
 5    1  0.1020718E-008  0.3809837E+03  0.7957747E-01  0.3446886E+00
         13   -1    0    0    0    0  0.00000000000E+00  0.00000000000E+00  0.14999999963E+04  0.15000000000E+04  0.10566000000E+00 0. -1.
        994   -1    0    0    0    0 -0.00000000000E+00 -0.00000000000E+00  0.11368683772E-12  0.17120000000E+03  0.17120000000E+03 0.  0.
         13    1    1    2    0    0 -0.23140742082E+01 -0.19824393485E+02  0.53064304388E+02  0.56693853994E+02  0.10566000000E+00 0. -1.
        994    1    1    2    0    0 -0.86110657270E+00  0.14992700294E+02  0.43892234564E+01  0.17191343126E+03  0.17120000000E+03 0.  0.
        998    1    1    2    0    0  0.31751807809E+01  0.48316931915E+01  0.14425464684E+04  0.14425927147E+04  0.10000000000E+02 0. -1.
</event>
<event>
 5    1  0.1145657E-008  0.3849691E+03  0.7957747E-01  0.3429803E+00
         13   -1    0    0    0    0  0.00000000000E+00  0.00000000000E+00  0.14999999963E+04  0.15000000000E+04  0.10566000000E+00 0.  1.
        994   -1    0    0    0    0 -0.00000000000E+00 -0.00000000000E+00  0.11368683772E-12  0.17120000000E+03  0.17120000000E+03 0.  0.
         13    1    1    2    0    0  0.13590739997E+01  0.11295242318E+02  0.38396257634E+02  0.40046389918E+02  0.10566000000E+00 0.  1.
        994    1    1    2    0    0 -0.32080909905E+01 -0.11493664060E+02  0.21139636047E+01  0.17162839218E+03  0.17120000000E+03 0.  0.
        998    1    1    2    0    0  0.18490169909E+01  0.19842174195E+00  0.14594897750E+04  0.14595252179E+04  0.10000000000E+02 0.  1.
</event>
<event>
 5    1  0.1020718E-008  0.2973032E+03  0.7957747E-01  0.3915461E+00
         13   -1    0    0    0    0  0.00000000000E+00  0.00000000000E+00  0.14999999963E+04  0.15000000000E+04  0.10566000000E+00 0.  1.
        994   -1    0    0    0    0 -0.00000000000E+00 -0.00000000000E+00  0.11368683772E-12  0.17120000000E+03  0.17120000000E+03 0.  0.
         13    1    1    2    0    0  0.47816493974E+01 -0.26382233883E+03  0.43260024559E+03  0.50672287721E+03  0.10566000000E+00 0.  1.
        994    1    1    2    0    0 -0.11881517449E+02  0.21584730735E+03  0.35098525227E+03  0.44635335538E+03  0.17120000000E+03 0.  0.
        998    1    1    2    0    0  0.70998680519E+01  0.47975031480E+02  0.71641449843E+03  0.71812376741E+03  0.10000000000E+02 0. -1.
</event>
<event>
 5    1  0.1020718E-008  0.3838813E+03  0.7957747E-01  0.3434431E+00
         13   -1    0    0    0    0  0.00000000000E+00  0.00000000000E+00  0.14999999963E+04  0.15000000000E+04  0.10566000000E+00 0.  1.
        994   -1    0    0    0    0 -0.00000000000E+00 -0.00000000000E+00  0.11368683772E-12  0.17120000000E+03  0.17120000000E+03 0.  0.
         13    1    1    2    0    0 -0.19808151110E+02 -0.12753790437E+01  0.89398600240E+02  0.91575708193E+02  0.10566000000E+00 0.  1.
        994    1    1    2    0    0  0.12581387583E+02  0.71041726658E+01  0.28759227186E+01  0.17183268465E+03  0.17120000000E+03 0.  0.
        998    1    1    2    0    0  0.72267635269E+01 -0.58287936221E+01  0.14077254733E+04  0.14077916072E+04  0.10000000000E+02 0.  1.
</event>
<event>
 5    1  0.1020718E-008  0.3787490E+03  0.7957747E-01  0.3456624E+00
         13   -1    0    0    0    0  0.00000000000E+00  0.00000000000E+00  0.14999999963E+04  0.15000000000E+04  0.10566000000E+00 0.  1.
        994   -1    0    0    0    0 -0.00000000000E+00 -0.00000000000E+00  0.11368683772E-12  0.17120000000E+03  0.17120000000E+03 0.  0.
         13    1    1    2    0    0  0.39389233435E+02  0.52099940335E+01  0.20098076359E+03  0.20487053044E+03  0.10566000000E+00 0.  1.
        994    1    1    2    0    0  0.60894721256E+01 -0.67999651924E+01  0.50457246711E+01  0.17151740592E+03  0.17120000000E+03 0.  0.
        998    1    1    2    0    0 -0.45478705561E+02  0.15899711589E+01  0.12939735080E+04  0.12948120636E+04  0.10000000000E+02 0.  1.
</event>
<event>
 5    1  0.1020718E-008  0.3827743E+03  0.7957747E-01  0.3439167E+00
         13   -1    0    0    0    0  0.00000000000E+00  0.00000000000E+00  0.14999999963E+04  0.15000000000E+04  0.10566000000E+00 0.  1.
        994   -1    0    0    0    0 -0.00000000000E+00 -0.00000000000E+00  0.11368683772E-12  0.17120000000E+03  0.17120000000E+03 0.  0.
         13    1    1    2    0    0  0.14867142835E+03  0.16457211259E+03  0.10061718029E+04  0.10303246488E+04  0.10566000000E+00 0.  1.
        994    1    1    2    0    0 -0.14504284357E+03 -0.19331573675E+03  0.22925798652E+03  0.37453579926E+03  0.17120000000E+03 0.  0.
        998    1    1    2    0    0 -0.36285847756E+01  0.28743624156E+02  0.26457020684E+03  0.26633955190E+03  0.10000000000E+02 0.  1.
</event>
<event>
 5    1  0.1020718E-008  0.2954977E+03  0.7957747E-01  0.3928695E+00
         13   -1    0    0    0    0  0.00000000000E+00  0.00000000000E+00  0.14999999963E+04  0.15000000000E+04  0.10566000000E+00 0. -1.
        994   -1    0    0    0    0 -0.00000000000E+00 -0.00000000000E+00  0.11368683772E-12  0.17120000000E+03  0.17120000000E+03 0.  0.
         13    1    1    2    0    0  0.50469233348E+02  0.14500250022E+03  0.71116588550E+03  0.72755054563E+03  0.10566000000E+00 0. -1.
        994    1    1    2    0    0 -0.72165390976E+02 -0.92964088102E+02  0.65180547677E+02  0.21773403300E+03  0.17120000000E+03 0.  0.
        998    1    1    2    0    0  0.21696157628E+02 -0.52038412116E+02  0.72365356310E+03  0.72591542137E+03  0.10000000000E+02 0. -1.
</event>
<event>
 5    1  0.1020718E-008  0.4638964E+03  0.7957747E-01  0.3151395E+00
         13   -1    0    0    0    0  0.00000000000E+00  0.00000000000E+00  0.14999999963E+04  0.15000000000E+04  0.10566000000E+00 0. -1.
        994   -1    0    0    0    0 -0.00000000000E+00 -0.00000000000E+00  0.11368683772E-12  0.17120000000E+03  0.17120000000E+03 0.  0.
         13    1    1    2    0    0  0.12844595594E+02  0.33520413165E+01 -0.28029136848E+02  0.31013924186E+02  0.10566000000E+00 0. -1.
        994    1    1    2    0    0  0.29412781234E+01  0.66006568606E+02  0.97398571863E+02  0.20775331530E+03  0.17120000000E+03 0.  0.
        998    1    1    2    0    0 -0.15785873718E+02 -0.69358609923E+02  0.14306305613E+04  0.14324327605E+04  0.10000000000E+02 0. -1.
</event>
<event>
 5    1  0.1020718E-008  0.3745456E+03  0.7957747E-01  0.3475257E+00
         13   -1    0    0    0    0  0.00000000000E+00  0.00000000000E+00  0.14999999963E+04  0.15000000000E+04  0.10566000000E+00 0.  1.
        994   -1    0    0    0    0 -0.00000000000E+00 -0.00000000000E+00  0.11368683772E-12  0.17120000000E+03  0.17120000000E+03 0.  0.
         13    1    1    2    0    0 -0.13572767402E+02 -0.48169307111E+01  0.11939261364E+02  0.18707751398E+02  0.10566000000E+00 0.  1.
        994    1    1    2    0    0  0.89951524317E+01  0.48900675353E+01  0.72691859947E+01  0.17165985725E+03  0.17120000000E+03 0.  0.
        998    1    1    2    0    0  0.45776149707E+01 -0.73136824181E-01  0.14807915489E+04  0.14808323913E+04  0.10000000000E+02 0.  1.
</event>
<event>
 5    1  0.1020718E-008  0.3819311E+03  0.7957747E-01  0.3442793E+00
         13   -1    0    0    0    0  0.00000000000E+00  0.00000000000E+00  0.14999999963E+04  0.15000000000E+04  0.10566000000E+00 0.  1.
        994   -1    0    0    0    0 -0.00000000000E+00 -0.00000000000E+00  0.11368683772E-12  0.17120000000E+03  0.17120000000E+03 0.  0.
         13    1    1    2    0    0 -0.10081867149E+02 -0.19741229348E+02  0.76031168138E+02  0.79196653174E+02  0.10566000000E+00 0.  1.
        994    1    1    2    0    0 -0.26415599376E+01  0.19020416769E+02  0.43873624827E+01  0.17232946075E+03  0.17120000000E+03 0.  0.
        998    1    1    2    0    0  0.12723427087E+02  0.72081257919E+00  0.14195814657E+04  0.14196738861E+04  0.10000000000E+02 0.  1.
</event>
<event>
 5    1  0.1020718E-008  0.3802816E+03  0.7957747E-01  0.3449933E+00
         13   -1    0    0    0    0  0.00000000000E+00  0.00000000000E+00  0.14999999963E+04  0.15000000000E+04  0.10566000000E+00 0.  1.
        994   -1    0    0    0    0 -0.00000000000E+00 -0.00000000000E+00  0.11368683772E-12  0.17120000000E+03  0.17120000000E+03 0.  0.
         13    1    1    2    0    0 -0.27807828911E+02 -0.41304754423E+02  0.28674711658E+03  0.29103827603E+03  0.10566000000E+00 0.  1.
        994    1    1    2    0    0 -0.99914186951E+01  0.54466194400E+02  0.14301023377E+02  0.18050028823E+03  0.17120000000E+03 0.  0.
        998    1    1    2    0    0  0.37799247606E+02 -0.13161439977E+02  0.11989518563E+04  0.11996614357E+04  0.10000000000E+02 0.  1.
</event>
<event>
 5    1  0.1020718E-008  0.3780202E+03  0.7957747E-01  0.3459824E+00
         13   -1    0    0    0    0  0.00000000000E+00  0.00000000000E+00  0.14999999963E+04  0.15000000000E+04  0.10566000000E+00 0. -1.
        994   -1    0    0    0    0 -0.00000000000E+00 -0.00000000000E+00  0.11368683772E-12  0.17120000000E+03  0.17120000000E+03 0.  0.
         13    1    1    2    0    0  0.33817228115E+02  0.43807251707E+01  0.12740272398E+03  0.13188730383E+03  0.10566000000E+00 0. -1.
        994    1    1    2    0    0  0.53924749901E+01 -0.69980022836E+01  0.53985493184E+01  0.17151278424E+03  0.17120000000E+03 0.  0.
        998    1    1    2    0    0 -0.39209703105E+02  0.26172771129E+01  0.13671987230E+04  0.13677999119E+04  0.10000000000E+02 0. -1.
</event>
<event>
 5    1  0.1020718E-008  0.3261951E+03  0.7957747E-01  0.3725110E+00
         13   -1    0    0    0    0  0.00000000000E+00  0.00000000000E+00  0.14999999963E+04  0.15000000000E+04  0.10566000000E+00 0.  1.
        994   -1    0    0    0    0 -0.00000000000E+00 -0.00000000000E+00  0.11368683772E-12  0.17120000000E+03  0.17120000000E+03 0.  0.
         13    1    1    2    0    0  0.10726807233E+03 -0.15359081224E+03  0.10186749717E+04  0.10357583145E+04  0.10566000000E+00 0.  1.
        994    1    1    2    0    0 -0.72541256634E+02  0.66070041240E+02  0.63901566863E+02  0.20741343860E+03  0.17120000000E+03 0.  0.
        998    1    1    2    0    0 -0.34726815692E+02  0.87520771004E+02  0.41742345775E+03  0.42802824693E+03  0.10000000000E+02 0.  1.
</event>
<event>
 5    1  0.1020718E-008  0.3817408E+03  0.7957747E-01  0.3443614E+00
         13   -1    0    0    0    0  0.00000000000E+00  0.00000000000E+00  0.14999999963E+04  0.15000000000E+04  0.10566000000E+00 0. -1.
        994   -1    0    0    0    0 -0.00000000000E+00 -0.00000000000E+00  0.11368683772E-12  0.17120000000E+03  0.17120000000E+03 0.  0.
         13    1    1    2    0    0  0.89839816193E+01  0.13945684997E+02  0.39670096016E+02  0.42999089963E+02  0.10566000000E+00 0. -1.
        994    1    1    2    0    0 -0.21765586964E+02 -0.10339707843E+02  0.51893218314E+01  0.17296537051E+03  0.17120000000E+03 0.  0.
        998    1    1    2    0    0  0.12781605345E+02 -0.36059771541E+01  0.14551405784E+04  0.14552355395E+04  0.10000000000E+02 0. -1.
</event>
<event>
 5    1  0.1264495E-008  0.3849767E+03  0.7957747E-01  0.3429771E+00
         13   -1    0    0    0    0  0.00000000000E+00  0.00000000000E+00  0.14999999963E+04  0.15000000000E+04  0.10566000000E+00 0.  1.
        994   -1    0    0    0    0 -0.00000000000E+00 -0.00000000000E+00  0.11368683772E-12  0.17120000000E+03  0.17120000000E+03 0.  0.
         13    1    1    2    0    0 -0.86135621092E+01 -0.91434480337E+01  0.47226842367E+02  0.48869028005E+02  0.10566000000E+00 0.  1.
        994    1    1    2    0    0  0.89290982326E+01  0.71713256072E+01  0.20731701664E+01  0.17159514778E+03  0.17120000000E+03 0.  0.
        998    1    1    2    0    0 -0.31553612337E+00  0.19721224266E+01  0.14506999837E+04  0.14507358242E+04  0.10000000000E+02 0.  1.
</event>
<event>
 5    1  0.1020718E-008  0.3839685E+03  0.7957747E-01  0.3434059E+00
         13   -1    0    0    0    0  0.00000000000E+00  0.00000000000E+00  0.14999999963E+04  0.15000000000E+04  0.10566000000E+00 0.  1.
        994   -1    0    0    0    0 -0.00000000000E+00 -0.00000000000E+00  0.11368683772E-12  0.17120000000E+03  0.17120000000E+03 0.  0.
         13    1    1    2    0    0  0.20179096618E+02  0.16282596956E+02  0.14274050510E+03  0.14507646902E+03  0.10566000000E+00 0.  1.
        994    1    1    2    0    0 -0.36079599086E+02  0.51914046376E+00  0.64511973715E+01  0.17508016714E+03  0.17120000000E+03 0.  0.
        998    1    1    2    0    0  0.15900502468E+02 -0.16801737420E+02  0.13508082938E+04  0.13510433638E+04  0.10000000000E+02 0.  1.
</event>
<event>
 5    1  0.1020718E-008  0.3741500E+03  0.7957747E-01  0.3477033E+00
         13   -1    0    0    0    0  0.00000000000E+00  0.00000000000E+00  0.14999999963E+04  0.15000000000E+04  0.10566000000E+00 0. -1.
        994   -1    0    0    0    0 -0.00000000000E+00 -0.00000000000E+00  0.11368683772E-12  0.17120000000E+03  0.17120000000E+03 0.  0.
         13    1    1    2    0    0 -0.90338228034E+02 -0.74525677367E+01  0.43914508008E+03  0.44840266361E+03  0.10566000000E+00 0. -1.
        994    1    1    2    0    0  0.82925941518E+02 -0.60278109461E+01  0.31061053162E+02  0.19284002516E+03  0.17120000000E+03 0.  0.
        998    1    1    2    0    0  0.74122865161E+01  0.13480378683E+02  0.10297938630E+04  0.10299573112E+04  0.10000000000E+02 0. -1.
</event>
<event>
 5    1  0.1020718E-008  0.3806156E+03  0.7957747E-01  0.3448482E+00
         13   -1    0    0    0    0  0.00000000000E+00  0.00000000000E+00  0.14999999963E+04  0.15000000000E+04  0.10566000000E+00 0.  1.
        994   -1    0    0    0    0 -0.00000000000E+00 -0.00000000000E+00  0.11368683772E-12  0.17120000000E+03  0.17120000000E+03 0.  0.
         13    1    1    2    0    0  0.84278772880E+01 -0.67351895970E+01  0.13658214823E+02  0.17405455773E+02  0.10566000000E+00 0.  1.
        994    1    1    2    0    0 -0.12070947244E+02 -0.64469969361E+01  0.44477329296E+01  0.17180364916E+03  0.17120000000E+03 0.  0.
        998    1    1    2    0    0  0.36430699564E+01  0.13182186533E+02  0.14818940485E+04  0.14819908951E+04  0.10000000000E+02 0.  1.
</event>
<event>
 5    1  0.1020718E-008  0.4030745E+03  0.7957747E-01  0.3356456E+00
         13   -1    0    0    0    0  0.00000000000E+00  0.00000000000E+00  0.14999999963E+04  0.15000000000E+04  0.10566000000E+00 0.  1.
        994   -1    0    0    0    0 -0.00000000000E+00 -0.00000000000E+00  0.11368683772E-12  0.17120000000E+03  0.17120000000E+03 0.  0.
         13    1    1    2    0    0  0.11370766218E+03  0.16747072605E+02  0.21882019094E+03  0.24716833131E+03  0.10566000000E+00 0.  1.
        994    1    1    2    0    0 -0.69500907256E+02 -0.15978984825E+02  0.50085863193E+02  0.19210345587E+03  0.17120000000E+03 0.  0.
        998    1    1    2    0    0 -0.44206754919E+02 -0.76808777957E+00  0.12310939422E+04  0.12319282128E+04  0.10000000000E+02 0.  1.
</event>
<event>
 5    1  0.1020718E-008  0.3719728E+03  0.7957747E-01  0.3486873E+00
         13   -1    0    0    0    0  0.00000000000E+00  0.00000000000E+00  0.14999999963E+04  0.15000000000E+04  0.10566000000E+00 0.  1.
        994   -1    0    0    0    0 -0.00000000000E+00 -0.00000000000E+00  0.11368683772E-12  0.17120000000E+03  0.17120000000E+03 0.  0.
         13    1    1    2    0    0 -0.67500432542E+02 -0.13831794067E+02  0.21646698785E+03  0.22716864861E+03  0.10566000000E+00 0.  1.
        994    1    1    2    0    0  0.89274245255E+02  0.10087338111E+02  0.36493231994E+02  0.19675579086E+03  0.17120000000E+03 0.  0.
        998    1    1    2    0    0 -0.21773812713E+02  0.37444559555E+01  0.12470397764E+04  0.12472755605E+04  0.10000000000E+02 0.  1.
</event>
<event>
 5    1  0.1020718E-008  0.3808320E+03  0.7957747E-01  0.3447544E+00
         13   -1    0    0    0    0  0.00000000000E+00  0.00000000000E+00  0.14999999963E+04  0.15000000000E+04  0.10566000000E+00 0. -1.
        994   -1    0    0    0    0 -0.00000000000E+00 -0.00000000000E+00  0.11368683772E-12  0.17120000000E+03  0.17120000000E+03 0.  0.
         13    1    1    2    0    0 -0.16981268742E+02  0.29799161927E+02  0.15912653384E+03  0.16278089100E+03  0.10566000000E+00 0. -1.
        994    1    1    2    0    0  0.24631819870E+02 -0.74876553054E+01  0.59264689054E+01  0.17322631026E+03  0.17120000000E+03 0.  0.
        998    1    1    2    0    0 -0.76505511283E+01 -0.22311506622E+02  0.13349469935E+04  0.13351927987E+04  0.10000000000E+02 0. -1.
</event>
<event>
 5    1  0.1020718E-008  0.3834504E+03  0.7957747E-01  0.3436271E+00
         13   -1    0    0    0    0  0.00000000000E+00  0.00000000000E+00  0.14999999963E+04  0.15000000000E+04  0.10566000000E+00 0. -1.
        994   -1    0    0    0    0 -0.00000000000E+00 -0.00000000000E+00  0.11368683772E-12  0.17120000000E+03  0.17120000000E+03 0.  0.
         13    1    1    2    0    0 -0.13441025770E+02  0.34365172560E+01  0.39344963520E+02  0.41719397682E+02  0.10566000000E+00 0. -1.
        994    1    1    2    0    0  0.81626230041E+01 -0.65161845511E+01  0.27620776684E+01  0.17154054375E+03  0.17120000000E+03 0.  0.
        998    1    1    2    0    0  0.52784027655E+01  0.30796672951E+01  0.14578929551E+04  0.14579400586E+04  0.10000000000E+02 0. -1.
</event>
<event>
 5    1  0.1020718E-008  0.3747021E+03  0.7957747E-01  0.3474556E+00
         13   -1    0    0    0    0  0.00000000000E+00  0.00000000000E+00  0.14999999963E+04  0.15000000000E+04  0.10566000000E+00 0. -1.
        994   -1    0    0    0    0 -0.00000000000E+00 -0.00000000000E+00  0.11368683772E-12  0.17120000000E+03  0.17120000000E+03 0.  0.
         13    1    1    2    0    0  0.15375702158E+02  0.23884075062E+02  0.53335844629E+02  0.60428343886E+02  0.10566000000E+00 0. -1.
        994    1    1    2    0    0 -0.17407004610E+02 -0.31538044904E+02  0.11259979108E+02  0.17531080747E+03  0.17120000000E+03 0.  0.
        998    1    1    2    0    0  0.20313024518E+01  0.76539698423E+01  0.14354041725E+04  0.14354608486E+04  0.10000000000E+02 0. -1.
</event>
<event>
 5    1  0.1020718E-008  0.3788519E+03  0.7957747E-01  0.3456173E+00
         13   -1    0    0    0    0  0.00000000000E+00  0.00000000000E+00  0.14999999963E+04  0.15000000000E+04  0.10566000000E+00 0. -1.
        994   -1    0    0    0    0 -0.00000000000E+00 -0.00000000000E+00  0.11368683772E-12  0.17120000000E+03  0.17120000000E+03 0.  0.
         13    1    1    2    0    0 -0.24937170477E+02 -0.18525869703E+02  0.10068748667E+03  0.10537101810E+03  0.10566000000E+00 0. -1.
        994    1    1    2    0    0  0.21645250925E+02  0.27399682104E+01  0.63128260639E+01  0.17270007552E+03  0.17120000000E+03 0.  0.
        998    1    1    2    0    0  0.32919195519E+01  0.15785901492E+02  0.13929996835E+04  0.13931289064E+04  0.10000000000E+02 0. -1.
</event>
<event>
 5    1  0.1020718E-008  0.3743714E+03  0.7957747E-01  0.3476039E+00
         13   -1    0    0    0    0  0.00000000000E+00  0.00000000000E+00  0.14999999963E+04  0.15000000000E+04  0.10566000000E+00 0.  1.
        994   -1    0    0    0    0 -0.00000000000E+00 -0.00000000000E+00  0.11368683772E-12  0.17120000000E+03  0.17120000000E+03 0.  0.
         13    1    1    2    0    0  0.91423036064E+01 -0.84148784702E+01  0.77714214095E+01  0.14655990231E+02  0.10566000000E+00 0.  1.
        994    1    1    2    0    0 -0.10562774074E+02  0.78171524358E+01  0.75903111727E+01  0.17187126837E+03  0.17120000000E+03 0.  0.
        998    1    1    2    0    0  0.14204704677E+01  0.59772603443E+00  0.14846382637E+04  0.14846727414E+04  0.10000000000E+02 0.  1.
</event>
<event>
 5    1  0.1518549E-008  0.3862813E+03  0.7957747E-01  0.3424256E+00
         13   -1    0    0    0    0  0.00000000000E+00  0.00000000000E+00  0.14999999963E+04  0.15000000000E+04  0.10566000000E+00 0. -1.
        994   -1    0    0    0    0 -0.00000000000E+00 -0.00000000000E+00  0.11368683772E-12  0.17120000000E+03  0.17120000000E+03 0.  0.
         13    1    1    2    0    0  0.99435535382E+01 -0.10962785340E+01  0.47554122472E+02  0.48595080118E+02  0.10566000000E+00 0. -1.
        994    1    1    2    0    0 -0.17159574233E+02  0.34859194599E+01  0.20000877332E+01  0.17210474419E+03  0.17120000000E+03 0.  0.
        998    1    1    2    0    0  0.72160206952E+01 -0.23896409258E+01  0.14504457861E+04  0.14505001757E+04  0.10000000000E+02 0. -1.
</event>
<event>
 5    1  0.1020718E-008  0.3847562E+03  0.7957747E-01  0.3430707E+00
         13   -1    0    0    0    0  0.00000000000E+00  0.00000000000E+00  0.14999999963E+04  0.15000000000E+04  0.10566000000E+00 0. -1.
        994   -1    0    0    0    0 -0.00000000000E+00 -0.00000000000E+00  0.11368683772E-12  0.17120000000E+03  0.17120000000E+03 0.  0.
         13    1    1    2    0    0 -0.34995233145E+01 -0.11374962618E+02  0.38975070876E+02  0.40751733115E+02  0.10566000000E+00 0. -1.
        994    1    1    2    0    0 -0.25879733529E+01  0.16008825094E+02  0.26172577933E+01  0.17198624981E+03  0.17120000000E+03 0.  0.
        998    1    1    2    0    0  0.60874966674E+01 -0.46338624754E+01  0.14584076676E+04  0.14584620171E+04  0.10000000000E+02 0. -1.
</event>
<event>
 5    1  0.1020718E-008  0.3834203E+03  0.7957747E-01  0.3436400E+00
         13   -1    0    0    0    0  0.00000000000E+00  0.00000000000E+00  0.14999999963E+04  0.15000000000E+04  0.10566000000E+00 0.  1.
        994   -1    0    0    0    0 -0.00000000000E+00 -0.00000000000E+00  0.11368683772E-12  0.17120000000E+03  0.17120000000E+03 0.  0.
         13    1    1    2    0    0 -0.22718434347E+02  0.11523248841E+01  0.13119490973E+03  0.13315243375E+03  0.10566000000E+00 0.  1.
        994    1    1    2    0    0 -0.12605646135E+02  0.21676745683E+01  0.29574688736E+01  0.17170261428E+03  0.17120000000E+03 0.  0.
        998    1    1    2    0    0  0.35324080483E+02 -0.33199994524E+01  0.13658476177E+04  0.13663449520E+04  0.10000000000E+02 0.  1.
</event>
<event>
 5    1  0.1020718E-008  0.3782711E+03  0.7957747E-01  0.3458721E+00
         13   -1    0    0    0    0  0.00000000000E+00  0.00000000000E+00  0.14999999963E+04  0.15000000000E+04  0.10566000000E+00 0.  1.
        994   -1    0    0    0    0 -0.00000000000E+00 -0.00000000000E+00  0.11368683772E-12  0.17120000000E+03  0.17120000000E+03 0.  0.
         13    1    1    2    0    0  0.24389501736E+01  0.14338216605E+02  0.18674114447E+02  0.23669952424E+02  0.10566000000E+00 0.  1.
        994    1    1    2    0    0 -0.56749105728E+01 -0.15967557237E+02  0.59745294528E+01  0.17214035697E+03  0.17120000000E+03 0.  0.
        998    1    1    2    0    0  0.32359603993E+01  0.16293406316E+01  0.14753513524E+04  0.14753896906E+04  0.10000000000E+02 0.  1.
</event>
<event>
 5    1  0.1020718E-008  0.3784850E+03  0.7957747E-01  0.3457782E+00
         13   -1    0    0    0    0  0.00000000000E+00  0.00000000000E+00  0.14999999963E+04  0.15000000000E+04  0.10566000000E+00 0. -1.
        994   -1    0    0    0    0 -0.00000000000E+00 -0.00000000000E+00  0.11368683772E-12  0.17120000000E+03  0.17120000000E+03 0.  0.
         13    1    1    2    0    0 -0.27244490001E+01 -0.51801612128E+02  0.30414507624E+03  0.30853698029E+03  0.10566000000E+00 0. -1.
        994    1    1    2    0    0  0.63276302722E+01  0.17125145606E+02  0.60204839648E+01  0.17227592909E+03  0.17120000000E+03 0.  0.
        998    1    1    2    0    0 -0.36031812720E+01  0.34676466523E+02  0.11898344361E+04  0.11903870906E+04  0.10000000000E+02 0. -1.
</event>
<event>
 5    1  0.1020718E-008  0.3739709E+03  0.7957747E-01  0.3477838E+00
         13   -1    0    0    0    0  0.00000000000E+00  0.00000000000E+00  0.14999999963E+04  0.15000000000E+04  0.10566000000E+00 0. -1.
        994   -1    0    0    0    0 -0.00000000000E+00 -0.00000000000E+00  0.11368683772E-12  0.17120000000E+03  0.17120000000E+03 0.  0.
         13    1    1    2    0    0  0.69992049160E+02  0.43118256640E-01  0.34246257576E+03  0.34954186554E+03  0.10566000000E+00 0. -1.
        994    1    1    2    0    0 -0.39217188754E+02  0.26012918616E+02  0.14800316971E+02  0.17816607200E+03  0.17120000000E+03 0.  0.
        998    1    1    2    0    0 -0.30774860406E+02 -0.26056036873E+02  0.11427371035E+04  0.11434920625E+04  0.10000000000E+02 0. -1.
</event>
<event>
 5    1  0.1020718E-008  0.3853129E+03  0.7957747E-01  0.3428346E+00
         13   -1    0    0    0    0  0.00000000000E+00  0.00000000000E+00  0.14999999963E+04  0.15000000000E+04  0.10566000000E+00 0.  1.
        994   -1    0    0    0    0 -0.00000000000E+00 -0.00000000000E+00  0.11368683772E-12  0.17120000000E+03  0.17120000000E+03 0.  0.
         13    1    1    2    0    0 -0.77436764153E+01  0.84107555009E+01  0.43145886476E+02  0.44635008865E+02  0.10566000000E+00 0.  1.
        994    1    1    2    0    0  0.70716784892E+01 -0.10971904495E+02  0.20348711294E+01  0.17170897480E+03  0.17120000000E+03 0.  0.
        998    1    1    2    0    0  0.67199792610E+00  0.25611489938E+01  0.14548192387E+04  0.14548560163E+04  0.10000000000E+02 0.  1.
</event>
<event>
 5    1  0.1020718E-008  0.3849546E+03  0.7957747E-01  0.3429865E+00
         13   -1    0    0    0    0  0.00000000000E+00  0.00000000000E+00  0.14999999963E+04  0.15000000000E+04  0.10566000000E+00 0.  1.
        994   -1    0    0    0    0 -0.00000000000E+00 -0.00000000000E+00  0.11368683772E-12  0.17120000000E+03  0.17120000000E+03 0.  0.
         13    1    1    2    0    0  0.43674744649E+01 -0.15350820291E+02  0.78581809233E+02  0.80186248342E+02  0.10566000000E+00 0.  1.
        994    1    1    2    0    0  0.47593383410E+01  0.93403921065E+01  0.20142063969E+01  0.17153247871E+03  0.17120000000E+03 0.  0.
        998    1    1    2    0    0 -0.91268128059E+01  0.60104281843E+01  0.14194039806E+04  0.14194812729E+04  0.10000000000E+02 0.  1.
</event>
<event>
 5    1  0.1020718E-008  0.3847722E+03  0.7957747E-01  0.3430639E+00
         13   -1    0    0    0    0  0.00000000000E+00  0.00000000000E+00  0.14999999963E+04  0.15000000000E+04  0.10566000000E+00 0. -1.
        994   -1    0    0    0    0 -0.00000000000E+00 -0.00000000000E+00  0.11368683772E-12  0.17120000000E+03  0.17120000000E+03 0.  0.
         13    1    1    2    0    0  0.11439542159E+02  0.18981310640E+02  0.13059237677E+03  0.13245955350E+03  0.10566000000E+00 0. -1.
        994    1    1    2    0    0 -0.19391954996E+02 -0.14650080749E+02  0.36896539699E+01  0.17295585081E+03  0.17120000000E+03 0.  0.
        998    1    1    2    0    0  0.79524128365E+01 -0.43312298917E+01  0.13657179655E+04  0.13657845957E+04  0.10000000000E+02 0. -1.
</event>
<event>
 5    1  0.1020718E-008  0.3809378E+03  0.7957747E-01  0.3447085E+00
         13   -1    0    0    0    0  0.00000000000E+00  0.00000000000E+00  0.14999999963E+04  0.15000000000E+04  0.10566000000E+00 0.  1.
        994   -1    0    0    0    0 -0.00000000000E+00 -0.00000000000E+00  0.11368683772E-12  0.17120000000E+03  0.17120000000E+03 0.  0.
         13    1    1    2    0    0  0.75979634929E+01 -0.10981050629E+02  0.22516486371E+02  0.26178537864E+02  0.10566000000E+00 0.  1.
        994    1    1    2    0    0 -0.10648020940E+02  0.10693231143E+02  0.44197976021E+01  0.17192062166E+03  0.17120000000E+03 0.  0.
        998    1    1    2    0    0  0.30500574470E+01  0.28781948571E+00  0.14730637123E+04  0.14731008405E+04  0.10000000000E+02 0.  1.
</event>
<event>
 5    1  0.1020718E-008  0.3834371E+03  0.7957747E-01  0.3436328E+00
         13   -1    0    0    0    0  0.00000000000E+00  0.00000000000E+00  0.14999999963E+04  0.15000000000E+04  0.10566000000E+00 0. -1.
        994   -1    0    0    0    0 -0.00000000000E+00 -0.00000000000E+00  0.11368683772E-12  0.17120000000E+03  0.17120000000E+03 0.  0.
         13    1    1    2    0    0 -0.19277651053E+02  0.17847671512E+02  0.14507335089E+03  0.14743288477E+03  0.10566000000E+00 0. -1.
        994    1    1    2    0    0  0.15233848087E+02 -0.38697655201E+01  0.32250808555E+01  0.17195024385E+03  0.17120000000E+03 0.  0.
        998    1    1    2    0    0  0.40438029653E+01 -0.13977905992E+02  0.13517015645E+04  0.13518168714E+04  0.10000000000E+02 0. -1.
</event>
<event>
 5    1  0.1020718E-008  0.3688170E+03  0.7957747E-01  0.3501346E+00
         13   -1    0    0    0    0  0.00000000000E+00  0.00000000000E+00  0.14999999963E+04  0.15000000000E+04  0.10566000000E+00 0. -1.
        994   -1    0    0    0    0 -0.00000000000E+00 -0.00000000000E+00  0.11368683772E-12  0.17120000000E+03  0.17120000000E+03 0.  0.
         13    1    1    2    0    0  0.13385731526E+02  0.25573558102E+02  0.36123092797E+02  0.46239308815E+02  0.10566000000E+00 0. -1.
        994    1    1    2    0    0 -0.62785475557E+01 -0.20973854682E+02  0.11985177458E+02  0.17300984717E+03  0.17120000000E+03 0.  0.
        998    1    1    2    0    0 -0.71071839699E+01 -0.45997034194E+01  0.14518917260E+04  0.14519508440E+04  0.10000000000E+02 0. -1.
</event>
<event>
 5    1  0.1020718E-008  0.3701736E+03  0.7957747E-01  0.3495094E+00
         13   -1    0    0    0    0  0.00000000000E+00  0.00000000000E+00  0.14999999963E+04  0.15000000000E+04  0.10566000000E+00 0.  1.
        994   -1    0    0    0    0 -0.00000000000E+00 -0.00000000000E+00  0.11368683772E-12  0.17120000000E+03  0.17120000000E+03 0.  0.
         13    1    1    2    0    0 -0.17493589492E+02 -0.14486160996E+02  0.24391020305E+02  0.33328779895E+02  0.10566000000E+00 0.  1.
        994    1    1    2    0    0  0.10214617240E+02  0.92020396231E+01  0.98317867356E+01  0.17203232245E+03  0.17120000000E+03 0.  0.
        998    1    1    2    0    0  0.72789722522E+01  0.52841213730E+01  0.14657771892E+04  0.14658388977E+04  0.10000000000E+02 0.  1.
</event>
<event>
 5    1  0.1020718E-008  0.3854795E+03  0.7957747E-01  0.3427641E+00
         13   -1    0    0    0    0  0.00000000000E+00  0.00000000000E+00  0.14999999963E+04  0.15000000000E+04  0.10566000000E+00 0.  1.
        994   -1    0    0    0    0 -0.00000000000E+00 -0.00000000000E+00  0.11368683772E-12  0.17120000000E+03  0.17120000000E+03 0.  0.
         13    1    1    2    0    0  0.15161273575E+02 -0.66001453958E+00  0.70989546948E+02  0.72593572549E+02  0.10566000000E+00 0.  1.
        994    1    1    2    0    0 -0.32797666211E+02 -0.15443921192E+01  0.49401697971E+01  0.17439012969E+03  0.17120000000E+03 0.  0.
        998    1    1    2    0    0  0.17636392636E+02  0.22044066588E+01  0.14240702795E+04  0.14242162978E+04  0.10000000000E+02 0.  1.
</event>
<event>
 5    1  0.1020718E-008  0.3855526E+03  0.7957747E-01  0.3427332E+00
         13   -1    0    0    0    0  0.00000000000E+00  0.00000000000E+00  0.14999999963E+04  0.15000000000E+04  0.10566000000E+00 0.  1.
        994   -1    0    0    0    0 -0.00000000000E+00 -0.00000000000E+00  0.11368683772E-12  0.17120000000E+03  0.17120000000E+03 0.  0.
         13    1    1    2    0    0  0.14208552133E+02  0.58165530978E-01  0.84346803086E+02  0.85535259933E+02  0.10566000000E+00 0.  1.
        994    1    1    2    0    0  0.54453300606E+01  0.27628050950E+01  0.14784219052E+01  0.17131523704E+03  0.17120000000E+03 0.  0.
        998    1    1    2    0    0 -0.19653882194E+02 -0.28209706260E+01  0.14141747713E+04  0.14143495030E+04  0.10000000000E+02 0.  1.
</event>
<event>
 5    1  0.1020718E-008  0.3828728E+03  0.7957747E-01  0.3438744E+00
         13   -1    0    0    0    0  0.00000000000E+00  0.00000000000E+00  0.14999999963E+04  0.15000000000E+04  0.10566000000E+00 0. -1.
        994   -1    0    0    0    0 -0.00000000000E+00 -0.00000000000E+00  0.11368683772E-12  0.17120000000E+03  0.17120000000E+03 0.  0.
         13    1    1    2    0    0 -0.15206129713E+02 -0.62579971048E+01  0.51860179259E+02  0.54404763261E+02  0.10566000000E+00 0. -1.
        994    1    1    2    0    0  0.22634330602E+01 -0.45645307788E+01  0.27759232661E+01  0.17129828902E+03  0.17120000000E+03 0.  0.
        998    1    1    2    0    0  0.12942696653E+02  0.10822527884E+02  0.14453638938E+04  0.14454969477E+04  0.10000000000E+02 0. -1.
</event>
<event>
 5    1  0.1020718E-008  0.3829779E+03  0.7957747E-01  0.3438294E+00
         13   -1    0    0    0    0  0.00000000000E+00  0.00000000000E+00  0.14999999963E+04  0.15000000000E+04  0.10566000000E+00 0.  1.
        994   -1    0    0    0    0 -0.00000000000E+00 -0.00000000000E+00  0.11368683772E-12  0.17120000000E+03  0.17120000000E+03 0.  0.
         13    1    1    2    0    0 -0.19654871883E+02  0.23164231973E+02  0.16547226481E+03  0.16823785904E+03  0.10566000000E+00 0.  1.
        994    1    1    2    0    0  0.14389431695E+02 -0.19634154663E+02  0.46014406770E+01  0.17298314666E+03  0.17120000000E+03 0.  0.
        998    1    1    2    0    0  0.52654401884E+01 -0.35300773103E+01  0.13299262908E+04  0.13299789943E+04  0.10000000000E+02 0.  1.
</event>
<event>
 5    1  0.1020718E-008  0.3840111E+03  0.7957747E-01  0.3433877E+00
         13   -1    0    0    0    0  0.00000000000E+00  0.00000000000E+00  0.14999999963E+04  0.15000000000E+04  0.10566000000E+00 0.  1.
        994   -1    0    0    0    0 -0.00000000000E+00 -0.00000000000E+00  0.11368683772E-12  0.17120000000E+03  0.17120000000E+03 0.  0.
         13    1    1    2    0    0  0.21904784220E+02  0.92166623230E+01  0.12639679532E+03  0.12861153707E+03  0.10566000000E+00 0.  1.
        994    1    1    2    0    0 -0.16761557225E+02 -0.13850508099E+02  0.36833071659E+01  0.17261457971E+03  0.17120000000E+03 0.  0.
        998    1    1    2    0    0 -0.51432269949E+01  0.46338457755E+01  0.13699198938E+04  0.13699738832E+04  0.10000000000E+02 0.  1.
</event>
<event>
 5    1  0.1020718E-008  0.3706501E+03  0.7957747E-01  0.3492909E+00
         13   -1    0    0    0    0  0.00000000000E+00  0.00000000000E+00  0.14999999963E+04  0.15000000000E+04  0.10566000000E+00 0. -1.
        994   -1    0    0    0    0 -0.00000000000E+00 -0.00000000000E+00  0.11368683772E-12  0.17120000000E+03  0.17120000000E+03 0.  0.
         13    1    1    2    0    0 -0.27890623997E+02  0.16085598319E+02  0.60388008894E+02  0.68435050687E+02  0.10566000000E+00 0. -1.
        994    1    1    2    0    0 -0.11431868406E+02  0.26969946592E+01  0.94057627069E+01  0.17186002958E+03  0.17120000000E+03 0.  0.
        998    1    1    2    0    0  0.39322492404E+02 -0.18782592979E+02  0.14302062247E+04  0.14309049197E+04  0.10000000000E+02 0. -1.
</event>
<event>
 5    1  0.1020718E-008  0.3717420E+03  0.7957747E-01  0.3487923E+00
         13   -1    0    0    0    0  0.00000000000E+00  0.00000000000E+00  0.14999999963E+04  0.15000000000E+04  0.10566000000E+00 0. -1.
        994   -1    0    0    0    0 -0.00000000000E+00 -0.00000000000E+00  0.11368683772E-12  0.17120000000E+03  0.17120000000E+03 0.  0.
         13    1    1    2    0    0 -0.18316107061E+02 -0.12060752390E+02  0.15392756968E+02  0.26793462957E+02  0.10566000000E+00 0. -1.
        994    1    1    2    0    0 -0.17665428556E+01  0.19482107938E+02  0.13210051078E+02  0.17281961304E+03  0.17120000000E+03 0.  0.
        998    1    1    2    0    0  0.20082649917E+02 -0.74213555483E+01  0.14713971882E+04  0.14715869240E+04  0.10000000000E+02 0. -1.
</event>
<event>
 5    1  0.1020718E-008  0.3706834E+03  0.7957747E-01  0.3492756E+00
         13   -1    0    0    0    0  0.00000000000E+00  0.00000000000E+00  0.14999999963E+04  0.15000000000E+04  0.10566000000E+00 0.  1.
        994   -1    0    0    0    0 -0.00000000000E+00 -0.00000000000E+00  0.11368683772E-12  0.17120000000E+03  0.17120000000E+03 0.  0.
         13    1    1    2    0    0  0.36035100510E+02  0.83853716838E+02  0.36340767218E+03  0.37469337018E+03  0.10566000000E+00 0.  1.
        994    1    1    2    0    0  0.45078777954E+02 -0.85201325276E+02  0.44613072828E+02  0.20147240088E+03  0.17120000000E+03 0.  0.
        998    1    1    2    0    0 -0.81113878464E+02  0.13476084376E+01  0.10919792513E+04  0.10950342289E+04  0.10000000000E+02 0.  1.
</event>
<event>
 5    1  0.1020718E-008  0.3853937E+03  0.7957747E-01  0.3428004E+00
         13   -1    0    0    0    0  0.00000000000E+00  0.00000000000E+00  0.14999999963E+04  0.15000000000E+04  0.10566000000E+00 0. -1.
        994   -1    0    0    0    0 -0.00000000000E+00 -0.00000000000E+00  0.11368683772E-12  0.17120000000E+03  0.17120000000E+03 0.  0.
         13    1    1    2    0    0  0.13525209415E+02 -0.88664955992E+01  0.88909808399E+02  0.90368751389E+02  0.10566000000E+00 0. -1.
        994    1    1    2    0    0 -0.14524115074E+02  0.36748652855E+01  0.21723584486E+01  0.17186801242E+03  0.17120000000E+03 0.  0.
        998    1    1    2    0    0  0.99890565859E+00  0.51916303137E+01  0.14089178294E+04  0.14089632362E+04  0.10000000000E+02 0. -1.
</event>
<event>
 5    1  0.1020718E-008  0.3768488E+03  0.7957747E-01  0.3464995E+00
         13   -1    0    0    0    0  0.00000000000E+00  0.00000000000E+00  0.14999999963E+04  0.15000000000E+04  0.10566000000E+00 0. -1.
        994   -1    0    0    0    0 -0.00000000000E+00 -0.00000000000E+00  0.11368683772E-12  0.17120000000E+03  0.17120000000E+03 0.  0.
         13    1    1    2    0    0 -0.44410504682E+02  0.10348542133E+02  0.62859587316E+02  0.77657737103E+02  0.10566000000E+00 0. -1.
        994    1    1    2    0    0  0.41456124069E+02 -0.32503253087E+02  0.24615294522E+02  0.18080493469E+03  0.17120000000E+03 0.  0.
        998    1    1    2    0    0  0.29543806137E+01  0.22154710955E+02  0.14125251144E+04  0.14127373282E+04  0.10000000000E+02 0. -1.
</event>
<event>
 5    1  0.1020718E-008  0.3840597E+03  0.7957747E-01  0.3433670E+00
         13   -1    0    0    0    0  0.00000000000E+00  0.00000000000E+00  0.14999999963E+04  0.15000000000E+04  0.10566000000E+00 0.  1.
        994   -1    0    0    0    0 -0.00000000000E+00 -0.00000000000E+00  0.11368683772E-12  0.17120000000E+03  0.17120000000E+03 0.  0.
         13    1    1    2    0    0  0.54504648902E+01 -0.15052628584E+02  0.58343929078E+02  0.60500532387E+02  0.10566000000E+00 0.  1.
        994    1    1    2    0    0 -0.70248241447E+01  0.16435400750E+02  0.31522493762E+01  0.17215936579E+03  0.17120000000E+03 0.  0.
        998    1    1    2    0    0  0.15743592544E+01 -0.13827721653E+01  0.14385038178E+04  0.14385401018E+04  0.10000000000E+02 0.  1.
</event>
<event>
 5    1  0.1020718E-008  0.3761281E+03  0.7957747E-01  0.3468193E+00
         13   -1    0    0    0    0  0.00000000000E+00  0.00000000000E+00  0.14999999963E+04  0.15000000000E+04  0.10566000000E+00 0.  1.
        994   -1    0    0    0    0 -0.00000000000E+00 -0.00000000000E+00  0.11368683772E-12  0.17120000000E+03  0.17120000000E+03 0.  0.
         13    1    1    2    0    0  0.51651744825E+02  0.33150639763E+02  0.27587777336E+03  0.28262240651E+03  0.10566000000E+00 0.  1.
        994    1    1    2    0    0 -0.53328841200E+02 -0.95835162042E+01  0.16107652448E+02  0.18029061416E+03  0.17120000000E+03 0.  0.
        998    1    1    2    0    0  0.16770963747E+01 -0.23567123559E+02  0.12080145705E+04  0.12082869793E+04  0.10000000000E+02 0.  1.
</event>
<event>
 5    1  0.1020718E-008  0.3802395E+03  0.7957747E-01  0.3450116E+00
         13   -1    0    0    0    0  0.00000000000E+00  0.00000000000E+00  0.14999999963E+04  0.15000000000E+04  0.10566000000E+00 0.  1.
        994   -1    0    0    0    0 -0.00000000000E+00 -0.00000000000E+00  0.11368683772E-12  0.17120000000E+03  0.17120000000E+03 0.  0.
         13    1    1    2    0    0 -0.33517369848E+02  0.12835197993E+02  0.14879275112E+03  0.15306028335E+03  0.10566000000E+00 0.  1.
        994    1    1    2    0    0  0.28599285492E+02 -0.14140170832E+02  0.74197216362E+01  0.17430535227E+03  0.17120000000E+03 0.  0.
        998    1    1    2    0    0  0.49180843557E+01  0.13049728382E+01  0.13437875235E+04  0.13438343644E+04  0.10000000000E+02 0.  1.
</event>
<event>
 5    1  0.1020718E-008  0.3822663E+03  0.7957747E-01  0.3441349E+00
         13   -1    0    0    0    0  0.00000000000E+00  0.00000000000E+00  0.14999999963E+04  0.15000000000E+04  0.10566000000E+00 0.  1.
        994   -1    0    0    0    0 -0.00000000000E+00 -0.00000000000E+00  0.11368683772E-12  0.17120000000E+03  0.17120000000E+03 0.  0.
         13    1    1    2    0    0 -0.44375882966E+01 -0.29288318501E+02  0.16975276054E+03  0.17231804509E+03  0.10566000000E+00 0.  1.
        994    1    1    2    0    0  0.21442679480E+02 -0.39685696916E+01  0.45729210959E+01  0.17264382310E+03  0.17120000000E+03 0.  0.
        998    1    1    2    0    0 -0.17005091183E+02  0.33256888192E+02  0.13256743146E+04  0.13262381318E+04  0.10000000000E+02 0.  1.
</event>
<event>
 5    1  0.1020718E-008  0.3690129E+03  0.7957747E-01  0.3500440E+00
         13   -1    0    0    0    0  0.00000000000E+00  0.00000000000E+00  0.14999999963E+04  0.15000000000E+04  0.10566000000E+00 0.  1.
        994   -1    0    0    0    0 -0.00000000000E+00 -0.00000000000E+00  0.11368683772E-12  0.17120000000E+03  0.17120000000E+03 0.  0.
         13    1    1    2    0    0  0.86734022833E+01  0.73941777763E+02  0.24259336662E+03  0.25376005812E+03  0.10566000000E+00 0.  1.
        994    1    1    2    0    0 -0.32110788163E+02 -0.55230521611E+02  0.24775927222E+02  0.18440390398E+03  0.17120000000E+03 0.  0.
        998    1    1    2    0    0  0.23437385879E+02 -0.18711256152E+02  0.12326307024E+04  0.12330360379E+04  0.10000000000E+02 0.  1.
</event>
<event>
 5    1  0.1020718E-008  0.3855262E+03  0.7957747E-01  0.3427443E+00
         13   -1    0    0    0    0  0.00000000000E+00  0.00000000000E+00  0.14999999963E+04  0.15000000000E+04  0.10566000000E+00 0. -1.
        994   -1    0    0    0    0 -0.00000000000E+00 -0.00000000000E+00  0.11368683772E-12  0.17120000000E+03  0.17120000000E+03 0.  0.
         13    1    1    2    0    0 -0.11567322487E+02  0.78753392949E+01  0.58041499755E+02  0.59704696435E+02  0.10566000000E+00 0. -1.
        994    1    1    2    0    0  0.24728704803E+02 -0.41627127806E+02  0.91037919224E+01  0.17814781963E+03  0.17120000000E+03 0.  0.
        998    1    1    2    0    0 -0.13161382316E+02  0.33751788512E+02  0.14328547046E+04  0.14333474839E+04  0.10000000000E+02 0. -1.
</event>
<event>
 5    1  0.1020718E-008  0.3800773E+03  0.7957747E-01  0.3450822E+00
         13   -1    0    0    0    0  0.00000000000E+00  0.00000000000E+00  0.14999999963E+04  0.15000000000E+04  0.10566000000E+00 0. -1.
        994   -1    0    0    0    0 -0.00000000000E+00 -0.00000000000E+00  0.11368683772E-12  0.17120000000E+03  0.17120000000E+03 0.  0.
         13    1    1    2    0    0  0.14147017778E+02  0.46456753016E+02  0.26558350536E+03  0.26998699505E+03  0.10566000000E+00 0. -1.
        994    1    1    2    0    0 -0.29356696850E+02 -0.29960944548E+02  0.99969073478E+01  0.17654702491E+03  0.17120000000E+03 0.  0.
        998    1    1    2    0    0  0.15209679073E+02 -0.16495808468E+02  0.12244195836E+04  0.12246659800E+04  0.10000000000E+02 0. -1.
</event>
<event>
 5    1  0.1020718E-008  0.3789802E+03  0.7957747E-01  0.3455611E+00
         13   -1    0    0    0    0  0.00000000000E+00  0.00000000000E+00  0.14999999963E+04  0.15000000000E+04  0.10566000000E+00 0. -1.
        994   -1    0    0    0    0 -0.00000000000E+00 -0.00000000000E+00  0.11368683772E-12  0.17120000000E+03  0.17120000000E+03 0.  0.
         13    1    1    2    0    0 -0.81250789790E+02 -0.22397191353E+01  0.20173405882E+03  0.21749333055E+03  0.10566000000E+00 0. -1.
        994    1    1    2    0    0  0.56106036741E+02 -0.58432403670E+02  0.39858404051E+02  0.19354680450E+03  0.17120000000E+03 0.  0.
        998    1    1    2    0    0  0.25144753050E+02  0.60672122805E+02  0.12584075334E+04  0.12601598649E+04  0.10000000000E+02 0. -1.
</event>
<event>
 5    1  0.1020718E-008  0.3784109E+03  0.7957747E-01  0.3458107E+00
         13   -1    0    0    0    0  0.00000000000E+00  0.00000000000E+00  0.14999999963E+04  0.15000000000E+04  0.10566000000E+00 0.  1.
        994   -1    0    0    0    0 -0.00000000000E+00 -0.00000000000E+00  0.11368683772E-12  0.17120000000E+03  0.17120000000E+03 0.  0.
         13    1    1    2    0    0 -0.11573995466E+01 -0.47514353924E+02  0.27688618655E+03  0.28093580204E+03  0.10566000000E+00 0.  1.
        994    1    1    2    0    0 -0.22767296502E+01  0.39700541405E+01  0.50078846357E+01  0.17133436239E+03  0.17120000000E+03 0.  0.
        998    1    1    2    0    0  0.34341291968E+01  0.43544299783E+02  0.12181059251E+04  0.12189298356E+04  0.10000000000E+02 0.  1.
</event>
<event>
 5    1  0.1020718E-008  0.3711334E+03  0.7957747E-01  0.3490698E+00
         13   -1    0    0    0    0  0.00000000000E+00  0.00000000000E+00  0.14999999963E+04  0.15000000000E+04  0.10566000000E+00 0. -1.
        994   -1    0    0    0    0 -0.00000000000E+00 -0.00000000000E+00  0.11368683772E-12  0.17120000000E+03  0.17120000000E+03 0.  0.
         13    1    1    2    0    0 -0.46237759372E+02  0.82785503950E+02  0.41873217209E+03  0.42933438386E+03  0.10566000000E+00 0. -1.
        994    1    1    2    0    0  0.35825977870E+02 -0.71711387419E+02  0.31146846047E+02  0.19158702930E+03  0.17120000000E+03 0.  0.
        998    1    1    2    0    0  0.10411781502E+02 -0.11074116531E+02  0.10501209781E+04  0.10502785868E+04  0.10000000000E+02 0. -1.
</event>
<event>
 5    1  0.1020718E-008  0.3846571E+03  0.7957747E-01  0.3431128E+00
         13   -1    0    0    0    0  0.00000000000E+00  0.00000000000E+00  0.14999999963E+04  0.15000000000E+04  0.10566000000E+00 0. -1.
        994   -1    0    0    0    0 -0.00000000000E+00 -0.00000000000E+00  0.11368683772E-12  0.17120000000E+03  0.17120000000E+03 0.  0.
         13    1    1    2    0    0  0.33138294980E+01 -0.34369635277E+02  0.18383001377E+03  0.18704474979E+03  0.10566000000E+00 0. -1.
        994    1    1    2    0    0 -0.26256481274E+02  0.82257178083E+02  0.26744844844E+02  0.19359848367E+03  0.17120000000E+03 0.  0.
        998    1    1    2    0    0  0.22942651776E+02 -0.47887542805E+02  0.12894251377E+04  0.12905567665E+04  0.10000000000E+02 0. -1.
</event>
<event>
 5    1  0.1020718E-008  0.3806307E+03  0.7957747E-01  0.3448417E+00
         13   -1    0    0    0    0  0.00000000000E+00  0.00000000000E+00  0.14999999963E+04  0.15000000000E+04  0.10566000000E+00 0. -1.
        994   -1    0    0    0    0 -0.00000000000E+00 -0.00000000000E+00  0.11368683772E-12  0.17120000000E+03  0.17120000000E+03 0.  0.
         13    1    1    2    0    0 -0.21687317369E+02 -0.59272668204E+01  0.64067587906E+02  0.67898005940E+02  0.10566000000E+00 0. -1.
        994    1    1    2    0    0  0.17427376511E+02  0.18139617009E+01  0.48399364604E+01  0.17216233297E+03  0.17120000000E+03 0.  0.
        998    1    1    2    0    0  0.42599408576E+01  0.41133051195E+01  0.14310924719E+04  0.14311396611E+04  0.10000000000E+02 0. -1.
</event>
<event>
 5    1  0.1020718E-008  0.3763048E+03  0.7957747E-01  0.3467408E+00
         13   -1    0    0    0    0  0.00000000000E+00  0.00000000000E+00  0.14999999963E+04  0.15000000000E+04  0.10566000000E+00 0.  1.
        994   -1    0    0    0    0 -0.00000000000E+00 -0.00000000000E+00  0.11368683772E-12  0.17120000000E+03  0.17120000000E+03 0.  0.
         13    1    1    2    0    0  0.22254465810E+02 -0.47894676504E+02  0.20160344369E+03  0.20840614424E+03  0.10566000000E+00 0.  1.
        994    1    1    2    0    0 -0.26836496669E+02  0.44726641235E+02  0.15273917249E+02  0.17962016184E+03  0.17120000000E+03 0.  0.
        998    1    1    2    0    0  0.45820308591E+01  0.31680352687E+01  0.12831226353E+04  0.12831736939E+04  0.10000000000E+02 0.  1.
</event>
<event>
 5    1  0.1020718E-008  0.3840709E+03  0.7957747E-01  0.3433622E+00
         13   -1    0    0    0    0  0.00000000000E+00  0.00000000000E+00  0.14999999963E+04  0.15000000000E+04  0.10566000000E+00 0. -1.
        994   -1    0    0    0    0 -0.00000000000E+00 -0.00000000000E+00  0.11368683772E-12  0.17120000000E+03  0.17120000000E+03 0.  0.
         13    1    1    2    0    0  0.10658726891E+02 -0.41049468794E+01  0.29668056991E+02  0.31790939235E+02  0.10566000000E+00 0. -1.
        994    1    1    2    0    0 -0.11876559512E+02  0.13085181571E+02  0.31228733610E+01  0.17213793010E+03  0.17120000000E+03 0.  0.
        998    1    1    2    0    0  0.12178326210E+01 -0.89802346921E+01  0.14672090659E+04  0.14672711307E+04  0.10000000000E+02 0. -1.
</event>
<event>
 5    1  0.1020718E-008  0.3830664E+03  0.7957747E-01  0.3437915E+00
         13   -1    0    0    0    0  0.00000000000E+00  0.00000000000E+00  0.14999999963E+04  0.15000000000E+04  0.10566000000E+00 0. -1.
        994   -1    0    0    0    0 -0.00000000000E+00 -0.00000000000E+00  0.11368683772E-12  0.17120000000E+03  0.17120000000E+03 0.  0.
         13    1    1    2    0    0 -0.35648267993E+02  0.70103383837E+01  0.21796403405E+03  0.22097120890E+03  0.10566000000E+00 0. -1.
        994    1    1    2    0    0  0.36616639482E+02 -0.71309783887E+01  0.72123463464E+01  0.17536558123E+03  0.17120000000E+03 0.  0.
        998    1    1    2    0    0 -0.96837148919E+00  0.12064000498E+00  0.12748236159E+04  0.12748632099E+04  0.10000000000E+02 0.  0.
</event>
<event>
 5    1  0.1020718E-008  0.3816742E+03  0.7957747E-01  0.3443901E+00
         13   -1    0    0    0    0  0.00000000000E+00  0.00000000000E+00  0.14999999963E+04  0.15000000000E+04  0.10566000000E+00 0. -1.
        994   -1    0    0    0    0 -0.00000000000E+00 -0.00000000000E+00  0.11368683772E-12  0.17120000000E+03  0.17120000000E+03 0.  0.
         13    1    1    2    0    0 -0.90728521889E+00 -0.34246790084E+02  0.17050712118E+03  0.17391479331E+03  0.10566000000E+00 0. -1.
        994    1    1    2    0    0  0.10340152393E+02  0.25119568554E+02  0.57474882250E+01  0.17343697731E+03  0.17120000000E+03 0.  0.
        998    1    1    2    0    0 -0.94328671746E+01  0.91272215300E+01  0.13237453869E+04  0.13238482294E+04  0.10000000000E+02 0. -1.
</event>
<event>
 5    1  0.1020718E-008  0.3810151E+03  0.7957747E-01  0.3446751E+00
         13   -1    0    0    0    0  0.00000000000E+00  0.00000000000E+00  0.14999999963E+04  0.15000000000E+04  0.10566000000E+00 0. -1.
        994   -1    0    0    0    0 -0.00000000000E+00 -0.00000000000E+00  0.11368683772E-12  0.17120000000E+03  0.17120000000E+03 0.  0.
         13    1    1    2    0    0  0.30878782649E+02  0.25057274810E+02  0.22322870367E+03  0.22674309591E+03  0.10566000000E+00 0. -1.
        994    1    1    2    0    0 -0.14043189750E+02 -0.13755371354E+02  0.49101372952E+01  0.17239481102E+03  0.17120000000E+03 0.  0.
        998    1    1    2    0    0 -0.16835592899E+02 -0.11301903456E+02  0.12718611553E+04  0.12720620931E+04  0.10000000000E+02 0. -1.
</event>
<event>
 5    1  0.1020718E-008  0.3842485E+03  0.7957747E-01  0.3432866E+00
         13   -1    0    0    0    0  0.00000000000E+00  0.00000000000E+00  0.14999999963E+04  0.15000000000E+04  0.10566000000E+00 0.  1.
        994   -1    0    0    0    0 -0.00000000000E+00 -0.00000000000E+00  0.11368683772E-12  0.17120000000E+03  0.17120000000E+03 0.  0.
         13    1    1    2    0    0 -0.17790825520E+02 -0.81588845155E+01  0.99221286898E+02  0.10113335655E+03  0.10566000000E+00 0.  1.
        994    1    1    2    0    0  0.71400207660E+01  0.51151802461E+00  0.21726364672E+01  0.17136336218E+03  0.17120000000E+03 0.  0.
        998    1    1    2    0    0  0.10650804754E+02  0.76473664909E+01  0.13986060729E+04  0.13987032813E+04  0.10000000000E+02 0.  1.
</event>
<event>
 5    1  0.1020718E-008  0.3849339E+03  0.7957747E-01  0.3429953E+00
         13   -1    0    0    0    0  0.00000000000E+00  0.00000000000E+00  0.14999999963E+04  0.15000000000E+04  0.10566000000E+00 0.  1.
        994   -1    0    0    0    0 -0.00000000000E+00 -0.00000000000E+00  0.11368683772E-12  0.17120000000E+03  0.17120000000E+03 0.  0.
         13    1    1    2    0    0 -0.13182561341E+02 -0.31212458467E+01  0.47799909922E+02  0.49682639339E+02  0.10566000000E+00 0.  1.
        994    1    1    2    0    0  0.37217013550E+02 -0.12021474575E+01  0.62371969384E+01  0.17531370135E+03  0.17120000000E+03 0.  0.
        998    1    1    2    0    0 -0.24034452210E+02  0.43233933043E+01  0.14459628894E+04  0.14462036593E+04  0.10000000000E+02 0.  1.
</event>
<event>
 5    1  0.1020718E-008  0.3859809E+03  0.7957747E-01  0.3425523E+00
         13   -1    0    0    0    0  0.00000000000E+00  0.00000000000E+00  0.14999999963E+04  0.15000000000E+04  0.10566000000E+00 0.  1.
        994   -1    0    0    0    0 -0.00000000000E+00 -0.00000000000E+00  0.11368683772E-12  0.17120000000E+03  0.17120000000E+03 0.  0.
         13    1    1    2    0    0 -0.43052909939E+01 -0.11334043821E+02  0.64609585505E+02  0.65737400185E+02  0.10566000000E+00 0.  1.
        994    1    1    2    0    0 -0.51465886400E+01  0.11556850217E+02  0.16687617794E+01  0.17167490477E+03  0.17120000000E+03 0.  0.
        998    1    1    2    0    0  0.94518796339E+01 -0.22280639556E+00  0.14337216490E+04  0.14337876950E+04  0.10000000000E+02 0.  1.
</event>
<event>
 5    1  0.1020718E-008  0.3721819E+03  0.7957747E-01  0.3485923E+00
         13   -1    0    0    0    0  0.00000000000E+00  0.00000000000E+00  0.14999999963E+04  0.15000000000E+04  0.10566000000E+00 0. -1.
        994   -1    0    0    0    0 -0.00000000000E+00 -0.00000000000E+00  0.11368683772E-12  0.17120000000E+03  0.17120000000E+03 0.  0.
         13    1    1    2    0    0  0.70992958324E+02  0.58181617419E+01  0.20314351916E+03  0.21526995071E+03  0.10566000000E+00 0. -1.
        994    1    1    2    0    0 -0.44115208737E+02 -0.21604143226E+02  0.20646534574E+02  0.17930033474E+03  0.17120000000E+03 0.  0.
        998    1    1    2    0    0 -0.26877749586E+02  0.15785981484E+02  0.12762099425E+04  0.12766297146E+04  0.10000000000E+02 0. -1.
</event>
<event>
 5    1  0.1020718E-008  0.3797902E+03  0.7957747E-01  0.3452073E+00
         13   -1    0    0    0    0  0.00000000000E+00  0.00000000000E+00  0.14999999963E+04  0.15000000000E+04  0.10566000000E+00 0. -1.
        994   -1    0    0    0    0 -0.00000000000E+00 -0.00000000000E+00  0.11368683772E-12  0.17120000000E+03  0.17120000000E+03 0.  0.
         13    1    1    2    0    0  0.14269895667E+02  0.45831150183E+02  0.22299875849E+03  0.22810651394E+03  0.10566000000E+00 0. -1.
        994    1    1    2    0    0 -0.86797830760E+01 -0.52959468659E+02  0.13934403080E+02  0.17995458189E+03  0.17120000000E+03 0.  0.
        998    1    1    2    0    0 -0.55901125908E+01  0.71283184759E+01  0.12630668347E+04  0.12631389042E+04  0.10000000000E+02 0. -1.
</event>
<event>
 5    1  0.1020718E-008  0.3706406E+03  0.7957747E-01  0.3492952E+00
         13   -1    0    0    0    0  0.00000000000E+00  0.00000000000E+00  0.14999999963E+04  0.15000000000E+04  0.10566000000E+00 0.  1.
        994   -1    0    0    0    0 -0.00000000000E+00 -0.00000000000E+00  0.11368683772E-12  0.17120000000E+03  0.17120000000E+03 0.  0.
         13    1    1    2    0    0  0.69261814235E+02 -0.88567211247E+02  0.49930228682E+03  0.51180478174E+03  0.10566000000E+00 0.  1.
        994    1    1    2    0    0 -0.78549342164E+02  0.40947405003E+02  0.39303243907E+02  0.19672537740E+03  0.17120000000E+03 0.  0.
        998    1    1    2    0    0  0.92875279293E+01  0.47619806244E+02  0.96139446555E+03  0.96266984087E+03  0.10000000000E+02 0.  1.
</event>
<event>
 5    1  0.1020718E-008  0.3829579E+03  0.7957747E-01  0.3438379E+00
         13   -1    0    0    0    0  0.00000000000E+00  0.00000000000E+00  0.14999999963E+04  0.15000000000E+04  0.10566000000E+00 0.  1.
        994   -1    0    0    0    0 -0.00000000000E+00 -0.00000000000E+00  0.11368683772E-12  0.17120000000E+03  0.17120000000E+03 0.  0.
         13    1    1    2    0    0 -0.19032264351E+01  0.14664619025E+02  0.40817543944E+02  0.43413780987E+02  0.10566000000E+00 0.  1.
        994    1    1    2    0    0 -0.25500917466E+01 -0.81768008654E+01  0.28903201337E+01  0.17143849332E+03  0.17120000000E+03 0.  0.
        998    1    1    2    0    0  0.44533181817E+01 -0.64878181592E+01  0.14562921322E+04  0.14563477257E+04  0.10000000000E+02 0.  1.
</event>
<event>
 5    1  0.1020718E-008  0.4166475E+03  0.7957747E-01  0.3305625E+00
         13   -1    0    0    0    0  0.00000000000E+00  0.00000000000E+00  0.14999999963E+04  0.15000000000E+04  0.10566000000E+00 0.  1.
        994   -1    0    0    0    0 -0.00000000000E+00 -0.00000000000E+00  0.11368683772E-12  0.17120000000E+03  0.17120000000E+03 0.  0.
         13    1    1    2    0    0  0.14600171985E+03  0.37082309375E+02  0.26334968309E+03  0.30338863956E+03  0.10566000000E+00 0.  1.
        994    1    1    2    0    0 -0.11698425890E+03 -0.27796412486E+02  0.10207032433E+03  0.23277832477E+03  0.17120000000E+03 0.  0.
        998    1    1    2    0    0 -0.29017460955E+02 -0.92858968890E+01  0.11345799889E+04  0.11350330357E+04  0.10000000000E+02 0.  1.
</event>
<event>
 5    1  0.1020718E-008  0.3690866E+03  0.7957747E-01  0.3500099E+00
         13   -1    0    0    0    0  0.00000000000E+00  0.00000000000E+00  0.14999999963E+04  0.15000000000E+04  0.10566000000E+00 0. -1.
        994   -1    0    0    0    0 -0.00000000000E+00 -0.00000000000E+00  0.11368683772E-12  0.17120000000E+03  0.17120000000E+03 0.  0.
         13    1    1    2    0    0 -0.16141607144E+02  0.51308407519E+02  0.12853276165E+03  0.13933336336E+03  0.10566000000E+00 0. -1.
        994    1    1    2    0    0  0.68705770236E+02 -0.44446197504E+02  0.33346181808E+02  0.19265864937E+03  0.17120000000E+03 0.  0.
        998    1    1    2    0    0 -0.52564163092E+02 -0.68622100155E+01  0.13381210528E+04  0.13392079873E+04  0.10000000000E+02 0. -1.
</event>
<event>
 5    1  0.1020718E-008  0.3844910E+03  0.7957747E-01  0.3431834E+00
         13   -1    0    0    0    0  0.00000000000E+00  0.00000000000E+00  0.14999999963E+04  0.15000000000E+04  0.10566000000E+00 0. -1.
        994   -1    0    0    0    0 -0.00000000000E+00 -0.00000000000E+00  0.11368683772E-12  0.17120000000E+03  0.17120000000E+03 0.  0.
         13    1    1    2    0    0 -0.10045979103E+02  0.93077057048E+01  0.48796750402E+02  0.50682236488E+02  0.10566000000E+00 0. -1.
        994    1    1    2    0    0  0.98571312793E+01 -0.69653560587E+01  0.23631036868E+01  0.17164120566E+03  0.17120000000E+03 0.  0.
        998    1    1    2    0    0  0.18884782406E+00 -0.23423496461E+01  0.14488401422E+04  0.14488765578E+04  0.10000000000E+02 0. -1.
</event>
<event>
 5    1  0.1020718E-008  0.3785912E+03  0.7957747E-01  0.3457316E+00
         13   -1    0    0    0    0  0.00000000000E+00  0.00000000000E+00  0.14999999963E+04  0.15000000000E+04  0.10566000000E+00 0. -1.
        994   -1    0    0    0    0 -0.00000000000E+00 -0.00000000000E+00  0.11368683772E-12  0.17120000000E+03  0.17120000000E+03 0.  0.
         13    1    1    2    0    0  0.12954542722E+02  0.12455116645E+02  0.31653122306E+02  0.36398920636E+02  0.10566000000E+00 0. -1.
        994    1    1    2    0    0 -0.79417463192E+01 -0.49769393661E+01  0.51410747016E+01  0.17153341339E+03  0.17120000000E+03 0.  0.
        998    1    1    2    0    0 -0.50127964024E+01 -0.74781772786E+01  0.14632057993E+04  0.14632676660E+04  0.10000000000E+02 0. -1.
</event>
<event>
 5    1  0.1020718E-008  0.3755906E+03  0.7957747E-01  0.3470586E+00
         13   -1    0    0    0    0  0.00000000000E+00  0.00000000000E+00  0.14999999963E+04  0.15000000000E+04  0.10566000000E+00 0.  1.
        994   -1    0    0    0    0 -0.00000000000E+00 -0.00000000000E+00  0.11368683772E-12  0.17120000000E+03  0.17120000000E+03 0.  0.
         13    1    1    2    0    0  0.16077756045E+02 -0.22520223107E+02  0.57458172428E+02  0.63773877340E+02  0.10566000000E+00 0.  1.
        994    1    1    2    0    0 -0.43150036340E+01  0.19889743081E+02  0.77822433021E+01  0.17258106631E+03  0.17120000000E+03 0.  0.
        998    1    1    2    0    0 -0.11762752411E+02  0.26304800264E+01  0.14347595805E+04  0.14348450564E+04  0.10000000000E+02 0.  1.
</event>
<event>
 5    1  0.1020718E-008  0.3716232E+03  0.7957747E-01  0.3488464E+00
         13   -1    0    0    0    0  0.00000000000E+00  0.00000000000E+00  0.14999999963E+04  0.15000000000E+04  0.10566000000E+00 0. -1.
        994   -1    0    0    0    0 -0.00000000000E+00 -0.00000000000E+00  0.11368683772E-12  0.17120000000E+03  0.17120000000E+03 0.  0.
         13    1    1    2    0    0 -0.73457900244E+02 -0.51076888166E+02  0.51881775341E+03  0.52647581524E+03  0.10566000000E+00 0. -1.
        994    1    1    2    0    0 -0.35439977971E+02  0.89443428721E+02  0.45097442549E+02  0.20149277482E+03  0.17120000000E+03 0.  0.
        998    1    1    2    0    0  0.10889787822E+03 -0.38366540555E+02  0.93608480032E+03  0.94323140994E+03  0.10000000000E+02 0.  1.
</event>
<event>
 5    1  0.1020718E-008  0.3829956E+03  0.7957747E-01  0.3438218E+00
         13   -1    0    0    0    0  0.00000000000E+00  0.00000000000E+00  0.14999999963E+04  0.15000000000E+04  0.10566000000E+00 0. -1.
        994   -1    0    0    0    0 -0.00000000000E+00 -0.00000000000E+00  0.11368683772E-12  0.17120000000E+03  0.17120000000E+03 0.  0.
         13    1    1    2    0    0 -0.86159437605E+01  0.13981057958E+02  0.48483385948E+02  0.51189396807E+02  0.10566000000E+00 0. -1.
        994    1    1    2    0    0  0.10070787750E+02 -0.17374171602E+02  0.39646306300E+01  0.17241937507E+03  0.17120000000E+03 0.  0.
        998    1    1    2    0    0 -0.14548439895E+01  0.33931136436E+01  0.14475519797E+04  0.14475912281E+04  0.10000000000E+02 0. -1.
</event>
<event>
 5    1  0.1020718E-008  0.3696707E+03  0.7957747E-01  0.3497406E+00
         13   -1    0    0    0    0  0.00000000000E+00  0.00000000000E+00  0.14999999963E+04  0.15000000000E+04  0.10566000000E+00 0.  1.
        994   -1    0    0    0    0 -0.00000000000E+00 -0.00000000000E+00  0.11368683772E-12  0.17120000000E+03  0.17120000000E+03 0.  0.
         13    1    1    2    0    0  0.52319839033E+02  0.24665778856E+01  0.13274103777E+03  0.14270123978E+03  0.10566000000E+00 0.  1.
        994    1    1    2    0    0 -0.15071032615E+02 -0.16290509331E+01  0.11567588940E+02  0.17225863968E+03  0.17120000000E+03 0.  0.
        998    1    1    2    0    0 -0.37248806418E+02 -0.83752695250E+00  0.13556913696E+04  0.13562401205E+04  0.10000000000E+02 0.  1.
</event>
<event>
 5    1  0.1020718E-008  0.3795349E+03  0.7957747E-01  0.3453186E+00
         13   -1    0    0    0    0  0.00000000000E+00  0.00000000000E+00  0.14999999963E+04  0.15000000000E+04  0.10566000000E+00 0.  1.
        994   -1    0    0    0    0 -0.00000000000E+00 -0.00000000000E+00  0.11368683772E-12  0.17120000000E+03  0.17120000000E+03 0.  0.
         13    1    1    2    0    0  0.16400350984E+02  0.52288699470E+01  0.32315907066E+02  0.36614773069E+02  0.10566000000E+00 0.  1.
        994    1    1    2    0    0 -0.10420850363E+02 -0.13806987208E+01  0.47381714836E+01  0.17158785132E+03  0.17120000000E+03 0.  0.
        998    1    1    2    0    0 -0.59795006205E+01 -0.38481712263E+01  0.14629459177E+04  0.14629973756E+04  0.10000000000E+02 0.  1.
</event>
<event>
 5    1  0.1020718E-008  0.3747055E+03  0.7957747E-01  0.3474541E+00
         13   -1    0    0    0    0  0.00000000000E+00  0.00000000000E+00  0.14999999963E+04  0.15000000000E+04  0.10566000000E+00 0. -1.
        994   -1    0    0    0    0 -0.00000000000E+00 -0.00000000000E+00  0.11368683772E-12  0.17120000000E+03  0.17120000000E+03 0.  0.
         13    1    1    2    0    0 -0.11088483806E+02  0.17121650738E+02  0.27800939507E+02  0.34482006882E+02  0.10566000000E+00 0. -1.
        994    1    1    2    0    0  0.23551717815E+01 -0.12351797684E+02  0.73682155393E+01  0.17181921994E+03  0.17120000000E+03 0.  0.
        998    1    1    2    0    0  0.87333120246E+01 -0.47698530539E+01  0.14648308412E+04  0.14648987732E+04  0.10000000000E+02 0. -1.
</event>
<event>
 5    1  0.1020718E-008  0.3844958E+03  0.7957747E-01  0.3431813E+00
         13   -1    0    0    0    0  0.00000000000E+00  0.00000000000E+00  0.14999999963E+04  0.15000000000E+04  0.10566000000E+00 0. -1.
        994   -1    0    0    0    0 -0.00000000000E+00 -0.00000000000E+00  0.11368683772E-12  0.17120000000E+03  0.17120000000E+03 0.  0.
         13    1    1    2    0    0  0.16137891116E+03  0.32369362655E+02  0.97228612787E+03  0.98611929006E+03  0.10566000000E+00 0. -1.
        994    1    1    2    0    0 -0.18857415549E+03 -0.19651708441E+02  0.13095654921E+03  0.28706351134E+03  0.17120000000E+03 0.  0.
        998    1    1    2    0    0  0.27195244336E+02 -0.12717654214E+02  0.39675731920E+03  0.39801719860E+03  0.10000000000E+02 0. -1.
</event>
<event>
 5    1  0.1020718E-008  0.3849779E+03  0.7957747E-01  0.3429766E+00
         13   -1    0    0    0    0  0.00000000000E+00  0.00000000000E+00  0.14999999963E+04  0.15000000000E+04  0.10566000000E+00 0.  1.
        994   -1    0    0    0    0 -0.00000000000E+00 -0.00000000000E+00  0.11368683772E-12  0.17120000000E+03  0.17120000000E+03 0.  0.
         13    1    1    2    0    0  0.22677226596E+00  0.19043078447E+02  0.11122421105E+03  0.11284292866E+03  0.10566000000E+00 0.  1.
        994    1    1    2    0    0 -0.46182462218E+01 -0.11291383244E+02  0.21307144103E+01  0.17164732296E+03  0.17120000000E+03 0.  0.
        998    1    1    2    0    0  0.43914739559E+01 -0.77516952024E+01  0.13866450708E+04  0.13867097484E+04  0.10000000000E+02 0.  1.
</event>
<event>
 5    1  0.1020718E-008  0.3706848E+03  0.7957747E-01  0.3492750E+00
         13   -1    0    0    0    0  0.00000000000E+00  0.00000000000E+00  0.14999999963E+04  0.15000000000E+04  0.10566000000E+00 0.  1.
        994   -1    0    0    0    0 -0.00000000000E+00 -0.00000000000E+00  0.11368683772E-12  0.17120000000E+03  0.17120000000E+03 0.  0.
         13    1    1    2    0    0  0.21380198198E+02  0.92614036304E+02  0.47680492037E+03  0.48618660599E+03  0.10566000000E+00 0.  1.
        994    1    1    2    0    0 -0.13791457447E+02 -0.30977647080E+02  0.15341475820E+02  0.17519880079E+03  0.17120000000E+03 0.  0.
        998    1    1    2    0    0 -0.75887407503E+01 -0.61636389224E+02  0.10078536001E+04  0.10098145932E+04  0.10000000000E+02 0.  1.
</event>
<event>
 5    1  0.1020718E-008  0.3834433E+03  0.7957747E-01  0.3436301E+00
         13   -1    0    0    0    0  0.00000000000E+00  0.00000000000E+00  0.14999999963E+04  0.15000000000E+04  0.10566000000E+00 0. -1.
        994   -1    0    0    0    0 -0.00000000000E+00 -0.00000000000E+00  0.11368683772E-12  0.17120000000E+03  0.17120000000E+03 0.  0.
         13    1    1    2    0    0  0.10629282888E+02  0.22023230390E+02  0.12867439606E+03  0.13097753890E+03  0.10566000000E+00 0. -1.
        994    1    1    2    0    0  0.76565816356E+01 -0.14722374063E+02  0.33156844520E+01  0.17203431432E+03  0.17120000000E+03 0.  0.
        998    1    1    2    0    0 -0.18285864524E+02 -0.73008563276E+01  0.13680099158E+04  0.13681881468E+04  0.10000000000E+02 0. -1.
</event>
<event>
 5    1  0.1020718E-008  0.3779314E+03  0.7957747E-01  0.3460215E+00
         13   -1    0    0    0    0  0.00000000000E+00  0.00000000000E+00  0.14999999963E+04  0.15000000000E+04  0.10566000000E+00 0.  1.
        994   -1    0    0    0    0 -0.00000000000E+00 -0.00000000000E+00  0.11368683772E-12  0.17120000000E+03  0.17120000000E+03 0.  0.
         13    1    1    2    0    0  0.25074159931E+02 -0.15921860547E+02  0.78549406138E+02  0.83977613137E+02  0.10566000000E+00 0.  1.
        994    1    1    2    0    0 -0.32344429093E+02  0.96298752226E+01  0.90240291777E+01  0.17472770156E+03  0.17120000000E+03 0.  0.
        998    1    1    2    0    0  0.72702691617E+01  0.62919853241E+01  0.14124265610E+04  0.14124946853E+04  0.10000000000E+02 0.  1.
</event>
<event>
 5    1  0.1099397E-008  0.3855943E+03  0.7957747E-01  0.3427155E+00
         13   -1    0    0    0    0  0.00000000000E+00  0.00000000000E+00  0.14999999963E+04  0.15000000000E+04  0.10566000000E+00 0. -1.
        994   -1    0    0    0    0 -0.00000000000E+00 -0.00000000000E+00  0.11368683772E-12  0.17120000000E+03  0.17120000000E+03 0.  0.
         13    1    1    2    0    0  0.10882936662E+02 -0.12386454303E+01  0.43864785773E+02  0.45211758955E+02  0.10566000000E+00 0. -1.
        994    1    1    2    0    0 -0.12313150048E+02  0.17292787195E+01  0.18429661575E+01  0.17166083011E+03  0.17120000000E+03 0.  0.
        998    1    1    2    0    0  0.14302133856E+01 -0.49063328925E+00  0.14542922443E+04  0.14543274109E+04  0.10000000000E+02 0. -1.
</event>
<event>
 5    1  0.1020718E-008  0.3803760E+03  0.7957747E-01  0.3449523E+00
         13   -1    0    0    0    0  0.00000000000E+00  0.00000000000E+00  0.14999999963E+04  0.15000000000E+04  0.10566000000E+00 0.  1.
        994   -1    0    0    0    0 -0.00000000000E+00 -0.00000000000E+00  0.11368683772E-12  0.17120000000E+03  0.17120000000E+03 0.  0.
         13    1    1    2    0    0  0.25259124931E+01 -0.13722188744E+02  0.22744470057E+02  0.26683342746E+02  0.10566000000E+00 0.  1.
        994    1    1    2    0    0 -0.98617037552E+00  0.14872835921E+02  0.46855910336E+01  0.17191151370E+03  0.17120000000E+03 0.  0.
        998    1    1    2    0    0 -0.15397421176E+01 -0.11506471769E+01  0.14725699352E+04  0.14726051436E+04  0.10000000000E+02 0.  1.
</event>
<event>
 5    1  0.1020718E-008  0.3814586E+03  0.7957747E-01  0.3444832E+00
         13   -1    0    0    0    0  0.00000000000E+00  0.00000000000E+00  0.14999999963E+04  0.15000000000E+04  0.10566000000E+00 0. -1.
        994   -1    0    0    0    0 -0.00000000000E+00 -0.00000000000E+00  0.11368683772E-12  0.17120000000E+03  0.17120000000E+03 0.  0.
         13    1    1    2    0    0 -0.15435668449E+02 -0.47602128502E+01  0.42474604765E+02  0.45442520846E+02  0.10566000000E+00 0. -1.
        994    1    1    2    0    0 -0.25527894006E+02  0.15572726273E+00  0.55698118601E+01  0.17318244838E+03  0.17120000000E+03 0.  0.
        998    1    1    2    0    0  0.40963562455E+02  0.46044855875E+01  0.14519555797E+04  0.14525750308E+04  0.10000000000E+02 0. -1.
</event>
<event>
 5    1  0.1020718E-008  0.3751096E+03  0.7957747E-01  0.3472733E+00
         13   -1    0    0    0    0  0.00000000000E+00  0.00000000000E+00  0.14999999963E+04  0.15000000000E+04  0.10566000000E+00 0.  1.
        994   -1    0    0    0    0 -0.00000000000E+00 -0.00000000000E+00  0.11368683772E-12  0.17120000000E+03  0.17120000000E+03 0.  0.
         13    1    1    2    0    0 -0.11710028613E+02  0.21672532984E+02  0.44239993308E+02  0.50636070424E+02  0.10566000000E+00 0.  1.
        994    1    1    2    0    0 -0.18979567885E+02 -0.19842746299E+02  0.91885977667E+01  0.17363130163E+03  0.17120000000E+03 0.  0.
        998    1    1    2    0    0  0.30689596498E+02 -0.18297866851E+01  0.14465714052E+04  0.14469326279E+04  0.10000000000E+02 0.  1.
</event>
<event>
 5    1  0.1020718E-008  0.3828457E+03  0.7957747E-01  0.3438861E+00
         13   -1    0    0    0    0  0.00000000000E+00  0.00000000000E+00  0.14999999963E+04  0.15000000000E+04  0.10566000000E+00 0. -1.
        994   -1    0    0    0    0 -0.00000000000E+00 -0.00000000000E+00  0.11368683772E-12  0.17120000000E+03  0.17120000000E+03 0.  0.
         13    1    1    2    0    0 -0.25763745265E+02  0.23730385434E+02  0.20470749722E+03  0.20768262408E+03  0.10566000000E+00 0. -1.
        994    1    1    2    0    0  0.22044993610E+02 -0.22521495421E+02  0.59997293608E+01  0.17417989623E+03  0.17120000000E+03 0.  0.
        998    1    1    2    0    0  0.37187516551E+01 -0.12088900140E+01  0.12892927697E+04  0.12893374797E+04  0.10000000000E+02 0. -1.
</event>
<event>
 5    1  0.1020718E-008  0.3107804E+03  0.7957747E-01  0.3821941E+00
         13   -1    0    0    0    0  0.00000000000E+00  0.00000000000E+00  0.14999999963E+04  0.15000000000E+04  0.10566000000E+00 0.  1.
        994   -1    0    0    0    0 -0.00000000000E+00 -0.00000000000E+00  0.11368683772E-12  0.17120000000E+03  0.17120000000E+03 0.  0.
         13    1    1    2    0    0  0.15748078536E+03 -0.15290237036E+03  0.73636645353E+03  0.76838460270E+03  0.10566000000E+00 0.  1.
        994    1    1    2    0    0 -0.18919710069E+03  0.68028574004E+02  0.19844508113E+03  0.33032305402E+03  0.17120000000E+03 0.  0.
        998    1    1    2    0    0  0.31716315327E+02  0.84873796360E+02  0.56518846162E+03  0.57249234328E+03  0.10000000000E+02 0. -1.
</event>
<event>
 5    1  0.1020718E-008  0.3860619E+03  0.7957747E-01  0.3425181E+00
         13   -1    0    0    0    0  0.00000000000E+00  0.00000000000E+00  0.14999999963E+04  0.15000000000E+04  0.10566000000E+00 0.  1.
        994   -1    0    0    0    0 -0.00000000000E+00 -0.00000000000E+00  0.11368683772E-12  0.17120000000E+03  0.17120000000E+03 0.  0.
         13    1    1    2    0    0 -0.12929112698E+02  0.70631948554E+01  0.83599742355E+02  0.84888036628E+02  0.10566000000E+00 0.  1.
        994    1    1    2    0    0  0.23272382431E+02 -0.20878477592E+02  0.43140940723E+01  0.17408493909E+03  0.17120000000E+03 0.  0.
        998    1    1    2    0    0 -0.10343269734E+02  0.13815282737E+02  0.14120861599E+04  0.14122270243E+04  0.10000000000E+02 0.  1.
</event>
<event>
 5    1  0.1020718E-008  0.3803427E+03  0.7957747E-01  0.3449668E+00
         13   -1    0    0    0    0  0.00000000000E+00  0.00000000000E+00  0.14999999963E+04  0.15000000000E+04  0.10566000000E+00 0. -1.
        994   -1    0    0    0    0 -0.00000000000E+00 -0.00000000000E+00  0.11368683772E-12  0.17120000000E+03  0.17120000000E+03 0.  0.
         13    1    1    2    0    0 -0.29170126571E+02  0.33472510069E+02  0.24206943123E+03  0.24610754949E+03  0.10566000000E+00 0. -1.
        994    1    1    2    0    0  0.10225763853E+02 -0.28614784812E+02  0.70496639648E+01  0.17401870566E+03  0.17120000000E+03 0.  0.
        998    1    1    2    0    0  0.18944362718E+02 -0.48577252578E+01  0.12508809011E+04  0.12510737449E+04  0.10000000000E+02 0. -1.
</event>
<event>
 5    1  0.1020718E-008  0.3057737E+03  0.7957747E-01  0.3855643E+00
         13   -1    0    0    0    0  0.00000000000E+00  0.00000000000E+00  0.14999999963E+04  0.15000000000E+04  0.10566000000E+00 0.  1.
        994   -1    0    0    0    0 -0.00000000000E+00 -0.00000000000E+00  0.11368683772E-12  0.17120000000E+03  0.17120000000E+03 0.  0.
         13    1    1    2    0    0  0.20840691063E+03  0.12922808882E+03  0.53466441395E+03  0.58821712492E+03  0.10566000000E+00 0.  1.
        994    1    1    2    0    0 -0.19824923449E+03 -0.11986192056E+03  0.29459628168E+03  0.41202675660E+03  0.17120000000E+03 0.  0.
        998    1    1    2    0    0 -0.10157676145E+02 -0.93661682619E+01  0.67073930065E+03  0.67095611848E+03  0.10000000000E+02 0. -1.
</event>
<event>
 5    1  0.1095462E-008  0.3849099E+03  0.7957747E-01  0.3430055E+00
         13   -1    0    0    0    0  0.00000000000E+00  0.00000000000E+00  0.14999999963E+04  0.15000000000E+04  0.10566000000E+00 0. -1.
        994   -1    0    0    0    0 -0.00000000000E+00 -0.00000000000E+00  0.11368683772E-12  0.17120000000E+03  0.17120000000E+03 0.  0.
         13    1    1    2    0    0  0.88338319160E+01  0.10707565207E+02  0.55188707779E+02  0.56907760185E+02  0.10566000000E+00 0. -1.
        994    1    1    2    0    0 -0.86946878583E+01 -0.13888976027E+02  0.25586501917E+01  0.17200141843E+03  0.17120000000E+03 0.  0.
        998    1    1    2    0    0 -0.13914405777E+00  0.31814108196E+01  0.14422526383E+04  0.14422908214E+04  0.10000000000E+02 0. -1.
</event>
<event>
 5    1  0.1100606E-008  0.3861190E+03  0.7957747E-01  0.3424940E+00
         13   -1    0    0    0    0  0.00000000000E+00  0.00000000000E+00  0.14999999963E+04  0.15000000000E+04  0.10566000000E+00 0. -1.
        994   -1    0    0    0    0 -0.00000000000E+00 -0.00000000000E+00  0.11368683772E-12  0.17120000000E+03  0.17120000000E+03 0.  0.
         13    1    1    2    0    0  0.12152731957E+02 -0.33315145249E+01  0.71524352502E+02  0.72625973645E+02  0.10566000000E+00 0. -1.
        994    1    1    2    0    0 -0.13657894149E+02  0.28206038054E+01  0.17131820226E+01  0.17177563527E+03  0.17120000000E+03 0.  0.
        998    1    1    2    0    0  0.15051621926E+01  0.51091071947E+00  0.14267624618E+04  0.14267983911E+04  0.10000000000E+02 0. -1.
</event>
<event>
 5    1  0.1020718E-008  0.3831550E+03  0.7957747E-01  0.3437535E+00
         13   -1    0    0    0    0  0.00000000000E+00  0.00000000000E+00  0.14999999963E+04  0.15000000000E+04  0.10566000000E+00 0.  1.
        994   -1    0    0    0    0 -0.00000000000E+00 -0.00000000000E+00  0.11368683772E-12  0.17120000000E+03  0.17120000000E+03 0.  0.
         13    1    1    2    0    0  0.66784047549E+01 -0.10684090898E+02  0.30260572989E+02  0.32779022714E+02  0.10566000000E+00 0.  1.
        994    1    1    2    0    0 -0.16540065805E+02  0.26307546611E+00  0.34547636626E+01  0.17203202719E+03  0.17120000000E+03 0.  0.
        998    1    1    2    0    0  0.98616610500E+01  0.10421015432E+02  0.14662846596E+04  0.14663889501E+04  0.10000000000E+02 0.  1.
</event>
<event>
 5    1  0.1020718E-008  0.3830087E+03  0.7957747E-01  0.3438162E+00
         13   -1    0    0    0    0  0.00000000000E+00  0.00000000000E+00  0.14999999963E+04  0.15000000000E+04  0.10566000000E+00 0. -1.
        994   -1    0    0    0    0 -0.00000000000E+00 -0.00000000000E+00  0.11368683772E-12  0.17120000000E+03  0.17120000000E+03 0.  0.
         13    1    1    2    0    0  0.59473404840E+00 -0.13011837910E+02  0.31299451018E+02  0.33901746746E+02  0.10566000000E+00 0. -1.
        994    1    1    2    0    0  0.78888659158E+00  0.10462535921E+02  0.29864871237E+01  0.17154721247E+03  0.17120000000E+03 0.  0.
        998    1    1    2    0    0 -0.13836206400E+01  0.25493019886E+01  0.14657140581E+04  0.14657510408E+04  0.10000000000E+02 0. -1.
</event>
<event>
 5    1  0.1020718E-008  0.3301246E+03  0.7957747E-01  0.3701958E+00
         13   -1    0    0    0    0  0.00000000000E+00  0.00000000000E+00  0.14999999963E+04  0.15000000000E+04  0.10566000000E+00 0. -1.
        994   -1    0    0    0    0 -0.00000000000E+00 -0.00000000000E+00  0.11368683772E-12  0.17120000000E+03  0.17120000000E+03 0.  0.
         13    1    1    2    0    0  0.25797450386E+03 -0.45456489676E+01  0.72343465948E+03  0.76806850298E+03  0.10566000000E+00 0. -1.
        994    1    1    2    0    0 -0.25134844927E+03 -0.61381740019E+02  0.33532801803E+03  0.45683485050E+03  0.17120000000E+03 0.  0.
        998    1    1    2    0    0 -0.66260545897E+01  0.65927388987E+02  0.44123731877E+03  0.44629664652E+03  0.10000000000E+02 0.  1.
</event>
<event>
 5    1  0.1020718E-008  0.3749130E+03  0.7957747E-01  0.3473612E+00
         13   -1    0    0    0    0  0.00000000000E+00  0.00000000000E+00  0.14999999963E+04  0.15000000000E+04  0.10566000000E+00 0.  1.
        994   -1    0    0    0    0 -0.00000000000E+00 -0.00000000000E+00  0.11368683772E-12  0.17120000000E+03  0.17120000000E+03 0.  0.
         13    1    1    2    0    0  0.42314054164E+01 -0.20616229243E+02  0.30140985344E+02  0.36761717336E+02  0.10566000000E+00 0.  1.
        994    1    1    2    0    0 -0.52653275359E+01  0.14057528806E+02  0.74899838718E+01  0.17201999200E+03  0.17120000000E+03 0.  0.
        998    1    1    2    0    0  0.10339221195E+01  0.65587004373E+01  0.14623690271E+04  0.14624182907E+04  0.10000000000E+02 0.  1.
</event>
<event>
 5    1  0.1020718E-008  0.3752296E+03  0.7957747E-01  0.3472196E+00
         13   -1    0    0    0    0  0.00000000000E+00  0.00000000000E+00  0.14999999963E+04  0.15000000000E+04  0.10566000000E+00 0.  1.
        994   -1    0    0    0    0 -0.00000000000E+00 -0.00000000000E+00  0.11368683772E-12  0.17120000000E+03  0.17120000000E+03 0.  0.
         13    1    1    2    0    0  0.24596717467E+02  0.16718555006E+02  0.63382417880E+02  0.70013217695E+02  0.10566000000E+00 0.  1.
        994    1    1    2    0    0 -0.23366281681E+02 -0.11871432811E+02  0.88975257031E+01  0.17342295119E+03  0.17120000000E+03 0.  0.
        998    1    1    2    0    0 -0.12304357863E+01 -0.48471221948E+01  0.14277200527E+04  0.14277638311E+04  0.10000000000E+02 0.  1.
</event>
<event>
 5    1  0.1020718E-008  0.3788886E+03  0.7957747E-01  0.3456012E+00
         13   -1    0    0    0    0  0.00000000000E+00  0.00000000000E+00  0.14999999963E+04  0.15000000000E+04  0.10566000000E+00 0. -1.
        994   -1    0    0    0    0 -0.00000000000E+00 -0.00000000000E+00  0.11368683772E-12  0.17120000000E+03  0.17120000000E+03 0.  0.
         13    1    1    2    0    0 -0.13920699282E+01 -0.23231307018E+02  0.58758746263E+02  0.63199943915E+02  0.10566000000E+00 0. -1.
        994    1    1    2    0    0 -0.78863331057E+01  0.25721182293E+01  0.49261550683E+01  0.17147162169E+03  0.17120000000E+03 0.  0.
        998    1    1    2    0    0  0.92784030339E+01  0.20659188789E+02  0.14363150949E+04  0.14365284344E+04  0.10000000000E+02 0. -1.
</event>
<event>
 5    1  0.1020718E-008  0.3732764E+03  0.7957747E-01  0.3480967E+00
         13   -1    0    0    0    0  0.00000000000E+00  0.00000000000E+00  0.14999999963E+04  0.15000000000E+04  0.10566000000E+00 0. -1.
        994   -1    0    0    0    0 -0.00000000000E+00 -0.00000000000E+00  0.11368683772E-12  0.17120000000E+03  0.17120000000E+03 0.  0.
         13    1    1    2    0    0  0.80784946141E+01 -0.65896844598E+02  0.21582901031E+03  0.22580927585E+03  0.10566000000E+00 0. -1.
        994    1    1    2    0    0 -0.84788593545E+01 -0.98339531867E+01  0.13278336009E+02  0.17220438989E+03  0.17120000000E+03 0.  0.
        998    1    1    2    0    0  0.40036474045E+00  0.75730797785E+02  0.12708926500E+04  0.12731863343E+04  0.10000000000E+02 0. -1.
</event>
<event>
 5    1  0.1020718E-008  0.3848618E+03  0.7957747E-01  0.3430258E+00
         13   -1    0    0    0    0  0.00000000000E+00  0.00000000000E+00  0.14999999963E+04  0.15000000000E+04  0.10566000000E+00 0. -1.
        994   -1    0    0    0    0 -0.00000000000E+00 -0.00000000000E+00  0.11368683772E-12  0.17120000000E+03  0.17120000000E+03 0.  0.
         13    1    1    2    0    0  0.24790888947E+01  0.17337992490E+02  0.87737778566E+02  0.89468881837E+02  0.10566000000E+00 0. -1.
        994    1    1    2    0    0  0.93133882849E+01 -0.16905447023E+02  0.29253826462E+01  0.17230940544E+03  0.17120000000E+03 0.  0.
        998    1    1    2    0    0 -0.11792477180E+02 -0.43254546749E+00  0.14093368351E+04  0.14094217127E+04  0.10000000000E+02 0. -1.
</event>
<event>
 5    1  0.1020718E-008  0.3922839E+03  0.7957747E-01  0.3399356E+00
         13   -1    0    0    0    0  0.00000000000E+00  0.00000000000E+00  0.14999999963E+04  0.15000000000E+04  0.10566000000E+00 0. -1.
        994   -1    0    0    0    0 -0.00000000000E+00 -0.00000000000E+00  0.11368683772E-12  0.17120000000E+03  0.17120000000E+03 0.  0.
         13    1    1    2    0    0 -0.34882342230E+02 -0.49747800872E+01  0.16883237188E+02  0.39071487025E+02  0.10566000000E+00 0. -1.
        994    1    1    2    0    0  0.37384816566E+02  0.35401752780E+01  0.28616270871E+02  0.17759078892E+03  0.17120000000E+03 0.  0.
        998    1    1    2    0    0 -0.25024743358E+01  0.14346048092E+01  0.14545004882E+04  0.14545377241E+04  0.10000000000E+02 0. -1.
</event>
<event>
 5    1  0.1020718E-008  0.3706340E+03  0.7957747E-01  0.3492982E+00
         13   -1    0    0    0    0  0.00000000000E+00  0.00000000000E+00  0.14999999963E+04  0.15000000000E+04  0.10566000000E+00 0. -1.
        994   -1    0    0    0    0 -0.00000000000E+00 -0.00000000000E+00  0.11368683772E-12  0.17120000000E+03  0.17120000000E+03 0.  0.
         13    1    1    2    0    0  0.34336336376E+02 -0.65625339566E+02  0.27570809136E+03  0.28548315536E+03  0.10566000000E+00 0. -1.
        994    1    1    2    0    0 -0.89503422030E+02 -0.16361198617E+02  0.40873826530E+02  0.19813798493E+03  0.17120000000E+03 0.  0.
        998    1    1    2    0    0  0.55167085654E+02  0.81986538183E+02  0.11834180784E+04  0.11875788597E+04  0.10000000000E+02 0. -1.
</event>
<event>
 5    1  0.1020718E-008  0.3719482E+03  0.7957747E-01  0.3486985E+00
         13   -1    0    0    0    0  0.00000000000E+00  0.00000000000E+00  0.14999999963E+04  0.15000000000E+04  0.10566000000E+00 0.  1.
        994   -1    0    0    0    0 -0.00000000000E+00 -0.00000000000E+00  0.11368683772E-12  0.17120000000E+03  0.17120000000E+03 0.  0.
         13    1    1    2    0    0  0.80829627553E+01  0.18199561823E+02  0.10857114620E+02  0.22681411759E+02  0.10566000000E+00 0.  1.
        994    1    1    2    0    0 -0.23469662872E+01 -0.32528756366E+02  0.15725836976E+02  0.17498677147E+03  0.17120000000E+03 0.  0.
        998    1    1    2    0    0 -0.57359964681E+01  0.14329194543E+02  0.14734170447E+04  0.14735318168E+04  0.10000000000E+02 0.  1.
</event>
<event>
 5    1  0.1020718E-008  0.3754044E+03  0.7957747E-01  0.3471416E+00
         13   -1    0    0    0    0  0.00000000000E+00  0.00000000000E+00  0.14999999963E+04  0.15000000000E+04  0.10566000000E+00 0. -1.
        994   -1    0    0    0    0 -0.00000000000E+00 -0.00000000000E+00  0.11368683772E-12  0.17120000000E+03  0.17120000000E+03 0.  0.
         13    1    1    2    0    0 -0.27604544390E+02  0.31003725292E+02  0.13867540383E+03  0.14475538209E+03  0.10566000000E+00 0. -1.
        994    1    1    2    0    0  0.70143414457E+01 -0.11577119760E+02  0.70934611417E+01  0.17188073737E+03  0.17120000000E+03 0.  0.
        998    1    1    2    0    0  0.20590202944E+02 -0.19426605532E+02  0.13542311313E+04  0.13545638805E+04  0.10000000000E+02 0. -1.
</event>
<event>
 5    1  0.1020718E-008  0.3826902E+03  0.7957747E-01  0.3439528E+00
         13   -1    0    0    0    0  0.00000000000E+00  0.00000000000E+00  0.14999999963E+04  0.15000000000E+04  0.10566000000E+00 0. -1.
        994   -1    0    0    0    0 -0.00000000000E+00 -0.00000000000E+00  0.11368683772E-12  0.17120000000E+03  0.17120000000E+03 0.  0.
         13    1    1    2    0    0  0.13997225388E+02  0.58917020824E+01  0.41400882029E+02  0.44098510959E+02  0.10566000000E+00 0. -1.
        994    1    1    2    0    0 -0.48880561133E+01 -0.13871936122E+01  0.28668152382E+01  0.17129937545E+03  0.17120000000E+03 0.  0.
        998    1    1    2    0    0 -0.91091692749E+01 -0.45045084702E+01  0.14557322990E+04  0.14558021136E+04  0.10000000000E+02 0. -1.
</event>
<event>
 5    1  0.1020718E-008  0.3808575E+03  0.7957747E-01  0.3447433E+00
         13   -1    0    0    0    0  0.00000000000E+00  0.00000000000E+00  0.14999999963E+04  0.15000000000E+04  0.10566000000E+00 0. -1.
        994   -1    0    0    0    0 -0.00000000000E+00 -0.00000000000E+00  0.11368683772E-12  0.17120000000E+03  0.17120000000E+03 0.  0.
         13    1    1    2    0    0 -0.88470179956E+01 -0.20956074366E+02  0.65364940641E+02  0.69209922766E+02  0.10566000000E+00 0. -1.
        994    1    1    2    0    0  0.64171704010E+00  0.27416391349E+02  0.62119562824E+01  0.17349380022E+03  0.17120000000E+03 0.  0.
        998    1    1    2    0    0  0.82053009555E+01 -0.64603169836E+01  0.14284230994E+04  0.14284962770E+04  0.10000000000E+02 0. -1.
</event>
<event>
 5    1  0.1020718E-008  0.3734328E+03  0.7957747E-01  0.3480262E+00
         13   -1    0    0    0    0  0.00000000000E+00  0.00000000000E+00  0.14999999963E+04  0.15000000000E+04  0.10566000000E+00 0. -1.
        994   -1    0    0    0    0 -0.00000000000E+00 -0.00000000000E+00  0.11368683772E-12  0.17120000000E+03  0.17120000000E+03 0.  0.
         13    1    1    2    0    0 -0.25025499193E+02 -0.69675495717E+01  0.21479688876E+02  0.33707722485E+02  0.10566000000E+00 0. -1.
        994    1    1    2    0    0  0.67591285194E+01  0.16753898237E+02  0.13921302358E+02  0.17271254032E+03  0.17120000000E+03 0.  0.
        998    1    1    2    0    0  0.18266370673E+02 -0.97863486651E+01  0.14645990050E+04  0.14647797372E+04  0.10000000000E+02 0. -1.
</event>
<event>
 5    1  0.1020718E-008  0.3859841E+03  0.7957747E-01  0.3425509E+00
         13   -1    0    0    0    0  0.00000000000E+00  0.00000000000E+00  0.14999999963E+04  0.15000000000E+04  0.10566000000E+00 0.  1.
        994   -1    0    0    0    0 -0.00000000000E+00 -0.00000000000E+00  0.11368683772E-12  0.17120000000E+03  0.17120000000E+03 0.  0.
         13    1    1    2    0    0 -0.71804224446E+01  0.78475001827E+01  0.48644245144E+02  0.49793729276E+02  0.10566000000E+00 0.  1.
        994    1    1    2    0    0  0.43876226508E+01 -0.11850337991E+02  0.16659970393E+01  0.17167381073E+03  0.17120000000E+03 0.  0.
        998    1    1    2    0    0  0.27927997938E+01  0.40028378085E+01  0.14496897541E+04  0.14497324600E+04  0.10000000000E+02 0.  1.
</event>
<event>
 5    1  0.1020718E-008  0.3753710E+03  0.7957747E-01  0.3471565E+00
         13   -1    0    0    0    0  0.00000000000E+00  0.00000000000E+00  0.14999999963E+04  0.15000000000E+04  0.10566000000E+00 0. -1.
        994   -1    0    0    0    0 -0.00000000000E+00 -0.00000000000E+00  0.11368683772E-12  0.17120000000E+03  0.17120000000E+03 0.  0.
         13    1    1    2    0    0 -0.13621388036E+02  0.90976528089E+01  0.17610037705E+02  0.24050656762E+02  0.10566000000E+00 0. -1.
        994    1    1    2    0    0  0.10091930523E+02 -0.16755984045E+02  0.77883674188E+01  0.17248973514E+03  0.17120000000E+03 0.  0.
        998    1    1    2    0    0  0.35294575135E+01  0.76583312363E+01  0.14746015912E+04  0.14746596081E+04  0.10000000000E+02 0. -1.
</event>
<event>
 5    1  0.1020718E-008  0.3721835E+03  0.7957747E-01  0.3485916E+00
         13   -1    0    0    0    0  0.00000000000E+00  0.00000000000E+00  0.14999999963E+04  0.15000000000E+04  0.10566000000E+00 0. -1.
        994   -1    0    0    0    0 -0.00000000000E+00 -0.00000000000E+00  0.11368683772E-12  0.17120000000E+03  0.17120000000E+03 0.  0.
         13    1    1    2    0    0 -0.19087051689E+01  0.14900255709E+02  0.37877276470E+01  0.15492540798E+02  0.10566000000E+00 0. -1.
        994    1    1    2    0    0  0.13903913784E+02 -0.11705750442E+02  0.13262656603E+02  0.17267217921E+03  0.17120000000E+03 0.  0.
        998    1    1    2    0    0 -0.11995208615E+02 -0.31945052670E+01  0.14829496120E+04  0.14830352800E+04  0.10000000000E+02 0. -1.
</event>
<event>
 5    1  0.1373885E-008  0.3860354E+03  0.7957747E-01  0.3425293E+00
         13   -1    0    0    0    0  0.00000000000E+00  0.00000000000E+00  0.14999999963E+04  0.15000000000E+04  0.10566000000E+00 0. -1.
        994   -1    0    0    0    0 -0.00000000000E+00 -0.00000000000E+00  0.11368683772E-12  0.17120000000E+03  0.17120000000E+03 0.  0.
         13    1    1    2    0    0 -0.28324630046E+01 -0.12197263469E+02  0.60038745416E+02  0.61330728008E+02  0.10566000000E+00 0. -1.
        994    1    1    2    0    0  0.25153619203E+02  0.27639976955E+02  0.57081835930E+01  0.17532454547E+03  0.17120000000E+03 0.  0.
        998    1    1    2    0    0 -0.22321156198E+02 -0.15442713486E+02  0.14342530673E+04  0.14345447265E+04  0.10000000000E+02 0. -1.
</event>
<event>
 5    1  0.1020718E-008  0.3852579E+03  0.7957747E-01  0.3428579E+00
         13   -1    0    0    0    0  0.00000000000E+00  0.00000000000E+00  0.14999999963E+04  0.15000000000E+04  0.10566000000E+00 0. -1.
        994   -1    0    0    0    0 -0.00000000000E+00 -0.00000000000E+00  0.11368683772E-12  0.17120000000E+03  0.17120000000E+03 0.  0.
         13    1    1    2    0    0  0.23697151254E+01  0.11102237089E+02  0.42548215951E+02  0.44036769441E+02  0.10566000000E+00 0. -1.
        994    1    1    2    0    0  0.45562281776E+01 -0.10480226960E+02  0.19313665028E+01  0.17159185455E+03  0.17120000000E+03 0.  0.
        998    1    1    2    0    0 -0.69259433030E+01 -0.62201012844E+00  0.14555204138E+04  0.14555713760E+04  0.10000000000E+02 0. -1.
</event>
<event>
 5    1  0.1020718E-008  0.3821634E+03  0.7957747E-01  0.3441792E+00
         13   -1    0    0    0    0  0.00000000000E+00  0.00000000000E+00  0.14999999963E+04  0.15000000000E+04  0.10566000000E+00 0. -1.
        994   -1    0    0    0    0 -0.00000000000E+00 -0.00000000000E+00  0.11368683772E-12  0.17120000000E+03  0.17120000000E+03 0.  0.
         13    1    1    2    0    0  0.16304923091E+02  0.33780778489E+00  0.42040773949E+02  0.45093264124E+02  0.10566000000E+00 0. -1.
        994    1    1    2    0    0 -0.14454378271E+02  0.38223418690E+01  0.37873466752E+01  0.17189334875E+03  0.17120000000E+03 0.  0.
        998    1    1    2    0    0 -0.18505448198E+01 -0.41601496539E+01  0.14541718757E+04  0.14542133871E+04  0.10000000000E+02 0. -1.
</event>
<event>
 5    1  0.1020718E-008  0.3834949E+03  0.7957747E-01  0.3436081E+00
         13   -1    0    0    0    0  0.00000000000E+00  0.00000000000E+00  0.14999999963E+04  0.15000000000E+04  0.10566000000E+00 0. -1.
        994   -1    0    0    0    0 -0.00000000000E+00 -0.00000000000E+00  0.11368683772E-12  0.17120000000E+03  0.17120000000E+03 0.  0.
         13    1    1    2    0    0 -0.34782922421E+01  0.21252342037E+02  0.91429199511E+02  0.93931199536E+02  0.10566000000E+00 0. -1.
        994    1    1    2    0    0  0.10289958660E+02 -0.21419973800E+02  0.42476846440E+01  0.17289355497E+03  0.17120000000E+03 0.  0.
        998    1    1    2    0    0 -0.68116664180E+01  0.16763176278E+00  0.14043231121E+04  0.14043752455E+04  0.10000000000E+02 0. -1.
</event>
<event>
 5    1  0.1020718E-008  0.3847082E+03  0.7957747E-01  0.3430911E+00
         13   -1    0    0    0    0  0.00000000000E+00  0.00000000000E+00  0.14999999963E+04  0.15000000000E+04  0.10566000000E+00 0. -1.
        994   -1    0    0    0    0 -0.00000000000E+00 -0.00000000000E+00  0.11368683772E-12  0.17120000000E+03  0.17120000000E+03 0.  0.
         13    1    1    2    0    0  0.11801510628E+02 -0.10557929107E+02  0.71046103636E+02  0.72789460267E+02  0.10566000000E+00 0. -1.
        994    1    1    2    0    0 -0.75751894757E+01  0.52464719660E+01  0.20546511833E+01  0.17146011360E+03  0.17120000000E+03 0.  0.
        998    1    1    2    0    0 -0.42263211524E+01  0.53114571407E+01  0.14268992415E+04  0.14269504261E+04  0.10000000000E+02 0. -1.
</event>
<event>
 5    1  0.1020718E-008  0.3852805E+03  0.7957747E-01  0.3428484E+00
         13   -1    0    0    0    0  0.00000000000E+00  0.00000000000E+00  0.14999999963E+04  0.15000000000E+04  0.10566000000E+00 0. -1.
        994   -1    0    0    0    0 -0.00000000000E+00 -0.00000000000E+00  0.11368683772E-12  0.17120000000E+03  0.17120000000E+03 0.  0.
         13    1    1    2    0    0 -0.11789392304E+02 -0.49834416225E+01  0.57277669848E+02  0.58690434387E+02  0.10566000000E+00 0. -1.
        994    1    1    2    0    0  0.52557374218E+01 -0.64879455612E+01  0.17200477138E+01  0.17141211969E+03  0.17120000000E+03 0.  0.
        998    1    1    2    0    0  0.65336548821E+01  0.11471387184E+02  0.14410022787E+04  0.14410974459E+04  0.10000000000E+02 0. -1.
</event>
<event>
 5    1  0.1020718E-008  0.3803277E+03  0.7957747E-01  0.3449733E+00
         13   -1    0    0    0    0  0.00000000000E+00  0.00000000000E+00  0.14999999963E+04  0.15000000000E+04  0.10566000000E+00 0.  1.
        994   -1    0    0    0    0 -0.00000000000E+00 -0.00000000000E+00  0.11368683772E-12  0.17120000000E+03  0.17120000000E+03 0.  0.
         13    1    1    2    0    0  0.27607945885E+02 -0.12060339068E+02  0.13729042399E+03  0.14055718458E+03  0.10566000000E+00 0.  1.
        994    1    1    2    0    0  0.17869038047E+02  0.10162103345E+02  0.53801765738E+01  0.17251364342E+03  0.17120000000E+03 0.  0.
        998    1    1    2    0    0 -0.45476983931E+02  0.18982357235E+01  0.13573293957E+04  0.13581291720E+04  0.10000000000E+02 0.  1.
</event>
<event>
 5    1  0.1020718E-008  0.3835381E+03  0.7957747E-01  0.3435896E+00
         13   -1    0    0    0    0  0.00000000000E+00  0.00000000000E+00  0.14999999963E+04  0.15000000000E+04  0.10566000000E+00 0. -1.
        994   -1    0    0    0    0 -0.00000000000E+00 -0.00000000000E+00  0.11368683772E-12  0.17120000000E+03  0.17120000000E+03 0.  0.
         13    1    1    2    0    0 -0.11126232200E+02 -0.72253303405E+01  0.36008176716E+02  0.38374449780E+02  0.10566000000E+00 0. -1.
        994    1    1    2    0    0  0.82685885033E+01  0.11535223105E+02  0.30235341673E+01  0.17181388968E+03  0.17120000000E+03 0.  0.
        998    1    1    2    0    0  0.28576436972E+01 -0.43098927641E+01  0.14609682854E+04  0.14610116605E+04  0.10000000000E+02 0. -1.
</event>
<event>
 5    1  0.1020718E-008  0.3799953E+03  0.7957747E-01  0.3451179E+00
         13   -1    0    0    0    0  0.00000000000E+00  0.00000000000E+00  0.14999999963E+04  0.15000000000E+04  0.10566000000E+00 0.  1.
        994   -1    0    0    0    0 -0.00000000000E+00 -0.00000000000E+00  0.11368683772E-12  0.17120000000E+03  0.17120000000E+03 0.  0.
         13    1    1    2    0    0 -0.33279559368E+02  0.10671363132E+02  0.13459350022E+03  0.13905692550E+03  0.10566000000E+00 0.  1.
        994    1    1    2    0    0  0.32750079838E+02 -0.11688954392E+02  0.81883931259E+01  0.17488764727E+03  0.17120000000E+03 0.  0.
        998    1    1    2    0    0  0.52947952958E+00  0.10175912601E+01  0.13572181029E+04  0.13572554272E+04  0.10000000000E+02 0.  1.
</event>
<event>
 5    1  0.1020718E-008  0.3742212E+03  0.7957747E-01  0.3476713E+00
         13   -1    0    0    0    0  0.00000000000E+00  0.00000000000E+00  0.14999999963E+04  0.15000000000E+04  0.10566000000E+00 0.  1.
        994   -1    0    0    0    0 -0.00000000000E+00 -0.00000000000E+00  0.11368683772E-12  0.17120000000E+03  0.17120000000E+03 0.  0.
         13    1    1    2    0    0  0.51562926208E+02 -0.10822863635E+02  0.22236229188E+03  0.22851886082E+03  0.10566000000E+00 0.  1.
        994    1    1    2    0    0 -0.69780438368E+01  0.91667431160E+01  0.75316879265E+01  0.17175240493E+03  0.17120000000E+03 0.  0.
        998    1    1    2    0    0 -0.44584882371E+02  0.16561205190E+01  0.12701060165E+04  0.12709287342E+04  0.10000000000E+02 0.  1.
</event>
<event>
 5    1  0.1020718E-008  0.3791507E+03  0.7957747E-01  0.3454865E+00
         13   -1    0    0    0    0  0.00000000000E+00  0.00000000000E+00  0.14999999963E+04  0.15000000000E+04  0.10566000000E+00 0. -1.
        994   -1    0    0    0    0 -0.00000000000E+00 -0.00000000000E+00  0.11368683772E-12  0.17120000000E+03  0.17120000000E+03 0.  0.
         13    1    1    2    0    0  0.18669787195E+02 -0.12822564137E+02  0.53597545441E+02  0.58186657804E+02  0.10566000000E+00 0. -1.
        994    1    1    2    0    0 -0.19727050209E+02  0.51562629082E+01  0.59574320922E+01  0.17251282432E+03  0.17120000000E+03 0.  0.
        998    1    1    2    0    0  0.10572630137E+01  0.76663012290E+01  0.14404450187E+04  0.14405005179E+04  0.10000000000E+02 0. -1.
</event>
<event>
 5    1  0.1020718E-008  0.3847943E+03  0.7957747E-01  0.3430545E+00
         13   -1    0    0    0    0  0.00000000000E+00  0.00000000000E+00  0.14999999963E+04  0.15000000000E+04  0.10566000000E+00 0.  1.
        994   -1    0    0    0    0 -0.00000000000E+00 -0.00000000000E+00  0.11368683772E-12  0.17120000000E+03  0.17120000000E+03 0.  0.
         13    1    1    2    0    0  0.23219327646E+02  0.17753843982E+02  0.16175827393E+03  0.16437787717E+03  0.10566000000E+00 0.  1.
        994    1    1    2    0    0 -0.78246058690E+02 -0.85221623591E+01  0.22392256244E+02  0.18975227559E+03  0.17120000000E+03 0.  0.
        998    1    1    2    0    0  0.55026731045E+02 -0.92316816225E+01  0.13158494661E+04  0.13170698472E+04  0.10000000000E+02 0.  1.
</event>
<event>
 5    1  0.1020718E-008  0.3724911E+03  0.7957747E-01  0.3484520E+00
         13   -1    0    0    0    0  0.00000000000E+00  0.00000000000E+00  0.14999999963E+04  0.15000000000E+04  0.10566000000E+00 0.  1.
        994   -1    0    0    0    0 -0.00000000000E+00 -0.00000000000E+00  0.11368683772E-12  0.17120000000E+03  0.17120000000E+03 0.  0.
         13    1    1    2    0    0 -0.17011585578E+02  0.16546734884E+02  0.31405599188E+02  0.39363832430E+02  0.10566000000E+00 0.  1.
        994    1    1    2    0    0  0.16505824669E+02 -0.17687867301E+02  0.99819024522E+01  0.17318886013E+03  0.17120000000E+03 0.  0.
        998    1    1    2    0    0  0.50576090878E+00  0.11411324170E+01  0.14586124946E+04  0.14586473074E+04  0.10000000000E+02 0.  1.
</event>
<event>
 5    1  0.1020718E-008  0.3762607E+03  0.7957747E-01  0.3467604E+00
         13   -1    0    0    0    0  0.00000000000E+00  0.00000000000E+00  0.14999999963E+04  0.15000000000E+04  0.10566000000E+00 0. -1.
        994   -1    0    0    0    0 -0.00000000000E+00 -0.00000000000E+00  0.11368683772E-12  0.17120000000E+03  0.17120000000E+03 0.  0.
         13    1    1    2    0    0  0.73202571621E+02 -0.61964559755E+02  0.23009139280E+03  0.24927952857E+03  0.10566000000E+00 0. -1.
        994    1    1    2    0    0 -0.12851163900E+03  0.41318214430E+02  0.82658745562E+02  0.23316162725E+03  0.17120000000E+03 0.  0.
        998    1    1    2    0    0  0.55309067380E+02  0.20646345325E+02  0.11872498579E+04  0.11887588442E+04  0.10000000000E+02 0. -1.
</event>
<event>
 5    1  0.1020718E-008  0.3774212E+03  0.7957747E-01  0.3462465E+00
         13   -1    0    0    0    0  0.00000000000E+00  0.00000000000E+00  0.14999999963E+04  0.15000000000E+04  0.10566000000E+00 0. -1.
        994   -1    0    0    0    0 -0.00000000000E+00 -0.00000000000E+00  0.11368683772E-12  0.17120000000E+03  0.17120000000E+03 0.  0.
         13    1    1    2    0    0 -0.89791947758E+02  0.65685104523E+02  0.66818668018E+03  0.67738510285E+03  0.10566000000E+00 0. -1.
        994    1    1    2    0    0  0.66816783891E+01 -0.24747005857E+02  0.17279951415E+02  0.17396866340E+03  0.17120000000E+03 0.  0.
        998    1    1    2    0    0  0.83110269368E+02 -0.40938098667E+02  0.81453336469E+03  0.81984623374E+03  0.10000000000E+02 0. -1.
</event>
<event>
 5    1  0.1020718E-008  0.3852750E+03  0.7957747E-01  0.3428507E+00
         13   -1    0    0    0    0  0.00000000000E+00  0.00000000000E+00  0.14999999963E+04  0.15000000000E+04  0.10566000000E+00 0. -1.
        994   -1    0    0    0    0 -0.00000000000E+00 -0.00000000000E+00  0.11368683772E-12  0.17120000000E+03  0.17120000000E+03 0.  0.
         13    1    1    2    0    0 -0.18768299496E+02 -0.36302783149E+01  0.10900023643E+03  0.11066386353E+03  0.10566000000E+00 0. -1.
        994    1    1    2    0    0  0.25438346642E+02  0.61394871323E+01  0.37469577262E+01  0.17322898855E+03  0.17120000000E+03 0.  0.
        998    1    1    2    0    0 -0.66700471459E+01 -0.25092088173E+01  0.13872528021E+04  0.13873071479E+04  0.10000000000E+02 0. -1.
</event>
<event>
 5    1  0.1020718E-008  0.3825997E+03  0.7957747E-01  0.3439916E+00
         13   -1    0    0    0    0  0.00000000000E+00  0.00000000000E+00  0.14999999963E+04  0.15000000000E+04  0.10566000000E+00 0. -1.
        994   -1    0    0    0    0 -0.00000000000E+00 -0.00000000000E+00  0.11368683772E-12  0.17120000000E+03  0.17120000000E+03 0.  0.
         13    1    1    2    0    0  0.10317916882E+02 -0.17670791698E+02  0.69209016221E+02  0.72170737687E+02  0.10566000000E+00 0. -1.
        994    1    1    2    0    0 -0.51244022730E+01  0.25035447237E+02  0.49940055122E+01  0.17316874201E+03  0.17120000000E+03 0.  0.
        998    1    1    2    0    0 -0.51935146090E+01 -0.73646555386E+01  0.14257969745E+04  0.14258605203E+04  0.10000000000E+02 0. -1.
</event>
<event>
 5    1  0.1020718E-008  0.3715678E+03  0.7957747E-01  0.3488717E+00
         13   -1    0    0    0    0  0.00000000000E+00  0.00000000000E+00  0.14999999963E+04  0.15000000000E+04  0.10566000000E+00 0.  1.
        994   -1    0    0    0    0 -0.00000000000E+00 -0.00000000000E+00  0.11368683772E-12  0.17120000000E+03  0.17120000000E+03 0.  0.
         13    1    1    2    0    0  0.28052331011E+03 -0.11795943222E+03  0.94011633407E+03  0.98814294913E+03  0.10566000000E+00 0.  1.
        994    1    1    2    0    0 -0.27985851581E+03  0.10194211620E+03  0.42326589131E+03  0.54513891686E+03  0.17120000000E+03 0.  0.
        998    1    1    2    0    0 -0.66479429386E+00  0.16017316019E+02  0.13661777089E+03  0.13791813401E+03  0.10000000000E+02 0.  0.
</event>
<event>
 5    1  0.1085898E-008  0.3860989E+03  0.7957747E-01  0.3425025E+00
         13   -1    0    0    0    0  0.00000000000E+00  0.00000000000E+00  0.14999999963E+04  0.15000000000E+04  0.10566000000E+00 0. -1.
        994   -1    0    0    0    0 -0.00000000000E+00 -0.00000000000E+00  0.11368683772E-12  0.17120000000E+03  0.17120000000E+03 0.  0.
         13    1    1    2    0    0 -0.17728531184E+01  0.12366449494E+02  0.67985645995E+02  0.69124028432E+02  0.10566000000E+00 0. -1.
        994    1    1    2    0    0  0.44173159791E+01 -0.16705339460E+02  0.20645721432E+01  0.17208219985E+03  0.17120000000E+03 0.  0.
        998    1    1    2    0    0 -0.26444628607E+01  0.43388899659E+01  0.14299497781E+04  0.14299937717E+04  0.10000000000E+02 0. -1.
</event>
<event>
 5    1  0.1020718E-008  0.2418996E+03  0.7957747E-01  0.4424118E+00
         13   -1    0    0    0    0  0.00000000000E+00  0.00000000000E+00  0.14999999963E+04  0.15000000000E+04  0.10566000000E+00 0. -1.
        994   -1    0    0    0    0 -0.00000000000E+00 -0.00000000000E+00  0.11368683772E-12  0.17120000000E+03  0.17120000000E+03 0.  0.
         13    1    1    2    0    0 -0.26940018587E+02  0.16232095656E+03  0.51362134029E+03  0.53933361651E+03  0.10566000000E+00 0. -1.
        994    1    1    2    0    0 -0.37526173035E+02 -0.18900105878E+01  0.53804237641E+02  0.18334699831E+03  0.17120000000E+03 0.  0.
        998    1    1    2    0    0  0.64466191622E+02 -0.16043094597E+03  0.93257441835E+03  0.94851938517E+03  0.10000000000E+02 0. -1.
</event>
<event>
 5    1  0.1020718E-008  0.3801191E+03  0.7957747E-01  0.3450640E+00
         13   -1    0    0    0    0  0.00000000000E+00  0.00000000000E+00  0.14999999963E+04  0.15000000000E+04  0.10566000000E+00 0.  1.
        994   -1    0    0    0    0 -0.00000000000E+00 -0.00000000000E+00  0.11368683772E-12  0.17120000000E+03  0.17120000000E+03 0.  0.
         13    1    1    2    0    0 -0.26596325458E+02  0.36788959386E+02  0.22708947957E+03  0.23158245822E+03  0.10566000000E+00 0.  1.
        994    1    1    2    0    0  0.22342478390E+02 -0.32041021313E+02  0.91885535821E+01  0.17583993546E+03  0.17120000000E+03 0.  0.
        998    1    1    2    0    0  0.42538470685E+01 -0.47479380731E+01  0.12637219631E+04  0.12637776063E+04  0.10000000000E+02 0.  1.
</event>
<event>
 5    1  0.1020718E-008  0.3849797E+03  0.7957747E-01  0.3429758E+00
         13   -1    0    0    0    0  0.00000000000E+00  0.00000000000E+00  0.14999999963E+04  0.15000000000E+04  0.10566000000E+00 0.  1.
        994   -1    0    0    0    0 -0.00000000000E+00 -0.00000000000E+00  0.11368683772E-12  0.17120000000E+03  0.17120000000E+03 0.  0.
         13    1    1    2    0    0 -0.65244241584E+01  0.12457824785E+02  0.64486247492E+02  0.66001915038E+02  0.10566000000E+00 0.  1.
        994    1    1    2    0    0 -0.60174202009E+01 -0.17241576601E+01  0.17690953340E+01  0.17132352951E+03  0.17120000000E+03 0.  0.
        998    1    1    2    0    0  0.12541844359E+02 -0.10733667125E+02  0.14337446535E+04  0.14338745555E+04  0.10000000000E+02 0.  1.
</event>
<event>
 5    1  0.1020718E-008  0.3851250E+03  0.7957747E-01  0.3429142E+00
         13   -1    0    0    0    0  0.00000000000E+00  0.00000000000E+00  0.14999999963E+04  0.15000000000E+04  0.10566000000E+00 0. -1.
        994   -1    0    0    0    0 -0.00000000000E+00 -0.00000000000E+00  0.11368683772E-12  0.17120000000E+03  0.17120000000E+03 0.  0.
         13    1    1    2    0    0  0.74705955872E+01 -0.15720739320E+02  0.95493437397E+02  0.97066776979E+02  0.10566000000E+00 0. -1.
        994    1    1    2    0    0 -0.12933584873E+02  0.81894765087E+01  0.23388295306E+01  0.17189896820E+03  0.17120000000E+03 0.  0.
        998    1    1    2    0    0  0.54629892862E+01  0.75312628111E+01  0.14021677294E+04  0.14022342548E+04  0.10000000000E+02 0. -1.
</event>
<event>
 5    1  0.1020718E-008  0.3843055E+03  0.7957747E-01  0.3432623E+00
         13   -1    0    0    0    0  0.00000000000E+00  0.00000000000E+00  0.14999999963E+04  0.15000000000E+04  0.10566000000E+00 0. -1.
        994   -1    0    0    0    0 -0.00000000000E+00 -0.00000000000E+00  0.11368683772E-12  0.17120000000E+03  0.17120000000E+03 0.  0.
         13    1    1    2    0    0  0.17334989928E+02 -0.17996199664E+00  0.76319706690E+02  0.78263932022E+02  0.10566000000E+00 0. -1.
        994    1    1    2    0    0 -0.10134834012E+02  0.14037518562E+02  0.29640240913E+01  0.17209878624E+03  0.17120000000E+03 0.  0.
        998    1    1    2    0    0 -0.72001559152E+01 -0.13857556566E+02  0.14207162655E+04  0.14208372817E+04  0.10000000000E+02 0. -1.
</event>
<event>
 5    1  0.1020718E-008  0.3817979E+03  0.7957747E-01  0.3443367E+00
         13   -1    0    0    0    0  0.00000000000E+00  0.00000000000E+00  0.14999999963E+04  0.15000000000E+04  0.10566000000E+00 0.  1.
        994   -1    0    0    0    0 -0.00000000000E+00 -0.00000000000E+00  0.11368683772E-12  0.17120000000E+03  0.17120000000E+03 0.  0.
         13    1    1    2    0    0  0.11572492338E+02 -0.14077515027E+02  0.58170267204E+02  0.60958101667E+02  0.10566000000E+00 0.  1.
        994    1    1    2    0    0  0.24060866706E+02 -0.62809653949E+01  0.52860199085E+01  0.17307731752E+03  0.17120000000E+03 0.  0.
        998    1    1    2    0    0 -0.35633359044E+02  0.20358480422E+02  0.14365437092E+04  0.14371645808E+04  0.10000000000E+02 0.  1.
</event>
<event>
 5    1  0.1020718E-008  0.3781702E+03  0.7957747E-01  0.3459165E+00
         13   -1    0    0    0    0  0.00000000000E+00  0.00000000000E+00  0.14999999963E+04  0.15000000000E+04  0.10566000000E+00 0.  1.
        994   -1    0    0    0    0 -0.00000000000E+00 -0.00000000000E+00  0.11368683772E-12  0.17120000000E+03  0.17120000000E+03 0.  0.
         13    1    1    2    0    0  0.10148170781E+02  0.40520898571E+02  0.17760276365E+03  0.18244912006E+03  0.10566000000E+00 0.  1.
        994    1    1    2    0    0 -0.25255229838E+02 -0.12859759882E+02  0.77657484093E+01  0.17370361800E+03  0.17120000000E+03 0.  0.
        998    1    1    2    0    0  0.15107059058E+02 -0.27661138689E+02  0.13146314842E+04  0.13150472619E+04  0.10000000000E+02 0.  1.
</event>
<event>
 5    1  0.1020718E-008  0.3830047E+03  0.7957747E-01  0.3438179E+00
         13   -1    0    0    0    0  0.00000000000E+00  0.00000000000E+00  0.14999999963E+04  0.15000000000E+04  0.10566000000E+00 0. -1.
        994   -1    0    0    0    0 -0.00000000000E+00 -0.00000000000E+00  0.11368683772E-12  0.17120000000E+03  0.17120000000E+03 0.  0.
         13    1    1    2    0    0 -0.17275388722E+02 -0.25244858800E+02  0.15875594945E+03  0.16167623388E+03  0.10566000000E+00 0. -1.
        994    1    1    2    0    0  0.22085211275E+02  0.24089001991E+02  0.61673327465E+01  0.17440043741E+03  0.17120000000E+03 0.  0.
        998    1    1    2    0    0 -0.48098225523E+01  0.11558568084E+01  0.13350767141E+04  0.13351233287E+04  0.10000000000E+02 0. -1.
</event>
<event>
 5    1  0.1020718E-008  0.3849465E+03  0.7957747E-01  0.3429899E+00
         13   -1    0    0    0    0  0.00000000000E+00  0.00000000000E+00  0.14999999963E+04  0.15000000000E+04  0.10566000000E+00 0. -1.
        994   -1    0    0    0    0 -0.00000000000E+00 -0.00000000000E+00  0.11368683772E-12  0.17120000000E+03  0.17120000000E+03 0.  0.
         13    1    1    2    0    0  0.30570686691E+00 -0.11283736784E+02  0.37006786165E+02  0.38690173930E+02  0.10566000000E+00 0. -1.
        994    1    1    2    0    0 -0.44140248511E+00  0.14704846642E+02  0.23688830159E+01  0.17184725473E+03  0.17120000000E+03 0.  0.
        998    1    1    2    0    0  0.13569561820E+00 -0.34211098578E+01  0.14606243271E+04  0.14606625713E+04  0.10000000000E+02 0. -1.
</event>
<event>
 5    1  0.1020718E-008  0.3797213E+03  0.7957747E-01  0.3452373E+00
         13   -1    0    0    0    0  0.00000000000E+00  0.00000000000E+00  0.14999999963E+04  0.15000000000E+04  0.10566000000E+00 0.  1.
        994   -1    0    0    0    0 -0.00000000000E+00 -0.00000000000E+00  0.11368683772E-12  0.17120000000E+03  0.17120000000E+03 0.  0.
         13    1    1    2    0    0  0.15421242370E+02  0.40516665086E+01  0.28132607245E+02  0.32337060352E+02  0.10566000000E+00 0.  1.
        994    1    1    2    0    0 -0.10057022289E+02  0.46704786649E+00  0.46131006409E+01  0.17155781104E+03  0.17120000000E+03 0.  0.
        998    1    1    2    0    0 -0.53642200806E+01 -0.45187143751E+01  0.14672542884E+04  0.14673051286E+04  0.10000000000E+02 0.  1.
</event>
<event>
 5    1  0.1020718E-008  0.3811980E+03  0.7957747E-01  0.3445958E+00
         13   -1    0    0    0    0  0.00000000000E+00  0.00000000000E+00  0.14999999963E+04  0.15000000000E+04  0.10566000000E+00 0. -1.
        994   -1    0    0    0    0 -0.00000000000E+00 -0.00000000000E+00  0.11368683772E-12  0.17120000000E+03  0.17120000000E+03 0.  0.
         13    1    1    2    0    0  0.23926305447E+02 -0.51745956702E+01  0.83185676020E+02  0.86712815614E+02  0.10566000000E+00 0. -1.
        994    1    1    2    0    0 -0.13491184002E+02  0.15950996531E+02  0.49841998150E+01  0.17254196181E+03  0.17120000000E+03 0.  0.
        998    1    1    2    0    0 -0.10435121445E+02 -0.10776400861E+02  0.14118301204E+04  0.14119452226E+04  0.10000000000E+02 0. -1.
</event>
<event>
 5    1  0.1020718E-008  0.3797035E+03  0.7957747E-01  0.3452451E+00
         13   -1    0    0    0    0  0.00000000000E+00  0.00000000000E+00  0.14999999963E+04  0.15000000000E+04  0.10566000000E+00 0. -1.
        994   -1    0    0    0    0 -0.00000000000E+00 -0.00000000000E+00  0.11368683772E-12  0.17120000000E+03  0.17120000000E+03 0.  0.
         13    1    1    2    0    0 -0.37629057234E+01 -0.24668460713E+02  0.76078234654E+02  0.80066231119E+02  0.10566000000E+00 0. -1.
        994    1    1    2    0    0  0.55885933708E+02 -0.59487448551E+01  0.14925684221E+02  0.18080608729E+03  0.17120000000E+03 0.  0.
        998    1    1    2    0    0 -0.52123027984E+02  0.30617205568E+02  0.14089960774E+04  0.14103276816E+04  0.10000000000E+02 0. -1.
</event>
<event>
 5    1  0.1020718E-008  0.3694261E+03  0.7957747E-01  0.3498533E+00
         13   -1    0    0    0    0  0.00000000000E+00  0.00000000000E+00  0.14999999963E+04  0.15000000000E+04  0.10566000000E+00 0. -1.
        994   -1    0    0    0    0 -0.00000000000E+00 -0.00000000000E+00  0.11368683772E-12  0.17120000000E+03  0.17120000000E+03 0.  0.
         13    1    1    2    0    0  0.15520823117E+02 -0.23167741183E+02  0.36372537851E+02  0.45832443263E+02  0.10566000000E+00 0. -1.
        994    1    1    2    0    0 -0.18002919137E+02  0.16358220727E+02  0.11621995369E+02  0.17330957059E+03  0.17120000000E+03 0.  0.
        998    1    1    2    0    0  0.24820960198E+01  0.68095204562E+01  0.14520054631E+04  0.14520579861E+04  0.10000000000E+02 0. -1.
</event>
<event>
 5    1  0.1020718E-008  0.3807561E+03  0.7957747E-01  0.3447873E+00
         13   -1    0    0    0    0  0.00000000000E+00  0.00000000000E+00  0.14999999963E+04  0.15000000000E+04  0.10566000000E+00 0. -1.
        994   -1    0    0    0    0 -0.00000000000E+00 -0.00000000000E+00  0.11368683772E-12  0.17120000000E+03  0.17120000000E+03 0.  0.
         13    1    1    2    0    0 -0.17776052628E+02 -0.83325674182E+01  0.48570714944E+02  0.52388407506E+02  0.10566000000E+00 0. -1.
        994    1    1    2    0    0  0.19303168203E+02  0.67660798645E+01  0.51483719073E+01  0.17249445751E+03  0.17120000000E+03 0.  0.
        998    1    1    2    0    0 -0.15271155746E+01  0.15664875537E+01  0.14462809094E+04  0.14463171350E+04  0.10000000000E+02 0. -1.
</event>
<event>
 5    1  0.1020718E-008  0.3840385E+03  0.7957747E-01  0.3433760E+00
         13   -1    0    0    0    0  0.00000000000E+00  0.00000000000E+00  0.14999999963E+04  0.15000000000E+04  0.10566000000E+00 0. -1.
        994   -1    0    0    0    0 -0.00000000000E+00 -0.00000000000E+00  0.11368683772E-12  0.17120000000E+03  0.17120000000E+03 0.  0.
         13    1    1    2    0    0 -0.12616658520E+02 -0.10714010889E+02  0.73058965001E+02  0.74910570900E+02  0.10566000000E+00 0. -1.
        994    1    1    2    0    0 -0.11142443922E+02 -0.16096599231E+01  0.25265046833E+01  0.17158836874E+03  0.17120000000E+03 0.  0.
        998    1    1    2    0    0  0.23759102443E+02  0.12323670812E+02  0.14244145266E+04  0.14247010604E+04  0.10000000000E+02 0. -1.
</event>
<event>
 5    1  0.1020718E-008  0.3843307E+03  0.7957747E-01  0.3432516E+00
         13   -1    0    0    0    0  0.00000000000E+00  0.00000000000E+00  0.14999999963E+04  0.15000000000E+04  0.10566000000E+00 0. -1.
        994   -1    0    0    0    0 -0.00000000000E+00 -0.00000000000E+00  0.11368683772E-12  0.17120000000E+03  0.17120000000E+03 0.  0.
         13    1    1    2    0    0  0.87797790826E+01  0.14520639223E+02  0.82014931312E+02  0.83751976731E+02  0.10566000000E+00 0. -1.
        994    1    1    2    0    0  0.30539163778E+01  0.56512213051E+01  0.20988043345E+01  0.17133332334E+03  0.17120000000E+03 0.  0.
        998    1    1    2    0    0 -0.11833695460E+02 -0.20171860528E+02  0.14158862606E+04  0.14161146999E+04  0.10000000000E+02 0. -1.
</event>
<event>
 5    1  0.1020718E-008  0.3780790E+03  0.7957747E-01  0.3459566E+00
         13   -1    0    0    0    0  0.00000000000E+00  0.00000000000E+00  0.14999999963E+04  0.15000000000E+04  0.10566000000E+00 0.  1.
        994   -1    0    0    0    0 -0.00000000000E+00 -0.00000000000E+00  0.11368683772E-12  0.17120000000E+03  0.17120000000E+03 0.  0.
         13    1    1    2    0    0  0.18100023142E+02  0.29199722967E+02  0.12093527818E+03  0.12572027415E+03  0.10566000000E+00 0.  1.
        994    1    1    2    0    0 -0.63533149144E+01 -0.65366190545E+01  0.53856105094E+01  0.17152707308E+03  0.17120000000E+03 0.  0.
        998    1    1    2    0    0 -0.11746708228E+02 -0.22663103912E+02  0.13736791076E+04  0.13739526528E+04  0.10000000000E+02 0.  1.
</event>
<event>
 5    1  0.1405973E-008  0.3858402E+03  0.7957747E-01  0.3426117E+00
         13   -1    0    0    0    0  0.00000000000E+00  0.00000000000E+00  0.14999999963E+04  0.15000000000E+04  0.10566000000E+00 0.  1.
        994   -1    0    0    0    0 -0.00000000000E+00 -0.00000000000E+00  0.11368683772E-12  0.17120000000E+03  0.17120000000E+03 0.  0.
         13    1    1    2    0    0 -0.97773218661E+01  0.81148754925E+01  0.63428827883E+02  0.64689060882E+02  0.10566000000E+00 0.  1.
        994    1    1    2    0    0  0.13426375381E+02 -0.95311489007E+01  0.21032568002E+01  0.17200283150E+03  0.17120000000E+03 0.  0.
        998    1    1    2    0    0 -0.36490535145E+01  0.14162734082E+01  0.14344679116E+04  0.14345081076E+04  0.10000000000E+02 0.  1.
</event>
<event>
 5    1  0.1020718E-008  0.3777969E+03  0.7957747E-01  0.3460808E+00
         13   -1    0    0    0    0  0.00000000000E+00  0.00000000000E+00  0.14999999963E+04  0.15000000000E+04  0.10566000000E+00 0. -1.
        994   -1    0    0    0    0 -0.00000000000E+00 -0.00000000000E+00  0.11368683772E-12  0.17120000000E+03  0.17120000000E+03 0.  0.
         13    1    1    2    0    0 -0.45194874154E+01  0.24829533047E+02  0.14106599354E+02  0.28912606026E+02  0.10566000000E+00 0. -1.
        994    1    1    2    0    0  0.77206122910E+01 -0.32276462739E+02  0.19091386604E+02  0.17542889997E+03  0.17120000000E+03 0.  0.
        998    1    1    2    0    0 -0.32011248756E+01  0.74469296920E+01  0.14668020103E+04  0.14668584940E+04  0.10000000000E+02 0. -1.
</event>
<event>
 5    1  0.1020718E-008  0.3747963E+03  0.7957747E-01  0.3474134E+00
         13   -1    0    0    0    0  0.00000000000E+00  0.00000000000E+00  0.14999999963E+04  0.15000000000E+04  0.10566000000E+00 0.  1.
        994   -1    0    0    0    0 -0.00000000000E+00 -0.00000000000E+00  0.11368683772E-12  0.17120000000E+03  0.17120000000E+03 0.  0.
         13    1    1    2    0    0  0.15241360094E+02 -0.59009439151E+01  0.16551997644E+02  0.23261555980E+02  0.10566000000E+00 0.  1.
        994    1    1    2    0    0 -0.16000342612E+02  0.42346816901E+01  0.77157548772E+01  0.17217118332E+03  0.17120000000E+03 0.  0.
        998    1    1    2    0    0  0.75898251854E+00  0.16662622250E+01  0.14757322438E+04  0.14757672607E+04  0.10000000000E+02 0.  1.
</event>
<event>
 5    1  0.1020718E-008  0.3711156E+03  0.7957747E-01  0.3490779E+00
         13   -1    0    0    0    0  0.00000000000E+00  0.00000000000E+00  0.14999999963E+04  0.15000000000E+04  0.10566000000E+00 0. -1.
        994   -1    0    0    0    0 -0.00000000000E+00 -0.00000000000E+00  0.11368683772E-12  0.17120000000E+03  0.17120000000E+03 0.  0.
         13    1    1    2    0    0 -0.29544174787E+02  0.21129389200E+02  0.69813282151E+02  0.78696981394E+02  0.10566000000E+00 0. -1.
        994    1    1    2    0    0  0.34503436619E+02 -0.13196167393E+02  0.13402033215E+02  0.17565215759E+03  0.17120000000E+03 0.  0.
        998    1    1    2    0    0 -0.49592618324E+01 -0.79332218073E+01  0.14167846809E+04  0.14168508610E+04  0.10000000000E+02 0. -1.
</event>
<event>
 5    1  0.1020718E-008  0.3786690E+03  0.7957747E-01  0.3456975E+00
         13   -1    0    0    0    0  0.00000000000E+00  0.00000000000E+00  0.14999999963E+04  0.15000000000E+04  0.10566000000E+00 0.  1.
        994   -1    0    0    0    0 -0.00000000000E+00 -0.00000000000E+00  0.11368683772E-12  0.17120000000E+03  0.17120000000E+03 0.  0.
         13    1    1    2    0    0  0.16171089191E+02  0.19510197721E+02  0.65314052482E+02  0.70057751579E+02  0.10566000000E+00 0.  1.
        994    1    1    2    0    0 -0.13206264165E+02 -0.85134469616E+01  0.56359514622E+01  0.17201188372E+03  0.17120000000E+03 0.  0.
        998    1    1    2    0    0 -0.29648250261E+01 -0.10996750759E+02  0.14290499923E+04  0.14291303647E+04  0.10000000000E+02 0.  1.
</event>
<event>
 5    1  0.1020718E-008  0.3714940E+03  0.7957747E-01  0.3489053E+00
         13   -1    0    0    0    0  0.00000000000E+00  0.00000000000E+00  0.14999999963E+04  0.15000000000E+04  0.10566000000E+00 0.  1.
        994   -1    0    0    0    0 -0.00000000000E+00 -0.00000000000E+00  0.11368683772E-12  0.17120000000E+03  0.17120000000E+03 0.  0.
         13    1    1    2    0    0  0.77665906957E+02  0.56165554570E+02  0.36230482017E+03  0.37476840382E+03  0.10566000000E+00 0.  1.
        994    1    1    2    0    0 -0.54773880313E+02 -0.11952415966E+03  0.70522942584E+02  0.22708837077E+03  0.17120000000E+03 0.  0.
        998    1    1    2    0    0 -0.22892026644E+02  0.63358605086E+02  0.10671722335E+04  0.10693432254E+04  0.10000000000E+02 0.  1.
</event>
<event>
 5    1  0.1020718E-008  0.3836756E+03  0.7957747E-01  0.3435309E+00
         13   -1    0    0    0    0  0.00000000000E+00  0.00000000000E+00  0.14999999963E+04  0.15000000000E+04  0.10566000000E+00 0.  1.
        994   -1    0    0    0    0 -0.00000000000E+00 -0.00000000000E+00  0.11368683772E-12  0.17120000000E+03  0.17120000000E+03 0.  0.
         13    1    1    2    0    0  0.25245236766E+02  0.98496028408E+01  0.14202778377E+03  0.14458990000E+03  0.10566000000E+00 0.  1.
        994    1    1    2    0    0 -0.27748359828E+02 -0.15004220253E+02  0.55827037727E+01  0.17417148067E+03  0.17120000000E+03 0.  0.
        998    1    1    2    0    0  0.25031230625E+01  0.51546174120E+01  0.13523895087E+04  0.13524386193E+04  0.10000000000E+02 0.  1.
</event>
<event>
 5    1  0.1020718E-008  0.3819875E+03  0.7957747E-01  0.3442550E+00
         13   -1    0    0    0    0  0.00000000000E+00  0.00000000000E+00  0.14999999963E+04  0.15000000000E+04  0.10566000000E+00 0. -1.
        994   -1    0    0    0    0 -0.00000000000E+00 -0.00000000000E+00  0.11368683772E-12  0.17120000000E+03  0.17120000000E+03 0.  0.
         13    1    1    2    0    0  0.23159930505E+02  0.60365052376E+01  0.89254241776E+02  0.92407535492E+02  0.10566000000E+00 0. -1.
        994    1    1    2    0    0 -0.17258356674E+02 -0.19254980513E+01  0.41353723384E+01  0.17212814913E+03  0.17120000000E+03 0.  0.
        998    1    1    2    0    0 -0.59015738316E+01 -0.41110071862E+01  0.14066103822E+04  0.14066643154E+04  0.10000000000E+02 0. -1.
</event>
<event>
 5    1  0.1020718E-008  0.3803159E+03  0.7957747E-01  0.3449784E+00
         13   -1    0    0    0    0  0.00000000000E+00  0.00000000000E+00  0.14999999963E+04  0.15000000000E+04  0.10566000000E+00 0.  1.
        994   -1    0    0    0    0 -0.00000000000E+00 -0.00000000000E+00  0.11368683772E-12  0.17120000000E+03  0.17120000000E+03 0.  0.
         13    1    1    2    0    0 -0.46922212680E+01  0.15674641677E+02  0.31852081908E+02  0.35808904173E+02  0.10566000000E+00 0.  1.
        994    1    1    2    0    0 -0.62541495785E+01 -0.16306026310E+02  0.49929579091E+01  0.17216088554E+03  0.17120000000E+03 0.  0.
        998    1    1    2    0    0  0.10946370846E+02  0.63138463295E+00  0.14631549565E+04  0.14632302103E+04  0.10000000000E+02 0.  1.
</event>
<event>
 5    1  0.1020718E-008  0.3851024E+03  0.7957747E-01  0.3429238E+00
         13   -1    0    0    0    0  0.00000000000E+00  0.00000000000E+00  0.14999999963E+04  0.15000000000E+04  0.10566000000E+00 0. -1.
        994   -1    0    0    0    0 -0.00000000000E+00 -0.00000000000E+00  0.11368683772E-12  0.17120000000E+03  0.17120000000E+03 0.  0.
         13    1    1    2    0    0 -0.12317887105E+02 -0.74534655996E+01  0.66666773923E+02  0.68203771168E+02  0.10566000000E+00 0. -1.
        994    1    1    2    0    0  0.10280290310E+01  0.12565476370E+02  0.21020427220E+01  0.17167645914E+03  0.17120000000E+03 0.  0.
        998    1    1    2    0    0  0.11289858073E+02 -0.51120107702E+01  0.14312311796E+04  0.14313197697E+04  0.10000000000E+02 0. -1.
</event>
<event>
 5    1  0.1020718E-008  0.3751321E+03  0.7957747E-01  0.3472632E+00
         13   -1    0    0    0    0  0.00000000000E+00  0.00000000000E+00  0.14999999963E+04  0.15000000000E+04  0.10566000000E+00 0.  1.
        994   -1    0    0    0    0 -0.00000000000E+00 -0.00000000000E+00  0.11368683772E-12  0.17120000000E+03  0.17120000000E+03 0.  0.
         13    1    1    2    0    0 -0.95221492615E+02 -0.40575006797E+02  0.62389757768E+03  0.63242522280E+03  0.10566000000E+00 0.  1.
        994    1    1    2    0    0  0.75154017051E+02  0.32809536776E+02  0.29813466977E+02  0.19215325861E+03  0.17120000000E+03 0.  0.
        998    1    1    2    0    0  0.20067475563E+02  0.77654700209E+01  0.84628895162E+03  0.84662151858E+03  0.10000000000E+02 0.  0.
</event>
<event>
 5    1  0.1020718E-008  0.3727515E+03  0.7957747E-01  0.3483340E+00
         13   -1    0    0    0    0  0.00000000000E+00  0.00000000000E+00  0.14999999963E+04  0.15000000000E+04  0.10566000000E+00 0. -1.
        994   -1    0    0    0    0 -0.00000000000E+00 -0.00000000000E+00  0.11368683772E-12  0.17120000000E+03  0.17120000000E+03 0.  0.
         13    1    1    2    0    0 -0.94508092891E+02  0.50432180795E+02  0.37180989141E+03  0.38693383284E+03  0.10566000000E+00 0. -1.
        994    1    1    2    0    0  0.84010797551E+02 -0.43017411719E+02  0.44552289088E+02  0.20050600559E+03  0.17120000000E+03 0.  0.
        998    1    1    2    0    0  0.10497295341E+02 -0.74147690759E+01  0.10836378158E+04  0.10837601616E+04  0.10000000000E+02 0. -1.
</event>
<event>
 5    1  0.1020718E-008  0.3705618E+03  0.7957747E-01  0.3493313E+00
         13   -1    0    0    0    0  0.00000000000E+00  0.00000000000E+00  0.14999999963E+04  0.15000000000E+04  0.10566000000E+00 0.  1.
        994   -1    0    0    0    0 -0.00000000000E+00 -0.00000000000E+00  0.11368683772E-12  0.17120000000E+03  0.17120000000E+03 0.  0.
         13    1    1    2    0    0 -0.24367425871E+02 -0.10282499661E+02  0.34257852163E+02  0.43279473676E+02  0.10566000000E+00 0.  1.
        994    1    1    2    0    0  0.29097340879E+02  0.83153612285E+01  0.12142648216E+02  0.17427760724E+03  0.17120000000E+03 0.  0.
        998    1    1    2    0    0 -0.47299150082E+01  0.19671384327E+01  0.14535994959E+04  0.14536429191E+04  0.10000000000E+02 0.  1.
</event>
<event>
 5    1  0.1321840E-008  0.3859249E+03  0.7957747E-01  0.3425759E+00
         13   -1    0    0    0    0  0.00000000000E+00  0.00000000000E+00  0.14999999963E+04  0.15000000000E+04  0.10566000000E+00 0. -1.
        994   -1    0    0    0    0 -0.00000000000E+00 -0.00000000000E+00  0.11368683772E-12  0.17120000000E+03  0.17120000000E+03 0.  0.
         13    1    1    2    0    0 -0.57071706186E+01 -0.91798807552E+01  0.49396303350E+02  0.50565284097E+02  0.10566000000E+00 0. -1.
        994    1    1    2    0    0  0.97694124411E+01  0.61414895330E+01  0.16083597093E+01  0.17159599685E+03  0.17120000000E+03 0.  0.
        998    1    1    2    0    0 -0.40622418226E+01  0.30383912222E+01  0.14489953332E+04  0.14490387191E+04  0.10000000000E+02 0. -1.
</event>
<event>
 5    1  0.1020718E-008  0.3861545E+03  0.7957747E-01  0.3424791E+00
         13   -1    0    0    0    0  0.00000000000E+00  0.00000000000E+00  0.14999999963E+04  0.15000000000E+04  0.10566000000E+00 0.  1.
        994   -1    0    0    0    0 -0.00000000000E+00 -0.00000000000E+00  0.11368683772E-12  0.17120000000E+03  0.17120000000E+03 0.  0.
         13    1    1    2    0    0  0.58583619000E+01  0.83337627792E+01  0.52547811774E+02  0.53526215002E+02  0.10566000000E+00 0.  1.
        994    1    1    2    0    0 -0.95513163287E+01  0.74821235764E+01  0.15405002988E+01  0.17163631014E+03  0.17120000000E+03 0.  0.
        998    1    1    2    0    0  0.36929544286E+01 -0.15815886356E+02  0.14459116842E+04  0.14460374749E+04  0.10000000000E+02 0.  1.
</event>
<event>
 5    1  0.1020718E-008  0.3834995E+03  0.7957747E-01  0.3436061E+00
         13   -1    0    0    0    0  0.00000000000E+00  0.00000000000E+00  0.14999999963E+04  0.15000000000E+04  0.10566000000E+00 0.  1.
        994   -1    0    0    0    0 -0.00000000000E+00 -0.00000000000E+00  0.11368683772E-12  0.17120000000E+03  0.17120000000E+03 0.  0.
         13    1    1    2    0    0  0.13710757778E+02  0.57578607018E+01  0.53708865462E+02  0.55729626160E+02  0.10566000000E+00 0.  1.
        994    1    1    2    0    0  0.19366697474E+02  0.10179005007E+02  0.39604597267E+01  0.17263778948E+03  0.17120000000E+03 0.  0.
        998    1    1    2    0    0 -0.33077455252E+02 -0.15936865709E+02  0.14423306711E+04  0.14428325844E+04  0.10000000000E+02 0.  1.
</event>
<event>
 5    1  0.1020718E-008  0.2423026E+03  0.7957747E-01  0.4419442E+00
         13   -1    0    0    0    0  0.00000000000E+00  0.00000000000E+00  0.14999999963E+04  0.15000000000E+04  0.10566000000E+00 0. -1.
        994   -1    0    0    0    0 -0.00000000000E+00 -0.00000000000E+00  0.11368683772E-12  0.17120000000E+03  0.17120000000E+03 0.  0.
         13    1    1    2    0    0 -0.15327980912E+03 -0.71714291927E+02  0.33122803032E+03  0.37195383959E+03  0.10566000000E+00 0. -1.
        994    1    1    2    0    0  0.95553493247E+02  0.60696711021E+02  0.99099439155E+02  0.22791379871E+03  0.17120000000E+03 0.  0.
        998    1    1    2    0    0  0.57726315876E+02  0.11017580906E+02  0.10696725268E+04  0.10713323617E+04  0.10000000000E+02 0. -1.
</event>
<event>
 5    1  0.1020718E-008  0.3739722E+03  0.7957747E-01  0.3477832E+00
         13   -1    0    0    0    0  0.00000000000E+00  0.00000000000E+00  0.14999999963E+04  0.15000000000E+04  0.10566000000E+00 0. -1.
        994   -1    0    0    0    0 -0.00000000000E+00 -0.00000000000E+00  0.11368683772E-12  0.17120000000E+03  0.17120000000E+03 0.  0.
         13    1    1    2    0    0 -0.83639962448E+02  0.96485826194E+01  0.34268085740E+03  0.35287238438E+03  0.10566000000E+00 0. -1.
        994    1    1    2    0    0  0.94532070186E+02 -0.11275152082E+02  0.38782633735E+02  0.19969219821E+03  0.17120000000E+03 0.  0.
        998    1    1    2    0    0 -0.10892107738E+02  0.16265694629E+01  0.11185365051E+04  0.11186354174E+04  0.10000000000E+02 0. -1.
</event>
<event>
 5    1  0.1020718E-008  0.3813414E+03  0.7957747E-01  0.3445339E+00
         13   -1    0    0    0    0  0.00000000000E+00  0.00000000000E+00  0.14999999963E+04  0.15000000000E+04  0.10566000000E+00 0.  1.
        994   -1    0    0    0    0 -0.00000000000E+00 -0.00000000000E+00  0.11368683772E-12  0.17120000000E+03  0.17120000000E+03 0.  0.
         13    1    1    2    0    0 -0.15572504815E+02 -0.96090143801E+01  0.46640878670E+02  0.50102083696E+02  0.10566000000E+00 0.  1.
        994    1    1    2    0    0 -0.35141346379E+01  0.34848591831E+02  0.75512419553E+01  0.17490921860E+03  0.17120000000E+03 0.  0.
        998    1    1    2    0    0  0.19086639453E+02 -0.25239577451E+02  0.14458078757E+04  0.14461886977E+04  0.10000000000E+02 0.  1.
</event>
<event>
 5    1  0.1020718E-008  0.3739382E+03  0.7957747E-01  0.3477985E+00
         13   -1    0    0    0    0  0.00000000000E+00  0.00000000000E+00  0.14999999963E+04  0.15000000000E+04  0.10566000000E+00 0.  1.
        994   -1    0    0    0    0 -0.00000000000E+00 -0.00000000000E+00  0.11368683772E-12  0.17120000000E+03  0.17120000000E+03 0.  0.
         13    1    1    2    0    0  0.25371590317E+02 -0.22524840783E+00  0.41578527664E+02  0.48708864273E+02  0.10566000000E+00 0.  1.
        994    1    1    2    0    0 -0.17796366676E+02  0.65538042026E+01  0.84529142705E+01  0.17245450060E+03  0.17120000000E+03 0.  0.
        998    1    1    2    0    0 -0.75752236415E+01 -0.63285557948E+01  0.14499685543E+04  0.14500366351E+04  0.10000000000E+02 0.  1.
</event>
<event>
 5    1  0.1020718E-008  0.3817313E+03  0.7957747E-01  0.3443654E+00
         13   -1    0    0    0    0  0.00000000000E+00  0.00000000000E+00  0.14999999963E+04  0.15000000000E+04  0.10566000000E+00 0. -1.
        994   -1    0    0    0    0 -0.00000000000E+00 -0.00000000000E+00  0.11368683772E-12  0.17120000000E+03  0.17120000000E+03 0.  0.
         13    1    1    2    0    0 -0.19887881262E+02 -0.45485055538E+01  0.69794760419E+02  0.72715448633E+02  0.10566000000E+00 0. -1.
        994    1    1    2    0    0 -0.13186889647E+02  0.18910027951E+02  0.50303164095E+01  0.17281848078E+03  0.17120000000E+03 0.  0.
        998    1    1    2    0    0  0.33074770909E+02 -0.14361522397E+02  0.14251749194E+04  0.14256660706E+04  0.10000000000E+02 0. -1.
</event>
<event>
 5    1  0.1020718E-008  0.3820274E+03  0.7957747E-01  0.3442378E+00
         13   -1    0    0    0    0  0.00000000000E+00  0.00000000000E+00  0.14999999963E+04  0.15000000000E+04  0.10566000000E+00 0. -1.
        994   -1    0    0    0    0 -0.00000000000E+00 -0.00000000000E+00  0.11368683772E-12  0.17120000000E+03  0.17120000000E+03 0.  0.
         13    1    1    2    0    0 -0.13035564358E+02  0.27775269660E+02  0.15901562335E+03  0.16194866834E+03  0.10566000000E+00 0. -1.
        994    1    1    2    0    0  0.90567986692E+00 -0.11212287831E+02  0.35335150280E+01  0.17160554007E+03  0.17120000000E+03 0.  0.
        998    1    1    2    0    0  0.12129884491E+02 -0.16562981829E+02  0.13374508579E+04  0.13376457916E+04  0.10000000000E+02 0. -1.
</event>
<event>
 5    1  0.1020718E-008  0.3806168E+03  0.7957747E-01  0.3448477E+00
         13   -1    0    0    0    0  0.00000000000E+00  0.00000000000E+00  0.14999999963E+04  0.15000000000E+04  0.10566000000E+00 0. -1.
        994   -1    0    0    0    0 -0.00000000000E+00 -0.00000000000E+00  0.11368683772E-12  0.17120000000E+03  0.17120000000E+03 0.  0.
         13    1    1    2    0    0 -0.66161252695E+01 -0.97014257163E+01  0.16330694415E+02  0.20114510151E+02  0.10566000000E+00 0. -1.
        994    1    1    2    0    0  0.91667825459E+01  0.65975007072E+01  0.42477716406E+01  0.17162470825E+03  0.17120000000E+03 0.  0.
        998    1    1    2    0    0 -0.25506572763E+01  0.31039250091E+01  0.14794215302E+04  0.14794607816E+04  0.10000000000E+02 0. -1.
</event>
<event>
 5    1  0.1020718E-008  0.3730880E+03  0.7957747E-01  0.3481818E+00
         13   -1    0    0    0    0  0.00000000000E+00  0.00000000000E+00  0.14999999963E+04  0.15000000000E+04  0.10566000000E+00 0. -1.
        994   -1    0    0    0    0 -0.00000000000E+00 -0.00000000000E+00  0.11368683772E-12  0.17120000000E+03  0.17120000000E+03 0.  0.
         13    1    1    2    0    0 -0.23968872622E+00 -0.10400944609E+02  0.35134064248E+01  0.10981452008E+02  0.10566000000E+00 0. -1.
        994    1    1    2    0    0  0.34402810562E+01  0.63308315790E+01  0.78415181362E+01  0.17153088459E+03  0.17120000000E+03 0.  0.
        998    1    1    2    0    0 -0.32005923300E+01  0.40701130305E+01  0.14886450717E+04  0.14886876634E+04  0.10000000000E+02 0. -1.
</event>
<event>
 5    1  0.1020718E-008  0.3686570E+03  0.7957747E-01  0.3502086E+00
         13   -1    0    0    0    0  0.00000000000E+00  0.00000000000E+00  0.14999999963E+04  0.15000000000E+04  0.10566000000E+00 0. -1.
        994   -1    0    0    0    0 -0.00000000000E+00 -0.00000000000E+00  0.11368683772E-12  0.17120000000E+03  0.17120000000E+03 0.  0.
         13    1    1    2    0    0  0.10405883386E+02  0.59039837358E+02  0.21597038534E+03  0.22413657290E+03  0.10566000000E+00 0. -1.
        994    1    1    2    0    0 -0.53013336791E-01  0.66607154804E+01  0.10384822687E+02  0.17164397013E+03  0.17120000000E+03 0.  0.
        998    1    1    2    0    0 -0.10352870050E+02 -0.65700552838E+02  0.12736447883E+04  0.12754194570E+04  0.10000000000E+02 0. -1.
</event>
<event>
 5    1  0.1020718E-008  0.3781030E+03  0.7957747E-01  0.3459460E+00
         13   -1    0    0    0    0  0.00000000000E+00  0.00000000000E+00  0.14999999963E+04  0.15000000000E+04  0.10566000000E+00 0.  1.
        994   -1    0    0    0    0 -0.00000000000E+00 -0.00000000000E+00  0.11368683772E-12  0.17120000000E+03  0.17120000000E+03 0.  0.
         13    1    1    2    0    0 -0.12349023576E+02 -0.50783744950E+01  0.15298995065E+02  0.20306616774E+02  0.10566000000E+00 0.  1.
        994    1    1    2    0    0  0.85803132339E+01  0.33318558679E+01  0.53788640750E+01  0.17153161580E+03  0.17120000000E+03 0.  0.
        998    1    1    2    0    0  0.37687103419E+01  0.17465186271E+01  0.14793221371E+04  0.14793617674E+04  0.10000000000E+02 0.  1.
</event>
<event>
 5    1  0.1020718E-008  0.3786973E+03  0.7957747E-01  0.3456850E+00
         13   -1    0    0    0    0  0.00000000000E+00  0.00000000000E+00  0.14999999963E+04  0.15000000000E+04  0.10566000000E+00 0.  1.
        994   -1    0    0    0    0 -0.00000000000E+00 -0.00000000000E+00  0.11368683772E-12  0.17120000000E+03  0.17120000000E+03 0.  0.
         13    1    1    2    0    0  0.97785354573E+01 -0.77049632410E+01  0.14681424481E+02  0.19249457215E+02  0.10566000000E+00 0.  1.
        994    1    1    2    0    0  0.12353847626E+02  0.18579630904E+01  0.53163468305E+01  0.17173751227E+03  0.17120000000E+03 0.  0.
        998    1    1    2    0    0 -0.22132383083E+02  0.58470001506E+01  0.14800022250E+04  0.14802130305E+04  0.10000000000E+02 0.  1.
</event>
<event>
 5    1  0.1020718E-008  0.3691781E+03  0.7957747E-01  0.3499677E+00
         13   -1    0    0    0    0  0.00000000000E+00  0.00000000000E+00  0.14999999963E+04  0.15000000000E+04  0.10566000000E+00 0.  1.
        994   -1    0    0    0    0 -0.00000000000E+00 -0.00000000000E+00  0.11368683772E-12  0.17120000000E+03  0.17120000000E+03 0.  0.
         13    1    1    2    0    0  0.23381601171E+02  0.42510953475E+02  0.11934096617E+03  0.12882607581E+03  0.10566000000E+00 0.  1.
        994    1    1    2    0    0 -0.38599341612E+00 -0.30883549583E+02  0.13014246492E+02  0.17444985881E+03  0.17120000000E+03 0.  0.
        998    1    1    2    0    0 -0.22995607755E+02 -0.11627403892E+02  0.13676447836E+04  0.13679240654E+04  0.10000000000E+02 0.  1.
</event>
<event>
 5    1  0.1020718E-008  0.3728701E+03  0.7957747E-01  0.3482804E+00
         13   -1    0    0    0    0  0.00000000000E+00  0.00000000000E+00  0.14999999963E+04  0.15000000000E+04  0.10566000000E+00 0. -1.
        994   -1    0    0    0    0 -0.00000000000E+00 -0.00000000000E+00  0.11368683772E-12  0.17120000000E+03  0.17120000000E+03 0.  0.
         13    1    1    2    0    0  0.20830749471E+02 -0.30148674609E+01  0.25121956813E+02  0.32773974850E+02  0.10566000000E+00 0. -1.
        994    1    1    2    0    0 -0.17674729300E+02 -0.86739706053E+01  0.91048750946E+01  0.17256874738E+03  0.17120000000E+03 0.  0.
        998    1    1    2    0    0 -0.31560201709E+01  0.11688838066E+02  0.14657731644E+04  0.14658572778E+04  0.10000000000E+02 0. -1.
</event>
<event>
 5    1  0.1020718E-008  0.3840673E+03  0.7957747E-01  0.3433638E+00
         13   -1    0    0    0    0  0.00000000000E+00  0.00000000000E+00  0.14999999963E+04  0.15000000000E+04  0.10566000000E+00 0.  1.
        994   -1    0    0    0    0 -0.00000000000E+00 -0.00000000000E+00  0.11368683772E-12  0.17120000000E+03  0.17120000000E+03 0.  0.
         13    1    1    2    0    0 -0.14622829183E+02  0.15459165261E+02  0.11419202496E+03  0.11615783509E+03  0.10566000000E+00 0.  1.
        994    1    1    2    0    0  0.12695541159E+02  0.40737057345E+01  0.26805411084E+01  0.17173932906E+03  0.17120000000E+03 0.  0.
        998    1    1    2    0    0  0.19272880233E+01 -0.19532870996E+02  0.13831274302E+04  0.13833028359E+04  0.10000000000E+02 0.  1.
</event>
<event>
 5    1  0.1020718E-008  0.3786102E+03  0.7957747E-01  0.3457232E+00
         13   -1    0    0    0    0  0.00000000000E+00  0.00000000000E+00  0.14999999963E+04  0.15000000000E+04  0.10566000000E+00 0. -1.
        994   -1    0    0    0    0 -0.00000000000E+00 -0.00000000000E+00  0.11368683772E-12  0.17120000000E+03  0.17120000000E+03 0.  0.
         13    1    1    2    0    0 -0.40438895776E+02 -0.18473383394E+02  0.23632344698E+03  0.24046902699E+03  0.10566000000E+00 0. -1.
        994    1    1    2    0    0  0.53674367281E+01  0.21503038793E+01  0.49486510297E+01  0.17136908219E+03  0.17120000000E+03 0.  0.
        998    1    1    2    0    0  0.35071459048E+02  0.16323079515E+02  0.12587278983E+04  0.12593618908E+04  0.10000000000E+02 0. -1.
</event>
<event>
 5    1  0.1020718E-008  0.3743441E+03  0.7957747E-01  0.3476161E+00
         13   -1    0    0    0    0  0.00000000000E+00  0.00000000000E+00  0.14999999963E+04  0.15000000000E+04  0.10566000000E+00 0. -1.
        994   -1    0    0    0    0 -0.00000000000E+00 -0.00000000000E+00  0.11368683772E-12  0.17120000000E+03  0.17120000000E+03 0.  0.
         13    1    1    2    0    0  0.42158899476E+02  0.88449319457E+01  0.10113738665E+03  0.10992901241E+03  0.10566000000E+00 0. -1.
        994    1    1    2    0    0 -0.83529922683E+02 -0.21432931685E+02  0.32789190600E+02  0.19447670700E+03  0.17120000000E+03 0.  0.
        998    1    1    2    0    0  0.41371023207E+02  0.12587999740E+02  0.13660734190E+04  0.13667942806E+04  0.10000000000E+02 0. -1.
</event>
<event>
 5    1  0.1020718E-008  0.3862191E+03  0.7957747E-01  0.3424518E+00
         13   -1    0    0    0    0  0.00000000000E+00  0.00000000000E+00  0.14999999963E+04  0.15000000000E+04  0.10566000000E+00 0.  1.
        994   -1    0    0    0    0 -0.00000000000E+00 -0.00000000000E+00  0.11368683772E-12  0.17120000000E+03  0.17120000000E+03 0.  0.
         13    1    1    2    0    0  0.80642101853E+00 -0.10426211076E+02  0.51934697579E+02  0.52977166487E+02  0.10566000000E+00 0.  1.
        994    1    1    2    0    0  0.13431201156E+02  0.14314050701E+02  0.22891669817E+01  0.17233679090E+03  0.17120000000E+03 0.  0.
        998    1    1    2    0    0 -0.14237622175E+02 -0.38878396250E+01  0.14457761317E+04  0.14458860426E+04  0.10000000000E+02 0.  1.
</event>
<event>
 5    1  0.1020718E-008  0.3856325E+03  0.7957747E-01  0.3426994E+00
         13   -1    0    0    0    0  0.00000000000E+00  0.00000000000E+00  0.14999999963E+04  0.15000000000E+04  0.10566000000E+00 0. -1.
        994   -1    0    0    0    0 -0.00000000000E+00 -0.00000000000E+00  0.11368683772E-12  0.17120000000E+03  0.17120000000E+03 0.  0.
         13    1    1    2    0    0 -0.33356039537E+01  0.13964041739E+02  0.80674281463E+02  0.81941879213E+02  0.10566000000E+00 0. -1.
        994    1    1    2    0    0  0.20926306018E+01 -0.60845941430E+01  0.14523240296E+01  0.17132702832E+03  0.17120000000E+03 0.  0.
        998    1    1    2    0    0  0.12429733519E+01 -0.78794475962E+01  0.14178733908E+04  0.14179310925E+04  0.10000000000E+02 0. -1.
</event>
<event>
 5    1  0.1020718E-008  0.3789758E+03  0.7957747E-01  0.3455630E+00
         13   -1    0    0    0    0  0.00000000000E+00  0.00000000000E+00  0.14999999963E+04  0.15000000000E+04  0.10566000000E+00 0.  1.
        994   -1    0    0    0    0 -0.00000000000E+00 -0.00000000000E+00  0.11368683772E-12  0.17120000000E+03  0.17120000000E+03 0.  0.
         13    1    1    2    0    0  0.24375251028E+02 -0.32783421367E+02  0.20071515265E+03  0.20483039141E+03  0.10566000000E+00 0.  1.
        994    1    1    2    0    0  0.48885522447E+01  0.12243927583E+02  0.52342949359E+01  0.17178663961E+03  0.17120000000E+03 0.  0.
        998    1    1    2    0    0 -0.29263803273E+02  0.20539493784E+02  0.12940505487E+04  0.12945829690E+04  0.10000000000E+02 0.  1.
</event>
<event>
 5    1  0.1020718E-008  0.3787392E+03  0.7957747E-01  0.3456667E+00
         13   -1    0    0    0    0  0.00000000000E+00  0.00000000000E+00  0.14999999963E+04  0.15000000000E+04  0.10566000000E+00 0. -1.
        994   -1    0    0    0    0 -0.00000000000E+00 -0.00000000000E+00  0.11368683772E-12  0.17120000000E+03  0.17120000000E+03 0.  0.
         13    1    1    2    0    0 -0.11451323696E+02 -0.65609634295E+01  0.15974870336E+02  0.20721648144E+02  0.10566000000E+00 0. -1.
        994    1    1    2    0    0  0.13630355107E+02  0.63366145386E+01  0.55297574128E+01  0.17194754282E+03  0.17120000000E+03 0.  0.
        998    1    1    2    0    0 -0.21790314105E+01  0.22434889082E+00  0.14784953685E+04  0.14785308090E+04  0.10000000000E+02 0. -1.
</event>
<event>
 5    1  0.1020718E-008  0.3769413E+03  0.7957747E-01  0.3464586E+00
         13   -1    0    0    0    0  0.00000000000E+00  0.00000000000E+00  0.14999999963E+04  0.15000000000E+04  0.10566000000E+00 0.  1.
        994   -1    0    0    0    0 -0.00000000000E+00 -0.00000000000E+00  0.11368683772E-12  0.17120000000E+03  0.17120000000E+03 0.  0.
         13    1    1    2    0    0  0.18410858356E+02 -0.90488425598E+01  0.35046646328E+02  0.40609356556E+02  0.10566000000E+00 0.  1.
        994    1    1    2    0    0 -0.82087060318E+01  0.74754101235E+01  0.61015927401E+01  0.17166809268E+03  0.17120000000E+03 0.  0.
        998    1    1    2    0    0 -0.10202152325E+02  0.15734324363E+01  0.14588517572E+04  0.14589225508E+04  0.10000000000E+02 0.  1.
</event>
<event>
 5    1  0.1020718E-008  0.3693140E+03  0.7957747E-01  0.3499050E+00
         13   -1    0    0    0    0  0.00000000000E+00  0.00000000000E+00  0.14999999963E+04  0.15000000000E+04  0.10566000000E+00 0.  1.
        994   -1    0    0    0    0 -0.00000000000E+00 -0.00000000000E+00  0.11368683772E-12  0.17120000000E+03  0.17120000000E+03 0.  0.
         13    1    1    2    0    0 -0.32162641767E+02  0.18425701000E+02  0.61861275959E+02  0.72116368531E+02  0.10566000000E+00 0.  1.
        994    1    1    2    0    0  0.10468871331E+02 -0.21788083071E+02  0.12617043837E+02  0.17335786001E+03  0.17120000000E+03 0.  0.
        998    1    1    2    0    0  0.21693770436E+02  0.33623820707E+01  0.14255216765E+04  0.14257257715E+04  0.10000000000E+02 0.  1.
</event>
<event>
 5    1  0.1020718E-008  0.3786061E+03  0.7957747E-01  0.3457250E+00
         13   -1    0    0    0    0  0.00000000000E+00  0.00000000000E+00  0.14999999963E+04  0.15000000000E+04  0.10566000000E+00 0. -1.
        994   -1    0    0    0    0 -0.00000000000E+00 -0.00000000000E+00  0.11368683772E-12  0.17120000000E+03  0.17120000000E+03 0.  0.
         13    1    1    2    0    0 -0.48772465272E+02 -0.10474821630E+03  0.62469429062E+03  0.63529041397E+03  0.10566000000E+00 0. -1.
        994    1    1    2    0    0  0.47960768941E+02  0.12083337410E+03  0.63871846955E+02  0.22425430316E+03  0.17120000000E+03 0.  0.
        998    1    1    2    0    0  0.81169633110E+00 -0.16085157797E+02  0.81143385871E+03  0.81165528287E+03  0.10000000000E+02 0.  0.
</event>
<event>
 5    1  0.1020718E-008  0.2915089E+03  0.7957747E-01  0.3958567E+00
         13   -1    0    0    0    0  0.00000000000E+00  0.00000000000E+00  0.14999999963E+04  0.15000000000E+04  0.10566000000E+00 0. -1.
        994   -1    0    0    0    0 -0.00000000000E+00 -0.00000000000E+00  0.11368683772E-12  0.17120000000E+03  0.17120000000E+03 0.  0.
         13    1    1    2    0    0  0.59587782072E+02  0.24068842654E+03  0.54230580038E+03  0.59630295549E+03  0.10566000000E+00 0. -1.
        994    1    1    2    0    0 -0.11952908303E+03 -0.15788908341E+03  0.25744560996E+03  0.36715643320E+03  0.17120000000E+03 0.  0.
        998    1    1    2    0    0  0.59941300961E+02 -0.82799343126E+02  0.70024858594E+03  0.70774061131E+03  0.10000000000E+02 0. -1.
</event>
<event>
 5    1  0.1020718E-008  0.1949273E+03  0.7957747E-01  0.5137265E+00
         13   -1    0    0    0    0  0.00000000000E+00  0.00000000000E+00  0.14999999963E+04  0.15000000000E+04  0.10566000000E+00 0. -1.
        994   -1    0    0    0    0 -0.00000000000E+00 -0.00000000000E+00  0.11368683772E-12  0.17120000000E+03  0.17120000000E+03 0.  0.
         13    1    1    2    0    0 -0.35928767856E+02 -0.13242063142E+03  0.49735876188E+03  0.51593783459E+03  0.10566000000E+00 0. -1.
        994    1    1    2    0    0  0.63310233869E+02 -0.14746558548E+03  0.21275051089E+03  0.31674359425E+03  0.17120000000E+03 0.  0.
        998    1    1    2    0    0 -0.27381466013E+02  0.27988621690E+03  0.78989072351E+03  0.83851857116E+03  0.10000000000E+02 0. -1.
</event>
<event>
 5    1  0.1020718E-008  0.3823136E+03  0.7957747E-01  0.3441146E+00
         13   -1    0    0    0    0  0.00000000000E+00  0.00000000000E+00  0.14999999963E+04  0.15000000000E+04  0.10566000000E+00 0. -1.
        994   -1    0    0    0    0 -0.00000000000E+00 -0.00000000000E+00  0.11368683772E-12  0.17120000000E+03  0.17120000000E+03 0.  0.
         13    1    1    2    0    0  0.85248534857E+01  0.75146833279E+01  0.19892740046E+02  0.22910169424E+02  0.10566000000E+00 0. -1.
        994    1    1    2    0    0 -0.13153905601E+02 -0.14636753296E+02  0.42555891226E+01  0.17237984168E+03  0.17120000000E+03 0.  0.
        998    1    1    2    0    0  0.46290521158E+01  0.71220699682E+01  0.14758516671E+04  0.14759099889E+04  0.10000000000E+02 0. -1.
</event>
<event>
 5    1  0.1208650E-008  0.3851139E+03  0.7957747E-01  0.3429189E+00
         13   -1    0    0    0    0  0.00000000000E+00  0.00000000000E+00  0.14999999963E+04  0.15000000000E+04  0.10566000000E+00 0. -1.
        994   -1    0    0    0    0 -0.00000000000E+00 -0.00000000000E+00  0.11368683772E-12  0.17120000000E+03  0.17120000000E+03 0.  0.
         13    1    1    2    0    0  0.15198840603E+02 -0.19170496886E+01  0.77070920151E+02  0.78578735878E+02  0.10566000000E+00 0. -1.
        994    1    1    2    0    0 -0.56241339485E+01 -0.36800131033E+00  0.16780485412E+01  0.17130096951E+03  0.17120000000E+03 0.  0.
        998    1    1    2    0    0 -0.95747066545E+01  0.22850509989E+01  0.14212510276E+04  0.14213202946E+04  0.10000000000E+02 0. -1.
</event>
<event>
 5    1  0.1020718E-008  0.3798801E+03  0.7957747E-01  0.3451681E+00
         13   -1    0    0    0    0  0.00000000000E+00  0.00000000000E+00  0.14999999963E+04  0.15000000000E+04  0.10566000000E+00 0. -1.
        994   -1    0    0    0    0 -0.00000000000E+00 -0.00000000000E+00  0.11368683772E-12  0.17120000000E+03  0.17120000000E+03 0.  0.
         13    1    1    2    0    0  0.27242411928E+02 -0.79282700190E+01  0.97023854217E+02  0.10108731832E+03  0.10566000000E+00 0. -1.
        994    1    1    2    0    0 -0.17817342500E+02 -0.16496264201E+02  0.61678834640E+01  0.17302331407E+03  0.17120000000E+03 0.  0.
        998    1    1    2    0    0 -0.94250694284E+01  0.24424534220E+02  0.13968082586E+04  0.13970893676E+04  0.10000000000E+02 0. -1.
</event>
<event>
 5    1  0.1020718E-008  0.3791012E+03  0.7957747E-01  0.3455082E+00
         13   -1    0    0    0    0  0.00000000000E+00  0.00000000000E+00  0.14999999963E+04  0.15000000000E+04  0.10566000000E+00 0.  1.
        994   -1    0    0    0    0 -0.00000000000E+00 -0.00000000000E+00  0.11368683772E-12  0.17120000000E+03  0.17120000000E+03 0.  0.
         13    1    1    2    0    0  0.13914759982E+02  0.49162599442E+01  0.21263859733E+02  0.25883451315E+02  0.10566000000E+00 0.  1.
        994    1    1    2    0    0 -0.17016858049E+02 -0.11613724258E+02  0.60119885804E+01  0.17253995495E+03  0.17120000000E+03 0.  0.
        998    1    1    2    0    0  0.31020980664E+01  0.66974643136E+01  0.14727241480E+04  0.14727765937E+04  0.10000000000E+02 0.  1.
</event>
<event>
 5    1  0.1020718E-008  0.3861191E+03  0.7957747E-01  0.3424940E+00
         13   -1    0    0    0    0  0.00000000000E+00  0.00000000000E+00  0.14999999963E+04  0.15000000000E+04  0.10566000000E+00 0.  1.
        994   -1    0    0    0    0 -0.00000000000E+00 -0.00000000000E+00  0.11368683772E-12  0.17120000000E+03  0.17120000000E+03 0.  0.
         13    1    1    2    0    0 -0.11025650369E+02 -0.45693171180E+00  0.62854288464E+02  0.63815722945E+02  0.10566000000E+00 0.  1.
        994    1    1    2    0    0 -0.40442532370E+01 -0.57339837664E+01  0.12368682227E+01  0.17134819636E+03  0.17120000000E+03 0.  0.
        998    1    1    2    0    0  0.15069903606E+02  0.61909154782E+01  0.14359088396E+04  0.14360360807E+04  0.10000000000E+02 0.  1.
</event>
<event>
 5    1  0.1020718E-008  0.3839288E+03  0.7957747E-01  0.3434228E+00
         13   -1    0    0    0    0  0.00000000000E+00  0.00000000000E+00  0.14999999963E+04  0.15000000000E+04  0.10566000000E+00 0.  1.
        994   -1    0    0    0    0 -0.00000000000E+00 -0.00000000000E+00  0.11368683772E-12  0.17120000000E+03  0.17120000000E+03 0.  0.
         13    1    1    2    0    0 -0.16559647798E+02 -0.50561367376E+01  0.69999105993E+02  0.72108754376E+02  0.10566000000E+00 0.  1.
        994    1    1    2    0    0  0.48811080975E+01  0.13028834867E+02  0.28019973843E+01  0.17178727236E+03  0.17120000000E+03 0.  0.
        998    1    1    2    0    0  0.11678539701E+02 -0.79726981289E+01  0.14271988929E+04  0.14273039733E+04  0.10000000000E+02 0.  1.
</event>
<event>
 5    1  0.1020718E-008  0.3781359E+03  0.7957747E-01  0.3459315E+00
         13   -1    0    0    0    0  0.00000000000E+00  0.00000000000E+00  0.14999999963E+04  0.15000000000E+04  0.10566000000E+00 0.  1.
        994   -1    0    0    0    0 -0.00000000000E+00 -0.00000000000E+00  0.11368683772E-12  0.17120000000E+03  0.17120000000E+03 0.  0.
         13    1    1    2    0    0  0.25303916658E+02 -0.19759128071E+02  0.10438709269E+03  0.10921257997E+03  0.10566000000E+00 0.  1.
        994    1    1    2    0    0 -0.26010030144E+02 -0.16091899025E+02  0.82300921149E+01  0.17410527074E+03  0.17120000000E+03 0.  0.
        998    1    1    2    0    0  0.70611348578E+00  0.35851027096E+02  0.13873828115E+04  0.13878821493E+04  0.10000000000E+02 0.  1.
</event>
<event>
 5    1  0.1087676E-008  0.3860131E+03  0.7957747E-01  0.3425387E+00
         13   -1    0    0    0    0  0.00000000000E+00  0.00000000000E+00  0.14999999963E+04  0.15000000000E+04  0.10566000000E+00 0.  1.
        994   -1    0    0    0    0 -0.00000000000E+00 -0.00000000000E+00  0.11368683772E-12  0.17120000000E+03  0.17120000000E+03 0.  0.
         13    1    1    2    0    0  0.12830834935E+01 -0.13484796650E+02  0.68187017352E+02  0.69519540730E+02  0.10566000000E+00 0.  1.
        994    1    1    2    0    0  0.57149838688E+01  0.34916641436E+02  0.52421116225E+01  0.17489640541E+03  0.17120000000E+03 0.  0.
        998    1    1    2    0    0 -0.69980673624E+01 -0.21431844786E+02  0.14265708673E+04  0.14267840539E+04  0.10000000000E+02 0.  1.
</event>
<event>
 5    1  0.1020718E-008  0.3848415E+03  0.7957747E-01  0.3430345E+00
         13   -1    0    0    0    0  0.00000000000E+00  0.00000000000E+00  0.14999999963E+04  0.15000000000E+04  0.10566000000E+00 0.  1.
        994   -1    0    0    0    0 -0.00000000000E+00 -0.00000000000E+00  0.11368683772E-12  0.17120000000E+03  0.17120000000E+03 0.  0.
         13    1    1    2    0    0 -0.69514180195E+01 -0.11732436133E+02  0.56722879319E+02  0.58339253273E+02  0.10566000000E+00 0.  1.
        994    1    1    2    0    0  0.56311176070E+01 -0.14262006043E+01  0.18199084624E+01  0.17130818895E+03  0.17120000000E+03 0.  0.
        998    1    1    2    0    0  0.13203004125E+01  0.13158636737E+02  0.14414572085E+04  0.14415525578E+04  0.10000000000E+02 0.  1.
</event>
<event>
 5    1  0.1020718E-008  0.3835487E+03  0.7957747E-01  0.3435851E+00
         13   -1    0    0    0    0  0.00000000000E+00  0.00000000000E+00  0.14999999963E+04  0.15000000000E+04  0.10566000000E+00 0.  1.
        994   -1    0    0    0    0 -0.00000000000E+00 -0.00000000000E+00  0.11368683772E-12  0.17120000000E+03  0.17120000000E+03 0.  0.
         13    1    1    2    0    0  0.16063179986E+02  0.75375143290E+01  0.63658742537E+02  0.66085448768E+02  0.10566000000E+00 0.  1.
        994    1    1    2    0    0 -0.12446522398E+02 -0.19196793351E+02  0.40838573339E+01  0.17277022511E+03  0.17120000000E+03 0.  0.
        998    1    1    2    0    0 -0.36166575886E+01  0.11659279022E+02  0.14322573964E+04  0.14323443261E+04  0.10000000000E+02 0.  1.
</event>
<event>
 5    1  0.1020718E-008  0.3861782E+03  0.7957747E-01  0.3424691E+00
         13   -1    0    0    0    0  0.00000000000E+00  0.00000000000E+00  0.14999999963E+04  0.15000000000E+04  0.10566000000E+00 0.  1.
        994   -1    0    0    0    0 -0.00000000000E+00 -0.00000000000E+00  0.11368683772E-12  0.17120000000E+03  0.17120000000E+03 0.  0.
         13    1    1    2    0    0  0.97520643061E+01  0.30954382980E+01  0.52134950874E+02  0.53129546988E+02  0.10566000000E+00 0.  1.
        994    1    1    2    0    0 -0.52511072493E+01  0.58652170142E+01  0.12493681326E+01  0.17138545976E+03  0.17120000000E+03 0.  0.
        998    1    1    2    0    0 -0.45009570569E+01 -0.89606553122E+01  0.14466156773E+04  0.14466849932E+04  0.10000000000E+02 0.  1.
</event>
<event>
 5    1  0.1020718E-008  0.3806174E+03  0.7957747E-01  0.3448474E+00
         13   -1    0    0    0    0  0.00000000000E+00  0.00000000000E+00  0.14999999963E+04  0.15000000000E+04  0.10566000000E+00 0. -1.
        994   -1    0    0    0    0 -0.00000000000E+00 -0.00000000000E+00  0.11368683772E-12  0.17120000000E+03  0.17120000000E+03 0.  0.
         13    1    1    2    0    0  0.14473834862E+02 -0.17546955160E+02  0.63831546416E+02  0.67763301372E+02  0.10566000000E+00 0. -1.
        994    1    1    2    0    0 -0.11592854277E+02  0.20811038420E+02  0.57173129266E+01  0.17294398300E+03  0.17120000000E+03 0.  0.
        998    1    1    2    0    0 -0.28809805846E+01 -0.32640832601E+01  0.14304511369E+04  0.14304927156E+04  0.10000000000E+02 0. -1.
</event>
<event>
 5    1  0.1020718E-008  0.4212923E+03  0.7957747E-01  0.3288971E+00
         13   -1    0    0    0    0  0.00000000000E+00  0.00000000000E+00  0.14999999963E+04  0.15000000000E+04  0.10566000000E+00 0. -1.
        994   -1    0    0    0    0 -0.00000000000E+00 -0.00000000000E+00  0.11368683772E-12  0.17120000000E+03  0.17120000000E+03 0.  0.
         13    1    1    2    0    0  0.27075712024E+02 -0.12497697908E+02 -0.62130006691E+01  0.30461437523E+02  0.10566000000E+00 0. -1.
        994    1    1    2    0    0 -0.29781533101E+02  0.76903838008E+01  0.45249546409E+02  0.17973047367E+03  0.17120000000E+03 0.  0.
        998    1    1    2    0    0  0.27058210771E+01  0.48073141077E+01  0.14609634505E+04  0.14610080888E+04  0.10000000000E+02 0. -1.
</event>
<event>
 5    1  0.1020718E-008  0.3858439E+03  0.7957747E-01  0.3426101E+00
         13   -1    0    0    0    0  0.00000000000E+00  0.00000000000E+00  0.14999999963E+04  0.15000000000E+04  0.10566000000E+00 0.  1.
        994   -1    0    0    0    0 -0.00000000000E+00 -0.00000000000E+00  0.11368683772E-12  0.17120000000E+03  0.17120000000E+03 0.  0.
         13    1    1    2    0    0  0.45401994501E+00 -0.14132462658E+02  0.82438360279E+02  0.83642256332E+02  0.10566000000E+00 0.  1.
        994    1    1    2    0    0 -0.30099546392E+01  0.10358837998E+02  0.15934546734E+01  0.17154691618E+03  0.17120000000E+03 0.  0.
        998    1    1    2    0    0  0.25559346942E+01  0.37736246593E+01  0.14159681813E+04  0.14160108275E+04  0.10000000000E+02 0.  1.
</event>
<event>
 5    1  0.1020718E-008  0.3847928E+03  0.7957747E-01  0.3430551E+00
         13   -1    0    0    0    0  0.00000000000E+00  0.00000000000E+00  0.14999999963E+04  0.15000000000E+04  0.10566000000E+00 0.  1.
        994   -1    0    0    0    0 -0.00000000000E+00 -0.00000000000E+00  0.11368683772E-12  0.17120000000E+03  0.17120000000E+03 0.  0.
         13    1    1    2    0    0 -0.18118525597E+02 -0.10121290364E+02  0.11652477001E+03  0.11835858515E+03  0.10566000000E+00 0.  1.
        994    1    1    2    0    0  0.21313946626E+02  0.46103038761E+01  0.32995305393E+01  0.17261479115E+03  0.17120000000E+03 0.  0.
        998    1    1    2    0    0 -0.31954210284E+01  0.55109864877E+01  0.13801756957E+04  0.13802266237E+04  0.10000000000E+02 0.  1.
</event>
<event>
 5    1  0.1020718E-008  0.3817324E+03  0.7957747E-01  0.3443650E+00
         13   -1    0    0    0    0  0.00000000000E+00  0.00000000000E+00  0.14999999963E+04  0.15000000000E+04  0.10566000000E+00 0. -1.
        994   -1    0    0    0    0 -0.00000000000E+00 -0.00000000000E+00  0.11368683772E-12  0.17120000000E+03  0.17120000000E+03 0.  0.
         13    1    1    2    0    0 -0.13164732385E+02 -0.22316150183E+02  0.10283402620E+03  0.10604795541E+03  0.10566000000E+00 0. -1.
        994    1    1    2    0    0  0.73742223347E+01  0.12148381873E+02  0.39327875216E+01  0.17183384170E+03  0.17120000000E+03 0.  0.
        998    1    1    2    0    0  0.57905100505E+01  0.10167768310E+02  0.13932331826E+04  0.13933182029E+04  0.10000000000E+02 0. -1.
</event>
<event>
 5    1  0.1020718E-008  0.3770937E+03  0.7957747E-01  0.3463912E+00
         13   -1    0    0    0    0  0.00000000000E+00  0.00000000000E+00  0.14999999963E+04  0.15000000000E+04  0.10566000000E+00 0. -1.
        994   -1    0    0    0    0 -0.00000000000E+00 -0.00000000000E+00  0.11368683772E-12  0.17120000000E+03  0.17120000000E+03 0.  0.
         13    1    1    2    0    0 -0.32816332671E+02 -0.29544979734E+02  0.15313946084E+03  0.15937855297E+03  0.10566000000E+00 0. -1.
        994    1    1    2    0    0  0.39792536779E+02  0.25935996727E+02  0.13260910844E+02  0.17816120135E+03  0.17120000000E+03 0.  0.
        998    1    1    2    0    0 -0.69762041087E+01  0.36089830070E+01  0.13335996246E+04  0.13336602457E+04  0.10000000000E+02 0. -1.
</event>
<event>
 5    1  0.1020718E-008  0.3775734E+03  0.7957747E-01  0.3461793E+00
         13   -1    0    0    0    0  0.00000000000E+00  0.00000000000E+00  0.14999999963E+04  0.15000000000E+04  0.10566000000E+00 0. -1.
        994   -1    0    0    0    0 -0.00000000000E+00 -0.00000000000E+00  0.11368683772E-12  0.17120000000E+03  0.17120000000E+03 0.  0.
         13    1    1    2    0    0 -0.14014463518E+03 -0.80794228977E+02  0.92498160804E+03  0.93902034727E+03  0.10566000000E+00 0. -1.
        994    1    1    2    0    0  0.13571091737E+03  0.76790308054E+02  0.92242987974E+02  0.24926374252E+03  0.17120000000E+03 0.  0.
        998    1    1    2    0    0  0.44337178153E+01  0.40039209236E+01  0.48277540027E+03  0.48291591022E+03  0.10000000000E+02 0.  1.
</event>
<event>
 5    1  0.1020718E-008  0.3769028E+03  0.7957747E-01  0.3464756E+00
         13   -1    0    0    0    0  0.00000000000E+00  0.00000000000E+00  0.14999999963E+04  0.15000000000E+04  0.10566000000E+00 0. -1.
        994   -1    0    0    0    0 -0.00000000000E+00 -0.00000000000E+00  0.11368683772E-12  0.17120000000E+03  0.17120000000E+03 0.  0.
         13    1    1    2    0    0  0.38690157217E+02 -0.36872331197E+02  0.15434393077E+03  0.16333571931E+03  0.10566000000E+00 0. -1.
        994    1    1    2    0    0 -0.16766280763E+03  0.83236891862E+01  0.10771203131E+03  0.26285247298E+03  0.17120000000E+03 0.  0.
        998    1    1    2    0    0  0.12897265041E+03  0.28548642011E+02  0.12379440342E+04  0.12450118077E+04  0.10000000000E+02 0. -1.
</event>
<event>
 5    1  0.1020718E-008  0.3823935E+03  0.7957747E-01  0.3440802E+00
         13   -1    0    0    0    0  0.00000000000E+00  0.00000000000E+00  0.14999999963E+04  0.15000000000E+04  0.10566000000E+00 0. -1.
        994   -1    0    0    0    0 -0.00000000000E+00 -0.00000000000E+00  0.11368683772E-12  0.17120000000E+03  0.17120000000E+03 0.  0.
         13    1    1    2    0    0  0.66009498019E+01  0.11313665226E+02  0.27931024853E+02  0.30850038453E+02  0.10566000000E+00 0. -1.
        994    1    1    2    0    0 -0.66588937664E+01 -0.99853014036E+01  0.34076663970E+01  0.17165401044E+03  0.17120000000E+03 0.  0.
        998    1    1    2    0    0  0.57943964479E-01 -0.13283638226E+01  0.14686613050E+04  0.14686959511E+04  0.10000000000E+02 0. -1.
</event>
<event>
 5    1  0.1020718E-008  0.3758103E+03  0.7957747E-01  0.3469607E+00
         13   -1    0    0    0    0  0.00000000000E+00  0.00000000000E+00  0.14999999963E+04  0.15000000000E+04  0.10566000000E+00 0. -1.
        994   -1    0    0    0    0 -0.00000000000E+00 -0.00000000000E+00  0.11368683772E-12  0.17120000000E+03  0.17120000000E+03 0.  0.
         13    1    1    2    0    0 -0.15319811972E+01  0.19852648764E+02  0.30518401354E+02  0.36439794381E+02  0.10566000000E+00 0. -1.
        994    1    1    2    0    0 -0.40620797249E+01  0.39471842482E+01  0.63719514202E+01  0.17141214228E+03  0.17120000000E+03 0.  0.
        998    1    1    2    0    0  0.55940609221E+01 -0.23799833012E+02  0.14631096435E+04  0.14633480633E+04  0.10000000000E+02 0. -1.
</event>
<event>
 5    1  0.1020718E-008  0.3801575E+03  0.7957747E-01  0.3450473E+00
         13   -1    0    0    0    0  0.00000000000E+00  0.00000000000E+00  0.14999999963E+04  0.15000000000E+04  0.10566000000E+00 0.  1.
        994   -1    0    0    0    0 -0.00000000000E+00 -0.00000000000E+00  0.11368683772E-12  0.17120000000E+03  0.17120000000E+03 0.  0.
         13    1    1    2    0    0 -0.43227971023E+02 -0.31273760923E+02  0.27099460992E+03  0.27619702274E+03  0.10566000000E+00 0.  1.
        994    1    1    2    0    0  0.55612409776E+02  0.26539329944E+02  0.16846333451E+02  0.18273017021E+03  0.17120000000E+03 0.  0.
        998    1    1    2    0    0 -0.12384438753E+02  0.47344309784E+01  0.12121590529E+04  0.12122728070E+04  0.10000000000E+02 0.  1.
</event>
<event>
 5    1  0.1020718E-008  0.3802348E+03  0.7957747E-01  0.3450137E+00
         13   -1    0    0    0    0  0.00000000000E+00  0.00000000000E+00  0.14999999963E+04  0.15000000000E+04  0.10566000000E+00 0.  1.
        994   -1    0    0    0    0 -0.00000000000E+00 -0.00000000000E+00  0.11368683772E-12  0.17120000000E+03  0.17120000000E+03 0.  0.
         13    1    1    2    0    0 -0.11515438217E+02  0.14320530851E+01  0.15632913458E+02  0.19469341042E+02  0.10566000000E+00 0.  1.
        994    1    1    2    0    0 -0.75755341679E+01 -0.67896751749E+01  0.43604256523E+01  0.17155740065E+03  0.17120000000E+03 0.  0.
        998    1    1    2    0    0  0.19090972385E+02  0.53576220898E+01  0.14800066572E+04  0.14801732583E+04  0.10000000000E+02 0.  1.
</event>
<event>
 5    1  0.1020718E-008  0.3855175E+03  0.7957747E-01  0.3427480E+00
         13   -1    0    0    0    0  0.00000000000E+00  0.00000000000E+00  0.14999999963E+04  0.15000000000E+04  0.10566000000E+00 0.  1.
        994   -1    0    0    0    0 -0.00000000000E+00 -0.00000000000E+00  0.11368683772E-12  0.17120000000E+03  0.17120000000E+03 0.  0.
         13    1    1    2    0    0  0.88285476288E+01 -0.84181564980E+01  0.55074310399E+02  0.56409214159E+02  0.10566000000E+00 0.  1.
        994    1    1    2    0    0  0.34924676287E+00  0.96475772442E+01  0.16794456291E+01  0.17148019786E+03  0.17120000000E+03 0.  0.
        998    1    1    2    0    0 -0.91777943917E+01 -0.12294207462E+01  0.14432462403E+04  0.14433105880E+04  0.10000000000E+02 0.  1.
</event>
<event>
 5    1  0.1020718E-008  0.3837312E+03  0.7957747E-01  0.3435071E+00
         13   -1    0    0    0    0  0.00000000000E+00  0.00000000000E+00  0.14999999963E+04  0.15000000000E+04  0.10566000000E+00 0.  1.
        994   -1    0    0    0    0 -0.00000000000E+00 -0.00000000000E+00  0.11368683772E-12  0.17120000000E+03  0.17120000000E+03 0.  0.
         13    1    1    2    0    0  0.19771655904E+02 -0.14443652131E+02  0.13405555733E+03  0.13627340562E+03  0.10566000000E+00 0.  1.
        994    1    1    2    0    0 -0.96036782838E+01  0.88279989105E+01  0.28234826146E+01  0.17171946965E+03  0.17120000000E+03 0.  0.
        998    1    1    2    0    0 -0.10167977620E+02  0.56156532206E+01  0.13631209563E+04  0.13632071247E+04  0.10000000000E+02 0.  1.
</event>
<event>
 5    1  0.1020718E-008  0.3792106E+03  0.7957747E-01  0.3454603E+00
         13   -1    0    0    0    0  0.00000000000E+00  0.00000000000E+00  0.14999999963E+04  0.15000000000E+04  0.10566000000E+00 0.  1.
        994   -1    0    0    0    0 -0.00000000000E+00 -0.00000000000E+00  0.11368683772E-12  0.17120000000E+03  0.17120000000E+03 0.  0.
         13    1    1    2    0    0 -0.27180806710E+02 -0.23569445325E+02  0.14725249952E+03  0.15158372203E+03  0.10566000000E+00 0.  1.
        994    1    1    2    0    0  0.27542711637E+02 -0.89107193845E+01  0.73459378824E+01  0.17378551346E+03  0.17120000000E+03 0.  0.
        998    1    1    2    0    0 -0.36190492703E+00  0.32480164709E+02  0.13454015589E+04  0.13458307645E+04  0.10000000000E+02 0.  1.
</event>
<event>
 5    1  0.1020718E-008  0.3845569E+03  0.7957747E-01  0.3431554E+00
         13   -1    0    0    0    0  0.00000000000E+00  0.00000000000E+00  0.14999999963E+04  0.15000000000E+04  0.10566000000E+00 0.  1.
        994   -1    0    0    0    0 -0.00000000000E+00 -0.00000000000E+00  0.11368683772E-12  0.17120000000E+03  0.17120000000E+03 0.  0.
         13    1    1    2    0    0  0.12173141423E+02  0.80005462106E+01  0.57390080928E+02  0.59210021657E+02  0.10566000000E+00 0.  1.
        994    1    1    2    0    0 -0.28527556904E+01 -0.11755937923E+02  0.23324156373E+01  0.17164271163E+03  0.17120000000E+03 0.  0.
        998    1    1    2    0    0 -0.93203857324E+01  0.37553917128E+01  0.14402774997E+04  0.14403472667E+04  0.10000000000E+02 0.  1.
</event>
<event>
 5    1  0.1020718E-008  0.3841916E+03  0.7957747E-01  0.3433108E+00
         13   -1    0    0    0    0  0.00000000000E+00  0.00000000000E+00  0.14999999963E+04  0.15000000000E+04  0.10566000000E+00 0.  1.
        994   -1    0    0    0    0 -0.00000000000E+00 -0.00000000000E+00  0.11368683772E-12  0.17120000000E+03  0.17120000000E+03 0.  0.
         13    1    1    2    0    0 -0.83650269343E+01  0.72293886699E+01  0.30133050701E+02  0.32097502157E+02  0.10566000000E+00 0.  1.
        994    1    1    2    0    0  0.77519607398E+01  0.48182704374E+01  0.23067481199E+01  0.17145865307E+03  0.17120000000E+03 0.  0.
        998    1    1    2    0    0  0.61306619446E+00 -0.12047659107E+02  0.14675601975E+04  0.14676438448E+04  0.10000000000E+02 0.  1.
</event>
<event>
 5    1  0.1020718E-008  0.3776538E+03  0.7957747E-01  0.3461438E+00
         13   -1    0    0    0    0  0.00000000000E+00  0.00000000000E+00  0.14999999963E+04  0.15000000000E+04  0.10566000000E+00 0.  1.
        994   -1    0    0    0    0 -0.00000000000E+00 -0.00000000000E+00  0.11368683772E-12  0.17120000000E+03  0.17120000000E+03 0.  0.
         13    1    1    2    0    0 -0.27366141269E+01  0.13462335936E+02  0.15860253813E+02  0.20982906395E+02  0.10566000000E+00 0.  1.
        994    1    1    2    0    0 -0.28628791614E+01  0.15379920004E+01  0.53577805921E+01  0.17131464418E+03  0.17120000000E+03 0.  0.
        998    1    1    2    0    0  0.55994932883E+01 -0.15000327936E+02  0.14787819619E+04  0.14789024494E+04  0.10000000000E+02 0.  1.
</event>
<event>
 5    1  0.1020718E-008  0.3758642E+03  0.7957747E-01  0.3469367E+00
         13   -1    0    0    0    0  0.00000000000E+00  0.00000000000E+00  0.14999999963E+04  0.15000000000E+04  0.10566000000E+00 0. -1.
        994   -1    0    0    0    0 -0.00000000000E+00 -0.00000000000E+00  0.11368683772E-12  0.17120000000E+03  0.17120000000E+03 0.  0.
         13    1    1    2    0    0  0.13995984561E+03  0.14430590037E+03  0.83632581900E+03  0.86014756754E+03  0.10566000000E+00 0. -1.
        994    1    1    2    0    0 -0.15812343192E+03 -0.14549249799E+03  0.18339507990E+03  0.33032451018E+03  0.17120000000E+03 0.  0.
        998    1    1    2    0    0  0.18163586306E+02  0.11865976138E+01  0.48027909738E+03  0.48072792228E+03  0.10000000000E+02 0.  0.
</event>
<event>
 5    1  0.1020718E-008  0.3686006E+03  0.7957747E-01  0.3502347E+00
         13   -1    0    0    0    0  0.00000000000E+00  0.00000000000E+00  0.14999999963E+04  0.15000000000E+04  0.10566000000E+00 0.  1.
        994   -1    0    0    0    0 -0.00000000000E+00 -0.00000000000E+00  0.11368683772E-12  0.17120000000E+03  0.17120000000E+03 0.  0.
         13    1    1    2    0    0 -0.21711465103E+02 -0.78531503922E+01  0.21496215702E+02  0.31546127203E+02  0.10566000000E+00 0.  1.
        994    1    1    2    0    0  0.22270121779E+02  0.57034115808E+01  0.12041464987E+02  0.17315577988E+03  0.17120000000E+03 0.  0.
        998    1    1    2    0    0 -0.55865667651E+00  0.21497388114E+01  0.14664623156E+04  0.14664980929E+04  0.10000000000E+02 0.  1.
</event>
<event>
 5    1  0.1020718E-008  0.3789084E+03  0.7957747E-01  0.3455925E+00
         13   -1    0    0    0    0  0.00000000000E+00  0.00000000000E+00  0.14999999963E+04  0.15000000000E+04  0.10566000000E+00 0.  1.
        994   -1    0    0    0    0 -0.00000000000E+00 -0.00000000000E+00  0.11368683772E-12  0.17120000000E+03  0.17120000000E+03 0.  0.
         13    1    1    2    0    0 -0.29033624224E+02 -0.43658894679E+02  0.25350574724E+03  0.25887105955E+03  0.10566000000E+00 0.  1.
        994    1    1    2    0    0  0.20536763818E+02  0.43983143759E+02  0.12631515395E+02  0.17839638669E+03  0.17120000000E+03 0.  0.
        998    1    1    2    0    0  0.84968604060E+01 -0.32424908055E+00  0.12338627336E+04  0.12339325538E+04  0.10000000000E+02 0.  1.
</event>
<event>
 5    1  0.1020718E-008  0.3720302E+03  0.7957747E-01  0.3486612E+00
         13   -1    0    0    0    0  0.00000000000E+00  0.00000000000E+00  0.14999999963E+04  0.15000000000E+04  0.10566000000E+00 0.  1.
        994   -1    0    0    0    0 -0.00000000000E+00 -0.00000000000E+00  0.11368683772E-12  0.17120000000E+03  0.17120000000E+03 0.  0.
         13    1    1    2    0    0 -0.14111965240E+02 -0.22079287521E+02  0.37574701498E+02  0.45809517102E+02  0.10566000000E+00 0.  1.
        994    1    1    2    0    0  0.11779451876E+02  0.24362080259E+02  0.10730180487E+02  0.17365725788E+03  0.17120000000E+03 0.  0.
        998    1    1    2    0    0  0.23325133643E+01 -0.22827927380E+01  0.14516951143E+04  0.14517332250E+04  0.10000000000E+02 0.  1.
</event>
<event>
 5    1  0.1020718E-008  0.3825831E+03  0.7957747E-01  0.3439988E+00
         13   -1    0    0    0    0  0.00000000000E+00  0.00000000000E+00  0.14999999963E+04  0.15000000000E+04  0.10566000000E+00 0. -1.
        994   -1    0    0    0    0 -0.00000000000E+00 -0.00000000000E+00  0.11368683772E-12  0.17120000000E+03  0.17120000000E+03 0.  0.
         13    1    1    2    0    0 -0.21045586917E+02 -0.12871737064E+02  0.10165365358E+03  0.10460437273E+03  0.10566000000E+00 0. -1.
        994    1    1    2    0    0  0.14078505664E+02  0.20882139744E+02  0.49400433966E+01  0.17311300388E+03  0.17120000000E+03 0.  0.
        998    1    1    2    0    0  0.69670812531E+01 -0.80104026795E+01  0.13934062993E+04  0.13934826234E+04  0.10000000000E+02 0. -1.
</event>
<event>
 5    1  0.1020718E-008  0.3702764E+03  0.7957747E-01  0.3494622E+00
         13   -1    0    0    0    0  0.00000000000E+00  0.00000000000E+00  0.14999999963E+04  0.15000000000E+04  0.10566000000E+00 0.  1.
        994   -1    0    0    0    0 -0.00000000000E+00 -0.00000000000E+00  0.11368683772E-12  0.17120000000E+03  0.17120000000E+03 0.  0.
         13    1    1    2    0    0 -0.41225054685E+02  0.13545867323E+02  0.10083241843E+03  0.10977332748E+03  0.10566000000E+00 0.  1.
        994    1    1    2    0    0  0.16397567616E+02 -0.30056940995E+02  0.13185015775E+02  0.17508736267E+03  0.17120000000E+03 0.  0.
        998    1    1    2    0    0  0.24827487069E+02  0.16511073672E+02  0.13859825621E+04  0.13863393099E+04  0.10000000000E+02 0.  1.
</event>
<event>
 5    1  0.1074492E-008  0.3862958E+03  0.7957747E-01  0.3424195E+00
         13   -1    0    0    0    0  0.00000000000E+00  0.00000000000E+00  0.14999999963E+04  0.15000000000E+04  0.10566000000E+00 0.  1.
        994   -1    0    0    0    0 -0.00000000000E+00 -0.00000000000E+00  0.11368683772E-12  0.17120000000E+03  0.17120000000E+03 0.  0.
         13    1    1    2    0    0 -0.95622625508E+01  0.40902657016E+01  0.53919407885E+02  0.54913394079E+02  0.10566000000E+00 0.  1.
        994    1    1    2    0    0  0.12747004360E+02  0.68394379464E+00  0.15219979421E+01  0.17168200365E+03  0.17120000000E+03 0.  0.
        998    1    1    2    0    0 -0.31847418090E+01 -0.47742094962E+01  0.14445585905E+04  0.14446046023E+04  0.10000000000E+02 0.  1.
</event>
<event>
 5    1  0.1020718E-008  0.3704172E+03  0.7957747E-01  0.3493976E+00
         13   -1    0    0    0    0  0.00000000000E+00  0.00000000000E+00  0.14999999963E+04  0.15000000000E+04  0.10566000000E+00 0. -1.
        994   -1    0    0    0    0 -0.00000000000E+00 -0.00000000000E+00  0.11368683772E-12  0.17120000000E+03  0.17120000000E+03 0.  0.
         13    1    1    2    0    0  0.24805364551E+02 -0.30145267768E+02  0.82071292278E+02  0.90883174788E+02  0.10566000000E+00 0. -1.
        994    1    1    2    0    0 -0.16111761270E+02  0.13694335194E+02  0.10596466032E+02  0.17282606505E+03  0.17120000000E+03 0.  0.
        998    1    1    2    0    0 -0.86936032809E+01  0.16450932574E+02  0.14073322380E+04  0.14074907602E+04  0.10000000000E+02 0. -1.
</event>
<event>
 5    1  0.1020718E-008  0.3775178E+03  0.7957747E-01  0.3462038E+00
         13   -1    0    0    0    0  0.00000000000E+00  0.00000000000E+00  0.14999999963E+04  0.15000000000E+04  0.10566000000E+00 0.  1.
        994   -1    0    0    0    0 -0.00000000000E+00 -0.00000000000E+00  0.11368683772E-12  0.17120000000E+03  0.17120000000E+03 0.  0.
         13    1    1    2    0    0  0.54193887990E+01  0.50405078718E+02  0.28137494686E+03  0.28590542775E+03  0.10566000000E+00 0.  1.
        994    1    1    2    0    0  0.38961937367E+01 -0.83593531250E+01  0.56781852511E+01  0.17154224231E+03  0.17120000000E+03 0.  0.
        998    1    1    2    0    0 -0.93155825357E+01 -0.42045725592E+02  0.12129468642E+04  0.12137523299E+04  0.10000000000E+02 0.  1.
</event>
<event>
 5    1  0.1020718E-008  0.3832267E+03  0.7957747E-01  0.3437228E+00
         13   -1    0    0    0    0  0.00000000000E+00  0.00000000000E+00  0.14999999963E+04  0.15000000000E+04  0.10566000000E+00 0.  1.
        994   -1    0    0    0    0 -0.00000000000E+00 -0.00000000000E+00  0.11368683772E-12  0.17120000000E+03  0.17120000000E+03 0.  0.
         13    1    1    2    0    0  0.19737997095E+02  0.22770122389E+02  0.17170266369E+03  0.17432694251E+03  0.10566000000E+00 0.  1.
        994    1    1    2    0    0 -0.20262628473E+02 -0.13424888516E+02  0.44697553510E+01  0.17297462374E+03  0.17120000000E+03 0.  0.
        998    1    1    2    0    0  0.52463137840E+00 -0.93452338723E+01  0.13238275772E+04  0.13238984338E+04  0.10000000000E+02 0.  1.
</event>
<event>
 5    1  0.1020718E-008  0.3848618E+03  0.7957747E-01  0.3430259E+00
         13   -1    0    0    0    0  0.00000000000E+00  0.00000000000E+00  0.14999999963E+04  0.15000000000E+04  0.10566000000E+00 0. -1.
        994   -1    0    0    0    0 -0.00000000000E+00 -0.00000000000E+00  0.11368683772E-12  0.17120000000E+03  0.17120000000E+03 0.  0.
         13    1    1    2    0    0 -0.19562852009E+02 -0.15850504574E+01  0.10596591520E+03  0.10776828806E+03  0.10566000000E+00 0. -1.
        994    1    1    2    0    0  0.21260717319E+02 -0.21921298459E+01  0.32032395759E+01  0.17255875602E+03  0.17120000000E+03 0.  0.
        998    1    1    2    0    0 -0.16978653093E+01  0.37771803033E+01  0.13908308415E+04  0.13908729559E+04  0.10000000000E+02 0. -1.
</event>
<event>
 5    1  0.1020718E-008  0.3786861E+03  0.7957747E-01  0.3456899E+00
         13   -1    0    0    0    0  0.00000000000E+00  0.00000000000E+00  0.14999999963E+04  0.15000000000E+04  0.10566000000E+00 0. -1.
        994   -1    0    0    0    0 -0.00000000000E+00 -0.00000000000E+00  0.11368683772E-12  0.17120000000E+03  0.17120000000E+03 0.  0.
         13    1    1    2    0    0 -0.16181151266E+02 -0.20758474671E+01  0.25595231400E+02  0.30352361251E+02  0.10566000000E+00 0. -1.
        994    1    1    2    0    0  0.12686877522E+02  0.74743718696E+01  0.55261581125E+01  0.17192091647E+03  0.17120000000E+03 0.  0.
        998    1    1    2    0    0  0.34942737447E+01 -0.53985244025E+01  0.14688786068E+04  0.14689267223E+04  0.10000000000E+02 0. -1.
</event>
<event>
 5    1  0.1020718E-008  0.3840366E+03  0.7957747E-01  0.3433769E+00
         13   -1    0    0    0    0  0.00000000000E+00  0.00000000000E+00  0.14999999963E+04  0.15000000000E+04  0.10566000000E+00 0. -1.
        994   -1    0    0    0    0 -0.00000000000E+00 -0.00000000000E+00  0.11368683772E-12  0.17120000000E+03  0.17120000000E+03 0.  0.
         13    1    1    2    0    0 -0.98899013594E+01 -0.32787554109E+01  0.26503970622E+02  0.28478623715E+02  0.10566000000E+00 0. -1.
        994    1    1    2    0    0 -0.30298698253E+01 -0.13439078748E+02  0.27355736452E+01  0.17177517956E+03  0.17120000000E+03 0.  0.
        998    1    1    2    0    0  0.12919771185E+02  0.16717834159E+02  0.14707604520E+04  0.14709461967E+04  0.10000000000E+02 0. -1.
</event>
<event>
 5    1  0.1020718E-008  0.3775860E+03  0.7957747E-01  0.3461737E+00
         13   -1    0    0    0    0  0.00000000000E+00  0.00000000000E+00  0.14999999963E+04  0.15000000000E+04  0.10566000000E+00 0. -1.
        994   -1    0    0    0    0 -0.00000000000E+00 -0.00000000000E+00  0.11368683772E-12  0.17120000000E+03  0.17120000000E+03 0.  0.
         13    1    1    2    0    0  0.77904478584E+01  0.29041425262E+02  0.96963206192E+02  0.10151832336E+03  0.10566000000E+00 0. -1.
        994    1    1    2    0    0 -0.18643731084E+01  0.17557056178E+02  0.64078748277E+01  0.17222725385E+03  0.17120000000E+03 0.  0.
        998    1    1    2    0    0 -0.59260747500E+01 -0.46598481441E+02  0.13966289153E+04  0.13974544228E+04  0.10000000000E+02 0. -1.
</event>
<event>
 5    1  0.1020718E-008  0.2644282E+03  0.7957747E-01  0.4188026E+00
         13   -1    0    0    0    0  0.00000000000E+00  0.00000000000E+00  0.14999999963E+04  0.15000000000E+04  0.10566000000E+00 0.  1.
        994   -1    0    0    0    0 -0.00000000000E+00 -0.00000000000E+00  0.11368683772E-12  0.17120000000E+03  0.17120000000E+03 0.  0.
         13    1    1    2    0    0  0.11612773426E+03 -0.24507506431E+03  0.72287628567E+03  0.77207355437E+03  0.10566000000E+00 0.  1.
        994    1    1    2    0    0 -0.19701017417E+02  0.63405385874E+02  0.14398623278E+03  0.23334491269E+03  0.17120000000E+03 0.  0.
        998    1    1    2    0    0 -0.96426716845E+02  0.18166967843E+03  0.63313747783E+03  0.66578153295E+03  0.10000000000E+02 0.  1.
</event>
<event>
 5    1  0.1020718E-008  0.3762226E+03  0.7957747E-01  0.3467773E+00
         13   -1    0    0    0    0  0.00000000000E+00  0.00000000000E+00  0.14999999963E+04  0.15000000000E+04  0.10566000000E+00 0. -1.
        994   -1    0    0    0    0 -0.00000000000E+00 -0.00000000000E+00  0.11368683772E-12  0.17120000000E+03  0.17120000000E+03 0.  0.
         13    1    1    2    0    0  0.44726999056E+02  0.89369258348E+01  0.15014492587E+03  0.15691998921E+03  0.10566000000E+00 0. -1.
        994    1    1    2    0    0 -0.50093798075E+02 -0.49873860619E+01  0.14679977304E+02  0.17905084294E+03  0.17120000000E+03 0.  0.
        998    1    1    2    0    0  0.53667990193E+01 -0.39495397728E+01  0.13351750931E+04  0.13352291678E+04  0.10000000000E+02 0. -1.
</event>
<event>
 5    1  0.1020718E-008  0.3798575E+03  0.7957747E-01  0.3451779E+00
         13   -1    0    0    0    0  0.00000000000E+00  0.00000000000E+00  0.14999999963E+04  0.15000000000E+04  0.10566000000E+00 0.  1.
        994   -1    0    0    0    0 -0.00000000000E+00 -0.00000000000E+00  0.11368683772E-12  0.17120000000E+03  0.17120000000E+03 0.  0.
         13    1    1    2    0    0 -0.11314113811E+02  0.23628123610E+03  0.76435218366E+03  0.80011943080E+03  0.10566000000E+00 0.  1.
        994    1    1    2    0    0  0.50322536155E+02 -0.28158199871E+03  0.36027019456E+03  0.49084094443E+03  0.17120000000E+03 0.  0.
        998    1    1    2    0    0 -0.39008422344E+02  0.45300762610E+02  0.37537761806E+03  0.38023962477E+03  0.10000000000E+02 0. -1.
</event>
<event>
 5    1  0.1020718E-008  0.3709056E+03  0.7957747E-01  0.3491739E+00
         13   -1    0    0    0    0  0.00000000000E+00  0.00000000000E+00  0.14999999963E+04  0.15000000000E+04  0.10566000000E+00 0.  1.
        994   -1    0    0    0    0 -0.00000000000E+00 -0.00000000000E+00  0.11368683772E-12  0.17120000000E+03  0.17120000000E+03 0.  0.
         13    1    1    2    0    0  0.56242148398E+02 -0.27055200445E+02  0.19523370678E+03  0.20496676451E+03  0.10566000000E+00 0.  1.
        994    1    1    2    0    0 -0.51459023466E+02  0.27434456608E+02  0.20610987190E+02  0.18203003406E+03  0.17120000000E+03 0.  0.
        998    1    1    2    0    0 -0.47831249321E+01 -0.37925616261E+00  0.12841553023E+04  0.12842032014E+04  0.10000000000E+02 0.  1.
</event>
<event>
 5    1  0.1042751E-008  0.3861351E+03  0.7957747E-01  0.3424872E+00
         13   -1    0    0    0    0  0.00000000000E+00  0.00000000000E+00  0.14999999963E+04  0.15000000000E+04  0.10566000000E+00 0. -1.
        994   -1    0    0    0    0 -0.00000000000E+00 -0.00000000000E+00  0.11368683772E-12  0.17120000000E+03  0.17120000000E+03 0.  0.
         13    1    1    2    0    0  0.11269673094E+02 -0.44213592538E+01  0.67045465774E+02  0.68129726215E+02  0.10566000000E+00 0. -1.
        994    1    1    2    0    0 -0.13604578280E+02  0.47751467261E+00  0.16750604037E+01  0.17174853245E+03  0.17120000000E+03 0.  0.
        998    1    1    2    0    0  0.23349051867E+01  0.39438445812E+01  0.14312794701E+04  0.14313217413E+04  0.10000000000E+02 0. -1.
</event>
<event>
 5    1  0.1020718E-008  0.3762141E+03  0.7957747E-01  0.3467811E+00
         13   -1    0    0    0    0  0.00000000000E+00  0.00000000000E+00  0.14999999963E+04  0.15000000000E+04  0.10566000000E+00 0. -1.
        994   -1    0    0    0    0 -0.00000000000E+00 -0.00000000000E+00  0.11368683772E-12  0.17120000000E+03  0.17120000000E+03 0.  0.
         13    1    1    2    0    0  0.12211773864E+02  0.35978475831E+02  0.44916624225E+02  0.58831049964E+02  0.10566000000E+00 0. -1.
        994    1    1    2    0    0 -0.13236750166E+02 -0.26073748431E+02  0.17324919774E+02  0.17454124085E+03  0.17120000000E+03 0.  0.
        998    1    1    2    0    0  0.10249763025E+01 -0.99047274007E+01  0.14377584523E+04  0.14378277092E+04  0.10000000000E+02 0. -1.
</event>
<event>
 5    1  0.1020718E-008  0.3833130E+03  0.7957747E-01  0.3436859E+00
         13   -1    0    0    0    0  0.00000000000E+00  0.00000000000E+00  0.14999999963E+04  0.15000000000E+04  0.10566000000E+00 0.  1.
        994   -1    0    0    0    0 -0.00000000000E+00 -0.00000000000E+00  0.11368683772E-12  0.17120000000E+03  0.17120000000E+03 0.  0.
         13    1    1    2    0    0 -0.35310847792E+01  0.19841247022E+02  0.83867644876E+02  0.86255067470E+02  0.10566000000E+00 0.  1.
        994    1    1    2    0    0 -0.78803870648E+01 -0.97086472996E+01  0.29872350114E+01  0.17168203722E+03  0.17120000000E+03 0.  0.
        998    1    1    2    0    0  0.11411471844E+02 -0.10132599722E+02  0.14131451164E+04  0.14132628953E+04  0.10000000000E+02 0.  1.
</event>
<event>
 5    1  0.1020718E-008  0.3781546E+03  0.7957747E-01  0.3459233E+00
         13   -1    0    0    0    0  0.00000000000E+00  0.00000000000E+00  0.14999999963E+04  0.15000000000E+04  0.10566000000E+00 0. -1.
        994   -1    0    0    0    0 -0.00000000000E+00 -0.00000000000E+00  0.11368683772E-12  0.17120000000E+03  0.17120000000E+03 0.  0.
         13    1    1    2    0    0  0.42213764551E+02 -0.10079920218E+03  0.24934431978E+03  0.27224085301E+03  0.10566000000E+00 0. -1.
        994    1    1    2    0    0 -0.70390700967E+02  0.13562212773E+03  0.10494814228E+03  0.25233264728E+03  0.17120000000E+03 0.  0.
        998    1    1    2    0    0  0.28176936416E+02 -0.34822925553E+02  0.11457075342E+04  0.11466264997E+04  0.10000000000E+02 0. -1.
</event>
<event>
 5    1  0.1020718E-008  0.3776271E+03  0.7957747E-01  0.3461556E+00
         13   -1    0    0    0    0  0.00000000000E+00  0.00000000000E+00  0.14999999963E+04  0.15000000000E+04  0.10566000000E+00 0.  1.
        994   -1    0    0    0    0 -0.00000000000E+00 -0.00000000000E+00  0.11368683772E-12  0.17120000000E+03  0.17120000000E+03 0.  0.
         13    1    1    2    0    0 -0.16382424886E+02  0.64411044828E+01  0.26599495469E+02  0.31896959030E+02  0.10566000000E+00 0.  1.
        994    1    1    2    0    0  0.15764254071E+02 -0.16683138135E+01  0.61829235129E+01  0.17204349311E+03  0.17120000000E+03 0.  0.
        998    1    1    2    0    0  0.61817081532E+00 -0.47727906693E+01  0.14672175773E+04  0.14672595479E+04  0.10000000000E+02 0.  1.
</event>
<event>
 5    1  0.1020718E-008  0.3836886E+03  0.7957747E-01  0.3435253E+00
         13   -1    0    0    0    0  0.00000000000E+00  0.00000000000E+00  0.14999999963E+04  0.15000000000E+04  0.10566000000E+00 0. -1.
        994   -1    0    0    0    0 -0.00000000000E+00 -0.00000000000E+00  0.11368683772E-12  0.17120000000E+03  0.17120000000E+03 0.  0.
         13    1    1    2    0    0 -0.14075938943E+02  0.18507456172E+01  0.43133316432E+02  0.45409816856E+02  0.10566000000E+00 0. -1.
        994    1    1    2    0    0  0.10853554696E+02 -0.67531873567E+01  0.28224897841E+01  0.17169977180E+03  0.17120000000E+03 0.  0.
        998    1    1    2    0    0  0.32223842463E+01  0.49024417395E+01  0.14540441901E+04  0.14540904113E+04  0.10000000000E+02 0. -1.
</event>
<event>
 5    1  0.1020718E-008  0.3760883E+03  0.7957747E-01  0.3468370E+00
         13   -1    0    0    0    0  0.00000000000E+00  0.00000000000E+00  0.14999999963E+04  0.15000000000E+04  0.10566000000E+00 0. -1.
        994   -1    0    0    0    0 -0.00000000000E+00 -0.00000000000E+00  0.11368683772E-12  0.17120000000E+03  0.17120000000E+03 0.  0.
         13    1    1    2    0    0 -0.17325321436E+02 -0.20196039933E+02  0.55723986260E+02  0.61751280153E+02  0.10566000000E+00 0. -1.
        994    1    1    2    0    0  0.10456812258E+02  0.12168626772E+02  0.69932218454E+01  0.17209231695E+03  0.17120000000E+03 0.  0.
        998    1    1    2    0    0  0.68685091781E+01  0.80274131602E+01  0.14372827882E+04  0.14373564029E+04  0.10000000000E+02 0. -1.
</event>
<event>
 5    1  0.1020718E-008  0.3801064E+03  0.7957747E-01  0.3450695E+00
         13   -1    0    0    0    0  0.00000000000E+00  0.00000000000E+00  0.14999999963E+04  0.15000000000E+04  0.10566000000E+00 0. -1.
        994   -1    0    0    0    0 -0.00000000000E+00 -0.00000000000E+00  0.11368683772E-12  0.17120000000E+03  0.17120000000E+03 0.  0.
         13    1    1    2    0    0 -0.14524316255E-01  0.18282891979E+02  0.42489336046E+02  0.46256017898E+02  0.10566000000E+00 0. -1.
        994    1    1    2    0    0 -0.60362705479E+01  0.91019350511E+01  0.44781679448E+01  0.17160645609E+03  0.17120000000E+03 0.  0.
        998    1    1    2    0    0  0.60507948642E+01 -0.27384827030E+02  0.14530324923E+04  0.14533375260E+04  0.10000000000E+02 0. -1.
</event>
<event>
 5    1  0.1020718E-008  0.3857224E+03  0.7957747E-01  0.3426614E+00
         13   -1    0    0    0    0  0.00000000000E+00  0.00000000000E+00  0.14999999963E+04  0.15000000000E+04  0.10566000000E+00 0. -1.
        994   -1    0    0    0    0 -0.00000000000E+00 -0.00000000000E+00  0.11368683772E-12  0.17120000000E+03  0.17120000000E+03 0.  0.
         13    1    1    2    0    0  0.54696847826E+01 -0.11831636469E+02  0.69173136296E+02  0.70390617430E+02  0.10566000000E+00 0. -1.
        994    1    1    2    0    0 -0.71142510092E+01  0.22064803722E+01  0.14539366224E+01  0.17136812730E+03  0.17120000000E+03 0.  0.
        998    1    1    2    0    0  0.16445662266E+01  0.96251560968E+01  0.14293729234E+04  0.14294412553E+04  0.10000000000E+02 0. -1.
</event>
<event>
 5    1  0.1020718E-008  0.3826412E+03  0.7957747E-01  0.3439738E+00
         13   -1    0    0    0    0  0.00000000000E+00  0.00000000000E+00  0.14999999963E+04  0.15000000000E+04  0.10566000000E+00 0.  1.
        994   -1    0    0    0    0 -0.00000000000E+00 -0.00000000000E+00  0.11368683772E-12  0.17120000000E+03  0.17120000000E+03 0.  0.
         13    1    1    2    0    0 -0.49159677848E+01 -0.23870232192E+02  0.11029135556E+03  0.11295197652E+03  0.10566000000E+00 0.  1.
        994    1    1    2    0    0 -0.81996604729E+01  0.93161075143E+01  0.33163854722E+01  0.17168128233E+03  0.17120000000E+03 0.  0.
        998    1    1    2    0    0  0.13115628258E+02  0.14554124678E+02  0.13863922552E+04  0.13865667411E+04  0.10000000000E+02 0.  1.
</event>
<event>
 5    1  0.1020718E-008  0.3808612E+03  0.7957747E-01  0.3447417E+00
         13   -1    0    0    0    0  0.00000000000E+00  0.00000000000E+00  0.14999999963E+04  0.15000000000E+04  0.10566000000E+00 0. -1.
        994   -1    0    0    0    0 -0.00000000000E+00 -0.00000000000E+00  0.11368683772E-12  0.17120000000E+03  0.17120000000E+03 0.  0.
         13    1    1    2    0    0  0.63944233139E+01  0.11084945870E+02  0.20534746309E+02  0.24196108044E+02  0.10566000000E+00 0. -1.
        994    1    1    2    0    0 -0.51558379495E+01 -0.91860807076E+01  0.40690251173E+01  0.17157203650E+03  0.17120000000E+03 0.  0.
        998    1    1    2    0    0 -0.12385853644E+01 -0.18988651627E+01  0.14753962249E+04  0.14754318555E+04  0.10000000000E+02 0. -1.
</event>
<event>
 5    1  0.1020718E-008  0.3835898E+03  0.7957747E-01  0.3435675E+00
         13   -1    0    0    0    0  0.00000000000E+00  0.00000000000E+00  0.14999999963E+04  0.15000000000E+04  0.10566000000E+00 0.  1.
        994   -1    0    0    0    0 -0.00000000000E+00 -0.00000000000E+00  0.11368683772E-12  0.17120000000E+03  0.17120000000E+03 0.  0.
         13    1    1    2    0    0  0.15187684664E+02 -0.13015603183E+01  0.47419906296E+02  0.49809823347E+02  0.10566000000E+00 0.  1.
        994    1    1    2    0    0 -0.18438024822E+02 -0.27299887885E+01  0.34804914353E+01  0.17224682122E+03  0.17120000000E+03 0.  0.
        998    1    1    2    0    0  0.32503401578E+01  0.40315491068E+01  0.14490995985E+04  0.14491433554E+04  0.10000000000E+02 0.  1.
</event>
<event>
 5    1  0.1020718E-008  0.3723159E+03  0.7957747E-01  0.3485315E+00
         13   -1    0    0    0    0  0.00000000000E+00  0.00000000000E+00  0.14999999963E+04  0.15000000000E+04  0.10566000000E+00 0.  1.
        994   -1    0    0    0    0 -0.00000000000E+00 -0.00000000000E+00  0.11368683772E-12  0.17120000000E+03  0.17120000000E+03 0.  0.
         13    1    1    2    0    0 -0.15822290948E+02 -0.41588857196E+01  0.12893593184E+02  0.20830197563E+02  0.10566000000E+00 0.  1.
        994    1    1    2    0    0  0.16486710639E+02  0.24862465262E+01  0.90177202941E+01  0.17224619685E+03  0.17120000000E+03 0.  0.
        998    1    1    2    0    0 -0.66441969150E+00  0.16726391934E+01  0.14780886828E+04  0.14781236056E+04  0.10000000000E+02 0.  1.
</event>
<event>
 5    1  0.1020718E-008  0.3834341E+03  0.7957747E-01  0.3436340E+00
         13   -1    0    0    0    0  0.00000000000E+00  0.00000000000E+00  0.14999999963E+04  0.15000000000E+04  0.10566000000E+00 0.  1.
        994   -1    0    0    0    0 -0.00000000000E+00 -0.00000000000E+00  0.11368683772E-12  0.17120000000E+03  0.17120000000E+03 0.  0.
         13    1    1    2    0    0  0.20094899336E+02 -0.69795661337E+01  0.93696518349E+02  0.96081049315E+02  0.10566000000E+00 0.  1.
        994    1    1    2    0    0 -0.13925688969E+02 -0.14449130593E+01  0.30577327001E+01  0.17179872618E+03  0.17120000000E+03 0.  0.
        998    1    1    2    0    0 -0.61692103667E+01  0.84244791930E+01  0.14032457452E+04  0.14033202245E+04  0.10000000000E+02 0.  1.
</event>
<event>
 5    1  0.1020718E-008  0.3805678E+03  0.7957747E-01  0.3448690E+00
         13   -1    0    0    0    0  0.00000000000E+00  0.00000000000E+00  0.14999999963E+04  0.15000000000E+04  0.10566000000E+00 0. -1.
        994   -1    0    0    0    0 -0.00000000000E+00 -0.00000000000E+00  0.11368683772E-12  0.17120000000E+03  0.17120000000E+03 0.  0.
         13    1    1    2    0    0  0.98353845427E+01 -0.36605642771E+02  0.22301102079E+03  0.22620927131E+03  0.10566000000E+00 0. -1.
        994    1    1    2    0    0 -0.49611792901E+01 -0.13529277272E+01  0.39350191882E+01  0.17132240977E+03  0.17120000000E+03 0.  0.
        998    1    1    2    0    0 -0.48742052526E+01  0.37958570498E+02  0.12730539563E+04  0.12736683189E+04  0.10000000000E+02 0. -1.
</event>
<event>
 5    1  0.1020718E-008  0.3816474E+03  0.7957747E-01  0.3444016E+00
         13   -1    0    0    0    0  0.00000000000E+00  0.00000000000E+00  0.14999999963E+04  0.15000000000E+04  0.10566000000E+00 0.  1.
        994   -1    0    0    0    0 -0.00000000000E+00 -0.00000000000E+00  0.11368683772E-12  0.17120000000E+03  0.17120000000E+03 0.  0.
         13    1    1    2    0    0  0.75361185327E+02 -0.19903267526E+03  0.94353171105E+03  0.96723596655E+03  0.10566000000E+00 0.  1.
        994    1    1    2    0    0 -0.83113411857E+02  0.21627540558E+03  0.20917968793E+03  0.35601751661E+03  0.17120000000E+03 0.  0.
        998    1    1    2    0    0  0.77522265297E+01 -0.17242730317E+02  0.34728859730E+03  0.34794651684E+03  0.10000000000E+02 0. -1.
</event>
<event>
 5    1  0.1020718E-008  0.3852061E+03  0.7957747E-01  0.3428799E+00
         13   -1    0    0    0    0  0.00000000000E+00  0.00000000000E+00  0.14999999963E+04  0.15000000000E+04  0.10566000000E+00 0.  1.
        994   -1    0    0    0    0 -0.00000000000E+00 -0.00000000000E+00  0.11368683772E-12  0.17120000000E+03  0.17120000000E+03 0.  0.
         13    1    1    2    0    0  0.11687637486E+02 -0.41546435997E+01  0.49210662847E+02  0.50749999362E+02  0.10566000000E+00 0.  1.
        994    1    1    2    0    0 -0.88127095693E+01  0.12847476884E+02  0.23259443857E+01  0.17192315589E+03  0.17120000000E+03 0.  0.
        998    1    1    2    0    0 -0.28749279166E+01 -0.86928332840E+01  0.14484633890E+04  0.14485268448E+04  0.10000000000E+02 0.  1.
</event>
<event>
 5    1  0.1020718E-008  0.3801207E+03  0.7957747E-01  0.3450633E+00
         13   -1    0    0    0    0  0.00000000000E+00  0.00000000000E+00  0.14999999963E+04  0.15000000000E+04  0.10566000000E+00 0. -1.
        994   -1    0    0    0    0 -0.00000000000E+00 -0.00000000000E+00  0.11368683772E-12  0.17120000000E+03  0.17120000000E+03 0.  0.
         13    1    1    2    0    0 -0.21845067474E+02  0.16525407411E+02  0.16941701138E+02  0.32207583960E+02  0.10566000000E+00 0. -1.
        994    1    1    2    0    0 -0.10576787997E+02 -0.86095814287E+01  0.17068225010E+02  0.17258840529E+03  0.17120000000E+03 0.  0.
        998    1    1    2    0    0  0.32421855471E+02 -0.79158259825E+01  0.14659900701E+04  0.14664040107E+04  0.10000000000E+02 0. -1.
</event>
<event>
 5    1  0.1020718E-008  0.3837002E+03  0.7957747E-01  0.3435204E+00
         13   -1    0    0    0    0  0.00000000000E+00  0.00000000000E+00  0.14999999963E+04  0.15000000000E+04  0.10566000000E+00 0.  1.
        994   -1    0    0    0    0 -0.00000000000E+00 -0.00000000000E+00  0.11368683772E-12  0.17120000000E+03  0.17120000000E+03 0.  0.
         13    1    1    2    0    0 -0.14190550322E+02 -0.27440322245E+02  0.18324618909E+03  0.18583196706E+03  0.10566000000E+00 0.  1.
        994    1    1    2    0    0  0.12260785819E+02  0.30542251947E+02  0.58622659072E+01  0.17443325997E+03  0.17120000000E+03 0.  0.
        998    1    1    2    0    0  0.19297645022E+01 -0.31019297021E+01  0.13108915413E+04  0.13109347730E+04  0.10000000000E+02 0.  1.
</event>
<event>
 5    1  0.1020718E-008  0.3832218E+03  0.7957747E-01  0.3437249E+00
         13   -1    0    0    0    0  0.00000000000E+00  0.00000000000E+00  0.14999999963E+04  0.15000000000E+04  0.10566000000E+00 0.  1.
        994   -1    0    0    0    0 -0.00000000000E+00 -0.00000000000E+00  0.11368683772E-12  0.17120000000E+03  0.17120000000E+03 0.  0.
         13    1    1    2    0    0  0.30732244382E+02 -0.27763264231E+02  0.23787801298E+03  0.24145647623E+03  0.10566000000E+00 0.  1.
        994    1    1    2    0    0 -0.53469888498E+02  0.32497112495E+02  0.15575100876E+02  0.18294019532E+03  0.17120000000E+03 0.  0.
        998    1    1    2    0    0  0.22737644116E+02 -0.47338482644E+01  0.12465468824E+04  0.12468033285E+04  0.10000000000E+02 0.  1.
</event>
<event>
 5    1  0.1020718E-008  0.3856977E+03  0.7957747E-01  0.3426718E+00
         13   -1    0    0    0    0  0.00000000000E+00  0.00000000000E+00  0.14999999963E+04  0.15000000000E+04  0.10566000000E+00 0. -1.
        994   -1    0    0    0    0 -0.00000000000E+00 -0.00000000000E+00  0.11368683772E-12  0.17120000000E+03  0.17120000000E+03 0.  0.
         13    1    1    2    0    0  0.71061498168E+01  0.89763459244E+01  0.51358169158E+02  0.52618864058E+02  0.10566000000E+00 0. -1.
        994    1    1    2    0    0 -0.10702186573E+02 -0.15746787474E+01  0.16681681649E+01  0.17154952403E+03  0.17120000000E+03 0.  0.
        998    1    1    2    0    0  0.35960367557E+01 -0.74016671770E+01  0.14469736590E+04  0.14470316119E+04  0.10000000000E+02 0. -1.
</event>
<event>
 5    1  0.1056177E-008  0.3857722E+03  0.7957747E-01  0.3426404E+00
         13   -1    0    0    0    0  0.00000000000E+00  0.00000000000E+00  0.14999999963E+04  0.15000000000E+04  0.10566000000E+00 0. -1.
        994   -1    0    0    0    0 -0.00000000000E+00 -0.00000000000E+00  0.11368683772E-12  0.17120000000E+03  0.17120000000E+03 0.  0.
         13    1    1    2    0    0  0.90406341088E+01  0.10611790480E+02  0.73627184814E+02  0.74935416660E+02  0.10566000000E+00 0. -1.
        994    1    1    2    0    0 -0.11227463959E+02 -0.13723440794E+02  0.22792493760E+01  0.17213083324E+03  0.17120000000E+03 0.  0.
        998    1    1    2    0    0  0.21868298506E+01  0.31116503133E+01  0.14240935621E+04  0.14241337501E+04  0.10000000000E+02 0. -1.
</event>
<event>
 5    1  0.1020718E-008  0.3853356E+03  0.7957747E-01  0.3428250E+00
         13   -1    0    0    0    0  0.00000000000E+00  0.00000000000E+00  0.14999999963E+04  0.15000000000E+04  0.10566000000E+00 0. -1.
        994   -1    0    0    0    0 -0.00000000000E+00 -0.00000000000E+00  0.11368683772E-12  0.17120000000E+03  0.17120000000E+03 0.  0.
         13    1    1    2    0    0 -0.33963251582E+01 -0.11663387315E+02  0.51579071370E+02  0.52990389654E+02  0.10566000000E+00 0. -1.
        994    1    1    2    0    0  0.66086569846E+01  0.30359224601E+01  0.16373876076E+01  0.17136222516E+03  0.17120000000E+03 0.  0.
        998    1    1    2    0    0 -0.32123318265E+01  0.86274648546E+01  0.14467835373E+04  0.14468473852E+04  0.10000000000E+02 0. -1.
</event>
<event>
 5    1  0.1020718E-008  0.3813241E+03  0.7957747E-01  0.3445413E+00
         13   -1    0    0    0    0  0.00000000000E+00  0.00000000000E+00  0.14999999963E+04  0.15000000000E+04  0.10566000000E+00 0. -1.
        994   -1    0    0    0    0 -0.00000000000E+00 -0.00000000000E+00  0.11368683772E-12  0.17120000000E+03  0.17120000000E+03 0.  0.
         13    1    1    2    0    0  0.47797734535E+01 -0.34395403628E+02  0.19103502907E+03  0.19416560849E+03  0.10566000000E+00 0. -1.
        994    1    1    2    0    0  0.14317367235E+01  0.78770783820E+01  0.36795912424E+01  0.17142659544E+03  0.17120000000E+03 0.  0.
        998    1    1    2    0    0 -0.62115101770E+01  0.26518325246E+02  0.13052853760E+04  0.13056077961E+04  0.10000000000E+02 0. -1.
</event>
<event>
 5    1  0.1020718E-008  0.3834530E+03  0.7957747E-01  0.3436260E+00
         13   -1    0    0    0    0  0.00000000000E+00  0.00000000000E+00  0.14999999963E+04  0.15000000000E+04  0.10566000000E+00 0. -1.
        994   -1    0    0    0    0 -0.00000000000E+00 -0.00000000000E+00  0.11368683772E-12  0.17120000000E+03  0.17120000000E+03 0.  0.
         13    1    1    2    0    0  0.21532388630E+02 -0.10442231964E+02  0.12335641042E+03  0.12565627372E+03  0.10566000000E+00 0. -1.
        994    1    1    2    0    0 -0.42263637267E+01  0.13147556880E+02  0.30307801114E+01  0.17178284556E+03  0.17120000000E+03 0.  0.
        998    1    1    2    0    0 -0.17306024903E+02 -0.27053249152E+01  0.13736128057E+04  0.13737608807E+04  0.10000000000E+02 0. -1.
</event>
<event>
 5    1  0.1020718E-008  0.3744997E+03  0.7957747E-01  0.3475463E+00
         13   -1    0    0    0    0  0.00000000000E+00  0.00000000000E+00  0.14999999963E+04  0.15000000000E+04  0.10566000000E+00 0.  1.
        994   -1    0    0    0    0 -0.00000000000E+00 -0.00000000000E+00  0.11368683772E-12  0.17120000000E+03  0.17120000000E+03 0.  0.
         13    1    1    2    0    0  0.14499088363E+02 -0.66985224458E+02  0.30518039480E+03  0.31278159855E+03  0.10566000000E+00 0.  1.
        994    1    1    2    0    0 -0.55277798167E+01  0.52361846971E+02  0.16434732641E+02  0.17986622753E+03  0.17120000000E+03 0.  0.
        998    1    1    2    0    0 -0.89713085461E+01  0.14623377487E+02  0.11783848688E+04  0.11785521739E+04  0.10000000000E+02 0.  1.
</event>
<event>
 5    1  0.1020718E-008  0.3691934E+03  0.7957747E-01  0.3499606E+00
         13   -1    0    0    0    0  0.00000000000E+00  0.00000000000E+00  0.14999999963E+04  0.15000000000E+04  0.10566000000E+00 0.  1.
        994   -1    0    0    0    0 -0.00000000000E+00 -0.00000000000E+00  0.11368683772E-12  0.17120000000E+03  0.17120000000E+03 0.  0.
         13    1    1    2    0    0 -0.80411632469E+01 -0.87619546005E+02  0.50331798735E+03  0.51095092984E+03  0.10566000000E+00 0.  1.
        994    1    1    2    0    0 -0.24390998768E+02  0.29468209487E+02  0.14782029986E+02  0.17604330320E+03  0.17120000000E+03 0.  0.
        998    1    1    2    0    0  0.32432162015E+02  0.58151336519E+02  0.98189997894E+03  0.98420576696E+03  0.10000000000E+02 0.  1.
</event>
<event>
 5    1  0.1020718E-008  0.3777414E+03  0.7957747E-01  0.3461052E+00
         13   -1    0    0    0    0  0.00000000000E+00  0.00000000000E+00  0.14999999963E+04  0.15000000000E+04  0.10566000000E+00 0. -1.
        994   -1    0    0    0    0 -0.00000000000E+00 -0.00000000000E+00  0.11368683772E-12  0.17120000000E+03  0.17120000000E+03 0.  0.
         13    1    1    2    0    0 -0.20597701134E+01 -0.20498490042E+02  0.37154254342E+02  0.42483885494E+02  0.10566000000E+00 0. -1.
        994    1    1    2    0    0 -0.10113725960E+01  0.22293659770E+02  0.69568213089E+01  0.17278850512E+03  0.17120000000E+03 0.  0.
        998    1    1    2    0    0  0.30711427094E+01 -0.17951697282E+01  0.14558889206E+04  0.14559276094E+04  0.10000000000E+02 0. -1.
</event>
<event>
 5    1  0.1020718E-008  0.3816076E+03  0.7957747E-01  0.3444188E+00
         13   -1    0    0    0    0  0.00000000000E+00  0.00000000000E+00  0.14999999963E+04  0.15000000000E+04  0.10566000000E+00 0. -1.
        994   -1    0    0    0    0 -0.00000000000E+00 -0.00000000000E+00  0.11368683772E-12  0.17120000000E+03  0.17120000000E+03 0.  0.
         13    1    1    2    0    0 -0.10688611369E+02  0.17248841946E+02  0.60845418409E+02  0.64140042617E+02  0.10566000000E+00 0. -1.
        994    1    1    2    0    0  0.15593596750E+02 -0.56001192632E+01  0.42372005903E+01  0.17205207196E+03  0.17120000000E+03 0.  0.
        998    1    1    2    0    0 -0.49049853809E+01 -0.11648722682E+02  0.14349173773E+04  0.14350078854E+04  0.10000000000E+02 0. -1.
</event>
<event>
 5    1  0.1020718E-008  0.3710294E+03  0.7957747E-01  0.3491173E+00
         13   -1    0    0    0    0  0.00000000000E+00  0.00000000000E+00  0.14999999963E+04  0.15000000000E+04  0.10566000000E+00 0. -1.
        994   -1    0    0    0    0 -0.00000000000E+00 -0.00000000000E+00  0.11368683772E-12  0.17120000000E+03  0.17120000000E+03 0.  0.
         13    1    1    2    0    0  0.17060994009E+02  0.77136968720E+02  0.23791895951E+03  0.25069230527E+03  0.10566000000E+00 0. -1.
        994    1    1    2    0    0 -0.18219348181E+02 -0.67062085257E+02  0.28626671016E+02  0.18697110531E+03  0.17120000000E+03 0.  0.
        998    1    1    2    0    0  0.11583541717E+01 -0.10074883463E+02  0.12334543658E+04  0.12335365894E+04  0.10000000000E+02 0. -1.
</event>
<event>
 5    1  0.1020718E-008  0.3816916E+03  0.7957747E-01  0.3443826E+00
         13   -1    0    0    0    0  0.00000000000E+00  0.00000000000E+00  0.14999999963E+04  0.15000000000E+04  0.10566000000E+00 0. -1.
        994   -1    0    0    0    0 -0.00000000000E+00 -0.00000000000E+00  0.11368683772E-12  0.17120000000E+03  0.17120000000E+03 0.  0.
         13    1    1    2    0    0  0.22214172744E+02  0.12492985529E+02  0.12003880255E+03  0.12271458528E+03  0.10566000000E+00 0. -1.
        994    1    1    2    0    0  0.58482880312E+01  0.21599291620E+02  0.49480581574E+01  0.17272711180E+03  0.17120000000E+03 0.  0.
        998    1    1    2    0    0 -0.28062460776E+02 -0.34092277149E+02  0.13750131356E+04  0.13757583029E+04  0.10000000000E+02 0. -1.
</event>
<event>
 5    1  0.1020718E-008  0.3769936E+03  0.7957747E-01  0.3464355E+00
         13   -1    0    0    0    0  0.00000000000E+00  0.00000000000E+00  0.14999999963E+04  0.15000000000E+04  0.10566000000E+00 0. -1.
        994   -1    0    0    0    0 -0.00000000000E+00 -0.00000000000E+00  0.11368683772E-12  0.17120000000E+03  0.17120000000E+03 0.  0.
         13    1    1    2    0    0  0.21808322755E+02 -0.26461136067E+01  0.39403532228E+02  0.45113793619E+02  0.10566000000E+00 0. -1.
        994    1    1    2    0    0 -0.22894328729E+02  0.50357133944E+00  0.74311970629E+01  0.17288454691E+03  0.17120000000E+03 0.  0.
        998    1    1    2    0    0  0.10860059738E+01  0.21425422673E+01  0.14531652670E+04  0.14532016595E+04  0.10000000000E+02 0. -1.
</event>
<event>
 5    1  0.1020718E-008  0.3774213E+03  0.7957747E-01  0.3462464E+00
         13   -1    0    0    0    0  0.00000000000E+00  0.00000000000E+00  0.14999999963E+04  0.15000000000E+04  0.10566000000E+00 0.  1.
        994   -1    0    0    0    0 -0.00000000000E+00 -0.00000000000E+00  0.11368683772E-12  0.17120000000E+03  0.17120000000E+03 0.  0.
         13    1    1    2    0    0  0.11644490561E+03  0.23812462310E+02  0.62106997081E+03  0.63234039030E+03  0.10566000000E+00 0.  1.
        994    1    1    2    0    0 -0.12632144715E+03 -0.30278053866E+02  0.64627860905E+02  0.22441049210E+03  0.17120000000E+03 0.  0.
        998    1    1    2    0    0  0.98765415404E+01  0.64655915566E+01  0.81430216456E+03  0.81444911760E+03  0.10000000000E+02 0.  1.
</event>
<event>
 5    1  0.1020718E-008  0.3727512E+03  0.7957747E-01  0.3483341E+00
         13   -1    0    0    0    0  0.00000000000E+00  0.00000000000E+00  0.14999999963E+04  0.15000000000E+04  0.10566000000E+00 0. -1.
        994   -1    0    0    0    0 -0.00000000000E+00 -0.00000000000E+00  0.11368683772E-12  0.17120000000E+03  0.17120000000E+03 0.  0.
         13    1    1    2    0    0 -0.20899619144E+01 -0.24286140714E+02  0.33813996498E+02  0.41684314733E+02  0.10566000000E+00 0. -1.
        994    1    1    2    0    0  0.29904407635E+02  0.23680715084E+02  0.12838283829E+02  0.17586731190E+03  0.17120000000E+03 0.  0.
        998    1    1    2    0    0 -0.27814445721E+02  0.60542562994E+00  0.14533477160E+04  0.14536483734E+04  0.10000000000E+02 0. -1.
</event>
<event>
 5    1  0.1020718E-008  0.3815388E+03  0.7957747E-01  0.3444485E+00
         13   -1    0    0    0    0  0.00000000000E+00  0.00000000000E+00  0.14999999963E+04  0.15000000000E+04  0.10566000000E+00 0.  1.
        994   -1    0    0    0    0 -0.00000000000E+00 -0.00000000000E+00  0.11368683772E-12  0.17120000000E+03  0.17120000000E+03 0.  0.
         13    1    1    2    0    0  0.40028151943E+02  0.41853321941E+02  0.99908170586E+02  0.11547989963E+03  0.10566000000E+00 0.  1.
        994    1    1    2    0    0 -0.13690635952E+02 -0.35042194746E+01  0.17903302156E+02  0.17271271318E+03  0.17120000000E+03 0.  0.
        998    1    1    2    0    0 -0.26337515992E+02 -0.38349102466E+02  0.13821885235E+04  0.13830073872E+04  0.10000000000E+02 0.  1.
</event>
<event>
 5    1  0.1020718E-008  0.3767923E+03  0.7957747E-01  0.3465246E+00
         13   -1    0    0    0    0  0.00000000000E+00  0.00000000000E+00  0.14999999963E+04  0.15000000000E+04  0.10566000000E+00 0.  1.
        994   -1    0    0    0    0 -0.00000000000E+00 -0.00000000000E+00  0.11368683772E-12  0.17120000000E+03  0.17120000000E+03 0.  0.
         13    1    1    2    0    0 -0.41364783752E+02  0.56193584318E+01  0.24512481196E+03  0.24865399077E+03  0.10566000000E+00 0.  1.
        994    1    1    2    0    0 -0.41466166380E+02 -0.25820225287E+02  0.13866271681E+02  0.17857166763E+03  0.17120000000E+03 0.  0.
        998    1    1    2    0    0  0.82830950133E+02  0.20200866855E+02  0.12410089126E+04  0.12439743416E+04  0.10000000000E+02 0.  1.
</event>
<event>
 5    1  0.1020718E-008  0.3813728E+03  0.7957747E-01  0.3445203E+00
         13   -1    0    0    0    0  0.00000000000E+00  0.00000000000E+00  0.14999999963E+04  0.15000000000E+04  0.10566000000E+00 0.  1.
        994   -1    0    0    0    0 -0.00000000000E+00 -0.00000000000E+00  0.11368683772E-12  0.17120000000E+03  0.17120000000E+03 0.  0.
         13    1    1    2    0    0  0.35894214269E+02  0.98774449429E+01  0.18159236948E+03  0.18536924868E+03  0.10566000000E+00 0.  1.
        994    1    1    2    0    0 -0.32708674889E+02 -0.11776613661E+02  0.74740504254E+01  0.17485378884E+03  0.17120000000E+03 0.  0.
        998    1    1    2    0    0 -0.31855393802E+01  0.18991687185E+01  0.13109335764E+04  0.13109769625E+04  0.10000000000E+02 0.  1.
</event>
<event>
 5    1  0.1020718E-008  0.3911241E+03  0.7957747E-01  0.3404107E+00
         13   -1    0    0    0    0  0.00000000000E+00  0.00000000000E+00  0.14999999963E+04  0.15000000000E+04  0.10566000000E+00 0. -1.
        994   -1    0    0    0    0 -0.00000000000E+00 -0.00000000000E+00  0.11368683772E-12  0.17120000000E+03  0.17120000000E+03 0.  0.
         13    1    1    2    0    0 -0.27604350992E+02 -0.91595213168E+02  0.42741439578E+03  0.43798945210E+03  0.10566000000E+00 0. -1.
        994    1    1    2    0    0 -0.23667627257E+01 -0.64105085698E+02  0.38297910292E+02  0.18679195248E+03  0.17120000000E+03 0.  0.
        998    1    1    2    0    0  0.29971113718E+02  0.15570029887E+03  0.10342876902E+04  0.10464185954E+04  0.10000000000E+02 0. -1.
</event>
<event>
 5    1  0.1020718E-008  0.3851781E+03  0.7957747E-01  0.3428917E+00
         13   -1    0    0    0    0  0.00000000000E+00  0.00000000000E+00  0.14999999963E+04  0.15000000000E+04  0.10566000000E+00 0.  1.
        994   -1    0    0    0    0 -0.00000000000E+00 -0.00000000000E+00  0.11368683772E-12  0.17120000000E+03  0.17120000000E+03 0.  0.
         13    1    1    2    0    0  0.67604927257E+01 -0.10130902277E+02  0.43859473678E+02  0.45519271064E+02  0.10566000000E+00 0.  1.
        994    1    1    2    0    0 -0.14410032701E+02  0.21226647463E+02  0.37081496099E+01  0.17315140767E+03  0.17120000000E+03 0.  0.
        998    1    1    2    0    0  0.76495399752E+01 -0.11095745185E+02  0.14524323730E+04  0.14525293213E+04  0.10000000000E+02 0.  1.
</event>
<event>
 5    1  0.1020718E-008  0.3829603E+03  0.7957747E-01  0.3438369E+00
         13   -1    0    0    0    0  0.00000000000E+00  0.00000000000E+00  0.14999999963E+04  0.15000000000E+04  0.10566000000E+00 0.  1.
        994   -1    0    0    0    0 -0.00000000000E+00 -0.00000000000E+00  0.11368683772E-12  0.17120000000E+03  0.17120000000E+03 0.  0.
         13    1    1    2    0    0 -0.13691529514E+02 -0.48511982923E+01  0.39365825195E+02  0.41960355845E+02  0.10566000000E+00 0.  1.
        994    1    1    2    0    0  0.89383044634E+01 -0.24580705951E+01  0.29307437559E+01  0.17147584278E+03  0.17120000000E+03 0.  0.
        998    1    1    2    0    0  0.47532250509E+01  0.73092688874E+01  0.14577034273E+04  0.14577638014E+04  0.10000000000E+02 0.  1.
</event>
<event>
 5    1  0.1020718E-008  0.3819365E+03  0.7957747E-01  0.3442770E+00
         13   -1    0    0    0    0  0.00000000000E+00  0.00000000000E+00  0.14999999963E+04  0.15000000000E+04  0.10566000000E+00 0. -1.
        994   -1    0    0    0    0 -0.00000000000E+00 -0.00000000000E+00  0.11368683772E-12  0.17120000000E+03  0.17120000000E+03 0.  0.
         13    1    1    2    0    0 -0.47222216441E+02  0.49852657785E+01  0.26934807843E+03  0.27350171685E+03  0.10566000000E+00 0. -1.
        994    1    1    2    0    0  0.56475151847E+02 -0.46622183066E+01  0.13899563757E+02  0.18086961306E+03  0.17120000000E+03 0.  0.
        998    1    1    2    0    0 -0.92529354062E+01 -0.32304747186E+00  0.12167523541E+04  0.12168286701E+04  0.10000000000E+02 0. -1.
</event>
<event>
 5    1  0.1020718E-008  0.3763180E+03  0.7957747E-01  0.3467349E+00
         13   -1    0    0    0    0  0.00000000000E+00  0.00000000000E+00  0.14999999963E+04  0.15000000000E+04  0.10566000000E+00 0. -1.
        994   -1    0    0    0    0 -0.00000000000E+00 -0.00000000000E+00  0.11368683772E-12  0.17120000000E+03  0.17120000000E+03 0.  0.
         13    1    1    2    0    0  0.18632838391E+02 -0.44814392158E+01  0.27804886853E+02  0.33769644074E+02  0.10566000000E+00 0. -1.
        994    1    1    2    0    0 -0.16863989852E+02  0.32258344461E+01  0.70017156221E+01  0.17220123165E+03  0.17120000000E+03 0.  0.
        998    1    1    2    0    0 -0.17688485390E+01  0.12556047697E+01  0.14651933938E+04  0.14652291243E+04  0.10000000000E+02 0.  0.
</event>
<event>
 5    1  0.1020718E-008  0.3808720E+03  0.7957747E-01  0.3447370E+00
         13   -1    0    0    0    0  0.00000000000E+00  0.00000000000E+00  0.14999999963E+04  0.15000000000E+04  0.10566000000E+00 0. -1.
        994   -1    0    0    0    0 -0.00000000000E+00 -0.00000000000E+00  0.11368683772E-12  0.17120000000E+03  0.17120000000E+03 0.  0.
         13    1    1    2    0    0 -0.26691480581E+02  0.10552991009E+03  0.33699426062E+03  0.35413858857E+03  0.10566000000E+00 0. -1.
        994    1    1    2    0    0  0.23195195974E+02 -0.66666381939E+02  0.35150641633E+02  0.18848721762E+03  0.17120000000E+03 0.  0.
        998    1    1    2    0    0  0.34962846069E+01 -0.38863528151E+02  0.11278550940E+04  0.11285741938E+04  0.10000000000E+02 0. -1.
</event>
<event>
 5    1  0.1020718E-008  0.3817730E+03  0.7957747E-01  0.3443475E+00
         13   -1    0    0    0    0  0.00000000000E+00  0.00000000000E+00  0.14999999963E+04  0.15000000000E+04  0.10566000000E+00 0.  1.
        994   -1    0    0    0    0 -0.00000000000E+00 -0.00000000000E+00  0.11368683772E-12  0.17120000000E+03  0.17120000000E+03 0.  0.
         13    1    1    2    0    0  0.24489766633E+02  0.43660342394E+01  0.92977548742E+02  0.96247839762E+02  0.10566000000E+00 0.  1.
        994    1    1    2    0    0 -0.19138746178E+02  0.37884939638E+01  0.45068893843E+01  0.17236703961E+03  0.17120000000E+03 0.  0.
        998    1    1    2    0    0 -0.53510204549E+01 -0.81545282033E+01  0.14025155582E+04  0.14025851206E+04  0.10000000000E+02 0.  1.
</event>
<event>
 5    1  0.1020718E-008  0.3798609E+03  0.7957747E-01  0.3451764E+00
         13   -1    0    0    0    0  0.00000000000E+00  0.00000000000E+00  0.14999999963E+04  0.15000000000E+04  0.10566000000E+00 0. -1.
        994   -1    0    0    0    0 -0.00000000000E+00 -0.00000000000E+00  0.11368683772E-12  0.17120000000E+03  0.17120000000E+03 0.  0.
         13    1    1    2    0    0  0.26958844415E+02 -0.29886376052E+02  0.21131246110E+03  0.21511146447E+03  0.10566000000E+00 0. -1.
        994    1    1    2    0    0  0.12962810089E+01  0.15259810333E+02  0.49881561200E+01  0.17195599396E+03  0.17120000000E+03 0.  0.
        998    1    1    2    0    0 -0.28255125424E+02  0.14626565719E+02  0.12836993791E+04  0.12841325416E+04  0.10000000000E+02 0. -1.
</event>
<event>
 5    1  0.1020718E-008  0.3841322E+03  0.7957747E-01  0.3433361E+00
         13   -1    0    0    0    0  0.00000000000E+00  0.00000000000E+00  0.14999999963E+04  0.15000000000E+04  0.10566000000E+00 0.  1.
        994   -1    0    0    0    0 -0.00000000000E+00 -0.00000000000E+00  0.11368683772E-12  0.17120000000E+03  0.17120000000E+03 0.  0.
         13    1    1    2    0    0  0.11242539033E+02 -0.11738962218E+02  0.65191037055E+02  0.67186906420E+02  0.10566000000E+00 0.  1.
        994    1    1    2    0    0 -0.82050910064E+01  0.12410781025E+01  0.22887360553E+01  0.17141628308E+03  0.17120000000E+03 0.  0.
        998    1    1    2    0    0 -0.30374480268E+01  0.10497884115E+02  0.14325202232E+04  0.14325968105E+04  0.10000000000E+02 0.  1.
</event>
<event>
 5    1  0.1020718E-008  0.3759775E+03  0.7957747E-01  0.3468862E+00
         13   -1    0    0    0    0  0.00000000000E+00  0.00000000000E+00  0.14999999963E+04  0.15000000000E+04  0.10566000000E+00 0.  1.
        994   -1    0    0    0    0 -0.00000000000E+00 -0.00000000000E+00  0.11368683772E-12  0.17120000000E+03  0.17120000000E+03 0.  0.
         13    1    1    2    0    0  0.31448499693E+02  0.78297356819E+00  0.73145237084E+02  0.79623225585E+02  0.10566000000E+00 0.  1.
        994    1    1    2    0    0 -0.36276380278E+02  0.44183038322E+01  0.10715687254E+02  0.17538461486E+03  0.17120000000E+03 0.  0.
        998    1    1    2    0    0  0.48278805851E+01 -0.52012774004E+01  0.14161390719E+04  0.14161921596E+04  0.10000000000E+02 0.  1.
</event>
<event>
 5    1  0.1020718E-008  0.3856025E+03  0.7957747E-01  0.3427121E+00
         13   -1    0    0    0    0  0.00000000000E+00  0.00000000000E+00  0.14999999963E+04  0.15000000000E+04  0.10566000000E+00 0. -1.
        994   -1    0    0    0    0 -0.00000000000E+00 -0.00000000000E+00  0.11368683772E-12  0.17120000000E+03  0.17120000000E+03 0.  0.
         13    1    1    2    0    0  0.10844888911E+02  0.72021451565E+01  0.68672081178E+02  0.69895267420E+02  0.10566000000E+00 0. -1.
        994    1    1    2    0    0 -0.10852566552E+02  0.16975824392E+02  0.26648897361E+01  0.17240214167E+03  0.17120000000E+03 0.  0.
        998    1    1    2    0    0  0.76776408530E-02 -0.24177969548E+02  0.14286630254E+04  0.14289025909E+04  0.10000000000E+02 0. -1.
</event>
<event>
 5    1  0.1020718E-008  0.3799369E+03  0.7957747E-01  0.3451433E+00
         13   -1    0    0    0    0  0.00000000000E+00  0.00000000000E+00  0.14999999963E+04  0.15000000000E+04  0.10566000000E+00 0. -1.
        994   -1    0    0    0    0 -0.00000000000E+00 -0.00000000000E+00  0.11368683772E-12  0.17120000000E+03  0.17120000000E+03 0.  0.
         13    1    1    2    0    0 -0.95920745183E+01  0.62098824918E+02  0.35576461596E+03  0.36127101335E+03  0.10566000000E+00 0. -1.
        994    1    1    2    0    0  0.76811330405E+01 -0.64080185887E+02  0.18220096456E+02  0.18386593470E+03  0.17120000000E+03 0.  0.
        998    1    1    2    0    0  0.19109414778E+01  0.19813609690E+01  0.11260152839E+04  0.11260630520E+04  0.10000000000E+02 0.  0.
</event>
<event>
 5    1  0.1020718E-008  0.3847515E+03  0.7957747E-01  0.3430727E+00
         13   -1    0    0    0    0  0.00000000000E+00  0.00000000000E+00  0.14999999963E+04  0.15000000000E+04  0.10566000000E+00 0. -1.
        994   -1    0    0    0    0 -0.00000000000E+00 -0.00000000000E+00  0.11368683772E-12  0.17120000000E+03  0.17120000000E+03 0.  0.
         13    1    1    2    0    0 -0.98766054997E+01 -0.69857621348E+01  0.45337060109E+02  0.46923431163E+02  0.10566000000E+00 0. -1.
        994    1    1    2    0    0 -0.21346053494E+02  0.15980753237E+02  0.40973232332E+01  0.17331262658E+03  0.17120000000E+03 0.  0.
        998    1    1    2    0    0  0.31222658993E+02 -0.89949911022E+01  0.14505656129E+04  0.14509639423E+04  0.10000000000E+02 0. -1.
</event>
<event>
 5    1  0.1020718E-008  0.3849598E+03  0.7957747E-01  0.3429843E+00
         13   -1    0    0    0    0  0.00000000000E+00  0.00000000000E+00  0.14999999963E+04  0.15000000000E+04  0.10566000000E+00 0.  1.
        994   -1    0    0    0    0 -0.00000000000E+00 -0.00000000000E+00  0.11368683772E-12  0.17120000000E+03  0.17120000000E+03 0.  0.
         13    1    1    2    0    0 -0.32547612279E+01 -0.14127663583E+02  0.57625479436E+02  0.59421304204E+02  0.10566000000E+00 0.  1.
        994    1    1    2    0    0  0.90047174895E+01  0.25296228354E+02  0.40250583198E+01  0.17333962386E+03  0.17120000000E+03 0.  0.
        998    1    1    2    0    0 -0.57499562616E+01 -0.11168564771E+02  0.14383494585E+04  0.14384390719E+04  0.10000000000E+02 0.  1.
</event>
<event>
 5    1  0.1020718E-008  0.3702500E+03  0.7957747E-01  0.3494743E+00
         13   -1    0    0    0    0  0.00000000000E+00  0.00000000000E+00  0.14999999963E+04  0.15000000000E+04  0.10566000000E+00 0.  1.
        994   -1    0    0    0    0 -0.00000000000E+00 -0.00000000000E+00  0.11368683772E-12  0.17120000000E+03  0.17120000000E+03 0.  0.
         13    1    1    2    0    0 -0.63762250356E+02  0.39885977376E+02  0.37816003944E+03  0.38556652131E+03  0.10566000000E+00 0.  1.
        994    1    1    2    0    0 -0.85939493349E+01 -0.52178321662E+02  0.18861982256E+02  0.18017116193E+03  0.17120000000E+03 0.  0.
        998    1    1    2    0    0  0.72356199691E+02  0.12292344286E+02  0.11029779746E+04  0.11054623168E+04  0.10000000000E+02 0.  1.
</event>
<event>
 5    1  0.1020718E-008  0.3798373E+03  0.7957747E-01  0.3451867E+00
         13   -1    0    0    0    0  0.00000000000E+00  0.00000000000E+00  0.14999999963E+04  0.15000000000E+04  0.10566000000E+00 0. -1.
        994   -1    0    0    0    0 -0.00000000000E+00 -0.00000000000E+00  0.11368683772E-12  0.17120000000E+03  0.17120000000E+03 0.  0.
         13    1    1    2    0    0 -0.37569232705E+02  0.13156279604E+02  0.17530317288E+03  0.17976581579E+03  0.10566000000E+00 0. -1.
        994    1    1    2    0    0  0.35222867802E+02  0.21068871524E+01  0.83910258038E+01  0.17499982487E+03  0.17120000000E+03 0.  0.
        998    1    1    2    0    0  0.23463649030E+01 -0.15263166757E+02  0.13163057976E+04  0.13164343593E+04  0.10000000000E+02 0. -1.
</event>
<event>
 5    1  0.1020718E-008  0.3852338E+03  0.7957747E-01  0.3428681E+00
         13   -1    0    0    0    0  0.00000000000E+00  0.00000000000E+00  0.14999999963E+04  0.15000000000E+04  0.10566000000E+00 0. -1.
        994   -1    0    0    0    0 -0.00000000000E+00 -0.00000000000E+00  0.11368683772E-12  0.17120000000E+03  0.17120000000E+03 0.  0.
         13    1    1    2    0    0  0.11944897182E+02  0.69968434682E+01  0.61202122705E+02  0.62748285832E+02  0.10566000000E+00 0. -1.
        994    1    1    2    0    0 -0.15096649612E+02 -0.35830657649E+01  0.23056198644E+01  0.17191714014E+03  0.17120000000E+03 0.  0.
        998    1    1    2    0    0  0.31517524301E+01 -0.34137777033E+01  0.14364922537E+04  0.14365345740E+04  0.10000000000E+02 0. -1.
</event>
<event>
 5    1  0.1020718E-008  0.3716452E+03  0.7957747E-01  0.3488364E+00
         13   -1    0    0    0    0  0.00000000000E+00  0.00000000000E+00  0.14999999963E+04  0.15000000000E+04  0.10566000000E+00 0. -1.
        994   -1    0    0    0    0 -0.00000000000E+00 -0.00000000000E+00  0.11368683772E-12  0.17120000000E+03  0.17120000000E+03 0.  0.
         13    1    1    2    0    0 -0.11534220786E+03 -0.77657489657E+02  0.51734916832E+03  0.53570951433E+03  0.10566000000E+00 0. -1.
        994    1    1    2    0    0  0.11148431010E+03  0.78417338740E+02  0.80336943004E+02  0.23311262262E+03  0.17120000000E+03 0.  0.
        998    1    1    2    0    0  0.38578977640E+01 -0.75984908263E+00  0.90231388495E+03  0.90237786305E+03  0.10000000000E+02 0. -1.
</event>
<event>
 5    1  0.1020718E-008  0.3838175E+03  0.7957747E-01  0.3434703E+00
         13   -1    0    0    0    0  0.00000000000E+00  0.00000000000E+00  0.14999999963E+04  0.15000000000E+04  0.10566000000E+00 0.  1.
        994   -1    0    0    0    0 -0.00000000000E+00 -0.00000000000E+00  0.11368683772E-12  0.17120000000E+03  0.17120000000E+03 0.  0.
         13    1    1    2    0    0 -0.18528562575E+01 -0.20173178479E+02  0.10161337113E+03  0.10361311964E+03  0.10566000000E+00 0.  1.
        994    1    1    2    0    0 -0.14873052922E+02  0.19159325759E+00  0.29490942098E+01  0.17187024631E+03  0.17120000000E+03 0.  0.
        998    1    1    2    0    0  0.16725909179E+02  0.19981585221E+02  0.13954375309E+04  0.13957166340E+04  0.10000000000E+02 0.  1.
</event>
<event>
 5    1  0.1020718E-008  0.3835862E+03  0.7957747E-01  0.3435690E+00
         13   -1    0    0    0    0  0.00000000000E+00  0.00000000000E+00  0.14999999963E+04  0.15000000000E+04  0.10566000000E+00 0. -1.
        994   -1    0    0    0    0 -0.00000000000E+00 -0.00000000000E+00  0.11368683772E-12  0.17120000000E+03  0.17120000000E+03 0.  0.
         13    1    1    2    0    0  0.18887718939E+02  0.99532050847E+01  0.10744906688E+03  0.10954964791E+03  0.10566000000E+00 0. -1.
        994    1    1    2    0    0 -0.17875735157E+01  0.57012545568E+01  0.24516241309E+01  0.17132177382E+03  0.17120000000E+03 0.  0.
        998    1    1    2    0    0 -0.17100145423E+02 -0.15654459641E+02  0.13900993053E+04  0.13903285783E+04  0.10000000000E+02 0. -1.
</event>
<event>
 5    1  0.1020718E-008  0.3856092E+03  0.7957747E-01  0.3427092E+00
         13   -1    0    0    0    0  0.00000000000E+00  0.00000000000E+00  0.14999999963E+04  0.15000000000E+04  0.10566000000E+00 0.  1.
        994   -1    0    0    0    0 -0.00000000000E+00 -0.00000000000E+00  0.11368683772E-12  0.17120000000E+03  0.17120000000E+03 0.  0.
         13    1    1    2    0    0 -0.10068930956E+02  0.11139978670E+01  0.40842491875E+02  0.42080217067E+02  0.10566000000E+00 0.  1.
        994    1    1    2    0    0 -0.11770700235E+01  0.90218377022E+01  0.15997023038E+01  0.17144905394E+03  0.17120000000E+03 0.  0.
        998    1    1    2    0    0  0.11246000979E+02 -0.10135835569E+02  0.14575578021E+04  0.14576707290E+04  0.10000000000E+02 0.  1.
</event>
<event>
 5    1  0.1020718E-008  0.3760641E+03  0.7957747E-01  0.3468478E+00
         13   -1    0    0    0    0  0.00000000000E+00  0.00000000000E+00  0.14999999963E+04  0.15000000000E+04  0.10566000000E+00 0.  1.
        994   -1    0    0    0    0 -0.00000000000E+00 -0.00000000000E+00  0.11368683772E-12  0.17120000000E+03  0.17120000000E+03 0.  0.
         13    1    1    2    0    0  0.24097963975E+02 -0.54372464761E+02  0.13140957080E+03  0.14424133684E+03  0.10566000000E+00 0.  1.
        994    1    1    2    0    0 -0.11117803796E+02  0.95139140888E+01  0.14947071963E+02  0.17247311409E+03  0.17120000000E+03 0.  0.
        998    1    1    2    0    0 -0.12980160179E+02  0.44858550672E+02  0.13536433535E+04  0.13544855491E+04  0.10000000000E+02 0.  1.
</event>
<event>
 5    1  0.1020718E-008  0.3893472E+03  0.7957747E-01  0.3411442E+00
         13   -1    0    0    0    0  0.00000000000E+00  0.00000000000E+00  0.14999999963E+04  0.15000000000E+04  0.10566000000E+00 0. -1.
        994   -1    0    0    0    0 -0.00000000000E+00 -0.00000000000E+00  0.11368683772E-12  0.17120000000E+03  0.17120000000E+03 0.  0.
         13    1    1    2    0    0 -0.13672552747E+02  0.47878605648E+02  0.48626526643E+02  0.69597771766E+02  0.10566000000E+00 0. -1.
        994    1    1    2    0    0  0.17988332344E+02 -0.42285769938E+02  0.29526220884E+02  0.17970226532E+03  0.17120000000E+03 0.  0.
        998    1    1    2    0    0 -0.43157795977E+01 -0.55928357096E+01  0.14218472488E+04  0.14218999629E+04  0.10000000000E+02 0. -1.
</event>
<event>
 5    1  0.1020718E-008  0.3751200E+03  0.7957747E-01  0.3472686E+00
         13   -1    0    0    0    0  0.00000000000E+00  0.00000000000E+00  0.14999999963E+04  0.15000000000E+04  0.10566000000E+00 0. -1.
        994   -1    0    0    0    0 -0.00000000000E+00 -0.00000000000E+00  0.11368683772E-12  0.17120000000E+03  0.17120000000E+03 0.  0.
         13    1    1    2    0    0  0.22919707444E+02  0.22502167151E+01  0.37269525531E+02  0.43811016444E+02  0.10566000000E+00 0. -1.
        994    1    1    2    0    0 -0.17422853241E+02  0.46439072217E+01  0.77226187168E+01  0.17232005260E+03  0.17120000000E+03 0.  0.
        998    1    1    2    0    0 -0.54968542027E+01 -0.68941239367E+01  0.14550078520E+04  0.14550689310E+04  0.10000000000E+02 0. -1.
</event>
<event>
 5    1  0.1020718E-008  0.3818268E+03  0.7957747E-01  0.3443243E+00
         13   -1    0    0    0    0  0.00000000000E+00  0.00000000000E+00  0.14999999963E+04  0.15000000000E+04  0.10566000000E+00 0.  1.
        994   -1    0    0    0    0 -0.00000000000E+00 -0.00000000000E+00  0.11368683772E-12  0.17120000000E+03  0.17120000000E+03 0.  0.
         13    1    1    2    0    0  0.82074904739E+01  0.58724802124E+01  0.14566113254E+02  0.17720940807E+02  0.10566000000E+00 0.  1.
        994    1    1    2    0    0 -0.31071212272E+01 -0.55320946473E+01  0.33476147455E+01  0.17135024015E+03  0.17120000000E+03 0.  0.
        998    1    1    2    0    0 -0.51003692468E+01 -0.34038556517E+00  0.14820862683E+04  0.14821288190E+04  0.10000000000E+02 0.  1.
</event>
<event>
 5    1  0.1020718E-008  0.3849188E+03  0.7957747E-01  0.3430016E+00
         13   -1    0    0    0    0  0.00000000000E+00  0.00000000000E+00  0.14999999963E+04  0.15000000000E+04  0.10566000000E+00 0.  1.
        994   -1    0    0    0    0 -0.00000000000E+00 -0.00000000000E+00  0.11368683772E-12  0.17120000000E+03  0.17120000000E+03 0.  0.
         13    1    1    2    0    0  0.31940720281E+01  0.14727324328E+02  0.67276243066E+02  0.68943456709E+02  0.10566000000E+00 0.  1.
        994    1    1    2    0    0 -0.34903113383E+01 -0.10986679329E+02  0.21076974523E+01  0.17160061709E+03  0.17120000000E+03 0.  0.
        998    1    1    2    0    0  0.29623931024E+00 -0.37406449990E+01  0.14306160558E+04  0.14306559262E+04  0.10000000000E+02 0.  1.
</event>
<event>
 5    1  0.1020718E-008  0.3749464E+03  0.7957747E-01  0.3473463E+00
         13   -1    0    0    0    0  0.00000000000E+00  0.00000000000E+00  0.14999999963E+04  0.15000000000E+04  0.10566000000E+00 0.  1.
        994   -1    0    0    0    0 -0.00000000000E+00 -0.00000000000E+00  0.11368683772E-12  0.17120000000E+03  0.17120000000E+03 0.  0.
         13    1    1    2    0    0  0.80328929772E+01 -0.13655004980E+02  0.15730413432E+02  0.22325850518E+02  0.10566000000E+00 0.  1.
        994    1    1    2    0    0 -0.45813726699E+01  0.12189393172E+02  0.72829673178E+01  0.17184892171E+03  0.17120000000E+03 0.  0.
        998    1    1    2    0    0 -0.34515203073E+01  0.14656118079E+01  0.14769866155E+04  0.14770252278E+04  0.10000000000E+02 0.  1.
</event>
<event>
 5    1  0.1020718E-008  0.3836255E+03  0.7957747E-01  0.3435523E+00
         13   -1    0    0    0    0  0.00000000000E+00  0.00000000000E+00  0.14999999963E+04  0.15000000000E+04  0.10566000000E+00 0. -1.
        994   -1    0    0    0    0 -0.00000000000E+00 -0.00000000000E+00  0.11368683772E-12  0.17120000000E+03  0.17120000000E+03 0.  0.
         13    1    1    2    0    0  0.65456316681E+01  0.99923500289E+01  0.28256911181E+02  0.30678274831E+02  0.10566000000E+00 0. -1.
        994    1    1    2    0    0 -0.12337389284E+02 -0.22291072875E+02  0.44612562406E+01  0.17314284828E+03  0.17120000000E+03 0.  0.
        998    1    1    2    0    0  0.57917576158E+01  0.12298722846E+02  0.14672818289E+04  0.14673788769E+04  0.10000000000E+02 0. -1.
</event>
<event>
 5    1  0.1020718E-008  0.3859176E+03  0.7957747E-01  0.3425790E+00
         13   -1    0    0    0    0  0.00000000000E+00  0.00000000000E+00  0.14999999963E+04  0.15000000000E+04  0.10566000000E+00 0. -1.
        994   -1    0    0    0    0 -0.00000000000E+00 -0.00000000000E+00  0.11368683772E-12  0.17120000000E+03  0.17120000000E+03 0.  0.
         13    1    1    2    0    0 -0.67005215000E+00  0.13304524638E+02  0.67036315406E+02  0.68347187894E+02  0.10566000000E+00 0. -1.
        994    1    1    2    0    0  0.30407343959E+01 -0.26288557280E+02  0.34749187702E+01  0.17326814297E+03  0.17120000000E+03 0.  0.
        998    1    1    2    0    0 -0.23706822459E+01  0.12984032642E+02  0.14294887621E+04  0.14295846691E+04  0.10000000000E+02 0. -1.
</event>
<event>
 5    1  0.1020718E-008  0.3808114E+03  0.7957747E-01  0.3447633E+00
         13   -1    0    0    0    0  0.00000000000E+00  0.00000000000E+00  0.14999999963E+04  0.15000000000E+04  0.10566000000E+00 0.  1.
        994   -1    0    0    0    0 -0.00000000000E+00 -0.00000000000E+00  0.11368683772E-12  0.17120000000E+03  0.17120000000E+03 0.  0.
         13    1    1    2    0    0  0.13038071531E+02  0.20364157483E+01  0.21713509266E+02  0.25409170530E+02  0.10566000000E+00 0.  1.
        994    1    1    2    0    0 -0.11688888598E+02 -0.92730426185E+00  0.41826559091E+01  0.17165204520E+03  0.17120000000E+03 0.  0.
        998    1    1    2    0    0 -0.13491829339E+01 -0.11091114864E+01  0.14741038311E+04  0.14741387843E+04  0.10000000000E+02 0.  1.
</event>
<event>
 5    1  0.1020718E-008  0.3800918E+03  0.7957747E-01  0.3450759E+00
         13   -1    0    0    0    0  0.00000000000E+00  0.00000000000E+00  0.14999999963E+04  0.15000000000E+04  0.10566000000E+00 0. -1.
        994   -1    0    0    0    0 -0.00000000000E+00 -0.00000000000E+00  0.11368683772E-12  0.17120000000E+03  0.17120000000E+03 0.  0.
         13    1    1    2    0    0 -0.85454805589E+02  0.22379791647E+01  0.49483357782E+03  0.50216313410E+03  0.10566000000E+00 0. -1.
        994    1    1    2    0    0  0.99041949807E+02 -0.65588687181E+01  0.37747561255E+02  0.20146127410E+03  0.17120000000E+03 0.  0.
        998    1    1    2    0    0 -0.13587144218E+02  0.43208895534E+01  0.96741885720E+03  0.96757559180E+03  0.10000000000E+02 0. -1.
</event>
<event>
 5    1  0.1020718E-008  0.3780579E+03  0.7957747E-01  0.3459659E+00
         13   -1    0    0    0    0  0.00000000000E+00  0.00000000000E+00  0.14999999963E+04  0.15000000000E+04  0.10566000000E+00 0.  1.
        994   -1    0    0    0    0 -0.00000000000E+00 -0.00000000000E+00  0.11368683772E-12  0.17120000000E+03  0.17120000000E+03 0.  0.
         13    1    1    2    0    0 -0.18196740935E+02 -0.16795215377E+02  0.56028503410E+02  0.61256877154E+02  0.10566000000E+00 0.  1.
        994    1    1    2    0    0  0.18398390526E+02  0.17547574654E+02  0.72946448787E+01  0.17323126160E+03  0.17120000000E+03 0.  0.
        998    1    1    2    0    0 -0.20164959086E+00 -0.75235927615E+00  0.14366768480E+04  0.14367118613E+04  0.10000000000E+02 0.  1.
</event>
<event>
 5    1  0.1020718E-008  0.3714669E+03  0.7957747E-01  0.3489176E+00
         13   -1    0    0    0    0  0.00000000000E+00  0.00000000000E+00  0.14999999963E+04  0.15000000000E+04  0.10566000000E+00 0. -1.
        994   -1    0    0    0    0 -0.00000000000E+00 -0.00000000000E+00  0.11368683772E-12  0.17120000000E+03  0.17120000000E+03 0.  0.
         13    1    1    2    0    0 -0.35645446547E+02  0.27367583088E+02  0.12756781454E+03  0.13525213837E+03  0.10566000000E+00 0. -1.
        994    1    1    2    0    0  0.14393875618E+02  0.10138090234E+02  0.95714236317E+01  0.17236883906E+03  0.17120000000E+03 0.  0.
        998    1    1    2    0    0  0.21251570928E+02 -0.37505673321E+02  0.13628607581E+04  0.13635790226E+04  0.10000000000E+02 0. -1.
</event>
<event>
 5    1  0.1225783E-008  0.3862111E+03  0.7957747E-01  0.3424552E+00
         13   -1    0    0    0    0  0.00000000000E+00  0.00000000000E+00  0.14999999963E+04  0.15000000000E+04  0.10566000000E+00 0.  1.
        994   -1    0    0    0    0 -0.00000000000E+00 -0.00000000000E+00  0.11368683772E-12  0.17120000000E+03  0.17120000000E+03 0.  0.
         13    1    1    2    0    0  0.15249253437E+01  0.11756116239E+02  0.68848067312E+02  0.69861285437E+02  0.10566000000E+00 0.  1.
        994    1    1    2    0    0 -0.24340634561E+01 -0.83724755231E+01  0.12791328927E+01  0.17142665835E+03  0.17120000000E+03 0.  0.
        998    1    1    2    0    0  0.90913811233E+00 -0.33836407160E+01  0.14298727961E+04  0.14299120562E+04  0.10000000000E+02 0.  1.
</event>
<event>
 5    1  0.1020718E-008  0.3823829E+03  0.7957747E-01  0.3440848E+00
         13   -1    0    0    0    0  0.00000000000E+00  0.00000000000E+00  0.14999999963E+04  0.15000000000E+04  0.10566000000E+00 0. -1.
        994   -1    0    0    0    0 -0.00000000000E+00 -0.00000000000E+00  0.11368683772E-12  0.17120000000E+03  0.17120000000E+03 0.  0.
         13    1    1    2    0    0  0.10782046264E+01 -0.11376589818E+02  0.20501157309E+02  0.23471215054E+02  0.10566000000E+00 0. -1.
        994    1    1    2    0    0  0.15565760585E+00  0.17902732882E+02  0.39989205736E+01  0.17218003206E+03  0.17120000000E+03 0.  0.
        998    1    1    2    0    0 -0.12338622322E+01 -0.65261430643E+01  0.14754999184E+04  0.14755487529E+04  0.10000000000E+02 0. -1.
</event>
<event>
 5    1  0.1020718E-008  0.3752337E+03  0.7957747E-01  0.3472178E+00
         13   -1    0    0    0    0  0.00000000000E+00  0.00000000000E+00  0.14999999963E+04  0.15000000000E+04  0.10566000000E+00 0.  1.
        994   -1    0    0    0    0 -0.00000000000E+00 -0.00000000000E+00  0.11368683772E-12  0.17120000000E+03  0.17120000000E+03 0.  0.
         13    1    1    2    0    0 -0.34907855510E+01 -0.10841863603E+02  0.68833980150E+01  0.13308791170E+02  0.10566000000E+00 0.  1.
        994    1    1    2    0    0  0.41725642714E+01  0.80509323894E+01  0.68381092253E+01  0.17157630239E+03  0.17120000000E+03 0.  0.
        998    1    1    2    0    0 -0.68177872035E+00  0.27909312133E+01  0.14862784890E+04  0.14863149064E+04  0.10000000000E+02 0.  1.
</event>
<event>
 5    1  0.1020718E-008  0.3834086E+03  0.7957747E-01  0.3436450E+00
         13   -1    0    0    0    0  0.00000000000E+00  0.00000000000E+00  0.14999999963E+04  0.15000000000E+04  0.10566000000E+00 0.  1.
        994   -1    0    0    0    0 -0.00000000000E+00 -0.00000000000E+00  0.11368683772E-12  0.17120000000E+03  0.17120000000E+03 0.  0.
         13    1    1    2    0    0  0.12417084229E+02  0.89003242535E+01  0.48610222886E+02  0.50954535477E+02  0.10566000000E+00 0.  1.
        994    1    1    2    0    0 -0.69944919626E+01  0.88369895901E+00  0.25866268640E+01  0.17136462435E+03  0.17120000000E+03 0.  0.
        998    1    1    2    0    0 -0.54225922666E+01 -0.97840232125E+01  0.14488031465E+04  0.14488808402E+04  0.10000000000E+02 0.  1.
</event>
<event>
 5    1  0.1020718E-008  0.3787035E+03  0.7957747E-01  0.3456823E+00
         13   -1    0    0    0    0  0.00000000000E+00  0.00000000000E+00  0.14999999963E+04  0.15000000000E+04  0.10566000000E+00 0. -1.
        994   -1    0    0    0    0 -0.00000000000E+00 -0.00000000000E+00  0.11368683772E-12  0.17120000000E+03  0.17120000000E+03 0.  0.
         13    1    1    2    0    0 -0.21003431821E+02  0.41830697376E+01  0.37570462044E+02  0.43245728147E+02  0.10566000000E+00 0. -1.
        994    1    1    2    0    0  0.78594764230E+02  0.20819600384E+01  0.25830507667E+02  0.19015290334E+03  0.17120000000E+03 0.  0.
        998    1    1    2    0    0 -0.57591332410E+02 -0.62650297761E+01  0.14365990266E+04  0.14378013685E+04  0.10000000000E+02 0. -1.
</event>
<event>
 5    1  0.1020718E-008  0.3728881E+03  0.7957747E-01  0.3482722E+00
         13   -1    0    0    0    0  0.00000000000E+00  0.00000000000E+00  0.14999999963E+04  0.15000000000E+04  0.10566000000E+00 0. -1.
        994   -1    0    0    0    0 -0.00000000000E+00 -0.00000000000E+00  0.11368683772E-12  0.17120000000E+03  0.17120000000E+03 0.  0.
         13    1    1    2    0    0 -0.10190439729E+02 -0.10628481229E+02  0.10180777866E+02  0.17901650122E+02  0.10566000000E+00 0. -1.
        994    1    1    2    0    0  0.12745733587E+02  0.19724062862E+02  0.96576220186E+01  0.17307282295E+03  0.17120000000E+03 0.  0.
        998    1    1    2    0    0 -0.25552938571E+01 -0.90955816335E+01  0.14801615964E+04  0.14802255269E+04  0.10000000000E+02 0. -1.
</event>
<event>
 5    1  0.1020718E-008  0.3716335E+03  0.7957747E-01  0.3488417E+00
         13   -1    0    0    0    0  0.00000000000E+00  0.00000000000E+00  0.14999999963E+04  0.15000000000E+04  0.10566000000E+00 0. -1.
        994   -1    0    0    0    0 -0.00000000000E+00 -0.00000000000E+00  0.11368683772E-12  0.17120000000E+03  0.17120000000E+03 0.  0.
         13    1    1    2    0    0  0.43463531395E+00 -0.51639117553E+02  0.14580054949E+03  0.15467578597E+03  0.10566000000E+00 0. -1.
        994    1    1    2    0    0  0.94869566642E+02 -0.33158087111E+02  0.48218234768E+02  0.20428933301E+03  0.17120000000E+03 0.  0.
        998    1    1    2    0    0 -0.95304201956E+02  0.84797204664E+02  0.13059812120E+04  0.13122348810E+04  0.10000000000E+02 0. -1.
</event>
<event>
 5    1  0.1020718E-008  0.3787048E+03  0.7957747E-01  0.3456817E+00
         13   -1    0    0    0    0  0.00000000000E+00  0.00000000000E+00  0.14999999963E+04  0.15000000000E+04  0.10566000000E+00 0. -1.
        994   -1    0    0    0    0 -0.00000000000E+00 -0.00000000000E+00  0.11368683772E-12  0.17120000000E+03  0.17120000000E+03 0.  0.
         13    1    1    2    0    0  0.10103340552E+02 -0.26967284007E+02  0.80446547949E+02  0.85445714567E+02  0.10566000000E+00 0. -1.
        994    1    1    2    0    0 -0.10559316733E+02  0.28269665980E+02  0.78518181891E+01  0.17401656310E+03  0.17120000000E+03 0.  0.
        998    1    1    2    0    0  0.45597618174E+00 -0.13023819732E+01  0.14117016301E+04  0.14117377223E+04  0.10000000000E+02 0. -1.
</event>
<event>
 5    1  0.1020718E-008  0.3851482E+03  0.7957747E-01  0.3429044E+00
         13   -1    0    0    0    0  0.00000000000E+00  0.00000000000E+00  0.14999999963E+04  0.15000000000E+04  0.10566000000E+00 0.  1.
        994   -1    0    0    0    0 -0.00000000000E+00 -0.00000000000E+00  0.11368683772E-12  0.17120000000E+03  0.17120000000E+03 0.  0.
         13    1    1    2    0    0 -0.18840705800E+02  0.45819213713E+01  0.11422853469E+03  0.11586257161E+03  0.10566000000E+00 0.  1.
        994    1    1    2    0    0  0.17269889546E+02 -0.92832141565E+01  0.28212489066E+01  0.17234217881E+03  0.17120000000E+03 0.  0.
        998    1    1    2    0    0  0.15708162542E+01  0.47012927852E+01  0.13829502127E+04  0.13829952496E+04  0.10000000000E+02 0.  1.
</event>
<event>
 5    1  0.1020718E-008  0.3697060E+03  0.7957747E-01  0.3497243E+00
         13   -1    0    0    0    0  0.00000000000E+00  0.00000000000E+00  0.14999999963E+04  0.15000000000E+04  0.10566000000E+00 0.  1.
        994   -1    0    0    0    0 -0.00000000000E+00 -0.00000000000E+00  0.11368683772E-12  0.17120000000E+03  0.17120000000E+03 0.  0.
         13    1    1    2    0    0  0.29031679737E+02 -0.35346778207E+00  0.40715695676E+02  0.50007423511E+02  0.10566000000E+00 0.  1.
        994    1    1    2    0    0 -0.22235180148E+02  0.90484775762E+01  0.11419964851E+02  0.17325164871E+03  0.17120000000E+03 0.  0.
        998    1    1    2    0    0 -0.67964995893E+01 -0.86950097942E+01  0.14478643358E+04  0.14479409278E+04  0.10000000000E+02 0.  1.
</event>
<event>
 5    1  0.1020718E-008  0.3820892E+03  0.7957747E-01  0.3442112E+00
         13   -1    0    0    0    0  0.00000000000E+00  0.00000000000E+00  0.14999999963E+04  0.15000000000E+04  0.10566000000E+00 0. -1.
        994   -1    0    0    0    0 -0.00000000000E+00 -0.00000000000E+00  0.11368683772E-12  0.17120000000E+03  0.17120000000E+03 0.  0.
         13    1    1    2    0    0 -0.12044924380E+02 -0.19867682580E+01  0.22732507852E+02  0.25803207721E+02  0.10566000000E+00 0. -1.
        994    1    1    2    0    0  0.12368584543E+02 -0.39380806150E+00  0.35908011111E+01  0.17168421832E+03  0.17120000000E+03 0.  0.
        998    1    1    2    0    0 -0.32366016305E+00  0.23805763195E+01  0.14736766873E+04  0.14737125740E+04  0.10000000000E+02 0. -1.
</event>
<event>
 5    1  0.1020718E-008  0.3853969E+03  0.7957747E-01  0.3427990E+00
         13   -1    0    0    0    0  0.00000000000E+00  0.00000000000E+00  0.14999999963E+04  0.15000000000E+04  0.10566000000E+00 0.  1.
        994   -1    0    0    0    0 -0.00000000000E+00 -0.00000000000E+00  0.11368683772E-12  0.17120000000E+03  0.17120000000E+03 0.  0.
         13    1    1    2    0    0 -0.10202376159E+02 -0.10612407021E+02  0.77125816609E+02  0.78518242554E+02  0.10566000000E+00 0.  1.
        994    1    1    2    0    0  0.25500772066E+01  0.79568553269E+01  0.16625231992E+01  0.17141183863E+03  0.17120000000E+03 0.  0.
        998    1    1    2    0    0  0.76522989521E+01  0.26555516938E+01  0.14212116565E+04  0.14212699188E+04  0.10000000000E+02 0.  1.
</event>
<event>
 5    1  0.1020718E-008  0.3810621E+03  0.7957747E-01  0.3446547E+00
         13   -1    0    0    0    0  0.00000000000E+00  0.00000000000E+00  0.14999999963E+04  0.15000000000E+04  0.10566000000E+00 0.  1.
        994   -1    0    0    0    0 -0.00000000000E+00 -0.00000000000E+00  0.11368683772E-12  0.17120000000E+03  0.17120000000E+03 0.  0.
         13    1    1    2    0    0 -0.13806969561E+02  0.10083368527E+02  0.39451664834E+02  0.42997113293E+02  0.10566000000E+00 0.  1.
        994    1    1    2    0    0 -0.38213638734E+01 -0.22712246271E+02  0.53669839691E+01  0.17282561578E+03  0.17120000000E+03 0.  0.
        998    1    1    2    0    0  0.17628333434E+02  0.12628877744E+02  0.14551813475E+04  0.14553772709E+04  0.10000000000E+02 0.  1.
</event>
<event>
 5    1  0.1020718E-008  0.3811652E+03  0.7957747E-01  0.3446101E+00
         13   -1    0    0    0    0  0.00000000000E+00  0.00000000000E+00  0.14999999963E+04  0.15000000000E+04  0.10566000000E+00 0.  1.
        994   -1    0    0    0    0 -0.00000000000E+00 -0.00000000000E+00  0.11368683772E-12  0.17120000000E+03  0.17120000000E+03 0.  0.
         13    1    1    2    0    0  0.84270017276E+01  0.67025316000E+01  0.14699523322E+02  0.18221565188E+02  0.10566000000E+00 0.  1.
        994    1    1    2    0    0 -0.98256415744E+01 -0.64319175917E+01  0.40055290306E+01  0.17164905202E+03  0.17120000000E+03 0.  0.
        998    1    1    2    0    0  0.13986398468E+01 -0.27061400832E+00  0.14812949439E+04  0.14813293828E+04  0.10000000000E+02 0.  1.
</event>
<event>
 5    1  0.1020718E-008  0.3692112E+03  0.7957747E-01  0.3499524E+00
         13   -1    0    0    0    0  0.00000000000E+00  0.00000000000E+00  0.14999999963E+04  0.15000000000E+04  0.10566000000E+00 0. -1.
        994   -1    0    0    0    0 -0.00000000000E+00 -0.00000000000E+00  0.11368683772E-12  0.17120000000E+03  0.17120000000E+03 0.  0.
         13    1    1    2    0    0  0.54836137076E+02  0.12308464900E+02  0.16032614660E+03  0.16989109654E+03  0.10566000000E+00 0. -1.
        994    1    1    2    0    0 -0.13605767366E+02 -0.36748988622E+01  0.11215091941E+02  0.17214482297E+03  0.17120000000E+03 0.  0.
        998    1    1    2    0    0 -0.41230369710E+02 -0.86335660381E+01  0.13284587577E+04  0.13291640805E+04  0.10000000000E+02 0. -1.
</event>
<event>
 5    1  0.1020718E-008  0.3841892E+03  0.7957747E-01  0.3433118E+00
         13   -1    0    0    0    0  0.00000000000E+00  0.00000000000E+00  0.14999999963E+04  0.15000000000E+04  0.10566000000E+00 0.  1.
        994   -1    0    0    0    0 -0.00000000000E+00 -0.00000000000E+00  0.11368683772E-12  0.17120000000E+03  0.17120000000E+03 0.  0.
         13    1    1    2    0    0  0.11239515594E+02 -0.66254712619E+01  0.41751064979E+02  0.43742269845E+02  0.10566000000E+00 0.  1.
        994    1    1    2    0    0 -0.48338926886E+01  0.56764659771E+01  0.22165481338E+01  0.17137660829E+03  0.17120000000E+03 0.  0.
        998    1    1    2    0    0 -0.64056229052E+01  0.94900528486E+00  0.14560323832E+04  0.14560811219E+04  0.10000000000E+02 0.  1.
</event>
<event>
 5    1  0.1020718E-008  0.3854070E+03  0.7957747E-01  0.3427948E+00
         13   -1    0    0    0    0  0.00000000000E+00  0.00000000000E+00  0.14999999963E+04  0.15000000000E+04  0.10566000000E+00 0.  1.
        994   -1    0    0    0    0 -0.00000000000E+00 -0.00000000000E+00  0.11368683772E-12  0.17120000000E+03  0.17120000000E+03 0.  0.
         13    1    1    2    0    0 -0.12009105181E+03 -0.22970720552E+03  0.98147629593E+03  0.10151270815E+04  0.10566000000E+00 0.  1.
        994    1    1    2    0    0  0.12313977350E+03  0.25465054272E+03  0.33542658755E+03  0.47098910641E+03  0.17120000000E+03 0.  0.
        998    1    1    2    0    0 -0.30487216906E+01 -0.24943337202E+02  0.18309711281E+03  0.18508381208E+03  0.10000000000E+02 0.  1.
</event>
<event>
 5    1  0.1020718E-008  0.3711363E+03  0.7957747E-01  0.3490685E+00
         13   -1    0    0    0    0  0.00000000000E+00  0.00000000000E+00  0.14999999963E+04  0.15000000000E+04  0.10566000000E+00 0.  1.
        994   -1    0    0    0    0 -0.00000000000E+00 -0.00000000000E+00  0.11368683772E-12  0.17120000000E+03  0.17120000000E+03 0.  0.
         13    1    1    2    0    0 -0.20165942801E+02  0.11107062960E+01  0.20446635211E+02  0.28739780323E+02  0.10566000000E+00 0.  1.
        994    1    1    2    0    0 -0.46984482110E+01 -0.51963613613E+02  0.18111352323E+02  0.17988816981E+03  0.17120000000E+03 0.  0.
        998    1    1    2    0    0  0.24864391012E+02  0.50852907317E+02  0.14614420087E+04  0.14625720499E+04  0.10000000000E+02 0.  1.
</event>
<event>
 5    1  0.1020718E-008  0.3850436E+03  0.7957747E-01  0.3429487E+00
         13   -1    0    0    0    0  0.00000000000E+00  0.00000000000E+00  0.14999999963E+04  0.15000000000E+04  0.10566000000E+00 0.  1.
        994   -1    0    0    0    0 -0.00000000000E+00 -0.00000000000E+00  0.11368683772E-12  0.17120000000E+03  0.17120000000E+03 0.  0.
         13    1    1    2    0    0  0.10248532378E+02  0.14907669629E+02  0.10079492547E+03  0.10240556232E+03  0.10566000000E+00 0.  1.
        994    1    1    2    0    0 -0.86770451544E+01 -0.96002482775E+01  0.21593345476E+01  0.17170194700E+03  0.17120000000E+03 0.  0.
        998    1    1    2    0    0 -0.15714872235E+01 -0.53074213515E+01  0.13970457363E+04  0.13970924907E+04  0.10000000000E+02 0.  1.
</event>
<event>
 5    1  0.1020718E-008  0.3690681E+03  0.7957747E-01  0.3500185E+00
         13   -1    0    0    0    0  0.00000000000E+00  0.00000000000E+00  0.14999999963E+04  0.15000000000E+04  0.10566000000E+00 0. -1.
        994   -1    0    0    0    0 -0.00000000000E+00 -0.00000000000E+00  0.11368683772E-12  0.17120000000E+03  0.17120000000E+03 0.  0.
         13    1    1    2    0    0 -0.43268749316E+02 -0.66471427616E+01  0.81404658206E+02  0.92428884641E+02  0.10566000000E+00 0. -1.
        994    1    1    2    0    0  0.69885089738E+02  0.19707475101E+02  0.28275276805E+02  0.18809902079E+03  0.17120000000E+03 0.  0.
        998    1    1    2    0    0 -0.26616340422E+02 -0.13060332340E+02  0.13903200613E+04  0.13906720946E+04  0.10000000000E+02 0. -1.
</event>
<event>
 5    1  0.1020718E-008  0.3837206E+03  0.7957747E-01  0.3435116E+00
         13   -1    0    0    0    0  0.00000000000E+00  0.00000000000E+00  0.14999999963E+04  0.15000000000E+04  0.10566000000E+00 0. -1.
        994   -1    0    0    0    0 -0.00000000000E+00 -0.00000000000E+00  0.11368683772E-12  0.17120000000E+03  0.17120000000E+03 0.  0.
         13    1    1    2    0    0 -0.11243308996E+02 -0.10289282834E+02  0.51778690208E+02  0.53975228226E+02  0.10566000000E+00 0. -1.
        994    1    1    2    0    0  0.67309254597E+01  0.10964916091E+01  0.24202498940E+01  0.17135286768E+03  0.17120000000E+03 0.  0.
        998    1    1    2    0    0  0.45123835364E+01  0.91927912246E+01  0.14458010562E+04  0.14458719041E+04  0.10000000000E+02 0. -1.
</event>
<event>
 5    1  0.1020718E-008  0.3762104E+03  0.7957747E-01  0.3467827E+00
         13   -1    0    0    0    0  0.00000000000E+00  0.00000000000E+00  0.14999999963E+04  0.15000000000E+04  0.10566000000E+00 0.  1.
        994   -1    0    0    0    0 -0.00000000000E+00 -0.00000000000E+00  0.11368683772E-12  0.17120000000E+03  0.17120000000E+03 0.  0.
         13    1    1    2    0    0  0.21310053561E+02  0.57750860734E+01  0.37348082709E+02  0.43386178075E+02  0.10566000000E+00 0.  1.
        994    1    1    2    0    0 -0.15745244600E+02 -0.14226874145E+02  0.75844494915E+01  0.17267680953E+03  0.17120000000E+03 0.  0.
        998    1    1    2    0    0 -0.55648089616E+01  0.84517880715E+01  0.14550674641E+04  0.14551370124E+04  0.10000000000E+02 0.  1.
</event>
<event>
 5    1  0.1020718E-008  0.3829785E+03  0.7957747E-01  0.3438291E+00
         13   -1    0    0    0    0  0.00000000000E+00  0.00000000000E+00  0.14999999963E+04  0.15000000000E+04  0.10566000000E+00 0. -1.
        994   -1    0    0    0    0 -0.00000000000E+00 -0.00000000000E+00  0.11368683772E-12  0.17120000000E+03  0.17120000000E+03 0.  0.
         13    1    1    2    0    0  0.12213261138E+02 -0.47435186085E+01  0.29796707226E+02  0.32550263316E+02  0.10566000000E+00 0. -1.
        994    1    1    2    0    0 -0.19207844463E+02  0.21828399119E+02  0.54407804019E+01  0.17373676176E+03  0.17120000000E+03 0.  0.
        998    1    1    2    0    0  0.69945833256E+01 -0.17084880510E+02  0.14647625087E+04  0.14649129749E+04  0.10000000000E+02 0. -1.
</event>
<event>
 5    1  0.1020718E-008  0.3696960E+03  0.7957747E-01  0.3497289E+00
         13   -1    0    0    0    0  0.00000000000E+00  0.00000000000E+00  0.14999999963E+04  0.15000000000E+04  0.10566000000E+00 0. -1.
        994   -1    0    0    0    0 -0.00000000000E+00 -0.00000000000E+00  0.11368683772E-12  0.17120000000E+03  0.17120000000E+03 0.  0.
         13    1    1    2    0    0  0.26945459134E+02  0.23295632690E+02  0.52832992181E+02  0.63718760952E+02  0.10566000000E+00 0. -1.
        994    1    1    2    0    0 -0.22172994859E+02 -0.30333101001E+02  0.15724462824E+02  0.17597851417E+03  0.17120000000E+03 0.  0.
        998    1    1    2    0    0 -0.47724642750E+01  0.70374683113E+01  0.14314425413E+04  0.14315027249E+04  0.10000000000E+02 0. -1.
</event>
<event>
 5    1  0.1020718E-008  0.3795717E+03  0.7957747E-01  0.3453026E+00
         13   -1    0    0    0    0  0.00000000000E+00  0.00000000000E+00  0.14999999963E+04  0.15000000000E+04  0.10566000000E+00 0.  1.
        994   -1    0    0    0    0 -0.00000000000E+00 -0.00000000000E+00  0.11368683772E-12  0.17120000000E+03  0.17120000000E+03 0.  0.
         13    1    1    2    0    0  0.64391377829E+01  0.20005571339E+02  0.47511313392E+02  0.51952107216E+02  0.10566000000E+00 0.  1.
        994    1    1    2    0    0 -0.18829746424E+02 -0.18184131621E+02  0.66467800195E+01  0.17331717075E+03  0.17120000000E+03 0.  0.
        998    1    1    2    0    0  0.12390608641E+02 -0.18214397178E+01  0.14458419029E+04  0.14459307220E+04  0.10000000000E+02 0.  1.
</event>
<event>
 5    1  0.1020718E-008  0.3853063E+03  0.7957747E-01  0.3428374E+00
         13   -1    0    0    0    0  0.00000000000E+00  0.00000000000E+00  0.14999999963E+04  0.15000000000E+04  0.10566000000E+00 0.  1.
        994   -1    0    0    0    0 -0.00000000000E+00 -0.00000000000E+00  0.11368683772E-12  0.17120000000E+03  0.17120000000E+03 0.  0.
         13    1    1    2    0    0 -0.11500347677E+02 -0.43658270750E+01  0.50625025339E+02  0.52098203399E+02  0.10566000000E+00 0.  1.
        994    1    1    2    0    0  0.11018938107E+02  0.57918700076E+00  0.18782476340E+01  0.17156549848E+03  0.17120000000E+03 0.  0.
        998    1    1    2    0    0  0.48140957010E+00  0.37866400742E+01  0.14474967233E+04  0.14475362981E+04  0.10000000000E+02 0.  1.
</event>
<event>
 5    1  0.1020718E-008  0.3724355E+03  0.7957747E-01  0.3484772E+00
         13   -1    0    0    0    0  0.00000000000E+00  0.00000000000E+00  0.14999999963E+04  0.15000000000E+04  0.10566000000E+00 0.  1.
        994   -1    0    0    0    0 -0.00000000000E+00 -0.00000000000E+00  0.11368683772E-12  0.17120000000E+03  0.17120000000E+03 0.  0.
         13    1    1    2    0    0 -0.15992875454E+02 -0.71617314758E+01  0.15384778475E+02  0.23318770031E+02  0.10566000000E+00 0.  1.
        994    1    1    2    0    0  0.20529227691E+02  0.59523203234E+01  0.95697401297E+01  0.17279438426E+03  0.17120000000E+03 0.  0.
        998    1    1    2    0    0 -0.45363522374E+01  0.12094111524E+01  0.14750454777E+04  0.14750868457E+04  0.10000000000E+02 0.  1.
</event>
<event>
 5    1  0.1020718E-008  0.3836537E+03  0.7957747E-01  0.3435402E+00
         13   -1    0    0    0    0  0.00000000000E+00  0.00000000000E+00  0.14999999963E+04  0.15000000000E+04  0.10566000000E+00 0. -1.
        994   -1    0    0    0    0 -0.00000000000E+00 -0.00000000000E+00  0.11368683772E-12  0.17120000000E+03  0.17120000000E+03 0.  0.
         13    1    1    2    0    0  0.17981244075E+02 -0.98776288489E+01  0.93977920593E+02  0.96191233557E+02  0.10566000000E+00 0. -1.
        994    1    1    2    0    0 -0.99024574595E+01 -0.15292018823E+01  0.26317010689E+01  0.17151315685E+03  0.17120000000E+03 0.  0.
        998    1    1    2    0    0 -0.80787866154E+01  0.11406830731E+02  0.14033903746E+04  0.14034956096E+04  0.10000000000E+02 0. -1.
</event>
<event>
 5    1  0.1020718E-008  0.3860561E+03  0.7957747E-01  0.3425205E+00
         13   -1    0    0    0    0  0.00000000000E+00  0.00000000000E+00  0.14999999963E+04  0.15000000000E+04  0.10566000000E+00 0. -1.
        994   -1    0    0    0    0 -0.00000000000E+00 -0.00000000000E+00  0.11368683772E-12  0.17120000000E+03  0.17120000000E+03 0.  0.
         13    1    1    2    0    0 -0.10141433365E+02  0.78268650229E+01  0.74549510109E+02  0.75642244205E+02  0.10566000000E+00 0. -1.
        994    1    1    2    0    0  0.19256105767E+02  0.87242524970E+01  0.25727928247E+01  0.17251947558E+03  0.17120000000E+03 0.  0.
        998    1    1    2    0    0 -0.91146724016E+01 -0.16551117520E+02  0.14228776933E+04  0.14230382802E+04  0.10000000000E+02 0. -1.
</event>
<event>
 5    1  0.1020718E-008  0.3699442E+03  0.7957747E-01  0.3496147E+00
         13   -1    0    0    0    0  0.00000000000E+00  0.00000000000E+00  0.14999999963E+04  0.15000000000E+04  0.10566000000E+00 0.  1.
        994   -1    0    0    0    0 -0.00000000000E+00 -0.00000000000E+00  0.11368683772E-12  0.17120000000E+03  0.17120000000E+03 0.  0.
         13    1    1    2    0    0  0.87074694649E+01 -0.52656222761E+02  0.24045414903E+03  0.24630612410E+03  0.10566000000E+00 0.  1.
        994    1    1    2    0    0 -0.69949849611E+01 -0.46288466982E+02  0.16915747485E+02  0.17828946829E+03  0.17120000000E+03 0.  0.
        998    1    1    2    0    0 -0.17124845038E+01  0.98944689743E+02  0.12426300998E+04  0.12466044076E+04  0.10000000000E+02 0.  1.
</event>
<event>
 5    1  0.1020718E-008  0.3812584E+03  0.7957747E-01  0.3445697E+00
         13   -1    0    0    0    0  0.00000000000E+00  0.00000000000E+00  0.14999999963E+04  0.15000000000E+04  0.10566000000E+00 0.  1.
        994   -1    0    0    0    0 -0.00000000000E+00 -0.00000000000E+00  0.11368683772E-12  0.17120000000E+03  0.17120000000E+03 0.  0.
         13    1    1    2    0    0 -0.12334437977E+02  0.57179959249E+01  0.24301563921E+02  0.27846202805E+02  0.10566000000E+00 0.  1.
        994    1    1    2    0    0  0.18605529859E+02 -0.55114282169E+01  0.47537791668E+01  0.17236177070E+03  0.17120000000E+03 0.  0.
        998    1    1    2    0    0 -0.62710918819E+01 -0.20656770794E+00  0.14709446532E+04  0.14709920265E+04  0.10000000000E+02 0.  1.
</event>
<event>
 5    1  0.1020718E-008  0.3805927E+03  0.7957747E-01  0.3448582E+00
         13   -1    0    0    0    0  0.00000000000E+00  0.00000000000E+00  0.14999999963E+04  0.15000000000E+04  0.10566000000E+00 0. -1.
        994   -1    0    0    0    0 -0.00000000000E+00 -0.00000000000E+00  0.11368683772E-12  0.17120000000E+03  0.17120000000E+03 0.  0.
         13    1    1    2    0    0  0.29933144229E+02  0.37255106295E+02  0.25026466432E+03  0.25478687062E+03  0.10566000000E+00 0. -1.
        994    1    1    2    0    0 -0.44516921385E+02 -0.25809254627E+02  0.12719556621E+02  0.17921802653E+03  0.17120000000E+03 0.  0.
        998    1    1    2    0    0  0.14583777156E+02 -0.11445851668E+02  0.12370157753E+04  0.12371951028E+04  0.10000000000E+02 0. -1.
</event>
<event>
 5    1  0.1020718E-008  0.3815041E+03  0.7957747E-01  0.3444635E+00
         13   -1    0    0    0    0  0.00000000000E+00  0.00000000000E+00  0.14999999963E+04  0.15000000000E+04  0.10566000000E+00 0. -1.
        994   -1    0    0    0    0 -0.00000000000E+00 -0.00000000000E+00  0.11368683772E-12  0.17120000000E+03  0.17120000000E+03 0.  0.
         13    1    1    2    0    0 -0.12410250493E+02 -0.29529054546E+02  0.19282583875E+03  0.19546814225E+03  0.10566000000E+00 0. -1.
        994    1    1    2    0    0  0.14259133410E+02 -0.16895190369E+02  0.50033420727E+01  0.17269407568E+03  0.17120000000E+03 0.  0.
        998    1    1    2    0    0 -0.18488829173E+01  0.46424244916E+02  0.13021708155E+04  0.13030377821E+04  0.10000000000E+02 0. -1.
</event>
<event>
 5    1  0.1020718E-008  0.3843465E+03  0.7957747E-01  0.3432448E+00
         13   -1    0    0    0    0  0.00000000000E+00  0.00000000000E+00  0.14999999963E+04  0.15000000000E+04  0.10566000000E+00 0.  1.
        994   -1    0    0    0    0 -0.00000000000E+00 -0.00000000000E+00  0.11368683772E-12  0.17120000000E+03  0.17120000000E+03 0.  0.
         13    1    1    2    0    0  0.14338678357E+02  0.37583782441E+00  0.51047365684E+02  0.53024368534E+02  0.10566000000E+00 0.  1.
        994    1    1    2    0    0 -0.14278752371E+02  0.35201022308E+01  0.26680104554E+01  0.17185119193E+03  0.17120000000E+03 0.  0.
        998    1    1    2    0    0 -0.59925986420E-01 -0.38959400552E+01  0.14462846201E+04  0.14463244395E+04  0.10000000000E+02 0.  1.
</event>
<event>
 5    1  0.1020718E-008  0.3584505E+03  0.7957747E-01  0.3550715E+00
         13   -1    0    0    0    0  0.00000000000E+00  0.00000000000E+00  0.14999999963E+04  0.15000000000E+04  0.10566000000E+00 0.  1.
        994   -1    0    0    0    0 -0.00000000000E+00 -0.00000000000E+00  0.11368683772E-12  0.17120000000E+03  0.17120000000E+03 0.  0.
         13    1    1    2    0    0  0.22854808270E+03 -0.11326620554E+03  0.10215662715E+04  0.10529297781E+04  0.10566000000E+00 0.  1.
        994    1    1    2    0    0 -0.20207028127E+03  0.11531086036E+03  0.23276759017E+03  0.37097059738E+03  0.17120000000E+03 0.  0.
        998    1    1    2    0    0 -0.26477801430E+02 -0.20446548175E+01  0.24566613464E+03  0.24729962453E+03  0.10000000000E+02 0.  0.
</event>
<event>
 5    1  0.1020718E-008  0.3848130E+03  0.7957747E-01  0.3430466E+00
         13   -1    0    0    0    0  0.00000000000E+00  0.00000000000E+00  0.14999999963E+04  0.15000000000E+04  0.10566000000E+00 0. -1.
        994   -1    0    0    0    0 -0.00000000000E+00 -0.00000000000E+00  0.11368683772E-12  0.17120000000E+03  0.17120000000E+03 0.  0.
         13    1    1    2    0    0 -0.88430205121E+01 -0.62565186356E+01  0.32988568476E+02  0.34721748967E+02  0.10566000000E+00 0. -1.
        994    1    1    2    0    0  0.11805604316E+02  0.52526749244E+01  0.22726256517E+01  0.17170197353E+03  0.17120000000E+03 0.  0.
        998    1    1    2    0    0 -0.29625838040E+01  0.10038437112E+01  0.14647388022E+04  0.14647762775E+04  0.10000000000E+02 0. -1.
</event>
<event>
 5    1  0.1020718E-008  0.3771357E+03  0.7957747E-01  0.3463726E+00
         13   -1    0    0    0    0  0.00000000000E+00  0.00000000000E+00  0.14999999963E+04  0.15000000000E+04  0.10566000000E+00 0. -1.
        994   -1    0    0    0    0 -0.00000000000E+00 -0.00000000000E+00  0.11368683772E-12  0.17120000000E+03  0.17120000000E+03 0.  0.
         13    1    1    2    0    0  0.32426380824E+02  0.64610911138E+02  0.20968526107E+03  0.22179711424E+03  0.10566000000E+00 0. -1.
        994    1    1    2    0    0 -0.39422016937E+01  0.57885136882E+00  0.14819830608E+02  0.17188642588E+03  0.17120000000E+03 0.  0.
        998    1    1    2    0    0 -0.28484179130E+02 -0.65189762507E+02  0.12754949046E+04  0.12775164599E+04  0.10000000000E+02 0. -1.
</event>
<event>
 5    1  0.1020718E-008  0.3815419E+03  0.7957747E-01  0.3444472E+00
         13   -1    0    0    0    0  0.00000000000E+00  0.00000000000E+00  0.14999999963E+04  0.15000000000E+04  0.10566000000E+00 0.  1.
        994   -1    0    0    0    0 -0.00000000000E+00 -0.00000000000E+00  0.11368683772E-12  0.17120000000E+03  0.17120000000E+03 0.  0.
         13    1    1    2    0    0  0.10171747474E+02  0.10319287707E+02  0.29641571750E+02  0.32993727969E+02  0.10566000000E+00 0.  1.
        994    1    1    2    0    0 -0.13025735249E+02 -0.61945594340E+01  0.40490625606E+01  0.17185423257E+03  0.17120000000E+03 0.  0.
        998    1    1    2    0    0  0.28539877750E+01 -0.41247282731E+01  0.14663093620E+04  0.14663520395E+04  0.10000000000E+02 0.  1.
</event>
<event>
 5    1  0.1020718E-008  0.3797375E+03  0.7957747E-01  0.3452302E+00
         13   -1    0    0    0    0  0.00000000000E+00  0.00000000000E+00  0.14999999963E+04  0.15000000000E+04  0.10566000000E+00 0.  1.
        994   -1    0    0    0    0 -0.00000000000E+00 -0.00000000000E+00  0.11368683772E-12  0.17120000000E+03  0.17120000000E+03 0.  0.
         13    1    1    2    0    0 -0.35736636173E+01  0.26561081837E+02  0.89515649367E+02  0.93441558129E+02  0.10566000000E+00 0.  1.
        994    1    1    2    0    0 -0.10015247892E+02 -0.16461936229E+01  0.46104357736E+01  0.17156255787E+03  0.17120000000E+03 0.  0.
        998    1    1    2    0    0  0.13588911509E+02 -0.24914888214E+02  0.14058739111E+04  0.14061958840E+04  0.10000000000E+02 0.  1.
</event>
<event>
 5    1  0.1020718E-008  0.3727829E+03  0.7957747E-01  0.3483198E+00
         13   -1    0    0    0    0  0.00000000000E+00  0.00000000000E+00  0.14999999963E+04  0.15000000000E+04  0.10566000000E+00 0.  1.
        994   -1    0    0    0    0 -0.00000000000E+00 -0.00000000000E+00  0.11368683772E-12  0.17120000000E+03  0.17120000000E+03 0.  0.
         13    1    1    2    0    0  0.48202548415E+02 -0.30239780301E+02  0.13342638822E+03  0.14505358398E+03  0.10566000000E+00 0.  1.
        994    1    1    2    0    0 -0.12215952804E+02  0.20662861059E+02  0.14454709259E+02  0.17347784282E+03  0.17120000000E+03 0.  0.
        998    1    1    2    0    0 -0.35986595611E+02  0.95769192414E+01  0.13521188988E+04  0.13526685732E+04  0.10000000000E+02 0.  1.
</event>
<event>
 5    1  0.1020718E-008  0.3854637E+03  0.7957747E-01  0.3427708E+00
         13   -1    0    0    0    0  0.00000000000E+00  0.00000000000E+00  0.14999999963E+04  0.15000000000E+04  0.10566000000E+00 0.  1.
        994   -1    0    0    0    0 -0.00000000000E+00 -0.00000000000E+00  0.11368683772E-12  0.17120000000E+03  0.17120000000E+03 0.  0.
         13    1    1    2    0    0 -0.87851106870E+00 -0.14501479801E+02  0.75440183310E+02  0.76826409001E+02  0.10566000000E+00 0.  1.
        994    1    1    2    0    0  0.70184337285E+00  0.10030307432E+02  0.17321598090E+01  0.17150376098E+03  0.17120000000E+03 0.  0.
        998    1    1    2    0    0  0.17666769586E+00  0.44711723688E+01  0.14228276532E+04  0.14228698300E+04  0.10000000000E+02 0.  1.
</event>
<event>
 5    1  0.1020718E-008  0.3755741E+03  0.7957747E-01  0.3470659E+00
         13   -1    0    0    0    0  0.00000000000E+00  0.00000000000E+00  0.14999999963E+04  0.15000000000E+04  0.10566000000E+00 0.  1.
        994   -1    0    0    0    0 -0.00000000000E+00 -0.00000000000E+00  0.11368683772E-12  0.17120000000E+03  0.17120000000E+03 0.  0.
         13    1    1    2    0    0 -0.18521590898E+01 -0.45475153554E+02  0.14775526900E+03  0.15460611490E+03  0.10566000000E+00 0.  1.
        994    1    1    2    0    0  0.66420085322E+01  0.42158567189E+02  0.12588878936E+02  0.17688804634E+03  0.17120000000E+03 0.  0.
        998    1    1    2    0    0 -0.47898494424E+01  0.33165863646E+01  0.13396558483E+04  0.13397058388E+04  0.10000000000E+02 0.  1.
</event>
<event>
 5    1  0.1020718E-008  0.3835568E+03  0.7957747E-01  0.3435816E+00
         13   -1    0    0    0    0  0.00000000000E+00  0.00000000000E+00  0.14999999963E+04  0.15000000000E+04  0.10566000000E+00 0.  1.
        994   -1    0    0    0    0 -0.00000000000E+00 -0.00000000000E+00  0.11368683772E-12  0.17120000000E+03  0.17120000000E+03 0.  0.
         13    1    1    2    0    0 -0.92509804431E+02  0.16232853631E+03  0.10782942601E+04  0.10943615216E+04  0.10566000000E+00 0.  1.
        994    1    1    2    0    0  0.88170328239E+02 -0.17457648280E+03  0.14109711929E+03  0.29575123364E+03  0.17120000000E+03 0.  0.
        998    1    1    2    0    0  0.43394761915E+01  0.12247946482E+02  0.28060861693E+03  0.28108724472E+03  0.10000000000E+02 0.  1.
</event>
<event>
 5    1  0.1020718E-008  0.3853564E+03  0.7957747E-01  0.3428162E+00
         13   -1    0    0    0    0  0.00000000000E+00  0.00000000000E+00  0.14999999963E+04  0.15000000000E+04  0.10566000000E+00 0.  1.
        994   -1    0    0    0    0 -0.00000000000E+00 -0.00000000000E+00  0.11368683772E-12  0.17120000000E+03  0.17120000000E+03 0.  0.
         13    1    1    2    0    0 -0.15202247345E+02  0.17802431991E+01  0.80539068810E+02  0.81980670643E+02  0.10566000000E+00 0.  1.
        994    1    1    2    0    0  0.10937701904E+02  0.23155668613E+01  0.18639928466E+01  0.17157479314E+03  0.17120000000E+03 0.  0.
        998    1    1    2    0    0  0.42645454410E+01 -0.40958100604E+01  0.14175969346E+04  0.14176445362E+04  0.10000000000E+02 0.  1.
</event>
<event>
 5    1  0.1020718E-008  0.3730096E+03  0.7957747E-01  0.3482172E+00
         13   -1    0    0    0    0  0.00000000000E+00  0.00000000000E+00  0.14999999963E+04  0.15000000000E+04  0.10566000000E+00 0. -1.
        994   -1    0    0    0    0 -0.00000000000E+00 -0.00000000000E+00  0.11368683772E-12  0.17120000000E+03  0.17120000000E+03 0.  0.
         13    1    1    2    0    0 -0.48928087762E+02  0.53490207051E+02  0.27379302029E+03  0.28322745126E+03  0.10566000000E+00 0. -1.
        994    1    1    2    0    0  0.48405119395E+02 -0.56063941553E+02  0.26718775062E+02  0.18843978897E+03  0.17120000000E+03 0.  0.
        998    1    1    2    0    0  0.52296836692E+00  0.25737345021E+01  0.11994882009E+04  0.11995327598E+04  0.10000000000E+02 0.  0.
</event>
<event>
 5    1  0.1020718E-008  0.3754276E+03  0.7957747E-01  0.3471312E+00
         13   -1    0    0    0    0  0.00000000000E+00  0.00000000000E+00  0.14999999963E+04  0.15000000000E+04  0.10566000000E+00 0.  1.
        994   -1    0    0    0    0 -0.00000000000E+00 -0.00000000000E+00  0.11368683772E-12  0.17120000000E+03  0.17120000000E+03 0.  0.
         13    1    1    2    0    0  0.12962540436E+02  0.13926800695E+02  0.25378667216E+02  0.31718624589E+02  0.10566000000E+00 0.  1.
        994    1    1    2    0    0 -0.58589585853E+01 -0.11271059900E+02  0.70071919854E+01  0.17181357608E+03  0.17120000000E+03 0.  0.
        998    1    1    2    0    0 -0.71035818504E+01 -0.26557407946E+01  0.14676141371E+04  0.14676677993E+04  0.10000000000E+02 0.  1.
</event>
<event>
 5    1  0.1020718E-008  0.3848852E+03  0.7957747E-01  0.3430159E+00
         13   -1    0    0    0    0  0.00000000000E+00  0.00000000000E+00  0.14999999963E+04  0.15000000000E+04  0.10566000000E+00 0. -1.
        994   -1    0    0    0    0 -0.00000000000E+00 -0.00000000000E+00  0.11368683772E-12  0.17120000000E+03  0.17120000000E+03 0.  0.
         13    1    1    2    0    0 -0.65464605387E+01  0.15276491723E+02  0.75108024166E+02  0.76924988158E+02  0.10566000000E+00 0. -1.
        994    1    1    2    0    0  0.21096996782E+02 -0.17107278987E+02  0.41179736631E+01  0.17339013805E+03  0.17120000000E+03 0.  0.
        998    1    1    2    0    0 -0.14550536244E+02  0.18307872634E+01  0.14207739984E+04  0.14208848738E+04  0.10000000000E+02 0. -1.
</event>
<event>
 5    1  0.1020718E-008  0.3855767E+03  0.7957747E-01  0.3427230E+00
         13   -1    0    0    0    0  0.00000000000E+00  0.00000000000E+00  0.14999999963E+04  0.15000000000E+04  0.10566000000E+00 0. -1.
        994   -1    0    0    0    0 -0.00000000000E+00 -0.00000000000E+00  0.11368683772E-12  0.17120000000E+03  0.17120000000E+03 0.  0.
         13    1    1    2    0    0  0.34430852153E+01  0.10370823124E+02  0.57654465607E+02  0.58680979683E+02  0.10566000000E+00 0. -1.
        994    1    1    2    0    0  0.29538250190E+02  0.20939816763E+02  0.56592855258E+01  0.17507841575E+03  0.17120000000E+03 0.  0.
        998    1    1    2    0    0 -0.32981335405E+02 -0.31310639887E+02  0.14366862451E+04  0.14374406046E+04  0.10000000000E+02 0. -1.
</event>
<event>
 5    1  0.1020718E-008  0.3807308E+03  0.7957747E-01  0.3447983E+00
         13   -1    0    0    0    0  0.00000000000E+00  0.00000000000E+00  0.14999999963E+04  0.15000000000E+04  0.10566000000E+00 0. -1.
        994   -1    0    0    0    0 -0.00000000000E+00 -0.00000000000E+00  0.11368683772E-12  0.17120000000E+03  0.17120000000E+03 0.  0.
         13    1    1    2    0    0  0.19663030915E+02 -0.87279798101E+01  0.56920832283E+02  0.60850675659E+02  0.10566000000E+00 0. -1.
        994    1    1    2    0    0 -0.24530329782E+02  0.11680982078E+02  0.62303467511E+01  0.17345443102E+03  0.17120000000E+03 0.  0.
        998    1    1    2    0    0  0.48672988675E+01 -0.29530022676E+01  0.14368488172E+04  0.14368948933E+04  0.10000000000E+02 0. -1.
</event>
<event>
 5    1  0.1020718E-008  0.3849720E+03  0.7957747E-01  0.3429791E+00
         13   -1    0    0    0    0  0.00000000000E+00  0.00000000000E+00  0.14999999963E+04  0.15000000000E+04  0.10566000000E+00 0. -1.
        994   -1    0    0    0    0 -0.00000000000E+00 -0.00000000000E+00  0.11368683772E-12  0.17120000000E+03  0.17120000000E+03 0.  0.
         13    1    1    2    0    0 -0.14619824506E+00  0.17303383080E+02  0.85312757472E+02  0.87050021203E+02  0.10566000000E+00 0. -1.
        994    1    1    2    0    0 -0.16571156978E+01 -0.20384125612E+02  0.30208764513E+01  0.17244368444E+03  0.17120000000E+03 0.  0.
        998    1    1    2    0    0  0.18033139428E+01  0.30807425320E+01  0.14116663624E+04  0.14117062944E+04  0.10000000000E+02 0. -1.
</event>
<event>
 5    1  0.1020718E-008  0.2584652E+03  0.7957747E-01  0.4245891E+00
         13   -1    0    0    0    0  0.00000000000E+00  0.00000000000E+00  0.14999999963E+04  0.15000000000E+04  0.10566000000E+00 0.  1.
        994   -1    0    0    0    0 -0.00000000000E+00 -0.00000000000E+00  0.11368683772E-12  0.17120000000E+03  0.17120000000E+03 0.  0.
         13    1    1    2    0    0  0.24441366540E+02 -0.17018244297E+03  0.46433421557E+03  0.49514212021E+03  0.10566000000E+00 0.  1.
        994    1    1    2    0    0  0.16917591529E+03  0.15045178672E+03  0.29175841209E+03  0.40704869668E+03  0.17120000000E+03 0.  0.
        998    1    1    2    0    0 -0.19361728183E+03  0.19730656251E+02  0.74390736862E+03  0.76900918311E+03  0.10000000000E+02 0.  1.
</event>
<event>
 5    1  0.1020718E-008  0.3782509E+03  0.7957747E-01  0.3458810E+00
         13   -1    0    0    0    0  0.00000000000E+00  0.00000000000E+00  0.14999999963E+04  0.15000000000E+04  0.10566000000E+00 0. -1.
        994   -1    0    0    0    0 -0.00000000000E+00 -0.00000000000E+00  0.11368683772E-12  0.17120000000E+03  0.17120000000E+03 0.  0.
         13    1    1    2    0    0  0.64033204384E+02  0.16137014227E+03  0.92242704529E+03  0.93862252217E+03  0.10566000000E+00 0. -1.
        994    1    1    2    0    0 -0.74285278999E+02 -0.15926394284E+03  0.11706127591E+03  0.27183834991E+03  0.17120000000E+03 0.  0.
        998    1    1    2    0    0  0.10252074615E+02 -0.21061994314E+01  0.46051167508E+03  0.46073912792E+03  0.10000000000E+02 0.  1.
</event>
<event>
 5    1  0.1020718E-008  0.3795923E+03  0.7957747E-01  0.3452935E+00
         13   -1    0    0    0    0  0.00000000000E+00  0.00000000000E+00  0.14999999963E+04  0.15000000000E+04  0.10566000000E+00 0.  1.
        994   -1    0    0    0    0 -0.00000000000E+00 -0.00000000000E+00  0.11368683772E-12  0.17120000000E+03  0.17120000000E+03 0.  0.
         13    1    1    2    0    0  0.71096961149E+01  0.31231493961E+02  0.12710396812E+03  0.13107777794E+03  0.10566000000E+00 0.  1.
        994    1    1    2    0    0 -0.58634622273E+00 -0.43133235701E+01  0.44025032569E+01  0.17131191026E+03  0.17120000000E+03 0.  0.
        998    1    1    2    0    0 -0.65233498922E+01 -0.26918170391E+02  0.13684935249E+04  0.13688103118E+04  0.10000000000E+02 0.  1.
</event>
<event>
 5    1  0.1020718E-008  0.3804049E+03  0.7957747E-01  0.3449397E+00
         13   -1    0    0    0    0  0.00000000000E+00  0.00000000000E+00  0.14999999963E+04  0.15000000000E+04  0.10566000000E+00 0.  1.
        994   -1    0    0    0    0 -0.00000000000E+00 -0.00000000000E+00  0.11368683772E-12  0.17120000000E+03  0.17120000000E+03 0.  0.
         13    1    1    2    0    0  0.85321509031E+01  0.25219195622E+02  0.78780466163E+02  0.83157551910E+02  0.10566000000E+00 0.  1.
        994    1    1    2    0    0 -0.96417819794E+00 -0.44517034911E+02  0.10576550207E+02  0.17721173621E+03  0.17120000000E+03 0.  0.
        998    1    1    2    0    0 -0.75679727052E+01  0.19297839288E+02  0.14106429799E+04  0.14108307119E+04  0.10000000000E+02 0.  1.
</event>
<event>
 5    1  0.1020718E-008  0.3857197E+03  0.7957747E-01  0.3426626E+00
         13   -1    0    0    0    0  0.00000000000E+00  0.00000000000E+00  0.14999999963E+04  0.15000000000E+04  0.10566000000E+00 0. -1.
        994   -1    0    0    0    0 -0.00000000000E+00 -0.00000000000E+00  0.11368683772E-12  0.17120000000E+03  0.17120000000E+03 0.  0.
         13    1    1    2    0    0 -0.86513262551E+01 -0.13672507372E+02  0.96902334031E+02  0.98243861938E+02  0.10566000000E+00 0. -1.
        994    1    1    2    0    0  0.17153195483E+02  0.10720031009E+02  0.26168122576E+01  0.17241066929E+03  0.17120000000E+03 0.  0.
        998    1    1    2    0    0 -0.85018692277E+01  0.29524763629E+01  0.14004808500E+04  0.14005454688E+04  0.10000000000E+02 0. -1.
</event>
<event>
 5    1  0.1020718E-008  0.3739819E+03  0.7957747E-01  0.3477789E+00
         13   -1    0    0    0    0  0.00000000000E+00  0.00000000000E+00  0.14999999963E+04  0.15000000000E+04  0.10566000000E+00 0. -1.
        994   -1    0    0    0    0 -0.00000000000E+00 -0.00000000000E+00  0.11368683772E-12  0.17120000000E+03  0.17120000000E+03 0.  0.
         13    1    1    2    0    0  0.76551228572E+02 -0.29409043871E+02  0.38097222894E+03  0.38969838702E+03  0.10566000000E+00 0. -1.
        994    1    1    2    0    0  0.76212446732E+01 -0.81816986760E+01  0.13503357327E+02  0.17209533469E+03  0.17120000000E+03 0.  0.
        998    1    1    2    0    0 -0.84172473245E+02  0.37590742547E+02  0.11055244100E+04  0.11094062783E+04  0.10000000000E+02 0. -1.
</event>
<event>
 5    1  0.1020718E-008  0.3696551E+03  0.7957747E-01  0.3497478E+00
         13   -1    0    0    0    0  0.00000000000E+00  0.00000000000E+00  0.14999999963E+04  0.15000000000E+04  0.10566000000E+00 0. -1.
        994   -1    0    0    0    0 -0.00000000000E+00 -0.00000000000E+00  0.11368683772E-12  0.17120000000E+03  0.17120000000E+03 0.  0.
         13    1    1    2    0    0  0.98554669092E+01 -0.40758001376E+02  0.13392718593E+03  0.14033833118E+03  0.10566000000E+00 0. -1.
        994    1    1    2    0    0  0.76402245080E+02 -0.45809332088E+02  0.37446623730E+02  0.19658964263E+03  0.17120000000E+03 0.  0.
        998    1    1    2    0    0 -0.86257711990E+02  0.86567333464E+02  0.13286261866E+04  0.13342720262E+04  0.10000000000E+02 0. -1.
</event>
<event>
 5    1  0.1020718E-008  0.3828692E+03  0.7957747E-01  0.3438760E+00
         13   -1    0    0    0    0  0.00000000000E+00  0.00000000000E+00  0.14999999963E+04  0.15000000000E+04  0.10566000000E+00 0. -1.
        994   -1    0    0    0    0 -0.00000000000E+00 -0.00000000000E+00  0.11368683772E-12  0.17120000000E+03  0.17120000000E+03 0.  0.
         13    1    1    2    0    0 -0.25082109076E+02  0.82168354352E+01  0.12083080028E+03  0.12367991769E+03  0.10566000000E+00 0. -1.
        994    1    1    2    0    0  0.24823344519E+02 -0.51543684391E+01  0.48231819439E+01  0.17313425147E+03  0.17120000000E+03 0.  0.
        998    1    1    2    0    0  0.25876455669E+00 -0.30624669961E+01  0.13743460141E+04  0.13743858308E+04  0.10000000000E+02 0. -1.
</event>
<event>
 5    1  0.1020718E-008  0.3792793E+03  0.7957747E-01  0.3454302E+00
         13   -1    0    0    0    0  0.00000000000E+00  0.00000000000E+00  0.14999999963E+04  0.15000000000E+04  0.10566000000E+00 0. -1.
        994   -1    0    0    0    0 -0.00000000000E+00 -0.00000000000E+00  0.11368683772E-12  0.17120000000E+03  0.17120000000E+03 0.  0.
         13    1    1    2    0    0 -0.21482121769E+02  0.23826799659E+02  0.12766964612E+03  0.13163870115E+03  0.10566000000E+00 0. -1.
        994    1    1    2    0    0  0.15994147228E+01  0.46576486582E+01  0.45786492217E+01  0.17133200474E+03  0.17120000000E+03 0.  0.
        998    1    1    2    0    0  0.19882707047E+02 -0.28484448317E+02  0.13677517009E+04  0.13682292941E+04  0.10000000000E+02 0. -1.
</event>
<event>
 5    1  0.1020718E-008  0.3848825E+03  0.7957747E-01  0.3430171E+00
         13   -1    0    0    0    0  0.00000000000E+00  0.00000000000E+00  0.14999999963E+04  0.15000000000E+04  0.10566000000E+00 0. -1.
        994   -1    0    0    0    0 -0.00000000000E+00 -0.00000000000E+00  0.11368683772E-12  0.17120000000E+03  0.17120000000E+03 0.  0.
         13    1    1    2    0    0 -0.91413355689E+02  0.15170176202E+03  0.97770053779E+03  0.99361369705E+03  0.10566000000E+00 0. -1.
        994    1    1    2    0    0  0.10822374561E+03 -0.17091182545E+03  0.15047926772E+03  0.30475675744E+03  0.17120000000E+03 0.  0.
        998    1    1    2    0    0 -0.16810389917E+02  0.19210063424E+02  0.37182019076E+03  0.37282954551E+03  0.10000000000E+02 0. -1.
</event>
<event>
 5    1  0.1020718E-008  0.3841502E+03  0.7957747E-01  0.3433284E+00
         13   -1    0    0    0    0  0.00000000000E+00  0.00000000000E+00  0.14999999963E+04  0.15000000000E+04  0.10566000000E+00 0. -1.
        994   -1    0    0    0    0 -0.00000000000E+00 -0.00000000000E+00  0.11368683772E-12  0.17120000000E+03  0.17120000000E+03 0.  0.
         13    1    1    2    0    0  0.51038646054E+01  0.91238751096E+01  0.25528756830E+02  0.27586647499E+02  0.10566000000E+00 0. -1.
        994    1    1    2    0    0 -0.77859731242E+01 -0.99914441607E+01  0.25819366325E+01  0.17168738081E+03  0.17120000000E+03 0.  0.
        998    1    1    2    0    0  0.26821085188E+01  0.86756905118E+00  0.14718893028E+04  0.14719259717E+04  0.10000000000E+02 0. -1.
</event>
<event>
 5    1  0.1020718E-008  0.3839755E+03  0.7957747E-01  0.3434029E+00
         13   -1    0    0    0    0  0.00000000000E+00  0.00000000000E+00  0.14999999963E+04  0.15000000000E+04  0.10566000000E+00 0. -1.
        994   -1    0    0    0    0 -0.00000000000E+00 -0.00000000000E+00  0.11368683772E-12  0.17120000000E+03  0.17120000000E+03 0.  0.
         13    1    1    2    0    0 -0.62048916874E+01 -0.10231290756E+02  0.32846873506E+02  0.34958664942E+02  0.10566000000E+00 0. -1.
        994    1    1    2    0    0  0.47849190912E+01  0.69439876867E+01  0.23743106993E+01  0.17142401164E+03  0.17120000000E+03 0.  0.
        998    1    1    2    0    0  0.14199725962E+01  0.32873030695E+01  0.14647788121E+04  0.14648173234E+04  0.10000000000E+02 0. -1.
</event>
<event>
 5    1  0.1020718E-008  0.3847897E+03  0.7957747E-01  0.3430565E+00
         13   -1    0    0    0    0  0.00000000000E+00  0.00000000000E+00  0.14999999963E+04  0.15000000000E+04  0.10566000000E+00 0.  1.
        994   -1    0    0    0    0 -0.00000000000E+00 -0.00000000000E+00  0.11368683772E-12  0.17120000000E+03  0.17120000000E+03 0.  0.
         13    1    1    2    0    0  0.81832510568E+01 -0.97755927889E+01  0.46466778554E+02  0.48184027286E+02  0.10566000000E+00 0.  1.
        994    1    1    2    0    0 -0.57939591276E+00  0.11822368440E+02  0.21957994225E+01  0.17162274217E+03  0.17120000000E+03 0.  0.
        998    1    1    2    0    0 -0.76038551440E+01 -0.20467756513E+01  0.14513374183E+04  0.14513932305E+04  0.10000000000E+02 0.  1.
</event>
<event>
 5    1  0.1020718E-008  0.3690442E+03  0.7957747E-01  0.3500295E+00
         13   -1    0    0    0    0  0.00000000000E+00  0.00000000000E+00  0.14999999963E+04  0.15000000000E+04  0.10566000000E+00 0.  1.
        994   -1    0    0    0    0 -0.00000000000E+00 -0.00000000000E+00  0.11368683772E-12  0.17120000000E+03  0.17120000000E+03 0.  0.
         13    1    1    2    0    0  0.24135313851E+02  0.40709246297E+02  0.12509388821E+03  0.13374695563E+03  0.10566000000E+00 0.  1.
        994    1    1    2    0    0  0.91437543776E+01 -0.61018817618E+01  0.10188837161E+02  0.17185486204E+03  0.17120000000E+03 0.  0.
        998    1    1    2    0    0 -0.33279068229E+02 -0.34607364535E+02  0.13647172709E+04  0.13655981823E+04  0.10000000000E+02 0.  1.
</event>
<event>
 5    1  0.1020718E-008  0.3803758E+03  0.7957747E-01  0.3449524E+00
         13   -1    0    0    0    0  0.00000000000E+00  0.00000000000E+00  0.14999999963E+04  0.15000000000E+04  0.10566000000E+00 0.  1.
        994   -1    0    0    0    0 -0.00000000000E+00 -0.00000000000E+00  0.11368683772E-12  0.17120000000E+03  0.17120000000E+03 0.  0.
         13    1    1    2    0    0  0.18423627420E+02 -0.63786751783E+01  0.40451340206E+01  0.19912102291E+02  0.10566000000E+00 0.  1.
        994    1    1    2    0    0 -0.19061929529E+02  0.90768926599E+01  0.18152853629E+02  0.17344945440E+03  0.17120000000E+03 0.  0.
        998    1    1    2    0    0  0.63830210907E+00 -0.26982174817E+01  0.14778020086E+04  0.14778384433E+04  0.10000000000E+02 0.  1.
</event>
<event>
 5    1  0.1353562E-008  0.3862644E+03  0.7957747E-01  0.3424327E+00
         13   -1    0    0    0    0  0.00000000000E+00  0.00000000000E+00  0.14999999963E+04  0.15000000000E+04  0.10566000000E+00 0.  1.
        994   -1    0    0    0    0 -0.00000000000E+00 -0.00000000000E+00  0.11368683772E-12  0.17120000000E+03  0.17120000000E+03 0.  0.
         13    1    1    2    0    0  0.11237106367E+02 -0.43674747775E+00  0.64424342445E+02  0.65398550223E+02  0.10566000000E+00 0.  1.
        994    1    1    2    0    0 -0.66586641852E+01  0.31464179212E+01  0.11813310146E+01  0.17136240340E+03  0.17120000000E+03 0.  0.
        998    1    1    2    0    0 -0.45784421815E+01 -0.27096704435E+01  0.14343943228E+04  0.14344390464E+04  0.10000000000E+02 0.  1.
</event>
<event>
 5    1  0.1020718E-008  0.3718405E+03  0.7957747E-01  0.3487475E+00
         13   -1    0    0    0    0  0.00000000000E+00  0.00000000000E+00  0.14999999963E+04  0.15000000000E+04  0.10566000000E+00 0.  1.
        994   -1    0    0    0    0 -0.00000000000E+00 -0.00000000000E+00  0.11368683772E-12  0.17120000000E+03  0.17120000000E+03 0.  0.
         13    1    1    2    0    0 -0.56502477348E+02  0.41815451776E+02  0.24153350744E+03  0.25155418568E+03  0.10566000000E+00 0.  1.
        994    1    1    2    0    0  0.63820865979E+02 -0.38437074998E+02  0.27629095635E+02  0.18874140668E+03  0.17120000000E+03 0.  0.
        998    1    1    2    0    0 -0.73183886311E+01 -0.33783767774E+01  0.12308373932E+04  0.12309044076E+04  0.10000000000E+02 0.  1.
</event>
<event>
 5    1  0.1020718E-008  0.3852692E+03  0.7957747E-01  0.3428531E+00
         13   -1    0    0    0    0  0.00000000000E+00  0.00000000000E+00  0.14999999963E+04  0.15000000000E+04  0.10566000000E+00 0. -1.
        994   -1    0    0    0    0 -0.00000000000E+00 -0.00000000000E+00  0.11368683772E-12  0.17120000000E+03  0.17120000000E+03 0.  0.
         13    1    1    2    0    0  0.25052891840E+01 -0.16107715253E+02  0.87454487581E+02  0.88960853900E+02  0.10566000000E+00 0. -1.
        994    1    1    2    0    0  0.18897250601E+00  0.13079832312E+02  0.20590117299E+01  0.17171137776E+03  0.17120000000E+03 0.  0.
        998    1    1    2    0    0 -0.26942616901E+01  0.30278829409E+01  0.14104864970E+04  0.14105277683E+04  0.10000000000E+02 0. -1.
</event>
<event>
 5    1  0.1020718E-008  0.3840610E+03  0.7957747E-01  0.3433664E+00
         13   -1    0    0    0    0  0.00000000000E+00  0.00000000000E+00  0.14999999963E+04  0.15000000000E+04  0.10566000000E+00 0.  1.
        994   -1    0    0    0    0 -0.00000000000E+00 -0.00000000000E+00  0.11368683772E-12  0.17120000000E+03  0.17120000000E+03 0.  0.
         13    1    1    2    0    0 -0.99883640814E+01  0.39130628491E+01  0.26961266185E+02  0.29017245152E+02  0.10566000000E+00 0.  1.
        994    1    1    2    0    0  0.54634363805E+01 -0.29519759610E+01  0.22242723388E+01  0.17132702848E+03  0.17120000000E+03 0.  0.
        998    1    1    2    0    0  0.45249277010E+01 -0.96108688808E+00  0.14708144578E+04  0.14708557264E+04  0.10000000000E+02 0.  1.
</event>
<event>
 5    1  0.1020718E-008  0.3695961E+03  0.7957747E-01  0.3497749E+00
         13   -1    0    0    0    0  0.00000000000E+00  0.00000000000E+00  0.14999999963E+04  0.15000000000E+04  0.10566000000E+00 0.  1.
        994   -1    0    0    0    0 -0.00000000000E+00 -0.00000000000E+00  0.11368683772E-12  0.17120000000E+03  0.17120000000E+03 0.  0.
         13    1    1    2    0    0  0.87328180030E+01  0.12235937498E+02  0.55723096176E+01  0.16032531779E+02  0.10566000000E+00 0.  1.
        994    1    1    2    0    0 -0.11899936144E+02 -0.12607579359E+02  0.11775365606E+02  0.17247799504E+03  0.17120000000E+03 0.  0.
        998    1    1    2    0    0  0.31671181414E+01  0.37164186142E+00  0.14826523211E+04  0.14826894732E+04  0.10000000000E+02 0.  1.
</event>
<event>
 5    1  0.1020718E-008  0.3820690E+03  0.7957747E-01  0.3442199E+00
         13   -1    0    0    0    0  0.00000000000E+00  0.00000000000E+00  0.14999999963E+04  0.15000000000E+04  0.10566000000E+00 0. -1.
        994   -1    0    0    0    0 -0.00000000000E+00 -0.00000000000E+00  0.11368683772E-12  0.17120000000E+03  0.17120000000E+03 0.  0.
         13    1    1    2    0    0  0.22702047501E+02 -0.62941811927E+02  0.14594474396E+03  0.16055196699E+03  0.10566000000E+00 0. -1.
        994    1    1    2    0    0 -0.16903233602E+02 -0.11612117487E+02  0.19005414831E+02  0.17346817106E+03  0.17120000000E+03 0.  0.
        998    1    1    2    0    0 -0.57988138991E+01  0.74553929414E+02  0.13350498375E+04  0.13371798620E+04  0.10000000000E+02 0. -1.
</event>
<event>
 5    1  0.1020718E-008  0.3738222E+03  0.7957747E-01  0.3478507E+00
         13   -1    0    0    0    0  0.00000000000E+00  0.00000000000E+00  0.14999999963E+04  0.15000000000E+04  0.10566000000E+00 0. -1.
        994   -1    0    0    0    0 -0.00000000000E+00 -0.00000000000E+00  0.11368683772E-12  0.17120000000E+03  0.17120000000E+03 0.  0.
         13    1    1    2    0    0  0.66672511735E+02 -0.48613867758E+02  0.22975895712E+03  0.24412644572E+03  0.10566000000E+00 0. -1.
        994    1    1    2    0    0 -0.56106678587E+02  0.47006263065E+02  0.32210324899E+02  0.18895632612E+03  0.17120000000E+03 0.  0.
        998    1    1    2    0    0 -0.10565833148E+02  0.16076046926E+01  0.12380307143E+04  0.12381172282E+04  0.10000000000E+02 0. -1.
</event>
<event>
 5    1  0.1020718E-008  0.3694563E+03  0.7957747E-01  0.3498393E+00
         13   -1    0    0    0    0  0.00000000000E+00  0.00000000000E+00  0.14999999963E+04  0.15000000000E+04  0.10566000000E+00 0.  1.
        994   -1    0    0    0    0 -0.00000000000E+00 -0.00000000000E+00  0.11368683772E-12  0.17120000000E+03  0.17120000000E+03 0.  0.
         13    1    1    2    0    0  0.24147031677E+02 -0.42730690501E+02  0.10994594828E+03  0.12040396072E+03  0.10566000000E+00 0.  1.
        994    1    1    2    0    0 -0.17911588797E+02  0.57604035172E+02  0.22267558526E+02  0.18287792115E+03  0.17120000000E+03 0.  0.
        998    1    1    2    0    0 -0.62354428794E+01 -0.14873344671E+02  0.13677864895E+04  0.13679181181E+04  0.10000000000E+02 0.  1.
</event>
<event>
 5    1  0.1020718E-008  0.3802635E+03  0.7957747E-01  0.3450012E+00
         13   -1    0    0    0    0  0.00000000000E+00  0.00000000000E+00  0.14999999963E+04  0.15000000000E+04  0.10566000000E+00 0.  1.
        994   -1    0    0    0    0 -0.00000000000E+00 -0.00000000000E+00  0.11368683772E-12  0.17120000000E+03  0.17120000000E+03 0.  0.
         13    1    1    2    0    0  0.18160025463E+02 -0.21309745615E+02  0.93147151027E+02  0.97264046242E+02  0.10566000000E+00 0.  1.
        994    1    1    2    0    0 -0.14660814601E+02  0.19551507301E+02  0.59973866651E+01  0.17303932954E+03  0.17120000000E+03 0.  0.
        998    1    1    2    0    0 -0.34992108626E+01  0.17582383134E+01  0.14008554586E+04  0.14008966242E+04  0.10000000000E+02 0.  1.
</event>
<event>
 5    1  0.1020718E-008  0.3759594E+03  0.7957747E-01  0.3468943E+00
         13   -1    0    0    0    0  0.00000000000E+00  0.00000000000E+00  0.14999999963E+04  0.15000000000E+04  0.10566000000E+00 0.  1.
        994   -1    0    0    0    0 -0.00000000000E+00 -0.00000000000E+00  0.11368683772E-12  0.17120000000E+03  0.17120000000E+03 0.  0.
         13    1    1    2    0    0  0.37456288373E+02  0.10546632197E+02  0.10677505672E+03  0.11364474862E+03  0.10566000000E+00 0.  1.
        994    1    1    2    0    0 -0.49869817436E+02 -0.78122065220E+01  0.14869486633E+02  0.17910491589E+03  0.17120000000E+03 0.  0.
        998    1    1    2    0    0  0.12413529062E+02 -0.27344256752E+01  0.13783554529E+04  0.13784503355E+04  0.10000000000E+02 0.  1.
</event>
<event>
 5    1  0.1020718E-008  0.3800263E+03  0.7957747E-01  0.3451044E+00
         13   -1    0    0    0    0  0.00000000000E+00  0.00000000000E+00  0.14999999963E+04  0.15000000000E+04  0.10566000000E+00 0. -1.
        994   -1    0    0    0    0 -0.00000000000E+00 -0.00000000000E+00  0.11368683772E-12  0.17120000000E+03  0.17120000000E+03 0.  0.
         13    1    1    2    0    0 -0.16829504826E+02 -0.18651204267E+02  0.70821180665E+02  0.75144863085E+02  0.10566000000E+00 0. -1.
        994    1    1    2    0    0  0.11769368033E+02  0.28927747686E+02  0.73868997959E+01  0.17418191324E+03  0.17120000000E+03 0.  0.
        998    1    1    2    0    0  0.50601367929E+01 -0.10276543419E+02  0.14217919158E+04  0.14218732237E+04  0.10000000000E+02 0. -1.
</event>
<event>
 5    1  0.1020718E-008  0.3797586E+03  0.7957747E-01  0.3452210E+00
         13   -1    0    0    0    0  0.00000000000E+00  0.00000000000E+00  0.14999999963E+04  0.15000000000E+04  0.10566000000E+00 0. -1.
        994   -1    0    0    0    0 -0.00000000000E+00 -0.00000000000E+00  0.11368683772E-12  0.17120000000E+03  0.17120000000E+03 0.  0.
         13    1    1    2    0    0  0.48688798974E+01  0.34940647962E+02  0.12443168480E+03  0.12933603604E+03  0.10566000000E+00 0. -1.
        994    1    1    2    0    0 -0.11023418478E+02 -0.47136540449E+02  0.12135200119E+02  0.17832574767E+03  0.17120000000E+03 0.  0.
        998    1    1    2    0    0  0.61545385805E+01  0.12195892487E+02  0.13634331114E+04  0.13635382163E+04  0.10000000000E+02 0. -1.
</event>
<event>
 5    1  0.1020718E-008  0.3702183E+03  0.7957747E-01  0.3494888E+00
         13   -1    0    0    0    0  0.00000000000E+00  0.00000000000E+00  0.14999999963E+04  0.15000000000E+04  0.10566000000E+00 0. -1.
        994   -1    0    0    0    0 -0.00000000000E+00 -0.00000000000E+00  0.11368683772E-12  0.17120000000E+03  0.17120000000E+03 0.  0.
         13    1    1    2    0    0 -0.47025213477E+02 -0.94594827882E+01  0.12576662029E+03  0.13460351578E+03  0.10566000000E+00 0. -1.
        994    1    1    2    0    0  0.14871094940E+02  0.46740553621E+02  0.17513574528E+02  0.17894690305E+03  0.17120000000E+03 0.  0.
        998    1    1    2    0    0  0.32154118537E+02 -0.37281070833E+02  0.13567198015E+04  0.13576495812E+04  0.10000000000E+02 0. -1.
</event>
<event>
 5    1  0.1020718E-008  0.3726157E+03  0.7957747E-01  0.3483956E+00
         13   -1    0    0    0    0  0.00000000000E+00  0.00000000000E+00  0.14999999963E+04  0.15000000000E+04  0.10566000000E+00 0.  1.
        994   -1    0    0    0    0 -0.00000000000E+00 -0.00000000000E+00  0.11368683772E-12  0.17120000000E+03  0.17120000000E+03 0.  0.
         13    1    1    2    0    0 -0.39357839629E+02  0.18727001001E+02  0.70640257098E+02  0.83004802232E+02  0.10566000000E+00 0.  1.
        994    1    1    2    0    0  0.33119450450E+02 -0.18976619291E+02  0.17486967519E+02  0.17627320872E+03  0.17120000000E+03 0.  0.
        998    1    1    2    0    0  0.62383891789E+01  0.24961828957E+00  0.14118727717E+04  0.14119219891E+04  0.10000000000E+02 0.  1.
</event>
<event>
 5    1  0.1020718E-008  0.3851355E+03  0.7957747E-01  0.3429098E+00
         13   -1    0    0    0    0  0.00000000000E+00  0.00000000000E+00  0.14999999963E+04  0.15000000000E+04  0.10566000000E+00 0.  1.
        994   -1    0    0    0    0 -0.00000000000E+00 -0.00000000000E+00  0.11368683772E-12  0.17120000000E+03  0.17120000000E+03 0.  0.
         13    1    1    2    0    0 -0.65442413745E-01 -0.18850960750E+02  0.10854858196E+03  0.11017335800E+03  0.10566000000E+00 0.  1.
        994    1    1    2    0    0  0.11684573985E+02  0.17897245426E+02  0.30660428512E+01  0.17255631336E+03  0.17120000000E+03 0.  0.
        998    1    1    2    0    0 -0.11619131571E+02  0.95371532385E+00  0.13883853715E+04  0.13884703286E+04  0.10000000000E+02 0.  1.
</event>
<event>
 5    1  0.1020718E-008  0.3829780E+03  0.7957747E-01  0.3438293E+00
         13   -1    0    0    0    0  0.00000000000E+00  0.00000000000E+00  0.14999999963E+04  0.15000000000E+04  0.10566000000E+00 0. -1.
        994   -1    0    0    0    0 -0.00000000000E+00 -0.00000000000E+00  0.11368683772E-12  0.17120000000E+03  0.17120000000E+03 0.  0.
         13    1    1    2    0    0  0.80924730150E+00 -0.26826153585E+02  0.15333574183E+03  0.15566681819E+03  0.10566000000E+00 0. -1.
        994    1    1    2    0    0  0.18891718424E+02  0.21381982152E+01  0.38348475281E+01  0.17229513914E+03  0.17120000000E+03 0.  0.
        998    1    1    2    0    0 -0.19700965725E+02  0.24687955370E+02  0.13428294069E+04  0.13432380427E+04  0.10000000000E+02 0. -1.
</event>
<event>
 5    1  0.1020718E-008  0.3733798E+03  0.7957747E-01  0.3480501E+00
         13   -1    0    0    0    0  0.00000000000E+00  0.00000000000E+00  0.14999999963E+04  0.15000000000E+04  0.10566000000E+00 0. -1.
        994   -1    0    0    0    0 -0.00000000000E+00 -0.00000000000E+00  0.11368683772E-12  0.17120000000E+03  0.17120000000E+03 0.  0.
         13    1    1    2    0    0 -0.14713058263E+02 -0.18949426065E+02  0.38157177441E+02  0.45072565779E+02  0.10566000000E+00 0. -1.
        994    1    1    2    0    0 -0.10085442961E+02 -0.76445540073E+01  0.80606905216E+01  0.17185624835E+03  0.17120000000E+03 0.  0.
        998    1    1    2    0    0  0.24798501223E+02  0.26593980072E+02  0.14537821283E+04  0.14542711859E+04  0.10000000000E+02 0. -1.
</event>
<event>
 5    1  0.1020718E-008  0.3844054E+03  0.7957747E-01  0.3432198E+00
         13   -1    0    0    0    0  0.00000000000E+00  0.00000000000E+00  0.14999999963E+04  0.15000000000E+04  0.10566000000E+00 0. -1.
        994   -1    0    0    0    0 -0.00000000000E+00 -0.00000000000E+00  0.11368683772E-12  0.17120000000E+03  0.17120000000E+03 0.  0.
         13    1    1    2    0    0  0.96521641450E+01 -0.41313059179E+01  0.27575920170E+02  0.29507194013E+02  0.10566000000E+00 0. -1.
        994    1    1    2    0    0 -0.11597082743E+02  0.43415862761E+01  0.24310594844E+01  0.17166447434E+03  0.17120000000E+03 0.  0.
        998    1    1    2    0    0  0.19449185984E+01 -0.21028035824E+00  0.14699930166E+04  0.14700283316E+04  0.10000000000E+02 0. -1.
</event>
<event>
 5    1  0.1020718E-008  0.3840862E+03  0.7957747E-01  0.3433557E+00
         13   -1    0    0    0    0  0.00000000000E+00  0.00000000000E+00  0.14999999963E+04  0.15000000000E+04  0.10566000000E+00 0. -1.
        994   -1    0    0    0    0 -0.00000000000E+00 -0.00000000000E+00  0.11368683772E-12  0.17120000000E+03  0.17120000000E+03 0.  0.
         13    1    1    2    0    0 -0.17483761375E+02 -0.63299024874E+01  0.76548920636E+02  0.78774983287E+02  0.10566000000E+00 0. -1.
        994    1    1    2    0    0  0.23182382801E+02  0.76283443619E+01  0.40515520713E+01  0.17297823442E+03  0.17120000000E+03 0.  0.
        998    1    1    2    0    0 -0.56986214258E+01 -0.12984418745E+01  0.14193995236E+04  0.14194467823E+04  0.10000000000E+02 0. -1.
</event>
<event>
 5    1  0.1020718E-008  0.3841444E+03  0.7957747E-01  0.3433309E+00
         13   -1    0    0    0    0  0.00000000000E+00  0.00000000000E+00  0.14999999963E+04  0.15000000000E+04  0.10566000000E+00 0.  1.
        994   -1    0    0    0    0 -0.00000000000E+00 -0.00000000000E+00  0.11368683772E-12  0.17120000000E+03  0.17120000000E+03 0.  0.
         13    1    1    2    0    0  0.14103265244E+02 -0.54497843031E+01  0.53764907760E+02  0.55850503220E+02  0.10566000000E+00 0.  1.
        994    1    1    2    0    0 -0.13780529976E+02  0.62297954514E+01  0.28101232538E+01  0.17188964527E+03  0.17120000000E+03 0.  0.
        998    1    1    2    0    0 -0.32273526757E+00 -0.78001114835E+00  0.14434249653E+04  0.14434598515E+04  0.10000000000E+02 0.  0.
</event>
<event>
 5    1  0.1020718E-008  0.3934715E+03  0.7957747E-01  0.3394520E+00
         13   -1    0    0    0    0  0.00000000000E+00  0.00000000000E+00  0.14999999963E+04  0.15000000000E+04  0.10566000000E+00 0. -1.
        994   -1    0    0    0    0 -0.00000000000E+00 -0.00000000000E+00  0.11368683772E-12  0.17120000000E+03  0.17120000000E+03 0.  0.
         13    1    1    2    0    0 -0.11294684180E+03  0.88286111874E+02  0.30215934072E+03  0.33444237914E+03  0.10566000000E+00 0. -1.
        994    1    1    2    0    0  0.12397810356E+03 -0.93142089801E+02  0.12279720184E+03  0.26160009907E+03  0.17120000000E+03 0.  0.
        998    1    1    2    0    0 -0.11031261763E+02  0.48559779274E+01  0.10750434537E+04  0.10751575218E+04  0.10000000000E+02 0.  1.
</event>
<event>
 5    1  0.1020718E-008  0.3751300E+03  0.7957747E-01  0.3472641E+00
         13   -1    0    0    0    0  0.00000000000E+00  0.00000000000E+00  0.14999999963E+04  0.15000000000E+04  0.10566000000E+00 0. -1.
        994   -1    0    0    0    0 -0.00000000000E+00 -0.00000000000E+00  0.11368683772E-12  0.17120000000E+03  0.17120000000E+03 0.  0.
         13    1    1    2    0    0 -0.12542526486E+02 -0.19081909257E+01  0.96402860554E+01  0.15934316506E+02  0.10566000000E+00 0. -1.
        994    1    1    2    0    0 -0.14261672706E+02  0.11358195315E+02  0.77421913619E+01  0.17234205939E+03  0.17120000000E+03 0.  0.
        998    1    1    2    0    0  0.26804199192E+02 -0.94500043897E+01  0.14826175189E+04  0.14829236241E+04  0.10000000000E+02 0. -1.
</event>
<event>
 5    1  0.1020718E-008  0.3735904E+03  0.7957747E-01  0.3479551E+00
         13   -1    0    0    0    0  0.00000000000E+00  0.00000000000E+00  0.14999999963E+04  0.15000000000E+04  0.10566000000E+00 0.  1.
        994   -1    0    0    0    0 -0.00000000000E+00 -0.00000000000E+00  0.11368683772E-12  0.17120000000E+03  0.17120000000E+03 0.  0.
         13    1    1    2    0    0  0.20071358828E+02 -0.16038168692E+02  0.40607791580E+02  0.48052952055E+02  0.10566000000E+00 0.  1.
        994    1    1    2    0    0 -0.18650750235E+02  0.18170113928E+02  0.97235154635E+01  0.17344160481E+03  0.17120000000E+03 0.  0.
        998    1    1    2    0    0 -0.14206085934E+01 -0.21319452359E+01  0.14496686892E+04  0.14497054431E+04  0.10000000000E+02 0.  1.
</event>
<event>
 5    1  0.1020718E-008  0.3755183E+03  0.7957747E-01  0.3470908E+00
         13   -1    0    0    0    0  0.00000000000E+00  0.00000000000E+00  0.14999999963E+04  0.15000000000E+04  0.10566000000E+00 0.  1.
        994   -1    0    0    0    0 -0.00000000000E+00 -0.00000000000E+00  0.11368683772E-12  0.17120000000E+03  0.17120000000E+03 0.  0.
         13    1    1    2    0    0  0.22524866827E+02  0.54183241972E+02  0.28309206555E+03  0.28910953301E+03  0.10566000000E+00 0.  1.
        994    1    1    2    0    0  0.51751352132E+02 -0.56925572236E+02  0.26769070071E+02  0.18959099750E+03  0.17120000000E+03 0.  0.
        998    1    1    2    0    0 -0.74276218959E+02  0.27423302644E+01  0.11901388607E+04  0.11924994695E+04  0.10000000000E+02 0.  1.
</event>
<event>
 5    1  0.1020718E-008  0.3839281E+03  0.7957747E-01  0.3434231E+00
         13   -1    0    0    0    0  0.00000000000E+00  0.00000000000E+00  0.14999999963E+04  0.15000000000E+04  0.10566000000E+00 0. -1.
        994   -1    0    0    0    0 -0.00000000000E+00 -0.00000000000E+00  0.11368683772E-12  0.17120000000E+03  0.17120000000E+03 0.  0.
         13    1    1    2    0    0  0.41517264636E+01  0.21462018816E+02  0.10392876132E+03  0.10620288922E+03  0.10566000000E+00 0. -1.
        994    1    1    2    0    0 -0.93159159410E+01 -0.20414074963E+02  0.38267093452E+01  0.17270670065E+03  0.17120000000E+03 0.  0.
        998    1    1    2    0    0  0.51641894774E+01 -0.10479438529E+01  0.13922445256E+04  0.13922904101E+04  0.10000000000E+02 0. -1.
</event>
<event>
 5    1  0.1020718E-008  0.3819241E+03  0.7957747E-01  0.3442823E+00
         13   -1    0    0    0    0  0.00000000000E+00  0.00000000000E+00  0.14999999963E+04  0.15000000000E+04  0.10566000000E+00 0.  1.
        994   -1    0    0    0    0 -0.00000000000E+00 -0.00000000000E+00  0.11368683772E-12  0.17120000000E+03  0.17120000000E+03 0.  0.
         13    1    1    2    0    0 -0.10069875868E+02  0.11531445418E+02  0.36588905269E+02  0.39662775826E+02  0.10566000000E+00 0.  1.
        994    1    1    2    0    0 -0.49511704093E+01 -0.11025990860E+02  0.36504277443E+01  0.17166494163E+03  0.17120000000E+03 0.  0.
        998    1    1    2    0    0  0.15021046277E+02 -0.50545455818E+00  0.14597606633E+04  0.14598722825E+04  0.10000000000E+02 0.  1.
</event>
<event>
 5    1  0.1020718E-008  0.3813102E+03  0.7957747E-01  0.3445473E+00
         13   -1    0    0    0    0  0.00000000000E+00  0.00000000000E+00  0.14999999963E+04  0.15000000000E+04  0.10566000000E+00 0.  1.
        994   -1    0    0    0    0 -0.00000000000E+00 -0.00000000000E+00  0.11368683772E-12  0.17120000000E+03  0.17120000000E+03 0.  0.
         13    1    1    2    0    0  0.19390712288E+02 -0.74021589327E+01  0.67427720229E+02  0.70549984402E+02  0.10566000000E+00 0.  1.
        994    1    1    2    0    0  0.23981277929E+01 -0.18206920550E+02  0.45965424383E+01  0.17224346483E+03  0.17120000000E+03 0.  0.
        998    1    1    2    0    0 -0.21788840081E+02  0.25609079483E+02  0.14279757336E+04  0.14284065508E+04  0.10000000000E+02 0.  1.
</event>
<event>
 5    1  0.1020718E-008  0.3751514E+03  0.7957747E-01  0.3472546E+00
         13   -1    0    0    0    0  0.00000000000E+00  0.00000000000E+00  0.14999999963E+04  0.15000000000E+04  0.10566000000E+00 0.  1.
        994   -1    0    0    0    0 -0.00000000000E+00 -0.00000000000E+00  0.11368683772E-12  0.17120000000E+03  0.17120000000E+03 0.  0.
         13    1    1    2    0    0 -0.15390722132E+03  0.54323079746E+02  0.70501826463E+03  0.72366373019E+03  0.10566000000E+00 0.  1.
        994    1    1    2    0    0  0.17172468130E+03 -0.59550343360E+02  0.12867442655E+03  0.28089527872E+03  0.17120000000E+03 0.  0.
        998    1    1    2    0    0 -0.17817459980E+02  0.52272636141E+01  0.66630730510E+03  0.66664099109E+03  0.10000000000E+02 0. -1.
</event>
<event>
 5    1  0.1020718E-008  0.3748093E+03  0.7957747E-01  0.3474076E+00
         13   -1    0    0    0    0  0.00000000000E+00  0.00000000000E+00  0.14999999963E+04  0.15000000000E+04  0.10566000000E+00 0. -1.
        994   -1    0    0    0    0 -0.00000000000E+00 -0.00000000000E+00  0.11368683772E-12  0.17120000000E+03  0.17120000000E+03 0.  0.
         13    1    1    2    0    0 -0.21117829734E+03 -0.19772619579E+03  0.10675917253E+04  0.11060940398E+04  0.10566000000E+00 0. -1.
        994    1    1    2    0    0  0.20537157977E+03  0.18012822646E+03  0.33298892816E+03  0.46348109996E+03  0.17120000000E+03 0.  0.
        998    1    1    2    0    0  0.58067175725E+01  0.17597969329E+02  0.99419342797E+02  0.10162486022E+03  0.10000000000E+02 0.  1.
</event>
<event>
 5    1  0.1020718E-008  0.3699075E+03  0.7957747E-01  0.3496316E+00
         13   -1    0    0    0    0  0.00000000000E+00  0.00000000000E+00  0.14999999963E+04  0.15000000000E+04  0.10566000000E+00 0.  1.
        994   -1    0    0    0    0 -0.00000000000E+00 -0.00000000000E+00  0.11368683772E-12  0.17120000000E+03  0.17120000000E+03 0.  0.
         13    1    1    2    0    0  0.31664874461E+02  0.64117543131E+02  0.22773189554E+03  0.23869551949E+03  0.10566000000E+00 0.  1.
        994    1    1    2    0    0 -0.28006395092E+02 -0.68222373192E+02  0.28371012641E+02  0.18855504429E+03  0.17120000000E+03 0.  0.
        998    1    1    2    0    0 -0.36584793684E+01  0.41048300615E+01  0.12438970881E+04  0.12439494362E+04  0.10000000000E+02 0.  1.
</event>
<event>
 5    1  0.1020718E-008  0.3818420E+03  0.7957747E-01  0.3443177E+00
         13   -1    0    0    0    0  0.00000000000E+00  0.00000000000E+00  0.14999999963E+04  0.15000000000E+04  0.10566000000E+00 0. -1.
        994   -1    0    0    0    0 -0.00000000000E+00 -0.00000000000E+00  0.11368683772E-12  0.17120000000E+03  0.17120000000E+03 0.  0.
         13    1    1    2    0    0 -0.89932533350E+01  0.18208424239E+02  0.62010957149E+02  0.65251783802E+02  0.10566000000E+00 0. -1.
        994    1    1    2    0    0  0.11388980231E+02 -0.13739987575E+02  0.42651707805E+01  0.17218050938E+03  0.17120000000E+03 0.  0.
        998    1    1    2    0    0 -0.23957268957E+01 -0.44684366638E+01  0.14337238683E+04  0.14337677068E+04  0.10000000000E+02 0.  0.
</event>
<event>
 5    1  0.2708000E-008  0.3863496E+03  0.7957747E-01  0.3423969E+00
         13   -1    0    0    0    0  0.00000000000E+00  0.00000000000E+00  0.14999999963E+04  0.15000000000E+04  0.10566000000E+00 0. -1.
        994   -1    0    0    0    0 -0.00000000000E+00 -0.00000000000E+00  0.11368683772E-12  0.17120000000E+03  0.17120000000E+03 0.  0.
         13    1    1    2    0    0  0.10290198137E+02  0.12051434273E+01  0.56642028652E+02  0.57581864525E+02  0.10566000000E+00 0. -1.
        994    1    1    2    0    0 -0.74359878537E+01 -0.49661084272E+00  0.11434465506E+01  0.17136594763E+03  0.17120000000E+03 0.  0.
        998    1    1    2    0    0 -0.28542102835E+01 -0.70853258459E+00  0.14422145211E+04  0.14422521878E+04  0.10000000000E+02 0.  0.
</event>
<event>
 5    1  0.1020718E-008  0.3804781E+03  0.7957747E-01  0.3449079E+00
         13   -1    0    0    0    0  0.00000000000E+00  0.00000000000E+00  0.14999999963E+04  0.15000000000E+04  0.10566000000E+00 0.  1.
        994   -1    0    0    0    0 -0.00000000000E+00 -0.00000000000E+00  0.11368683772E-12  0.17120000000E+03  0.17120000000E+03 0.  0.
         13    1    1    2    0    0  0.35815485089E+02 -0.16273320629E+02  0.19674688991E+03  0.20064127140E+03  0.10566000000E+00 0.  1.
        994    1    1    2    0    0 -0.23269959894E+02  0.50684886872E+01  0.57873486992E+01  0.17294540762E+03  0.17120000000E+03 0.  0.
        998    1    1    2    0    0 -0.12545525195E+02  0.11204831942E+02  0.12974657577E+04  0.12976133210E+04  0.10000000000E+02 0.  1.
</event>
<event>
 5    1  0.1020718E-008  0.3742539E+03  0.7957747E-01  0.3476566E+00
         13   -1    0    0    0    0  0.00000000000E+00  0.00000000000E+00  0.14999999963E+04  0.15000000000E+04  0.10566000000E+00 0. -1.
        994   -1    0    0    0    0 -0.00000000000E+00 -0.00000000000E+00  0.11368683772E-12  0.17120000000E+03  0.17120000000E+03 0.  0.
         13    1    1    2    0    0 -0.90256027500E+02 -0.90813859001E+02  0.60477118018E+03  0.61817594505E+03  0.10566000000E+00 0. -1.
        994    1    1    2    0    0  0.16887919133E+03  0.48796104113E+02  0.12095397498E+03  0.27357000038E+03  0.17120000000E+03 0.  0.
        998    1    1    2    0    0 -0.78623163834E+02  0.42017754889E+02  0.77427484111E+03  0.77945405458E+03  0.10000000000E+02 0. -1.
</event>
<event>
 5    1  0.1020718E-008  0.3860527E+03  0.7957747E-01  0.3425220E+00
         13   -1    0    0    0    0  0.00000000000E+00  0.00000000000E+00  0.14999999963E+04  0.15000000000E+04  0.10566000000E+00 0. -1.
        994   -1    0    0    0    0 -0.00000000000E+00 -0.00000000000E+00  0.11368683772E-12  0.17120000000E+03  0.17120000000E+03 0.  0.
         13    1    1    2    0    0  0.11528889886E+02  0.53244323322E+01  0.68180760351E+02  0.69353385842E+02  0.10566000000E+00 0. -1.
        994    1    1    2    0    0 -0.17745085478E+02 -0.55994422059E+01  0.22440089753E+01  0.17222287127E+03  0.17120000000E+03 0.  0.
        998    1    1    2    0    0  0.62161955925E+01  0.27500987373E+00  0.14295752270E+04  0.14296237429E+04  0.10000000000E+02 0. -1.
</event>
<event>
 5    1  0.1020718E-008  0.3814920E+03  0.7957747E-01  0.3444687E+00
         13   -1    0    0    0    0  0.00000000000E+00  0.00000000000E+00  0.14999999963E+04  0.15000000000E+04  0.10566000000E+00 0.  1.
        994   -1    0    0    0    0 -0.00000000000E+00 -0.00000000000E+00  0.11368683772E-12  0.17120000000E+03  0.17120000000E+03 0.  0.
         13    1    1    2    0    0 -0.69792590876E+01  0.13526875912E+02  0.33883682379E+02  0.37145679761E+02  0.10566000000E+00 0.  1.
        994    1    1    2    0    0  0.18090507788E+02  0.63766895497E+01  0.46067456172E+01  0.17233279069E+03  0.17120000000E+03 0.  0.
        998    1    1    2    0    0 -0.11111248700E+02 -0.19903565462E+02  0.14615095683E+04  0.14617215295E+04  0.10000000000E+02 0.  1.
</event>
<event>
 5    1  0.1020718E-008  0.3846890E+03  0.7957747E-01  0.3430992E+00
         13   -1    0    0    0    0  0.00000000000E+00  0.00000000000E+00  0.14999999963E+04  0.15000000000E+04  0.10566000000E+00 0. -1.
        994   -1    0    0    0    0 -0.00000000000E+00 -0.00000000000E+00  0.11368683772E-12  0.17120000000E+03  0.17120000000E+03 0.  0.
         13    1    1    2    0    0  0.57529628991E-01  0.16353432073E+02  0.80640399742E+02  0.82281974240E+02  0.10566000000E+00 0. -1.
        994    1    1    2    0    0 -0.15897057960E+02  0.70952056907E-01  0.26170150561E+01  0.17195641964E+03  0.17120000000E+03 0.  0.
        998    1    1    2    0    0  0.15839528331E+02 -0.16424384130E+02  0.14167425815E+04  0.14169616061E+04  0.10000000000E+02 0. -1.
</event>
<event>
 5    1  0.1020718E-008  0.3788867E+03  0.7957747E-01  0.3456021E+00
         13   -1    0    0    0    0  0.00000000000E+00  0.00000000000E+00  0.14999999963E+04  0.15000000000E+04  0.10566000000E+00 0. -1.
        994   -1    0    0    0    0 -0.00000000000E+00 -0.00000000000E+00  0.11368683772E-12  0.17120000000E+03  0.17120000000E+03 0.  0.
         13    1    1    2    0    0 -0.12454567811E+02 -0.13161314573E+02  0.32558020183E+02  0.37260868252E+02  0.10566000000E+00 0. -1.
        994    1    1    2    0    0  0.16369589167E+02  0.85989795469E+01  0.58442247040E+01  0.17229480799E+03  0.17120000000E+03 0.  0.
        998    1    1    2    0    0 -0.39150213563E+01  0.45623350256E+01  0.14615977514E+04  0.14616443238E+04  0.10000000000E+02 0. -1.
</event>
<event>
 5    1  0.1020718E-008  0.3755286E+03  0.7957747E-01  0.3470862E+00
         13   -1    0    0    0    0  0.00000000000E+00  0.00000000000E+00  0.14999999963E+04  0.15000000000E+04  0.10566000000E+00 0. -1.
        994   -1    0    0    0    0 -0.00000000000E+00 -0.00000000000E+00  0.11368683772E-12  0.17120000000E+03  0.17120000000E+03 0.  0.
         13    1    1    2    0    0  0.44699122752E+02 -0.14909878187E+03  0.87942667279E+03  0.89309559528E+03  0.10566000000E+00 0. -1.
        994    1    1    2    0    0 -0.16023537345E+02  0.14901010997E+03  0.86889132366E+02  0.24355682694E+03  0.17120000000E+03 0.  0.
        998    1    1    2    0    0 -0.28675585407E+02  0.88671898670E-01  0.53368419112E+03  0.53454757778E+03  0.10000000000E+02 0. -1.
</event>
<event>
 5    1  0.1020718E-008  0.3838454E+03  0.7957747E-01  0.3434584E+00
         13   -1    0    0    0    0  0.00000000000E+00  0.00000000000E+00  0.14999999963E+04  0.15000000000E+04  0.10566000000E+00 0.  1.
        994   -1    0    0    0    0 -0.00000000000E+00 -0.00000000000E+00  0.11368683772E-12  0.17120000000E+03  0.17120000000E+03 0.  0.
         13    1    1    2    0    0  0.22337666909E+03  0.18048542552E+03  0.10167267723E+04  0.10565062545E+04  0.10566000000E+00 0.  1.
        994    1    1    2    0    0 -0.23208075087E+03 -0.18001503862E+03  0.37720478223E+03  0.50779895312E+03  0.17120000000E+03 0.  0.
        998    1    1    2    0    0  0.87040817755E+01 -0.47038689963E+00  0.10606844173E+03  0.10689479236E+03  0.10000000000E+02 0.  0.
</event>
<event>
 5    1  0.1020718E-008  0.3802543E+03  0.7957747E-01  0.3450052E+00
         13   -1    0    0    0    0  0.00000000000E+00  0.00000000000E+00  0.14999999963E+04  0.15000000000E+04  0.10566000000E+00 0.  1.
        994   -1    0    0    0    0 -0.00000000000E+00 -0.00000000000E+00  0.11368683772E-12  0.17120000000E+03  0.17120000000E+03 0.  0.
         13    1    1    2    0    0 -0.12885105160E+02 -0.33048398215E+02  0.12486769286E+03  0.12980822179E+03  0.10566000000E+00 0.  1.
        994    1    1    2    0    0  0.11099309334E+02  0.60156514837E+02  0.16606347433E+02  0.18255742034E+03  0.17120000000E+03 0.  0.
        998    1    1    2    0    0  0.17857958258E+01 -0.27108116623E+02  0.13585259560E+04  0.13588343579E+04  0.10000000000E+02 0.  1.
</event>
<event>
 5    1  0.1020718E-008  0.3719801E+03  0.7957747E-01  0.3486840E+00
         13   -1    0    0    0    0  0.00000000000E+00  0.00000000000E+00  0.14999999963E+04  0.15000000000E+04  0.10566000000E+00 0. -1.
        994   -1    0    0    0    0 -0.00000000000E+00 -0.00000000000E+00  0.11368683772E-12  0.17120000000E+03  0.17120000000E+03 0.  0.
         13    1    1    2    0    0  0.42488850702E+02 -0.88047570480E+01  0.63513963680E+02  0.76921134463E+02  0.10566000000E+00 0. -1.
        994    1    1    2    0    0 -0.79886574166E+02  0.95356776345E+01  0.35140142093E+02  0.19239818987E+03  0.17120000000E+03 0.  0.
        998    1    1    2    0    0  0.37397723464E+02 -0.73092058651E+00  0.14013458905E+04  0.14018806757E+04  0.10000000000E+02 0. -1.
</event>
<event>
 5    1  0.1020718E-008  0.3807203E+03  0.7957747E-01  0.3448028E+00
         13   -1    0    0    0    0  0.00000000000E+00  0.00000000000E+00  0.14999999963E+04  0.15000000000E+04  0.10566000000E+00 0. -1.
        994   -1    0    0    0    0 -0.00000000000E+00 -0.00000000000E+00  0.11368683772E-12  0.17120000000E+03  0.17120000000E+03 0.  0.
         13    1    1    2    0    0 -0.39178245413E+02 -0.10490932166E+02  0.21315580608E+03  0.21698019127E+03  0.10566000000E+00 0. -1.
        994    1    1    2    0    0  0.25938519954E+02  0.19940543047E+01  0.60302984216E+01  0.17327027318E+03  0.17120000000E+03 0.  0.
        998    1    1    2    0    0  0.13239725459E+02  0.84968778612E+01  0.12808138918E+04  0.12809495356E+04  0.10000000000E+02 0. -1.
</event>
<event>
 5    1  0.1020718E-008  0.3719357E+03  0.7957747E-01  0.3487042E+00
         13   -1    0    0    0    0  0.00000000000E+00  0.00000000000E+00  0.14999999963E+04  0.15000000000E+04  0.10566000000E+00 0. -1.
        994   -1    0    0    0    0 -0.00000000000E+00 -0.00000000000E+00  0.11368683772E-12  0.17120000000E+03  0.17120000000E+03 0.  0.
         13    1    1    2    0    0  0.36514526958E-02  0.14436385546E+02  0.85772740459E+01  0.16792558919E+02  0.10566000000E+00 0. -1.
        994    1    1    2    0    0  0.64128445711E+01 -0.25407288651E+02  0.10622865164E+02  0.17351927892E+03  0.17120000000E+03 0.  0.
        998    1    1    2    0    0 -0.64164960238E+01  0.10970903105E+02  0.14807998571E+04  0.14808881622E+04  0.10000000000E+02 0. -1.
</event>
<event>
 5    1  0.1020718E-008  0.3826904E+03  0.7957747E-01  0.3439527E+00
         13   -1    0    0    0    0  0.00000000000E+00  0.00000000000E+00  0.14999999963E+04  0.15000000000E+04  0.10566000000E+00 0. -1.
        994   -1    0    0    0    0 -0.00000000000E+00 -0.00000000000E+00  0.11368683772E-12  0.17120000000E+03  0.17120000000E+03 0.  0.
         13    1    1    2    0    0  0.28479544675E+02  0.35387873024E+00  0.13071776087E+03  0.13378472957E+03  0.10566000000E+00 0. -1.
        994    1    1    2    0    0 -0.32112006419E+02  0.26193472464E+01  0.62283205183E+01  0.17431659104E+03  0.17120000000E+03 0.  0.
        998    1    1    2    0    0  0.36324617440E+01 -0.29732259766E+01  0.13630539149E+04  0.13630986794E+04  0.10000000000E+02 0. -1.
</event>
<event>
 5    1  0.1020718E-008  0.3837740E+03  0.7957747E-01  0.3434889E+00
         13   -1    0    0    0    0  0.00000000000E+00  0.00000000000E+00  0.14999999963E+04  0.15000000000E+04  0.10566000000E+00 0. -1.
        994   -1    0    0    0    0 -0.00000000000E+00 -0.00000000000E+00  0.11368683772E-12  0.17120000000E+03  0.17120000000E+03 0.  0.
         13    1    1    2    0    0 -0.22011647275E+03 -0.13448085971E+02  0.10429311458E+04  0.10659913220E+04  0.10566000000E+00 0. -1.
        994    1    1    2    0    0  0.23366457905E+03  0.14804347322E+02  0.21128297241E+03  0.35884291638E+03  0.17120000000E+03 0.  0.
        998    1    1    2    0    0 -0.13548106300E+02 -0.13562613513E+01  0.24578587806E+03  0.24636576158E+03  0.10000000000E+02 0. -1.
</event>
<event>
 5    1  0.1020718E-008  0.3808173E+03  0.7957747E-01  0.3447608E+00
         13   -1    0    0    0    0  0.00000000000E+00  0.00000000000E+00  0.14999999963E+04  0.15000000000E+04  0.10566000000E+00 0. -1.
        994   -1    0    0    0    0 -0.00000000000E+00 -0.00000000000E+00  0.11368683772E-12  0.17120000000E+03  0.17120000000E+03 0.  0.
         13    1    1    2    0    0 -0.42848637132E+02 -0.24809252277E+01  0.22037459940E+03  0.22451533560E+03  0.10566000000E+00 0. -1.
        994    1    1    2    0    0  0.37928676903E+02  0.15849494159E+02  0.93753896086E+01  0.17631542453E+03  0.17120000000E+03 0.  0.
        998    1    1    2    0    0  0.49199602292E+01 -0.13368568931E+02  0.12702500073E+04  0.12703692399E+04  0.10000000000E+02 0. -1.
</event>
<event>
 5    1  0.1020718E-008  0.3836881E+03  0.7957747E-01  0.3435255E+00
         13   -1    0    0    0    0  0.00000000000E+00  0.00000000000E+00  0.14999999963E+04  0.15000000000E+04  0.10566000000E+00 0. -1.
        994   -1    0    0    0    0 -0.00000000000E+00 -0.00000000000E+00  0.11368683772E-12  0.17120000000E+03  0.17120000000E+03 0.  0.
         13    1    1    2    0    0  0.13823961506E+02  0.28850182035E+01  0.42558009756E+02  0.44839944248E+02  0.10566000000E+00 0. -1.
        994    1    1    2    0    0 -0.11624254848E+02 -0.37871364000E+01  0.27766725360E+01  0.17165842715E+03  0.17120000000E+03 0.  0.
        998    1    1    2    0    0 -0.21997066577E+01  0.90211819647E+00  0.14546653140E+04  0.14547016286E+04  0.10000000000E+02 0. -1.
</event>
<event>
 5    1  0.1020718E-008  0.3801856E+03  0.7957747E-01  0.3450351E+00
         13   -1    0    0    0    0  0.00000000000E+00  0.00000000000E+00  0.14999999963E+04  0.15000000000E+04  0.10566000000E+00 0.  1.
        994   -1    0    0    0    0 -0.00000000000E+00 -0.00000000000E+00  0.11368683772E-12  0.17120000000E+03  0.17120000000E+03 0.  0.
         13    1    1    2    0    0 -0.20729319428E+01 -0.11723333928E+02  0.15887211283E+02  0.19853167295E+02  0.10566000000E+00 0.  1.
        994    1    1    2    0    0 -0.86134110420E+00  0.71673244512E+01  0.42135884566E+01  0.17140392871E+03  0.17120000000E+03 0.  0.
        998    1    1    2    0    0  0.29342730470E+01  0.45560094771E+01  0.14798991965E+04  0.14799429040E+04  0.10000000000E+02 0.  1.
</event>
<event>
 5    1  0.1020718E-008  0.3793099E+03  0.7957747E-01  0.3454169E+00
         13   -1    0    0    0    0  0.00000000000E+00  0.00000000000E+00  0.14999999963E+04  0.15000000000E+04  0.10566000000E+00 0. -1.
        994   -1    0    0    0    0 -0.00000000000E+00 -0.00000000000E+00  0.11368683772E-12  0.17120000000E+03  0.17120000000E+03 0.  0.
         13    1    1    2    0    0  0.13244830639E+02 -0.28124250884E+00  0.17398018655E+02  0.21867941219E+02  0.10566000000E+00 0. -1.
        994    1    1    2    0    0 -0.15526020157E+02 -0.26222283417E+01  0.53130347527E+01  0.17200465610E+03  0.17120000000E+03 0.  0.
        998    1    1    2    0    0  0.22811895179E+01  0.29034708505E+01  0.14772889429E+04  0.14773274027E+04  0.10000000000E+02 0. -1.
</event>
<event>
 5    1  0.1020718E-008  0.3767550E+03  0.7957747E-01  0.3465411E+00
         13   -1    0    0    0    0  0.00000000000E+00  0.00000000000E+00  0.14999999963E+04  0.15000000000E+04  0.10566000000E+00 0. -1.
        994   -1    0    0    0    0 -0.00000000000E+00 -0.00000000000E+00  0.11368683772E-12  0.17120000000E+03  0.17120000000E+03 0.  0.
         13    1    1    2    0    0 -0.31360535184E+02 -0.11109846832E+02  0.35292851161E+02  0.48502663543E+02  0.10566000000E+00 0. -1.
        994    1    1    2    0    0 -0.93993801485E+01 -0.15140564775E+02  0.15694155794E+02  0.17283903371E+03  0.17120000000E+03 0.  0.
        998    1    1    2    0    0  0.40759915333E+02  0.26250411607E+02  0.14490129893E+04  0.14498583027E+04  0.10000000000E+02 0. -1.
</event>
<event>
 5    1  0.1020718E-008  0.3806114E+03  0.7957747E-01  0.3448501E+00
         13   -1    0    0    0    0  0.00000000000E+00  0.00000000000E+00  0.14999999963E+04  0.15000000000E+04  0.10566000000E+00 0. -1.
        994   -1    0    0    0    0 -0.00000000000E+00 -0.00000000000E+00  0.11368683772E-12  0.17120000000E+03  0.17120000000E+03 0.  0.
         13    1    1    2    0    0  0.61987317478E+01  0.29284978827E+02  0.11627223179E+03  0.12006363858E+03  0.10566000000E+00 0. -1.
        994    1    1    2    0    0  0.14219323621E+02 -0.21081359692E+02  0.59850184020E+01  0.17318161951E+03  0.17120000000E+03 0.  0.
        998    1    1    2    0    0 -0.20418055369E+02 -0.82036191349E+01  0.13777427461E+04  0.13779547419E+04  0.10000000000E+02 0. -1.
</event>
<event>
 5    1  0.1020718E-008  0.3775933E+03  0.7957747E-01  0.3461705E+00
         13   -1    0    0    0    0  0.00000000000E+00  0.00000000000E+00  0.14999999963E+04  0.15000000000E+04  0.10566000000E+00 0. -1.
        994   -1    0    0    0    0 -0.00000000000E+00 -0.00000000000E+00  0.11368683772E-12  0.17120000000E+03  0.17120000000E+03 0.  0.
         13    1    1    2    0    0  0.80141247759E+02  0.42305166368E+02  0.48342459406E+03  0.49184519516E+03  0.10566000000E+00 0. -1.
        994    1    1    2    0    0  0.19953022321E+02  0.34050246235E+01  0.16484466916E+02  0.17317879472E+03  0.17120000000E+03 0.  0.
        998    1    1    2    0    0 -0.10009427008E+03 -0.45710190991E+02  0.10000909353E+04  0.10061760101E+04  0.10000000000E+02 0. -1.
</event>
<event>
 5    1  0.1020718E-008  0.3840790E+03  0.7957747E-01  0.3433588E+00
         13   -1    0    0    0    0  0.00000000000E+00  0.00000000000E+00  0.14999999963E+04  0.15000000000E+04  0.10566000000E+00 0. -1.
        994   -1    0    0    0    0 -0.00000000000E+00 -0.00000000000E+00  0.11368683772E-12  0.17120000000E+03  0.17120000000E+03 0.  0.
         13    1    1    2    0    0  0.57731449429E+01 -0.12389130624E+02  0.43336283332E+02  0.45440778792E+02  0.10566000000E+00 0. -1.
        994    1    1    2    0    0  0.16108650375E+01  0.15920120222E+02  0.29331104676E+01  0.17197118436E+03  0.17120000000E+03 0.  0.
        998    1    1    2    0    0 -0.73840099804E+01 -0.35309895974E+01  0.14537306025E+04  0.14537880368E+04  0.10000000000E+02 0. -1.
</event>
<event>
 5    1  0.1020718E-008  0.3812834E+03  0.7957747E-01  0.3445589E+00
         13   -1    0    0    0    0  0.00000000000E+00  0.00000000000E+00  0.14999999963E+04  0.15000000000E+04  0.10566000000E+00 0.  1.
        994   -1    0    0    0    0 -0.00000000000E+00 -0.00000000000E+00  0.11368683772E-12  0.17120000000E+03  0.17120000000E+03 0.  0.
         13    1    1    2    0    0  0.62462061160E+01 -0.10245137853E+02  0.18921918989E+02  0.22405984083E+02  0.10566000000E+00 0.  1.
        994    1    1    2    0    0 -0.66699593169E-01  0.16502963372E+02  0.43938047397E+01  0.17204969564E+03  0.17120000000E+03 0.  0.
        998    1    1    2    0    0 -0.61795065229E+01 -0.62578255188E+01  0.14766842726E+04  0.14767443203E+04  0.10000000000E+02 0.  1.
</event>
<event>
 5    1  0.1020718E-008  0.3753532E+03  0.7957747E-01  0.3471644E+00
         13   -1    0    0    0    0  0.00000000000E+00  0.00000000000E+00  0.14999999963E+04  0.15000000000E+04  0.10566000000E+00 0. -1.
        994   -1    0    0    0    0 -0.00000000000E+00 -0.00000000000E+00  0.11368683772E-12  0.17120000000E+03  0.17120000000E+03 0.  0.
         13    1    1    2    0    0  0.13420478429E+03  0.12287283448E+03  0.66910243441E+03  0.69340229050E+03  0.10566000000E+00 0. -1.
        994    1    1    2    0    0 -0.19058783880E+03 -0.12222382653E+03  0.20708746956E+03  0.35136455160E+03  0.17120000000E+03 0.  0.
        998    1    1    2    0    0  0.56383054512E+02 -0.64900794630E+00  0.62381009231E+03  0.62643315790E+03  0.10000000000E+02 0. -1.
</event>
<event>
 5    1  0.1020718E-008  0.3758922E+03  0.7957747E-01  0.3469242E+00
         13   -1    0    0    0    0  0.00000000000E+00  0.00000000000E+00  0.14999999963E+04  0.15000000000E+04  0.10566000000E+00 0. -1.
        994   -1    0    0    0    0 -0.00000000000E+00 -0.00000000000E+00  0.11368683772E-12  0.17120000000E+03  0.17120000000E+03 0.  0.
         13    1    1    2    0    0  0.30785166627E+02  0.56269610711E+02  0.25761741353E+03  0.26548208695E+03  0.10566000000E+00 0. -1.
        994    1    1    2    0    0 -0.41197819198E+02 -0.59656268284E+02  0.24247640822E+02  0.18749271649E+03  0.17120000000E+03 0.  0.
        998    1    1    2    0    0  0.10412652570E+02  0.33866575732E+01  0.12181349419E+04  0.12182251966E+04  0.10000000000E+02 0. -1.
</event>
<event>
 5    1  0.1020718E-008  0.3723348E+03  0.7957747E-01  0.3485229E+00
         13   -1    0    0    0    0  0.00000000000E+00  0.00000000000E+00  0.14999999963E+04  0.15000000000E+04  0.10566000000E+00 0.  1.
        994   -1    0    0    0    0 -0.00000000000E+00 -0.00000000000E+00  0.11368683772E-12  0.17120000000E+03  0.17120000000E+03 0.  0.
         13    1    1    2    0    0  0.62283205045E+02  0.23769025048E+02  0.24919163287E+03  0.25795473487E+03  0.10566000000E+00 0.  1.
        994    1    1    2    0    0 -0.56232167467E+02 -0.33568159830E+01  0.19018038884E+02  0.18123038011E+03  0.17120000000E+03 0.  0.
        998    1    1    2    0    0 -0.60510375784E+01 -0.20412209065E+02  0.12317903245E+04  0.12320148850E+04  0.10000000000E+02 0.  1.
</event>
<event>
 5    1  0.1020718E-008  0.3686057E+03  0.7957747E-01  0.3502324E+00
         13   -1    0    0    0    0  0.00000000000E+00  0.00000000000E+00  0.14999999963E+04  0.15000000000E+04  0.10566000000E+00 0.  1.
        994   -1    0    0    0    0 -0.00000000000E+00 -0.00000000000E+00  0.11368683772E-12  0.17120000000E+03  0.17120000000E+03 0.  0.
         13    1    1    2    0    0 -0.41830392238E+02  0.26089955757E+02  0.13283296241E+03  0.14168653632E+03  0.10566000000E+00 0.  1.
        994    1    1    2    0    0  0.23513353695E+02  0.32447164583E+02  0.15599189359E+02  0.17651762235E+03  0.17120000000E+03 0.  0.
        998    1    1    2    0    0  0.18317038543E+02 -0.58537120340E+02  0.13515678445E+04  0.13529958413E+04  0.10000000000E+02 0.  1.
</event>
<event>
 5    1  0.1020718E-008  0.3823980E+03  0.7957747E-01  0.3440783E+00
         13   -1    0    0    0    0  0.00000000000E+00  0.00000000000E+00  0.14999999963E+04  0.15000000000E+04  0.10566000000E+00 0. -1.
        994   -1    0    0    0    0 -0.00000000000E+00 -0.00000000000E+00  0.11368683772E-12  0.17120000000E+03  0.17120000000E+03 0.  0.
         13    1    1    2    0    0 -0.66965085844E+01 -0.20411272963E+02  0.82871168617E+02  0.85610192403E+02  0.10566000000E+00 0. -1.
        994    1    1    2    0    0  0.58158154098E+01  0.55294544535E+00  0.30407128547E+01  0.17132663363E+03  0.17120000000E+03 0.  0.
        998    1    1    2    0    0  0.88069317469E+00  0.19858327518E+02  0.14140881148E+04  0.14142631740E+04  0.10000000000E+02 0. -1.
</event>
<event>
 5    1  0.1020718E-008  0.3817052E+03  0.7957747E-01  0.3443767E+00
         13   -1    0    0    0    0  0.00000000000E+00  0.00000000000E+00  0.14999999963E+04  0.15000000000E+04  0.10566000000E+00 0. -1.
        994   -1    0    0    0    0 -0.00000000000E+00 -0.00000000000E+00  0.11368683772E-12  0.17120000000E+03  0.17120000000E+03 0.  0.
         13    1    1    2    0    0  0.20282799530E+03 -0.59322915857E+01  0.98402406438E+03  0.10047277035E+04  0.10566000000E+00 0. -1.
        994    1    1    2    0    0 -0.21619317906E+03  0.18009418868E+02  0.17987334681E+03  0.32973882200E+03  0.17120000000E+03 0.  0.
        998    1    1    2    0    0  0.13365183762E+02 -0.12077127282E+02  0.33610258509E+03  0.33673347449E+03  0.10000000000E+02 0. -1.
</event>
<event>
 5    1  0.1020718E-008  0.3696112E+03  0.7957747E-01  0.3497679E+00
         13   -1    0    0    0    0  0.00000000000E+00  0.00000000000E+00  0.14999999963E+04  0.15000000000E+04  0.10566000000E+00 0. -1.
        994   -1    0    0    0    0 -0.00000000000E+00 -0.00000000000E+00  0.11368683772E-12  0.17120000000E+03  0.17120000000E+03 0.  0.
         13    1    1    2    0    0 -0.60011899396E+02 -0.28351025104E+01  0.16557217567E+03  0.17613523894E+03  0.10566000000E+00 0. -1.
        994    1    1    2    0    0  0.62395393447E+02  0.10969200221E+01  0.23079463055E+02  0.18367495739E+03  0.17120000000E+03 0.  0.
        998    1    1    2    0    0 -0.23834940509E+01  0.17381824882E+01  0.13113483575E+04  0.13113898037E+04  0.10000000000E+02 0. -1.
</event>
<event>
 5    1  0.1020718E-008  0.3852683E+03  0.7957747E-01  0.3428535E+00
         13   -1    0    0    0    0  0.00000000000E+00  0.00000000000E+00  0.14999999963E+04  0.15000000000E+04  0.10566000000E+00 0.  1.
        994   -1    0    0    0    0 -0.00000000000E+00 -0.00000000000E+00  0.11368683772E-12  0.17120000000E+03  0.17120000000E+03 0.  0.
         13    1    1    2    0    0  0.16880413095E+02 -0.50898570796E+01  0.10315920778E+03  0.10465509211E+03  0.10566000000E+00 0.  1.
        994    1    1    2    0    0 -0.10525634514E+02  0.79736293274E+01  0.20701607839E+01  0.17172097517E+03  0.17120000000E+03 0.  0.
        998    1    1    2    0    0 -0.63547785809E+01 -0.28837722477E+01  0.13947706277E+04  0.13948239327E+04  0.10000000000E+02 0.  0.
</event>
<event>
 5    1  0.1020718E-008  0.3807973E+03  0.7957747E-01  0.3447694E+00
         13   -1    0    0    0    0  0.00000000000E+00  0.00000000000E+00  0.14999999963E+04  0.15000000000E+04  0.10566000000E+00 0.  1.
        994   -1    0    0    0    0 -0.00000000000E+00 -0.00000000000E+00  0.11368683772E-12  0.17120000000E+03  0.17120000000E+03 0.  0.
         13    1    1    2    0    0 -0.20192710601E+02 -0.25523783975E+02  0.17067861032E+03  0.17375387274E+03  0.10566000000E+00 0.  1.
        994    1    1    2    0    0  0.53467763462E+01 -0.13100408787E+02  0.43990250849E+01  0.17184004233E+03  0.17120000000E+03 0.  0.
        998    1    1    2    0    0  0.14845934255E+02  0.38624192761E+02  0.13249223609E+04  0.13256060849E+04  0.10000000000E+02 0.  1.
</event>
<event>
 5    1  0.1020718E-008  0.3796461E+03  0.7957747E-01  0.3452701E+00
         13   -1    0    0    0    0  0.00000000000E+00  0.00000000000E+00  0.14999999963E+04  0.15000000000E+04  0.10566000000E+00 0. -1.
        994   -1    0    0    0    0 -0.00000000000E+00 -0.00000000000E+00  0.11368683772E-12  0.17120000000E+03  0.17120000000E+03 0.  0.
         13    1    1    2    0    0 -0.58371497049E+01  0.11283359805E+02  0.16779155636E+02  0.21046086407E+02  0.10566000000E+00 0. -1.
        994    1    1    2    0    0  0.46920986323E+01 -0.10294448733E+02  0.47403924618E+01  0.17163887318E+03  0.17120000000E+03 0.  0.
        998    1    1    2    0    0  0.11450510726E+01 -0.98891107232E+00  0.14784804482E+04  0.14785150404E+04  0.10000000000E+02 0. -1.
</event>
<event>
 5    1  0.1020718E-008  0.3827352E+03  0.7957747E-01  0.3439335E+00
         13   -1    0    0    0    0  0.00000000000E+00  0.00000000000E+00  0.14999999963E+04  0.15000000000E+04  0.10566000000E+00 0.  1.
        994   -1    0    0    0    0 -0.00000000000E+00 -0.00000000000E+00  0.11368683772E-12  0.17120000000E+03  0.17120000000E+03 0.  0.
         13    1    1    2    0    0 -0.81405170275E+01 -0.16139833021E+02  0.59980353570E+02  0.62645161073E+02  0.10566000000E+00 0.  1.
        994    1    1    2    0    0  0.29937543464E+01  0.53511503787E+01  0.28833377927E+01  0.17133403343E+03  0.17120000000E+03 0.  0.
        998    1    1    2    0    0  0.51467626811E+01  0.10788682642E+02  0.14371363049E+04  0.14372208055E+04  0.10000000000E+02 0.  1.
</event>
<event>
 5    1  0.1020718E-008  0.3852351E+03  0.7957747E-01  0.3428676E+00
         13   -1    0    0    0    0  0.00000000000E+00  0.00000000000E+00  0.14999999963E+04  0.15000000000E+04  0.10566000000E+00 0.  1.
        994   -1    0    0    0    0 -0.00000000000E+00 -0.00000000000E+00  0.11368683772E-12  0.17120000000E+03  0.17120000000E+03 0.  0.
         13    1    1    2    0    0 -0.10716752469E+02  0.11740647658E+02  0.84882424104E+02  0.86358141925E+02  0.10566000000E+00 0.  1.
        994    1    1    2    0    0  0.45190255369E+01 -0.73082480586E+01  0.17561193941E+01  0.17142449077E+03  0.17120000000E+03 0.  0.
        998    1    1    2    0    0  0.61977269319E+01 -0.44323995990E+01  0.14133614528E+04  0.14134173673E+04  0.10000000000E+02 0.  1.
</event>
<event>
 5    1  0.1020718E-008  0.3833959E+03  0.7957747E-01  0.3436504E+00
         13   -1    0    0    0    0  0.00000000000E+00  0.00000000000E+00  0.14999999963E+04  0.15000000000E+04  0.10566000000E+00 0. -1.
        994   -1    0    0    0    0 -0.00000000000E+00 -0.00000000000E+00  0.11368683772E-12  0.17120000000E+03  0.17120000000E+03 0.  0.
         13    1    1    2    0    0  0.18336121735E+01  0.11934081647E+02  0.29260532051E+02  0.31653978238E+02  0.10566000000E+00 0. -1.
        994    1    1    2    0    0  0.50684296118E+01 -0.88868469705E+01  0.27747435803E+01  0.17152785264E+03  0.17120000000E+03 0.  0.
        998    1    1    2    0    0 -0.69020417853E+01 -0.30472346762E+01  0.14679647206E+04  0.14680181691E+04  0.10000000000E+02 0. -1.
</event>
<event>
 5    1  0.1020718E-008  0.3838267E+03  0.7957747E-01  0.3434664E+00
         13   -1    0    0    0    0  0.00000000000E+00  0.00000000000E+00  0.14999999963E+04  0.15000000000E+04  0.10566000000E+00 0.  1.
        994   -1    0    0    0    0 -0.00000000000E+00 -0.00000000000E+00  0.11368683772E-12  0.17120000000E+03  0.17120000000E+03 0.  0.
         13    1    1    2    0    0 -0.13471106498E+02  0.29480772829E+01  0.43683811546E+02  0.45808824752E+02  0.10566000000E+00 0.  1.
        994    1    1    2    0    0  0.48342651843E+01  0.92963962041E+01  0.25763270109E+01  0.17153970550E+03  0.17120000000E+03 0.  0.
        998    1    1    2    0    0  0.86368413133E+01 -0.12244473487E+02  0.14537398577E+04  0.14538514697E+04  0.10000000000E+02 0.  1.
</event>
<event>
 5    1  0.1020718E-008  0.3775438E+03  0.7957747E-01  0.3461924E+00
         13   -1    0    0    0    0  0.00000000000E+00  0.00000000000E+00  0.14999999963E+04  0.15000000000E+04  0.10566000000E+00 0.  1.
        994   -1    0    0    0    0 -0.00000000000E+00 -0.00000000000E+00  0.11368683772E-12  0.17120000000E+03  0.17120000000E+03 0.  0.
         13    1    1    2    0    0  0.20817977852E+02 -0.15541145202E+01  0.38613640869E+02  0.43895647836E+02  0.10566000000E+00 0.  1.
        994    1    1    2    0    0 -0.12122897796E+02 -0.12713403994E+01  0.58791216203E+01  0.17173405320E+03  0.17120000000E+03 0.  0.
        998    1    1    2    0    0 -0.86950800554E+01  0.28254549196E+01  0.14555072338E+04  0.14555702990E+04  0.10000000000E+02 0.  1.
</event>
<event>
 5    1  0.1020718E-008  0.3829025E+03  0.7957747E-01  0.3438617E+00
         13   -1    0    0    0    0  0.00000000000E+00  0.00000000000E+00  0.14999999963E+04  0.15000000000E+04  0.10566000000E+00 0. -1.
        994   -1    0    0    0    0 -0.00000000000E+00 -0.00000000000E+00  0.11368683772E-12  0.17120000000E+03  0.17120000000E+03 0.  0.
         13    1    1    2    0    0 -0.79846823096E+01 -0.10421579427E+02  0.30965443756E+02  0.33633827323E+02  0.10566000000E+00 0. -1.
        994    1    1    2    0    0  0.51230093725E+01  0.11175458320E+02  0.31756864536E+01  0.17167021022E+03  0.17120000000E+03 0.  0.
        998    1    1    2    0    0  0.28616729371E+01 -0.75387889351E+00  0.14658588661E+04  0.14658959625E+04  0.10000000000E+02 0. -1.
</event>
<event>
 5    1  0.1020718E-008  0.3694524E+03  0.7957747E-01  0.3498411E+00
         13   -1    0    0    0    0  0.00000000000E+00  0.00000000000E+00  0.14999999963E+04  0.15000000000E+04  0.10566000000E+00 0.  1.
        994   -1    0    0    0    0 -0.00000000000E+00 -0.00000000000E+00  0.11368683772E-12  0.17120000000E+03  0.17120000000E+03 0.  0.
         13    1    1    2    0    0  0.37940708136E+02  0.29614177536E+02  0.10506845522E+03  0.11556767840E+03  0.10566000000E+00 0.  1.
        994    1    1    2    0    0 -0.61528108688E+02 -0.19213446493E+02  0.24089915256E+02  0.18451186602E+03  0.17120000000E+03 0.  0.
        998    1    1    2    0    0  0.23587400552E+02 -0.10400731044E+02  0.13708416258E+04  0.13711204556E+04  0.10000000000E+02 0.  1.
</event>
<event>
 5    1  0.1020718E-008  0.3764303E+03  0.7957747E-01  0.3466851E+00
         13   -1    0    0    0    0  0.00000000000E+00  0.00000000000E+00  0.14999999963E+04  0.15000000000E+04  0.10566000000E+00 0.  1.
        994   -1    0    0    0    0 -0.00000000000E+00 -0.00000000000E+00  0.11368683772E-12  0.17120000000E+03  0.17120000000E+03 0.  0.
         13    1    1    2    0    0  0.38757014394E+02  0.21050116061E+02  0.15436877190E+03  0.16054576436E+03  0.10566000000E+00 0.  1.
        994    1    1    2    0    0 -0.28594191901E+02 -0.19155499216E+02  0.99637693850E+01  0.17490934126E+03  0.17120000000E+03 0.  0.
        998    1    1    2    0    0 -0.10162822494E+02 -0.18946168455E+01  0.13356674550E+04  0.13357448944E+04  0.10000000000E+02 0.  1.
</event>
<event>
 5    1  0.1020718E-008  0.3735919E+03  0.7957747E-01  0.3479544E+00
         13   -1    0    0    0    0  0.00000000000E+00  0.00000000000E+00  0.14999999963E+04  0.15000000000E+04  0.10566000000E+00 0. -1.
        994   -1    0    0    0    0 -0.00000000000E+00 -0.00000000000E+00  0.11368683772E-12  0.17120000000E+03  0.17120000000E+03 0.  0.
         13    1    1    2    0    0 -0.11917762944E+02 -0.83480837700E+02  0.31898824975E+03  0.32994635622E+03  0.10566000000E+00 0. -1.
        994    1    1    2    0    0  0.55835973381E+02  0.10000305608E+03  0.53624096900E+02  0.21284560347E+03  0.17120000000E+03 0.  0.
        998    1    1    2    0    0 -0.43918210437E+02 -0.16522218383E+02  0.11273876496E+04  0.11284080403E+04  0.10000000000E+02 0. -1.
</event>
<event>
 5    1  0.1020718E-008  0.3855856E+03  0.7957747E-01  0.3427192E+00
         13   -1    0    0    0    0  0.00000000000E+00  0.00000000000E+00  0.14999999963E+04  0.15000000000E+04  0.10566000000E+00 0. -1.
        994   -1    0    0    0    0 -0.00000000000E+00 -0.00000000000E+00  0.11368683772E-12  0.17120000000E+03  0.17120000000E+03 0.  0.
         13    1    1    2    0    0 -0.44460940072E+01  0.11028418965E+02  0.51765328089E+02  0.53113596499E+02  0.10566000000E+00 0. -1.
        994    1    1    2    0    0 -0.53334338452E+01 -0.15228913913E+02  0.21947471312E+01  0.17197273694E+03  0.17120000000E+03 0.  0.
        998    1    1    2    0    0  0.97795278523E+01  0.42004949482E+01  0.14460399211E+04  0.14461136666E+04  0.10000000000E+02 0. -1.
</event>
<event>
 5    1  0.1020718E-008  0.3831842E+03  0.7957747E-01  0.3437410E+00
         13   -1    0    0    0    0  0.00000000000E+00  0.00000000000E+00  0.14999999963E+04  0.15000000000E+04  0.10566000000E+00 0. -1.
        994   -1    0    0    0    0 -0.00000000000E+00 -0.00000000000E+00  0.11368683772E-12  0.17120000000E+03  0.17120000000E+03 0.  0.
         13    1    1    2    0    0 -0.14177128921E+02 -0.16058286661E+02  0.80555071968E+02  0.83354605983E+02  0.10566000000E+00 0. -1.
        994    1    1    2    0    0  0.24421633245E+02  0.22182210547E+02  0.61434604148E+01  0.17445815757E+03  0.17120000000E+03 0.  0.
        998    1    1    2    0    0 -0.10244504324E+02 -0.61239238859E+01  0.14133014639E+04  0.14133872365E+04  0.10000000000E+02 0. -1.
</event>
<event>
 5    1  0.1020718E-008  0.3777366E+03  0.7957747E-01  0.3461074E+00
         13   -1    0    0    0    0  0.00000000000E+00  0.00000000000E+00  0.14999999963E+04  0.15000000000E+04  0.10566000000E+00 0. -1.
        994   -1    0    0    0    0 -0.00000000000E+00 -0.00000000000E+00  0.11368683772E-12  0.17120000000E+03  0.17120000000E+03 0.  0.
         13    1    1    2    0    0 -0.13301546427E+02 -0.12773956388E+02  0.31706527295E+02  0.36679969143E+02  0.10566000000E+00 0. -1.
        994    1    1    2    0    0  0.18295983281E+01 -0.10516181858E+02  0.56639423985E+01  0.17162592390E+03  0.17120000000E+03 0.  0.
        998    1    1    2    0    0  0.11471948099E+02  0.23290138246E+02  0.14626295266E+04  0.14628941070E+04  0.10000000000E+02 0. -1.
</event>
<event>
 5    1  0.1020718E-008  0.3850728E+03  0.7957747E-01  0.3429364E+00
         13   -1    0    0    0    0  0.00000000000E+00  0.00000000000E+00  0.14999999963E+04  0.15000000000E+04  0.10566000000E+00 0. -1.
        994   -1    0    0    0    0 -0.00000000000E+00 -0.00000000000E+00  0.11368683772E-12  0.17120000000E+03  0.17120000000E+03 0.  0.
         13    1    1    2    0    0  0.54785960623E+01  0.11876165698E+02  0.54386771053E+02  0.55937378882E+02  0.10566000000E+00 0. -1.
        994    1    1    2    0    0 -0.71123685345E+01 -0.38316722275E+01  0.18086232263E+01  0.17140005431E+03  0.17120000000E+03 0.  0.
        998    1    1    2    0    0  0.16337724723E+01 -0.80444934705E+01  0.14438046020E+04  0.14438625668E+04  0.10000000000E+02 0. -1.
</event>
<event>
 5    1  0.1020718E-008  0.3797772E+03  0.7957747E-01  0.3452129E+00
         13   -1    0    0    0    0  0.00000000000E+00  0.00000000000E+00  0.14999999963E+04  0.15000000000E+04  0.10566000000E+00 0.  1.
        994   -1    0    0    0    0 -0.00000000000E+00 -0.00000000000E+00  0.11368683772E-12  0.17120000000E+03  0.17120000000E+03 0.  0.
         13    1    1    2    0    0  0.13178595789E+02 -0.41097394359E+02  0.24995330210E+03  0.25365199704E+03  0.10566000000E+00 0.  1.
        994    1    1    2    0    0 -0.97389754141E+01  0.60046560576E+01  0.46837077033E+01  0.17164579999E+03  0.17120000000E+03 0.  0.
        998    1    1    2    0    0 -0.34396203746E+01  0.35092738301E+02  0.12453629865E+04  0.12459022030E+04  0.10000000000E+02 0.  1.
</event>
<event>
 5    1  0.1020718E-008  0.3699638E+03  0.7957747E-01  0.3496057E+00
         13   -1    0    0    0    0  0.00000000000E+00  0.00000000000E+00  0.14999999963E+04  0.15000000000E+04  0.10566000000E+00 0. -1.
        994   -1    0    0    0    0 -0.00000000000E+00 -0.00000000000E+00  0.11368683772E-12  0.17120000000E+03  0.17120000000E+03 0.  0.
         13    1    1    2    0    0  0.21334493456E+02  0.13679471256E+02  0.31540185891E+02  0.40460882775E+02  0.10566000000E+00 0. -1.
        994    1    1    2    0    0  0.76983006221E+00 -0.15706547986E+02  0.10143583238E+02  0.17221968694E+03  0.17120000000E+03 0.  0.
        998    1    1    2    0    0 -0.22104323518E+02  0.20270767296E+01  0.14583162271E+04  0.14585194303E+04  0.10000000000E+02 0. -1.
</event>
<event>
 5    1  0.1020718E-008  0.3729843E+03  0.7957747E-01  0.3482287E+00
         13   -1    0    0    0    0  0.00000000000E+00  0.00000000000E+00  0.14999999963E+04  0.15000000000E+04  0.10566000000E+00 0. -1.
        994   -1    0    0    0    0 -0.00000000000E+00 -0.00000000000E+00  0.11368683772E-12  0.17120000000E+03  0.17120000000E+03 0.  0.
         13    1    1    2    0    0 -0.10052604360E+02 -0.88807120718E+02  0.38576028239E+03  0.39597823953E+03  0.10566000000E+00 0. -1.
        994    1    1    2    0    0  0.27923782634E+02  0.85244586408E+02  0.35778461080E+02  0.19656020814E+03  0.17120000000E+03 0.  0.
        998    1    1    2    0    0 -0.17871178274E+02  0.35625343105E+01  0.10784612528E+04  0.10786615523E+04  0.10000000000E+02 0. -1.
</event>
<event>
 5    1  0.1020718E-008  0.3716307E+03  0.7957747E-01  0.3488430E+00
         13   -1    0    0    0    0  0.00000000000E+00  0.00000000000E+00  0.14999999963E+04  0.15000000000E+04  0.10566000000E+00 0. -1.
        994   -1    0    0    0    0 -0.00000000000E+00 -0.00000000000E+00  0.11368683772E-12  0.17120000000E+03  0.17120000000E+03 0.  0.
         13    1    1    2    0    0  0.23277879459E+02 -0.89854857976E+02  0.28735626084E+03  0.30197580530E+03  0.10566000000E+00 0. -1.
        994    1    1    2    0    0 -0.33454796411E+02  0.88704169517E+02  0.44114170972E+02  0.20060696193E+03  0.17120000000E+03 0.  0.
        998    1    1    2    0    0  0.10176916953E+02  0.11506884589E+01  0.11685295645E+04  0.11686172328E+04  0.10000000000E+02 0. -1.
</event>
<event>
 5    1  0.1020718E-008  0.3808833E+03  0.7957747E-01  0.3447322E+00
         13   -1    0    0    0    0  0.00000000000E+00  0.00000000000E+00  0.14999999963E+04  0.15000000000E+04  0.10566000000E+00 0.  1.
        994   -1    0    0    0    0 -0.00000000000E+00 -0.00000000000E+00  0.11368683772E-12  0.17120000000E+03  0.17120000000E+03 0.  0.
         13    1    1    2    0    0 -0.38085737801E+02 -0.18831825650E+02  0.22750298467E+03  0.23143634175E+03  0.10566000000E+00 0.  1.
        994    1    1    2    0    0  0.35581749487E+02  0.22926056043E+01  0.79370974348E+01  0.17505357595E+03  0.17120000000E+03 0.  0.
        998    1    1    2    0    0  0.25039883141E+01  0.16539220046E+02  0.12645599142E+04  0.12647100823E+04  0.10000000000E+02 0.  1.
</event>
<event>
 5    1  0.1020718E-008  0.3999671E+03  0.7957747E-01  0.3368574E+00
         13   -1    0    0    0    0  0.00000000000E+00  0.00000000000E+00  0.14999999963E+04  0.15000000000E+04  0.10566000000E+00 0.  1.
        994   -1    0    0    0    0 -0.00000000000E+00 -0.00000000000E+00  0.11368683772E-12  0.17120000000E+03  0.17120000000E+03 0.  0.
         13    1    1    2    0    0  0.81001208402E+02 -0.11459985880E+02  0.10588813115E+03  0.13380894784E+03  0.10566000000E+00 0.  1.
        994    1    1    2    0    0 -0.75709087862E+02  0.16869304340E+02  0.51716494623E+02  0.19493710583E+03  0.17120000000E+03 0.  0.
        998    1    1    2    0    0 -0.52921205401E+01 -0.54093184601E+01  0.13423953705E+04  0.13424539463E+04  0.10000000000E+02 0.  1.
</event>
<event>
 5    1  0.1020718E-008  0.3791622E+03  0.7957747E-01  0.3454815E+00
         13   -1    0    0    0    0  0.00000000000E+00  0.00000000000E+00  0.14999999963E+04  0.15000000000E+04  0.10566000000E+00 0.  1.
        994   -1    0    0    0    0 -0.00000000000E+00 -0.00000000000E+00  0.11368683772E-12  0.17120000000E+03  0.17120000000E+03 0.  0.
         13    1    1    2    0    0  0.13405626276E+02  0.11202462068E+02  0.30624725531E+02  0.35257494950E+02  0.10566000000E+00 0.  1.
        994    1    1    2    0    0 -0.37362790831E+02  0.92017905422E+01  0.95361309664E+01  0.17572998857E+03  0.17120000000E+03 0.  0.
        998    1    1    2    0    0  0.23957164555E+02 -0.20404252610E+02  0.14598391398E+04  0.14602125165E+04  0.10000000000E+02 0.  1.
</event>
<event>
 5    1  0.1020718E-008  0.3847541E+03  0.7957747E-01  0.3430716E+00
         13   -1    0    0    0    0  0.00000000000E+00  0.00000000000E+00  0.14999999963E+04  0.15000000000E+04  0.10566000000E+00 0. -1.
        994   -1    0    0    0    0 -0.00000000000E+00 -0.00000000000E+00  0.11368683772E-12  0.17120000000E+03  0.17120000000E+03 0.  0.
         13    1    1    2    0    0 -0.73413799384E+01 -0.14572637212E+02  0.77340134915E+02  0.79042806424E+02  0.10566000000E+00 0. -1.
        994    1    1    2    0    0  0.27405985405E+01  0.73129076657E+01  0.19530170036E+01  0.17138915886E+03  0.17120000000E+03 0.  0.
        998    1    1    2    0    0  0.46007813979E+01  0.72597295458E+01  0.14207068444E+04  0.14207680347E+04  0.10000000000E+02 0. -1.
</event>
<event>
 5    1  0.1020718E-008  0.3819273E+03  0.7957747E-01  0.3442809E+00
         13   -1    0    0    0    0  0.00000000000E+00  0.00000000000E+00  0.14999999963E+04  0.15000000000E+04  0.10566000000E+00 0.  1.
        994   -1    0    0    0    0 -0.00000000000E+00 -0.00000000000E+00  0.11368683772E-12  0.17120000000E+03  0.17120000000E+03 0.  0.
         13    1    1    2    0    0 -0.22431397591E+02  0.28982258190E+02  0.30458548408E+02  0.47653680056E+02  0.10566000000E+00 0.  1.
        994    1    1    2    0    0  0.35376372768E+02 -0.28641893437E+02  0.24989289720E+02  0.17890151036E+03  0.17120000000E+03 0.  0.
        998    1    1    2    0    0 -0.12944975177E+02 -0.34036475286E+00  0.14445521581E+04  0.14446448096E+04  0.10000000000E+02 0.  1.
</event>
<event>
 5    1  0.1020718E-008  0.3804490E+03  0.7957747E-01  0.3449206E+00
         13   -1    0    0    0    0  0.00000000000E+00  0.00000000000E+00  0.14999999963E+04  0.15000000000E+04  0.10566000000E+00 0. -1.
        994   -1    0    0    0    0 -0.00000000000E+00 -0.00000000000E+00  0.11368683772E-12  0.17120000000E+03  0.17120000000E+03 0.  0.
         13    1    1    2    0    0 -0.32594465997E+02 -0.64314408428E+01  0.13099296938E+03  0.13514041526E+03  0.10566000000E+00 0. -1.
        994    1    1    2    0    0  0.29971431889E+02  0.70282429602E+01  0.70764398909E+01  0.17408962901E+03  0.17120000000E+03 0.  0.
        998    1    1    2    0    0  0.26230341078E+01 -0.59680211744E+00  0.13619305870E+04  0.13619699557E+04  0.10000000000E+02 0. -1.
</event>
<event>
 5    1  0.1020718E-008  0.3820146E+03  0.7957747E-01  0.3442433E+00
         13   -1    0    0    0    0  0.00000000000E+00  0.00000000000E+00  0.14999999963E+04  0.15000000000E+04  0.10566000000E+00 0. -1.
        994   -1    0    0    0    0 -0.00000000000E+00 -0.00000000000E+00  0.11368683772E-12  0.17120000000E+03  0.17120000000E+03 0.  0.
         13    1    1    2    0    0  0.17512278671E+02 -0.32050001494E+02  0.18935126599E+03  0.19284137418E+03  0.10566000000E+00 0. -1.
        994    1    1    2    0    0 -0.19844926163E+02  0.29981413552E+02  0.74243680653E+01  0.17509216857E+03  0.17120000000E+03 0.  0.
        998    1    1    2    0    0  0.23326474925E+01  0.20685879423E+01  0.13032243622E+04  0.13032664572E+04  0.10000000000E+02 0.  0.
</event>
<event>
 5    1  0.1020718E-008  0.3687530E+03  0.7957747E-01  0.3501642E+00
         13   -1    0    0    0    0  0.00000000000E+00  0.00000000000E+00  0.14999999963E+04  0.15000000000E+04  0.10566000000E+00 0. -1.
        994   -1    0    0    0    0 -0.00000000000E+00 -0.00000000000E+00  0.11368683772E-12  0.17120000000E+03  0.17120000000E+03 0.  0.
         13    1    1    2    0    0 -0.13853020035E+02  0.56063532344E+02  0.14981307148E+03  0.16055837995E+03  0.10566000000E+00 0. -1.
        994    1    1    2    0    0  0.56331187468E+01 -0.48557323686E+02  0.18645093522E+02  0.17901571222E+03  0.17120000000E+03 0.  0.
        998    1    1    2    0    0  0.82199012885E+01 -0.75062086582E+01  0.13315418313E+04  0.13316259078E+04  0.10000000000E+02 0. -1.
</event>
<event>
 5    1  0.1020718E-008  0.3840641E+03  0.7957747E-01  0.3433651E+00
         13   -1    0    0    0    0  0.00000000000E+00  0.00000000000E+00  0.14999999963E+04  0.15000000000E+04  0.10566000000E+00 0. -1.
        994   -1    0    0    0    0 -0.00000000000E+00 -0.00000000000E+00  0.11368683772E-12  0.17120000000E+03  0.17120000000E+03 0.  0.
         13    1    1    2    0    0  0.19471667567E+02 -0.55417825673E+01  0.10148896336E+03  0.10348854063E+03  0.10566000000E+00 0. -1.
        994    1    1    2    0    0 -0.11187723140E+02 -0.12772994122E+02  0.30471289111E+01  0.17206696232E+03  0.17120000000E+03 0.  0.
        998    1    1    2    0    0 -0.82839444276E+01  0.18314776689E+02  0.13954639040E+04  0.13956444971E+04  0.10000000000E+02 0. -1.
</event>
<event>
 5    1  0.1020718E-008  0.3828575E+03  0.7957747E-01  0.3438810E+00
         13   -1    0    0    0    0  0.00000000000E+00  0.00000000000E+00  0.14999999963E+04  0.15000000000E+04  0.10566000000E+00 0. -1.
        994   -1    0    0    0    0 -0.00000000000E+00 -0.00000000000E+00  0.11368683772E-12  0.17120000000E+03  0.17120000000E+03 0.  0.
         13    1    1    2    0    0  0.10408480065E+02 -0.23385852832E+00  0.19859426827E+02  0.22423183204E+02  0.10566000000E+00 0. -1.
        994    1    1    2    0    0  0.59392930312E+01 -0.15793194515E+01  0.28226816919E+01  0.17133352557E+03  0.17120000000E+03 0.  0.
        998    1    1    2    0    0 -0.16347773096E+02  0.18131779798E+01  0.14773178878E+04  0.14774432912E+04  0.10000000000E+02 0. -1.
</event>
<event>
 5    1  0.1020718E-008  0.3836233E+03  0.7957747E-01  0.3435532E+00
         13   -1    0    0    0    0  0.00000000000E+00  0.00000000000E+00  0.14999999963E+04  0.15000000000E+04  0.10566000000E+00 0.  1.
        994   -1    0    0    0    0 -0.00000000000E+00 -0.00000000000E+00  0.11368683772E-12  0.17120000000E+03  0.17120000000E+03 0.  0.
         13    1    1    2    0    0  0.19908468065E+02 -0.41490151986E+01  0.85598082583E+02  0.87980704326E+02  0.10566000000E+00 0.  1.
        994    1    1    2    0    0 -0.19348321805E+02 -0.69338905082E+00  0.35543986806E+01  0.17232792024E+03  0.17120000000E+03 0.  0.
        998    1    1    2    0    0 -0.56014625996E+00  0.48424042494E+01  0.14108475150E+04  0.14108913754E+04  0.10000000000E+02 0.  1.
</event>
<event>
 5    1  0.1020718E-008  0.4229405E+03  0.7957747E-01  0.3283148E+00
         13   -1    0    0    0    0  0.00000000000E+00  0.00000000000E+00  0.14999999963E+04  0.15000000000E+04  0.10566000000E+00 0. -1.
        994   -1    0    0    0    0 -0.00000000000E+00 -0.00000000000E+00  0.11368683772E-12  0.17120000000E+03  0.17120000000E+03 0.  0.
         13    1    1    2    0    0  0.47980088939E+02 -0.10378004486E+03  0.14851532705E+03  0.18742785327E+03  0.10566000000E+00 0. -1.
        994    1    1    2    0    0 -0.12230519272E+02  0.75259808931E+02  0.67897647161E+02  0.19933177101E+03  0.17120000000E+03 0.  0.
        998    1    1    2    0    0 -0.35749569667E+02  0.28520235931E+02  0.12835870221E+04  0.12844403757E+04  0.10000000000E+02 0. -1.
</event>
<event>
 5    1  0.1020718E-008  0.3822308E+03  0.7957747E-01  0.3441502E+00
         13   -1    0    0    0    0  0.00000000000E+00  0.00000000000E+00  0.14999999963E+04  0.15000000000E+04  0.10566000000E+00 0. -1.
        994   -1    0    0    0    0 -0.00000000000E+00 -0.00000000000E+00  0.11368683772E-12  0.17120000000E+03  0.17120000000E+03 0.  0.
         13    1    1    2    0    0 -0.36956335786E+01 -0.12486760021E+02  0.29420133749E+02  0.32173472259E+02  0.10566000000E+00 0. -1.
        994    1    1    2    0    0 -0.19645254324E+02 -0.10523329317E+02  0.46611925224E+01  0.17270739183E+03  0.17120000000E+03 0.  0.
        998    1    1    2    0    0  0.23340887903E+02  0.23010089338E+02  0.14659186700E+04  0.14663191359E+04  0.10000000000E+02 0. -1.
</event>
<event>
 5    1  0.1020718E-008  0.3733241E+03  0.7957747E-01  0.3480752E+00
         13   -1    0    0    0    0  0.00000000000E+00  0.00000000000E+00  0.14999999963E+04  0.15000000000E+04  0.10566000000E+00 0. -1.
        994   -1    0    0    0    0 -0.00000000000E+00 -0.00000000000E+00  0.11368683772E-12  0.17120000000E+03  0.17120000000E+03 0.  0.
         13    1    1    2    0    0 -0.91084018859E+01 -0.22327871627E+02  0.17236773687E+02  0.29641429916E+02  0.10566000000E+00 0. -1.
        994    1    1    2    0    0  0.30519316031E+01  0.24202961591E+02  0.14815148853E+02  0.17356274448E+03  0.17120000000E+03 0.  0.
        998    1    1    2    0    0  0.60564702828E+01 -0.18750899634E+01  0.14679480737E+04  0.14679958256E+04  0.10000000000E+02 0. -1.
</event>
<event>
 5    1  0.1020718E-008  0.3831092E+03  0.7957747E-01  0.3437731E+00
         13   -1    0    0    0    0  0.00000000000E+00  0.00000000000E+00  0.14999999963E+04  0.15000000000E+04  0.10566000000E+00 0. -1.
        994   -1    0    0    0    0 -0.00000000000E+00 -0.00000000000E+00  0.11368683772E-12  0.17120000000E+03  0.17120000000E+03 0.  0.
         13    1    1    2    0    0 -0.64334364882E+01 -0.13417552960E+02  0.42201900008E+02  0.44748534733E+02  0.10566000000E+00 0. -1.
        994    1    1    2    0    0  0.65180081540E+01  0.82715947283E+01  0.29388717902E+01  0.17154877055E+03  0.17120000000E+03 0.  0.
        998    1    1    2    0    0 -0.84571665767E-01  0.51459582319E+01  0.14548592245E+04  0.14549026947E+04  0.10000000000E+02 0. -1.
</event>
<event>
 5    1  0.1020718E-008  0.3823574E+03  0.7957747E-01  0.3440957E+00
         13   -1    0    0    0    0  0.00000000000E+00  0.00000000000E+00  0.14999999963E+04  0.15000000000E+04  0.10566000000E+00 0.  1.
        994   -1    0    0    0    0 -0.00000000000E+00 -0.00000000000E+00  0.11368683772E-12  0.17120000000E+03  0.17120000000E+03 0.  0.
         13    1    1    2    0    0  0.50419885937E+02  0.20213627552E+02  0.26556001567E+03  0.27105882889E+03  0.10566000000E+00 0.  1.
        994    1    1    2    0    0 -0.10270019576E+03 -0.16600022882E+02  0.39719622630E+02  0.20423021175E+03  0.17120000000E+03 0.  0.
        998    1    1    2    0    0  0.52280309823E+02 -0.36136046700E+01  0.11947203580E+04  0.11959109594E+04  0.10000000000E+02 0.  1.
</event>
<event>
 5    1  0.1336575E-008  0.3860015E+03  0.7957747E-01  0.3425436E+00
         13   -1    0    0    0    0  0.00000000000E+00  0.00000000000E+00  0.14999999963E+04  0.15000000000E+04  0.10566000000E+00 0. -1.
        994   -1    0    0    0    0 -0.00000000000E+00 -0.00000000000E+00  0.11368683772E-12  0.17120000000E+03  0.17120000000E+03 0.  0.
         13    1    1    2    0    0  0.36623014608E+01  0.13444211484E+02  0.80089870464E+02  0.81293036536E+02  0.10566000000E+00 0. -1.
        994    1    1    2    0    0 -0.45993479307E+01 -0.18012008221E+02  0.22673747868E+01  0.17222127461E+03  0.17120000000E+03 0.  0.
        998    1    1    2    0    0  0.93704646989E+00  0.45677967374E+01  0.14176427510E+04  0.14176856888E+04  0.10000000000E+02 0. -1.
</event>
<event>
 5    1  0.1020718E-008  0.3778187E+03  0.7957747E-01  0.3460712E+00
         13   -1    0    0    0    0  0.00000000000E+00  0.00000000000E+00  0.14999999963E+04  0.15000000000E+04  0.10566000000E+00 0.  1.
        994   -1    0    0    0    0 -0.00000000000E+00 -0.00000000000E+00  0.11368683772E-12  0.17120000000E+03  0.17120000000E+03 0.  0.
         13    1    1    2    0    0 -0.12358380852E+03 -0.63178992734E+00  0.69638073337E+03  0.70726196975E+03  0.10566000000E+00 0.  1.
        994    1    1    2    0    0  0.12754934639E+03 -0.82083344898E+01  0.62381252647E+02  0.22256925484E+03  0.17120000000E+03 0.  0.
        998    1    1    2    0    0 -0.39655378670E+01  0.88401244171E+01  0.74123801027E+03  0.74136877541E+03  0.10000000000E+02 0.  0.
</event>
<event>
 5    1  0.1020718E-008  0.3698290E+03  0.7957747E-01  0.3496677E+00
         13   -1    0    0    0    0  0.00000000000E+00  0.00000000000E+00  0.14999999963E+04  0.15000000000E+04  0.10566000000E+00 0.  1.
        994   -1    0    0    0    0 -0.00000000000E+00 -0.00000000000E+00  0.11368683772E-12  0.17120000000E+03  0.17120000000E+03 0.  0.
         13    1    1    2    0    0 -0.42396376127E+02  0.24994230559E+02  0.13881842416E+03  0.14728452166E+03  0.10566000000E+00 0.  1.
        994    1    1    2    0    0  0.23487147848E+02  0.22847755379E+02  0.13082063850E+02  0.17479773006E+03  0.17120000000E+03 0.  0.
        998    1    1    2    0    0  0.18909228279E+02 -0.47841985937E+02  0.13480995083E+04  0.13491177483E+04  0.10000000000E+02 0.  1.
</event>
<event>
 5    1  0.1020718E-008  0.3833971E+03  0.7957747E-01  0.3436499E+00
         13   -1    0    0    0    0  0.00000000000E+00  0.00000000000E+00  0.14999999963E+04  0.15000000000E+04  0.10566000000E+00 0. -1.
        994   -1    0    0    0    0 -0.00000000000E+00 -0.00000000000E+00  0.11368683772E-12  0.17120000000E+03  0.17120000000E+03 0.  0.
         13    1    1    2    0    0  0.12540042933E+02  0.12898101385E+02  0.67726549167E+02  0.70075033516E+02  0.10566000000E+00 0. -1.
        994    1    1    2    0    0 -0.98207660451E+01 -0.82860272422E-01  0.27469521813E+01  0.17150346952E+03  0.17120000000E+03 0.  0.
        998    1    1    2    0    0 -0.27192768878E+01 -0.12815241112E+02  0.14295264949E+04  0.14296214970E+04  0.10000000000E+02 0. -1.
</event>
<event>
 5    1  0.1020718E-008  0.3710537E+03  0.7957747E-01  0.3491062E+00
         13   -1    0    0    0    0  0.00000000000E+00  0.00000000000E+00  0.14999999963E+04  0.15000000000E+04  0.10566000000E+00 0.  1.
        994   -1    0    0    0    0 -0.00000000000E+00 -0.00000000000E+00  0.11368683772E-12  0.17120000000E+03  0.17120000000E+03 0.  0.
         13    1    1    2    0    0  0.24333711747E+02  0.40284884680E+02  0.12731208859E+03  0.13573275406E+03  0.10566000000E+00 0.  1.
        994    1    1    2    0    0 -0.12918731871E+02 -0.18569520722E+02  0.10484269608E+02  0.17300601331E+03  0.17120000000E+03 0.  0.
        998    1    1    2    0    0 -0.11414979875E+02 -0.21715363957E+02  0.13622036381E+04  0.13624612326E+04  0.10000000000E+02 0.  1.
</event>
<event>
 5    1  0.1020718E-008  0.3713068E+03  0.7957747E-01  0.3489907E+00
         13   -1    0    0    0    0  0.00000000000E+00  0.00000000000E+00  0.14999999963E+04  0.15000000000E+04  0.10566000000E+00 0. -1.
        994   -1    0    0    0    0 -0.00000000000E+00 -0.00000000000E+00  0.11368683772E-12  0.17120000000E+03  0.17120000000E+03 0.  0.
         13    1    1    2    0    0 -0.80675513656E+01  0.21362075838E+02  0.27022007903E+02  0.35378294819E+02  0.10566000000E+00 0. -1.
        994    1    1    2    0    0 -0.10964157456E+01 -0.13711073768E+02  0.92391131096E+01  0.17199999094E+03  0.17120000000E+03 0.  0.
        998    1    1    2    0    0  0.91639671112E+01 -0.76510020699E+01  0.14637388753E+04  0.14638217142E+04  0.10000000000E+02 0. -1.
</event>
<event>
 5    1  0.1020718E-008  0.3837036E+03  0.7957747E-01  0.3435189E+00
         13   -1    0    0    0    0  0.00000000000E+00  0.00000000000E+00  0.14999999963E+04  0.15000000000E+04  0.10566000000E+00 0. -1.
        994   -1    0    0    0    0 -0.00000000000E+00 -0.00000000000E+00  0.11368683772E-12  0.17120000000E+03  0.17120000000E+03 0.  0.
         13    1    1    2    0    0  0.24032432485E+02 -0.17606211169E+02  0.17897525251E+03  0.18143783690E+03  0.10566000000E+00 0. -1.
        994    1    1    2    0    0 -0.23525494800E+02  0.13314956025E+02  0.46921816480E+01  0.17338452505E+03  0.17120000000E+03 0.  0.
        998    1    1    2    0    0 -0.50693768507E+00  0.42912551444E+01  0.13163325621E+04  0.13163776380E+04  0.10000000000E+02 0. -1.
</event>
<event>
 5    1  0.1020718E-008  0.3789580E+03  0.7957747E-01  0.3455708E+00
         13   -1    0    0    0    0  0.00000000000E+00  0.00000000000E+00  0.14999999963E+04  0.15000000000E+04  0.10566000000E+00 0.  1.
        994   -1    0    0    0    0 -0.00000000000E+00 -0.00000000000E+00  0.11368683772E-12  0.17120000000E+03  0.17120000000E+03 0.  0.
         13    1    1    2    0    0 -0.35835001725E+02 -0.14948599450E+02  0.19646330021E+03  0.20026344516E+03  0.10566000000E+00 0.  1.
        994    1    1    2    0    0 -0.31382817947E+01 -0.76774813311E+01  0.48908571820E+01  0.17147056020E+03  0.17120000000E+03 0.  0.
        998    1    1    2    0    0  0.38973283520E+02  0.22626080781E+02  0.12986458389E+04  0.12994659946E+04  0.10000000000E+02 0.  1.
</event>
<event>
 5    1  0.1020718E-008  0.3780218E+03  0.7957747E-01  0.3459818E+00
         13   -1    0    0    0    0  0.00000000000E+00  0.00000000000E+00  0.14999999963E+04  0.15000000000E+04  0.10566000000E+00 0. -1.
        994   -1    0    0    0    0 -0.00000000000E+00 -0.00000000000E+00  0.11368683772E-12  0.17120000000E+03  0.17120000000E+03 0.  0.
         13    1    1    2    0    0  0.11713041560E+02  0.42601981096E+01  0.13016821643E+02  0.18022026530E+02  0.10566000000E+00 0. -1.
        994    1    1    2    0    0  0.85128318944E+01 -0.32203668013E+02  0.88776663967E+01  0.17463618612E+03  0.17120000000E+03 0.  0.
        998    1    1    2    0    0 -0.20225873454E+02  0.27943469903E+02  0.14781055082E+04  0.14785417874E+04  0.10000000000E+02 0. -1.
</event>
<event>
 5    1  0.1020718E-008  0.3765865E+03  0.7957747E-01  0.3466158E+00
         13   -1    0    0    0    0  0.00000000000E+00  0.00000000000E+00  0.14999999963E+04  0.15000000000E+04  0.10566000000E+00 0. -1.
        994   -1    0    0    0    0 -0.00000000000E+00 -0.00000000000E+00  0.11368683772E-12  0.17120000000E+03  0.17120000000E+03 0.  0.
         13    1    1    2    0    0 -0.36004985457E+02 -0.31724210250E+02  0.18857832744E+03  0.19458823510E+03  0.10566000000E+00 0. -1.
        994    1    1    2    0    0  0.14866062008E+02  0.32991034594E+02  0.10306328827E+02  0.17528567704E+03  0.17120000000E+03 0.  0.
        998    1    1    2    0    0  0.21138923450E+02 -0.12668243433E+01  0.13011153400E+04  0.13013260879E+04  0.10000000000E+02 0. -1.
</event>
<event>
 5    1  0.1020718E-008  0.3759905E+03  0.7957747E-01  0.3468805E+00
         13   -1    0    0    0    0  0.00000000000E+00  0.00000000000E+00  0.14999999963E+04  0.15000000000E+04  0.10566000000E+00 0.  1.
        994   -1    0    0    0    0 -0.00000000000E+00 -0.00000000000E+00  0.11368683772E-12  0.17120000000E+03  0.17120000000E+03 0.  0.
         13    1    1    2    0    0  0.11241235063E+02  0.14050269555E+02  0.21280806871E+02  0.27868608603E+02  0.10566000000E+00 0.  1.
        994    1    1    2    0    0 -0.36179529344E+02 -0.38907012864E+02  0.15794581552E+02  0.17994894498E+03  0.17120000000E+03 0.  0.
        998    1    1    2    0    0  0.24938294280E+02  0.24856743309E+02  0.14629246079E+04  0.14633824464E+04  0.10000000000E+02 0.  1.
</event>
<event>
 5    1  0.1020718E-008  0.3827228E+03  0.7957747E-01  0.3439388E+00
         13   -1    0    0    0    0  0.00000000000E+00  0.00000000000E+00  0.14999999963E+04  0.15000000000E+04  0.10566000000E+00 0. -1.
        994   -1    0    0    0    0 -0.00000000000E+00 -0.00000000000E+00  0.11368683772E-12  0.17120000000E+03  0.17120000000E+03 0.  0.
         13    1    1    2    0    0  0.24703234428E+02 -0.19022708217E+02  0.13504383801E+03  0.13859640172E+03  0.10566000000E+00 0. -1.
        994    1    1    2    0    0 -0.62718466416E+02  0.12356485807E+02  0.16423290444E+02  0.18348147928E+03  0.17120000000E+03 0.  0.
        998    1    1    2    0    0  0.38015231987E+02  0.66662224098E+01  0.13485328678E+04  0.13491221190E+04  0.10000000000E+02 0. -1.
</event>
<event>
 5    1  0.1020718E-008  0.3856198E+03  0.7957747E-01  0.3427048E+00
         13   -1    0    0    0    0  0.00000000000E+00  0.00000000000E+00  0.14999999963E+04  0.15000000000E+04  0.10566000000E+00 0.  1.
        994   -1    0    0    0    0 -0.00000000000E+00 -0.00000000000E+00  0.11368683772E-12  0.17120000000E+03  0.17120000000E+03 0.  0.
         13    1    1    2    0    0 -0.12081065903E+02  0.47792660824E+00  0.55741044548E+02  0.57037319174E+02  0.10566000000E+00 0.  1.
        994    1    1    2    0    0  0.76271064221E+01 -0.22809471948E+01  0.15307565147E+01  0.17139182795E+03  0.17120000000E+03 0.  0.
        998    1    1    2    0    0  0.44539594811E+01  0.18030205865E+01  0.14427281952E+04  0.14427708529E+04  0.10000000000E+02 0.  1.
</event>
<event>
 5    1  0.1020718E-008  0.3729567E+03  0.7957747E-01  0.3482412E+00
         13   -1    0    0    0    0  0.00000000000E+00  0.00000000000E+00  0.14999999963E+04  0.15000000000E+04  0.10566000000E+00 0.  1.
        994   -1    0    0    0    0 -0.00000000000E+00 -0.00000000000E+00  0.11368683772E-12  0.17120000000E+03  0.17120000000E+03 0.  0.
         13    1    1    2    0    0 -0.15956815976E+02 -0.62225895216E+01  0.15857155769E+02  0.23340975763E+02  0.10566000000E+00 0.  1.
        994    1    1    2    0    0 -0.43880921486E+01  0.23792349118E+02  0.97377980668E+01  0.17317504422E+03  0.17120000000E+03 0.  0.
        998    1    1    2    0    0  0.20344908125E+02 -0.17569759596E+02  0.14744050424E+04  0.14746839800E+04  0.10000000000E+02 0.  1.
</event>
<event>
 5    1  0.1020718E-008  0.3840152E+03  0.7957747E-01  0.3433859E+00
         13   -1    0    0    0    0  0.00000000000E+00  0.00000000000E+00  0.14999999963E+04  0.15000000000E+04  0.10566000000E+00 0.  1.
        994   -1    0    0    0    0 -0.00000000000E+00 -0.00000000000E+00  0.11368683772E-12  0.17120000000E+03  0.17120000000E+03 0.  0.
         13    1    1    2    0    0 -0.62458289454E+01  0.14584899616E+02  0.59760120658E+02  0.61830517232E+02  0.10566000000E+00 0.  1.
        994    1    1    2    0    0 -0.64267770318E+01 -0.11392990363E+02  0.26845485912E+01  0.17171997698E+03  0.17120000000E+03 0.  0.
        998    1    1    2    0    0  0.12672605977E+02 -0.31919092530E+01  0.14375553270E+04  0.14376495058E+04  0.10000000000E+02 0.  1.
</event>
<event>
 5    1  0.1020718E-008  0.3749425E+03  0.7957747E-01  0.3473480E+00
         13   -1    0    0    0    0  0.00000000000E+00  0.00000000000E+00  0.14999999963E+04  0.15000000000E+04  0.10566000000E+00 0. -1.
        994   -1    0    0    0    0 -0.00000000000E+00 -0.00000000000E+00  0.11368683772E-12  0.17120000000E+03  0.17120000000E+03 0.  0.
         13    1    1    2    0    0 -0.54899505096E+01  0.34505739033E+02  0.88911052937E+02  0.95529953843E+02  0.10566000000E+00 0. -1.
        994    1    1    2    0    0 -0.21804296840E+02 -0.24656246760E+02  0.10400372367E+02  0.17464525648E+03  0.17120000000E+03 0.  0.
        998    1    1    2    0    0  0.27294247350E+02 -0.98494922731E+01  0.14006885710E+04  0.14010247897E+04  0.10000000000E+02 0. -1.
</event>
<event>
 5    1  0.1020718E-008  0.3773629E+03  0.7957747E-01  0.3462722E+00
         13   -1    0    0    0    0  0.00000000000E+00  0.00000000000E+00  0.14999999963E+04  0.15000000000E+04  0.10566000000E+00 0.  1.
        994   -1    0    0    0    0 -0.00000000000E+00 -0.00000000000E+00  0.11368683772E-12  0.17120000000E+03  0.17120000000E+03 0.  0.
         13    1    1    2    0    0  0.42443582133E+02  0.50711607443E+01  0.13843219349E+03  0.14488152986E+03  0.10566000000E+00 0.  1.
        994    1    1    2    0    0 -0.63640261275E+02  0.29731057550E+02  0.22294470018E+02  0.18638804155E+03  0.17120000000E+03 0.  0.
        998    1    1    2    0    0  0.21196679141E+02 -0.34802218295E+02  0.13392733328E+04  0.13399304286E+04  0.10000000000E+02 0.  1.
</event>
<event>
 5    1  0.1020718E-008  0.3831601E+03  0.7957747E-01  0.3437513E+00
         13   -1    0    0    0    0  0.00000000000E+00  0.00000000000E+00  0.14999999963E+04  0.15000000000E+04  0.10566000000E+00 0. -1.
        994   -1    0    0    0    0 -0.00000000000E+00 -0.00000000000E+00  0.11368683772E-12  0.17120000000E+03  0.17120000000E+03 0.  0.
         13    1    1    2    0    0  0.44187041756E+01 -0.33578311276E+02  0.20071744157E+03  0.20355473576E+03  0.10566000000E+00 0. -1.
        994    1    1    2    0    0 -0.75139283372E+01  0.31398733036E+02  0.60024869572E+01  0.17432099531E+03  0.17120000000E+03 0.  0.
        998    1    1    2    0    0  0.30952241615E+01  0.21795782400E+01  0.12932800677E+04  0.12933242689E+04  0.10000000000E+02 0. -1.
</event>
<event>
 5    1  0.1020718E-008  0.3717358E+03  0.7957747E-01  0.3487951E+00
         13   -1    0    0    0    0  0.00000000000E+00  0.00000000000E+00  0.14999999963E+04  0.15000000000E+04  0.10566000000E+00 0. -1.
        994   -1    0    0    0    0 -0.00000000000E+00 -0.00000000000E+00  0.11368683772E-12  0.17120000000E+03  0.17120000000E+03 0.  0.
         13    1    1    2    0    0  0.90241647715E+02 -0.87271223555E+02  0.51193905535E+03  0.52710665809E+03  0.10566000000E+00 0. -1.
        994    1    1    2    0    0 -0.79938660623E+02  0.67272236788E+02  0.51313399711E+02  0.20702233767E+03  0.17120000000E+03 0.  0.
        998    1    1    2    0    0 -0.10302987092E+02  0.19998986767E+02  0.93674754122E+03  0.93707100424E+03  0.10000000000E+02 0. -1.
</event>
<event>
 5    1  0.1020718E-008  0.3781851E+03  0.7957747E-01  0.3459099E+00
         13   -1    0    0    0    0  0.00000000000E+00  0.00000000000E+00  0.14999999963E+04  0.15000000000E+04  0.10566000000E+00 0.  1.
        994   -1    0    0    0    0 -0.00000000000E+00 -0.00000000000E+00  0.11368683772E-12  0.17120000000E+03  0.17120000000E+03 0.  0.
         13    1    1    2    0    0 -0.80124343162E+01 -0.50070766253E+02  0.24206977563E+03  0.24732381239E+03  0.10566000000E+00 0.  1.
        994    1    1    2    0    0  0.60097897328E+02  0.30132915183E+02  0.20406133014E+02  0.18505566758E+03  0.17120000000E+03 0.  0.
        998    1    1    2    0    0 -0.52085463012E+02  0.19937851070E+02  0.12375240876E+04  0.12388205200E+04  0.10000000000E+02 0.  1.
</event>
<event>
 5    1  0.1020718E-008  0.3812911E+03  0.7957747E-01  0.3445556E+00
         13   -1    0    0    0    0  0.00000000000E+00  0.00000000000E+00  0.14999999963E+04  0.15000000000E+04  0.10566000000E+00 0. -1.
        994   -1    0    0    0    0 -0.00000000000E+00 -0.00000000000E+00  0.11368683772E-12  0.17120000000E+03  0.17120000000E+03 0.  0.
         13    1    1    2    0    0 -0.12072811300E+02  0.27326768377E+02  0.14873034514E+03  0.15170112647E+03  0.10566000000E+00 0. -1.
        994    1    1    2    0    0  0.81783357447E+00  0.56626313523E+01  0.35917847252E+01  0.17133322843E+03  0.17120000000E+03 0.  0.
        998    1    1    2    0    0  0.11254977726E+02 -0.32989399729E+02  0.13476778664E+04  0.13481656451E+04  0.10000000000E+02 0. -1.
</event>
<event>
 5    1  0.1020718E-008  0.3838688E+03  0.7957747E-01  0.3434484E+00
         13   -1    0    0    0    0  0.00000000000E+00  0.00000000000E+00  0.14999999963E+04  0.15000000000E+04  0.10566000000E+00 0. -1.
        994   -1    0    0    0    0 -0.00000000000E+00 -0.00000000000E+00  0.11368683772E-12  0.17120000000E+03  0.17120000000E+03 0.  0.
         13    1    1    2    0    0  0.38719753119E+01  0.13675804475E+02  0.43619364075E+02  0.45876790507E+02  0.10566000000E+00 0. -1.
        994    1    1    2    0    0 -0.14836828931E+01 -0.19206723313E+02  0.34186497139E+01  0.17231432529E+03  0.17120000000E+03 0.  0.
        998    1    1    2    0    0 -0.23882924188E+01  0.55309188383E+01  0.14529619825E+04  0.14530088842E+04  0.10000000000E+02 0. -1.
</event>
<event>
 5    1  0.1020718E-008  0.3770868E+03  0.7957747E-01  0.3463942E+00
         13   -1    0    0    0    0  0.00000000000E+00  0.00000000000E+00  0.14999999963E+04  0.15000000000E+04  0.10566000000E+00 0.  1.
        994   -1    0    0    0    0 -0.00000000000E+00 -0.00000000000E+00  0.11368683772E-12  0.17120000000E+03  0.17120000000E+03 0.  0.
         13    1    1    2    0    0 -0.15034416499E+02  0.30632645394E+02  0.10391195834E+03  0.10937138060E+03  0.10566000000E+00 0.  1.
        994    1    1    2    0    0  0.58671166117E+01 -0.15219921038E+02  0.65095787133E+01  0.17209847085E+03  0.17120000000E+03 0.  0.
        998    1    1    2    0    0  0.91672998873E+01 -0.15412724356E+02  0.13895784592E+04  0.13897301486E+04  0.10000000000E+02 0.  1.
</event>
<event>
 5    1  0.1020718E-008  0.3702027E+03  0.7957747E-01  0.3494960E+00
         13   -1    0    0    0    0  0.00000000000E+00  0.00000000000E+00  0.14999999963E+04  0.15000000000E+04  0.10566000000E+00 0. -1.
        994   -1    0    0    0    0 -0.00000000000E+00 -0.00000000000E+00  0.11368683772E-12  0.17120000000E+03  0.17120000000E+03 0.  0.
         13    1    1    2    0    0 -0.16492379079E+02 -0.59419244374E+02  0.11092121105E+03  0.12691009177E+03  0.10566000000E+00 0. -1.
        994    1    1    2    0    0  0.28355002931E+02  0.14363545441E+03  0.90299024898E+02  0.24269013959E+03  0.17120000000E+03 0.  0.
        998    1    1    2    0    0 -0.11862623852E+02 -0.84216210034E+02  0.12987797603E+04  0.13015997686E+04  0.10000000000E+02 0. -1.
</event>
<event>
 5    1  0.1020718E-008  0.3688100E+03  0.7957747E-01  0.3501378E+00
         13   -1    0    0    0    0  0.00000000000E+00  0.00000000000E+00  0.14999999963E+04  0.15000000000E+04  0.10566000000E+00 0.  1.
        994   -1    0    0    0    0 -0.00000000000E+00 -0.00000000000E+00  0.11368683772E-12  0.17120000000E+03  0.17120000000E+03 0.  0.
         13    1    1    2    0    0  0.80072331917E+02 -0.15906193905E+02  0.34011276228E+03  0.34977319448E+03  0.10566000000E+00 0.  1.
        994    1    1    2    0    0 -0.38544807113E+02  0.40428561257E+02  0.20804805323E+02  0.18128003377E+03  0.17120000000E+03 0.  0.
        998    1    1    2    0    0 -0.41527524804E+02 -0.24522367352E+02  0.11390824287E+04  0.11401467717E+04  0.10000000000E+02 0.  1.
</event>
<event>
 5    1  0.1020718E-008  0.3844032E+03  0.7957747E-01  0.3432207E+00
         13   -1    0    0    0    0  0.00000000000E+00  0.00000000000E+00  0.14999999963E+04  0.15000000000E+04  0.10566000000E+00 0. -1.
        994   -1    0    0    0    0 -0.00000000000E+00 -0.00000000000E+00  0.11368683772E-12  0.17120000000E+03  0.17120000000E+03 0.  0.
         13    1    1    2    0    0 -0.92100023063E+01 -0.58488084635E+01  0.30498643058E+02  0.32391528141E+02  0.10566000000E+00 0. -1.
        994    1    1    2    0    0  0.65378254721E+01  0.26905473987E+01  0.20914639304E+01  0.17135867772E+03  0.17120000000E+03 0.  0.
        998    1    1    2    0    0  0.26721768342E+01  0.31582610647E+01  0.14674098893E+04  0.14674497941E+04  0.10000000000E+02 0. -1.
</event>
<event>
 5    1  0.1020718E-008  0.3811023E+03  0.7957747E-01  0.3446373E+00
         13   -1    0    0    0    0  0.00000000000E+00  0.00000000000E+00  0.14999999963E+04  0.15000000000E+04  0.10566000000E+00 0. -1.
        994   -1    0    0    0    0 -0.00000000000E+00 -0.00000000000E+00  0.11368683772E-12  0.17120000000E+03  0.17120000000E+03 0.  0.
         13    1    1    2    0    0  0.75791204547E+01  0.27700009569E+02  0.98810796052E+02  0.10289955382E+03  0.10566000000E+00 0. -1.
        994    1    1    2    0    0 -0.41504499645E+01 -0.44796546549E+02  0.10348668149E+02  0.17731466874E+03  0.17120000000E+03 0.  0.
        998    1    1    2    0    0 -0.34286704902E+01  0.17096536980E+02  0.13908405321E+04  0.13909857774E+04  0.10000000000E+02 0. -1.
</event>
<event>
 5    1  0.1020718E-008  0.3853451E+03  0.7957747E-01  0.3428210E+00
         13   -1    0    0    0    0  0.00000000000E+00  0.00000000000E+00  0.14999999963E+04  0.15000000000E+04  0.10566000000E+00 0. -1.
        994   -1    0    0    0    0 -0.00000000000E+00 -0.00000000000E+00  0.11368683772E-12  0.17120000000E+03  0.17120000000E+03 0.  0.
         13    1    1    2    0    0 -0.73229813014E+00 -0.10689694950E+02  0.39782812472E+02  0.41200596730E+02  0.10566000000E+00 0. -1.
        994    1    1    2    0    0 -0.27107580077E+01  0.55010274560E+01  0.15824650454E+01  0.17131711446E+03  0.17120000000E+03 0.  0.
        998    1    1    2    0    0  0.34430561379E+01  0.51886674942E+01  0.14586347188E+04  0.14586822888E+04  0.10000000000E+02 0. -1.
</event>
<event>
 5    1  0.1020718E-008  0.3829882E+03  0.7957747E-01  0.3438250E+00
         13   -1    0    0    0    0  0.00000000000E+00  0.00000000000E+00  0.14999999963E+04  0.15000000000E+04  0.10566000000E+00 0. -1.
        994   -1    0    0    0    0 -0.00000000000E+00 -0.00000000000E+00  0.11368683772E-12  0.17120000000E+03  0.17120000000E+03 0.  0.
         13    1    1    2    0    0 -0.18485358436E+02 -0.16397601400E+02  0.11403924419E+03  0.11668568973E+03  0.10566000000E+00 0. -1.
        994    1    1    2    0    0  0.33982835503E+02 -0.11323436774E+02  0.68911285402E+01  0.17504279757E+03  0.17120000000E+03 0.  0.
        998    1    1    2    0    0 -0.15497477067E+02  0.27721038175E+02  0.13790696236E+04  0.13794715127E+04  0.10000000000E+02 0. -1.
</event>
<event>
 5    1  0.1020718E-008  0.3854834E+03  0.7957747E-01  0.3427625E+00
         13   -1    0    0    0    0  0.00000000000E+00  0.00000000000E+00  0.14999999963E+04  0.15000000000E+04  0.10566000000E+00 0. -1.
        994   -1    0    0    0    0 -0.00000000000E+00 -0.00000000000E+00  0.11368683772E-12  0.17120000000E+03  0.17120000000E+03 0.  0.
         13    1    1    2    0    0 -0.57043961621E+01 -0.13479982622E+02  0.78620726440E+02  0.79971744116E+02  0.10566000000E+00 0. -1.
        994    1    1    2    0    0  0.42332198384E+00  0.80366580667E+01  0.16030346086E+01  0.17139654837E+03  0.17120000000E+03 0.  0.
        998    1    1    2    0    0  0.52810741782E+01  0.54433245550E+01  0.14197762352E+04  0.14198317075E+04  0.10000000000E+02 0. -1.
</event>
<event>
 5    1  0.1020718E-008  0.3777413E+03  0.7957747E-01  0.3461053E+00
         13   -1    0    0    0    0  0.00000000000E+00  0.00000000000E+00  0.14999999963E+04  0.15000000000E+04  0.10566000000E+00 0.  1.
        994   -1    0    0    0    0 -0.00000000000E+00 -0.00000000000E+00  0.11368683772E-12  0.17120000000E+03  0.17120000000E+03 0.  0.
         13    1    1    2    0    0  0.11173066001E+02  0.28722781021E+02  0.84328322880E+02  0.89783699842E+02  0.10566000000E+00 0.  1.
        994    1    1    2    0    0 -0.71311367825E+01 -0.28599621853E+02  0.82094025632E+01  0.17391269583E+03  0.17120000000E+03 0.  0.
        998    1    1    2    0    0 -0.40419292185E+01 -0.12315916741E+00  0.14074622708E+04  0.14075036043E+04  0.10000000000E+02 0.  1.
</event>
<event>
 5    1  0.1020718E-008  0.3822851E+03  0.7957747E-01  0.3441268E+00
         13   -1    0    0    0    0  0.00000000000E+00  0.00000000000E+00  0.14999999963E+04  0.15000000000E+04  0.10566000000E+00 0. -1.
        994   -1    0    0    0    0 -0.00000000000E+00 -0.00000000000E+00  0.11368683772E-12  0.17120000000E+03  0.17120000000E+03 0.  0.
         13    1    1    2    0    0  0.15502739843E+03 -0.49359040576E+02  0.98249208611E+03  0.99587173852E+03  0.10566000000E+00 0. -1.
        994    1    1    2    0    0 -0.16039485719E+03  0.61530568726E+02  0.10801618746E+03  0.26549850820E+03  0.17120000000E+03 0.  0.
        998    1    1    2    0    0  0.53674587678E+01 -0.12171528149E+02  0.40949172271E+03  0.40982975329E+03  0.10000000000E+02 0.  1.
</event>
<event>
 5    1  0.1020718E-008  0.3801368E+03  0.7957747E-01  0.3450563E+00
         13   -1    0    0    0    0  0.00000000000E+00  0.00000000000E+00  0.14999999963E+04  0.15000000000E+04  0.10566000000E+00 0. -1.
        994   -1    0    0    0    0 -0.00000000000E+00 -0.00000000000E+00  0.11368683772E-12  0.17120000000E+03  0.17120000000E+03 0.  0.
         13    1    1    2    0    0  0.13868919567E+02  0.15666699236E+02  0.51867308920E+02  0.55928716180E+02  0.10566000000E+00 0. -1.
        994    1    1    2    0    0 -0.20663272397E+02 -0.32249761369E+01  0.55268818566E+01  0.17256117095E+03  0.17120000000E+03 0.  0.
        998    1    1    2    0    0  0.67943528296E+01 -0.12441723099E+02  0.14426058055E+04  0.14427101129E+04  0.10000000000E+02 0. -1.
</event>
<event>
 5    1  0.1020718E-008  0.3806082E+03  0.7957747E-01  0.3448515E+00
         13   -1    0    0    0    0  0.00000000000E+00  0.00000000000E+00  0.14999999963E+04  0.15000000000E+04  0.10566000000E+00 0. -1.
        994   -1    0    0    0    0 -0.00000000000E+00 -0.00000000000E+00  0.11368683772E-12  0.17120000000E+03  0.17120000000E+03 0.  0.
         13    1    1    2    0    0  0.15958385469E+01  0.26101852916E+02  0.89074435086E+02  0.92833827759E+02  0.10566000000E+00 0. -1.
        994    1    1    2    0    0 -0.31921171416E+01 -0.13653461315E+02  0.44826550984E+01  0.17183172238E+03  0.17120000000E+03 0.  0.
        998    1    1    2    0    0  0.15962785947E+01 -0.12448391601E+02  0.14064429061E+04  0.14065344499E+04  0.10000000000E+02 0. -1.
</event>
<event>
 5    1  0.1020718E-008  0.3826436E+03  0.7957747E-01  0.3439728E+00
         13   -1    0    0    0    0  0.00000000000E+00  0.00000000000E+00  0.14999999963E+04  0.15000000000E+04  0.10566000000E+00 0. -1.
        994   -1    0    0    0    0 -0.00000000000E+00 -0.00000000000E+00  0.11368683772E-12  0.17120000000E+03  0.17120000000E+03 0.  0.
         13    1    1    2    0    0 -0.12741138171E+02  0.59488633414E+01  0.34260459166E+02  0.37033981737E+02  0.10566000000E+00 0. -1.
        994    1    1    2    0    0  0.76291191717E+01 -0.67572649498E+01  0.31488386546E+01  0.17153197741E+03  0.17120000000E+03 0.  0.
        998    1    1    2    0    0  0.51120189991E+01  0.80840160839E+00  0.14625906985E+04  0.14626340409E+04  0.10000000000E+02 0. -1.
</event>
<event>
 5    1  0.1020718E-008  0.3856431E+03  0.7957747E-01  0.3426949E+00
         13   -1    0    0    0    0  0.00000000000E+00  0.00000000000E+00  0.14999999963E+04  0.15000000000E+04  0.10566000000E+00 0.  1.
        994   -1    0    0    0    0 -0.00000000000E+00 -0.00000000000E+00  0.11368683772E-12  0.17120000000E+03  0.17120000000E+03 0.  0.
         13    1    1    2    0    0  0.22326503561E+01  0.10461173764E+02  0.43237532466E+02  0.44541174905E+02  0.10566000000E+00 0.  1.
        994    1    1    2    0    0  0.93052921845E+00 -0.10201862925E+02  0.16556738750E+01  0.17151421267E+03  0.17120000000E+03 0.  0.
        998    1    1    2    0    0 -0.31631795745E+01 -0.25931083937E+00  0.14551067899E+04  0.14551446124E+04  0.10000000000E+02 0.  1.
</event>
<event>
 5    1  0.1020718E-008  0.3775264E+03  0.7957747E-01  0.3462001E+00
         13   -1    0    0    0    0  0.00000000000E+00  0.00000000000E+00  0.14999999963E+04  0.15000000000E+04  0.10566000000E+00 0. -1.
        994   -1    0    0    0    0 -0.00000000000E+00 -0.00000000000E+00  0.11368683772E-12  0.17120000000E+03  0.17120000000E+03 0.  0.
         13    1    1    2    0    0  0.17083772038E+02  0.27769601659E+00  0.26354663721E+02  0.31408786128E+02  0.10566000000E+00 0. -1.
        994    1    1    2    0    0  0.11783129653E+02 -0.52683447044E+02  0.15273719149E+02  0.18015858079E+03  0.17120000000E+03 0.  0.
        998    1    1    2    0    0 -0.28866901691E+02  0.52405751028E+02  0.14583716134E+04  0.14596326331E+04  0.10000000000E+02 0. -1.
</event>
<event>
 5    1  0.1020718E-008  0.3818666E+03  0.7957747E-01  0.3443071E+00
         13   -1    0    0    0    0  0.00000000000E+00  0.00000000000E+00  0.14999999963E+04  0.15000000000E+04  0.10566000000E+00 0. -1.
        994   -1    0    0    0    0 -0.00000000000E+00 -0.00000000000E+00  0.11368683772E-12  0.17120000000E+03  0.17120000000E+03 0.  0.
         13    1    1    2    0    0 -0.10110355389E+03 -0.77227024074E+02  0.75608305369E+03  0.76671216053E+03  0.10566000000E+00 0. -1.
        994    1    1    2    0    0  0.12132528952E+03  0.85682881219E+02  0.80332929334E+02  0.24046663292E+03  0.17120000000E+03 0.  0.
        998    1    1    2    0    0 -0.20221735623E+02 -0.84558571458E+01  0.66358401326E+03  0.66402120656E+03  0.10000000000E+02 0.  1.
</event>
<event>
 5    1  0.1020718E-008  0.3834258E+03  0.7957747E-01  0.3436376E+00
         13   -1    0    0    0    0  0.00000000000E+00  0.00000000000E+00  0.14999999963E+04  0.15000000000E+04  0.10566000000E+00 0.  1.
        994   -1    0    0    0    0 -0.00000000000E+00 -0.00000000000E+00  0.11368683772E-12  0.17120000000E+03  0.17120000000E+03 0.  0.
         13    1    1    2    0    0 -0.15947328581E+02 -0.50421828160E+00  0.52419719987E+02  0.54794249082E+02  0.10566000000E+00 0.  1.
        994    1    1    2    0    0  0.95246184335E+01 -0.94094486818E+01  0.30064770257E+01  0.17174904653E+03  0.17120000000E+03 0.  0.
        998    1    1    2    0    0  0.64227101478E+01  0.99136669634E+01  0.14445737993E+04  0.14446567044E+04  0.10000000000E+02 0.  1.
</event>
<event>
 5    1  0.1020718E-008  0.2683465E+03  0.7957747E-01  0.4151598E+00
         13   -1    0    0    0    0  0.00000000000E+00  0.00000000000E+00  0.14999999963E+04  0.15000000000E+04  0.10566000000E+00 0.  1.
        994   -1    0    0    0    0 -0.00000000000E+00 -0.00000000000E+00  0.11368683772E-12  0.17120000000E+03  0.17120000000E+03 0.  0.
         13    1    1    2    0    0 -0.23883420467E+02 -0.17855795045E+03  0.36812961137E+03  0.40984482596E+03  0.10566000000E+00 0.  1.
        994    1    1    2    0    0  0.37656594290E+02  0.19958527266E+03  0.20876344602E+03  0.33785191512E+03  0.17120000000E+03 0.  0.
        998    1    1    2    0    0 -0.13773173823E+02 -0.21027322209E+02  0.92310693889E+03  0.92350325892E+03  0.10000000000E+02 0.  1.
</event>
<event>
 5    1  0.1020718E-008  0.3836024E+03  0.7957747E-01  0.3435621E+00
         13   -1    0    0    0    0  0.00000000000E+00  0.00000000000E+00  0.14999999963E+04  0.15000000000E+04  0.10566000000E+00 0. -1.
        994   -1    0    0    0    0 -0.00000000000E+00 -0.00000000000E+00  0.11368683772E-12  0.17120000000E+03  0.17120000000E+03 0.  0.
         13    1    1    2    0    0  0.76369865380E+01  0.81013616603E+01  0.26074930432E+02  0.28352579869E+02  0.10566000000E+00 0. -1.
        994    1    1    2    0    0 -0.31696462237E+01 -0.49956715019E+01  0.24412768795E+01  0.17131959381E+03  0.17120000000E+03 0.  0.
        998    1    1    2    0    0 -0.44673403143E+01 -0.31056901584E+01  0.14714837890E+04  0.14715278263E+04  0.10000000000E+02 0. -1.
</event>
<event>
 5    1  0.1020718E-008  0.3824433E+03  0.7957747E-01  0.3440588E+00
         13   -1    0    0    0    0  0.00000000000E+00  0.00000000000E+00  0.14999999963E+04  0.15000000000E+04  0.10566000000E+00 0. -1.
        994   -1    0    0    0    0 -0.00000000000E+00 -0.00000000000E+00  0.11368683772E-12  0.17120000000E+03  0.17120000000E+03 0.  0.
         13    1    1    2    0    0 -0.25582061809E+02 -0.17292555410E+02  0.16551637137E+03  0.16837207225E+03  0.10566000000E+00 0. -1.
        994    1    1    2    0    0  0.61962625234E+01  0.20697929918E+02  0.44543234465E+01  0.17261540768E+03  0.17120000000E+03 0.  0.
        998    1    1    2    0    0  0.19385799285E+02 -0.34053745082E+01  0.13300293015E+04  0.13302125201E+04  0.10000000000E+02 0. -1.
</event>
<event>
 5    1  0.1020718E-008  0.3690891E+03  0.7957747E-01  0.3500088E+00
         13   -1    0    0    0    0  0.00000000000E+00  0.00000000000E+00  0.14999999963E+04  0.15000000000E+04  0.10566000000E+00 0. -1.
        994   -1    0    0    0    0 -0.00000000000E+00 -0.00000000000E+00  0.11368683772E-12  0.17120000000E+03  0.17120000000E+03 0.  0.
         13    1    1    2    0    0  0.84898207238E+02  0.14493412476E+02  0.30311311213E+03  0.31511162230E+03  0.10566000000E+00 0. -1.
        994    1    1    2    0    0 -0.84805809719E+02 -0.52159396232E+01  0.35221691583E+02  0.19434309596E+03  0.17120000000E+03 0.  0.
        998    1    1    2    0    0 -0.92397519516E-01 -0.92774728526E+01  0.11616651926E+04  0.11617452817E+04  0.10000000000E+02 0. -1.
</event>
<event>
 5    1  0.1020718E-008  0.3787734E+03  0.7957747E-01  0.3456517E+00
         13   -1    0    0    0    0  0.00000000000E+00  0.00000000000E+00  0.14999999963E+04  0.15000000000E+04  0.10566000000E+00 0. -1.
        994   -1    0    0    0    0 -0.00000000000E+00 -0.00000000000E+00  0.11368683772E-12  0.17120000000E+03  0.17120000000E+03 0.  0.
         13    1    1    2    0    0 -0.14413253464E+02  0.48038358009E+02  0.23676565297E+03  0.24201944406E+03  0.10566000000E+00 0. -1.
        994    1    1    2    0    0  0.89498840995E+01 -0.41880057090E+02  0.10934344261E+02  0.17681357270E+03  0.17120000000E+03 0.  0.
        998    1    1    2    0    0  0.54633693645E+01 -0.61583009191E+01  0.12522999991E+04  0.12523669832E+04  0.10000000000E+02 0. -1.
</event>
<event>
 5    1  0.1020718E-008  0.3848735E+03  0.7957747E-01  0.3430209E+00
         13   -1    0    0    0    0  0.00000000000E+00  0.00000000000E+00  0.14999999963E+04  0.15000000000E+04  0.10566000000E+00 0. -1.
        994   -1    0    0    0    0 -0.00000000000E+00 -0.00000000000E+00  0.11368683772E-12  0.17120000000E+03  0.17120000000E+03 0.  0.
         13    1    1    2    0    0 -0.12889514451E+02 -0.91158920382E+01  0.77773011445E+02  0.79359256195E+02  0.10566000000E+00 0. -1.
        994    1    1    2    0    0  0.91067909085E+01 -0.86759869518E+01  0.22136446218E+01  0.17167570187E+03  0.17120000000E+03 0.  0.
        998    1    1    2    0    0  0.37827235426E+01  0.17791878990E+02  0.14200133402E+04  0.14201650419E+04  0.10000000000E+02 0. -1.
</event>
<event>
 5    1  0.1020718E-008  0.3797254E+03  0.7957747E-01  0.3452355E+00
         13   -1    0    0    0    0  0.00000000000E+00  0.00000000000E+00  0.14999999963E+04  0.15000000000E+04  0.10566000000E+00 0. -1.
        994   -1    0    0    0    0 -0.00000000000E+00 -0.00000000000E+00  0.11368683772E-12  0.17120000000E+03  0.17120000000E+03 0.  0.
         13    1    1    2    0    0  0.53360828438E+02  0.63178262169E+02  0.28750569784E+03  0.29916284574E+03  0.10566000000E+00 0. -1.
        994    1    1    2    0    0 -0.45865906846E+01  0.19764553235E+02  0.17668094095E+02  0.17330111346E+03  0.17120000000E+03 0.  0.
        998    1    1    2    0    0 -0.48774237753E+02 -0.82942815404E+02  0.11948262043E+04  0.11987360408E+04  0.10000000000E+02 0. -1.
</event>
<event>
 5    1  0.1020718E-008  0.3792235E+03  0.7957747E-01  0.3454547E+00
         13   -1    0    0    0    0  0.00000000000E+00  0.00000000000E+00  0.14999999963E+04  0.15000000000E+04  0.10566000000E+00 0.  1.
        994   -1    0    0    0    0 -0.00000000000E+00 -0.00000000000E+00  0.11368683772E-12  0.17120000000E+03  0.17120000000E+03 0.  0.
         13    1    1    2    0    0  0.76815242613E+01 -0.32073225086E+02  0.11270822743E+03  0.11743446376E+03  0.10566000000E+00 0.  1.
        994    1    1    2    0    0  0.36339768229E+01  0.31374182367E+02  0.78761564695E+01  0.17426709083E+03  0.17120000000E+03 0.  0.
        998    1    1    2    0    0 -0.11315501084E+02  0.69904271817E+00  0.13794156124E+04  0.13794984454E+04  0.10000000000E+02 0.  1.
</event>
<event>
 5    1  0.1020718E-008  0.3826194E+03  0.7957747E-01  0.3439832E+00
         13   -1    0    0    0    0  0.00000000000E+00  0.00000000000E+00  0.14999999963E+04  0.15000000000E+04  0.10566000000E+00 0.  1.
        994   -1    0    0    0    0 -0.00000000000E+00 -0.00000000000E+00  0.11368683772E-12  0.17120000000E+03  0.17120000000E+03 0.  0.
         13    1    1    2    0    0 -0.27157358301E+02  0.15037132879E+00  0.14964996835E+03  0.15209427639E+03  0.10566000000E+00 0.  1.
        994    1    1    2    0    0 -0.10759378481E+01 -0.24552859311E+02  0.48210458109E+01  0.17302220385E+03  0.17120000000E+03 0.  0.
        998    1    1    2    0    0  0.28233296149E+02  0.24402487982E+02  0.13455289821E+04  0.13460835198E+04  0.10000000000E+02 0.  1.
</event>
<event>
 5    1  0.1020718E-008  0.3692392E+03  0.7957747E-01  0.3499395E+00
         13   -1    0    0    0    0  0.00000000000E+00  0.00000000000E+00  0.14999999963E+04  0.15000000000E+04  0.10566000000E+00 0.  1.
        994   -1    0    0    0    0 -0.00000000000E+00 -0.00000000000E+00  0.11368683772E-12  0.17120000000E+03  0.17120000000E+03 0.  0.
         13    1    1    2    0    0 -0.49339425896E+02  0.18977588689E+02  0.11564432116E+03  0.12715403257E+03  0.10566000000E+00 0.  1.
        994    1    1    2    0    0  0.61864367199E+02 -0.10343728513E+02  0.24383085145E+02  0.18395153571E+03  0.17120000000E+03 0.  0.
        998    1    1    2    0    0 -0.12524941302E+02 -0.86338601764E+01  0.13599725900E+04  0.13600944317E+04  0.10000000000E+02 0.  1.
</event>
<event>
 5    1  0.1020718E-008  0.3827206E+03  0.7957747E-01  0.3439397E+00
         13   -1    0    0    0    0  0.00000000000E+00  0.00000000000E+00  0.14999999963E+04  0.15000000000E+04  0.10566000000E+00 0.  1.
        994   -1    0    0    0    0 -0.00000000000E+00 -0.00000000000E+00  0.11368683772E-12  0.17120000000E+03  0.17120000000E+03 0.  0.
         13    1    1    2    0    0 -0.44668281097E+01  0.23794474247E+02  0.10276852521E+03  0.10558177161E+03  0.10566000000E+00 0.  1.
        994    1    1    2    0    0  0.15724095130E+02 -0.16106696423E+02  0.44465191676E+01  0.17273067003E+03  0.17120000000E+03 0.  0.
        998    1    1    2    0    0 -0.11257267020E+02 -0.76877778237E+01  0.13927849519E+04  0.13928875584E+04  0.10000000000E+02 0.  1.
</event>
<event>
 5    1  0.1020718E-008  0.3843411E+03  0.7957747E-01  0.3432471E+00
         13   -1    0    0    0    0  0.00000000000E+00  0.00000000000E+00  0.14999999963E+04  0.15000000000E+04  0.10566000000E+00 0. -1.
        994   -1    0    0    0    0 -0.00000000000E+00 -0.00000000000E+00  0.11368683772E-12  0.17120000000E+03  0.17120000000E+03 0.  0.
         13    1    1    2    0    0 -0.23048566536E+02 -0.11546896263E+02  0.14069873431E+03  0.14304094601E+03  0.10566000000E+00 0. -1.
        994    1    1    2    0    0  0.45172985610E+02 -0.33050036266E+01  0.87482935810E+01  0.17730621624E+03  0.17120000000E+03 0.  0.
        998    1    1    2    0    0 -0.22124419073E+02  0.14851899889E+02  0.13505529684E+04  0.13508528378E+04  0.10000000000E+02 0. -1.
</event>
<event>
 5    1  0.1020718E-008  0.3808739E+03  0.7957747E-01  0.3447362E+00
         13   -1    0    0    0    0  0.00000000000E+00  0.00000000000E+00  0.14999999963E+04  0.15000000000E+04  0.10566000000E+00 0. -1.
        994   -1    0    0    0    0 -0.00000000000E+00 -0.00000000000E+00  0.11368683772E-12  0.17120000000E+03  0.17120000000E+03 0.  0.
         13    1    1    2    0    0  0.16719356286E+01 -0.42939500356E+02  0.25990562638E+03  0.26343413190E+03  0.10566000000E+00 0. -1.
        994    1    1    2    0    0 -0.84394804348E+00  0.19766259744E+02  0.49984648122E+01  0.17241183812E+03  0.17120000000E+03 0.  0.
        998    1    1    2    0    0 -0.82798758516E+00  0.23173240612E+02  0.12350959051E+04  0.12353540300E+04  0.10000000000E+02 0. -1.
</event>
<event>
 5    1  0.1020718E-008  0.3860401E+03  0.7957747E-01  0.3425273E+00
         13   -1    0    0    0    0  0.00000000000E+00  0.00000000000E+00  0.14999999963E+04  0.15000000000E+04  0.10566000000E+00 0. -1.
        994   -1    0    0    0    0 -0.00000000000E+00 -0.00000000000E+00  0.11368683772E-12  0.17120000000E+03  0.17120000000E+03 0.  0.
         13    1    1    2    0    0  0.29801675196E+01 -0.99409488723E+01  0.49368875635E+02  0.50448002026E+02  0.10566000000E+00 0. -1.
        994    1    1    2    0    0  0.19426989846E+02  0.12340413854E+02  0.28526571273E+01  0.17276362870E+03  0.17120000000E+03 0.  0.
        998    1    1    2    0    0 -0.22407157366E+02 -0.23994649816E+01  0.14477784635E+04  0.14479883693E+04  0.10000000000E+02 0. -1.
</event>
<event>
 5    1  0.1020718E-008  0.3716180E+03  0.7957747E-01  0.3488488E+00
         13   -1    0    0    0    0  0.00000000000E+00  0.00000000000E+00  0.14999999963E+04  0.15000000000E+04  0.10566000000E+00 0.  1.
        994   -1    0    0    0    0 -0.00000000000E+00 -0.00000000000E+00  0.11368683772E-12  0.17120000000E+03  0.17120000000E+03 0.  0.
         13    1    1    2    0    0  0.83291105234E+02 -0.30691907124E+02  0.52184166418E+03  0.52933744909E+03  0.10566000000E+00 0.  1.
        994    1    1    2    0    0 -0.27503840986E+00  0.65862830604E+01  0.11949759642E+02  0.17174309746E+03  0.17120000000E+03 0.  0.
        998    1    1    2    0    0 -0.83016066824E+02  0.24105624063E+02  0.96620857246E+03  0.97011945344E+03  0.10000000000E+02 0.  1.
</event>
<event>
 5    1  0.1020718E-008  0.3821718E+03  0.7957747E-01  0.3441756E+00
         13   -1    0    0    0    0  0.00000000000E+00  0.00000000000E+00  0.14999999963E+04  0.15000000000E+04  0.10566000000E+00 0.  1.
        994   -1    0    0    0    0 -0.00000000000E+00 -0.00000000000E+00  0.11368683772E-12  0.17120000000E+03  0.17120000000E+03 0.  0.
         13    1    1    2    0    0  0.13465057605E+02  0.79531077262E+01  0.38097151481E+02  0.41182081222E+02  0.10566000000E+00 0.  1.
        994    1    1    2    0    0 -0.15949042431E+02 -0.78494750727E+01  0.40903213314E+01  0.17216897787E+03  0.17120000000E+03 0.  0.
        998    1    1    2    0    0  0.24839848261E+01 -0.10363265351E+00  0.14578125235E+04  0.14578489409E+04  0.10000000000E+02 0.  1.
</event>
<event>
 5    1  0.1020718E-008  0.3805983E+03  0.7957747E-01  0.3448557E+00
         13   -1    0    0    0    0  0.00000000000E+00  0.00000000000E+00  0.14999999963E+04  0.15000000000E+04  0.10566000000E+00 0.  1.
        994   -1    0    0    0    0 -0.00000000000E+00 -0.00000000000E+00  0.11368683772E-12  0.17120000000E+03  0.17120000000E+03 0.  0.
         13    1    1    2    0    0 -0.24710943004E+02 -0.12316533893E+01  0.78257661634E+02  0.82075699465E+02  0.10566000000E+00 0.  1.
        994    1    1    2    0    0  0.15898003423E+02  0.80189557025E+01  0.48899059545E+01  0.17219291897E+03  0.17120000000E+03 0.  0.
        998    1    1    2    0    0  0.88129395811E+01 -0.67873023132E+01  0.14168524287E+04  0.14169313816E+04  0.10000000000E+02 0.  1.
</event>
<event>
 5    1  0.1020718E-008  0.3836254E+03  0.7957747E-01  0.3435523E+00
         13   -1    0    0    0    0  0.00000000000E+00  0.00000000000E+00  0.14999999963E+04  0.15000000000E+04  0.10566000000E+00 0. -1.
        994   -1    0    0    0    0 -0.00000000000E+00 -0.00000000000E+00  0.11368683772E-12  0.17120000000E+03  0.17120000000E+03 0.  0.
         13    1    1    2    0    0  0.17942786258E+02 -0.72455984390E+01  0.80786029024E+02  0.83071270154E+02  0.10566000000E+00 0. -1.
        994    1    1    2    0    0 -0.12239704974E+02  0.25974793983E+00  0.28094058796E+01  0.17166016022E+03  0.17120000000E+03 0.  0.
        998    1    1    2    0    0 -0.57030812840E+01  0.69858504992E+01  0.14164045614E+04  0.14164685696E+04  0.10000000000E+02 0. -1.
</event>
<event>
 5    1  0.1020718E-008  0.3004182E+03  0.7957747E-01  0.3893038E+00
         13   -1    0    0    0    0  0.00000000000E+00  0.00000000000E+00  0.14999999963E+04  0.15000000000E+04  0.10566000000E+00 0.  1.
        994   -1    0    0    0    0 -0.00000000000E+00 -0.00000000000E+00  0.11368683772E-12  0.17120000000E+03  0.17120000000E+03 0.  0.
         13    1    1    2    0    0  0.17071119003E+03 -0.70808540669E+01  0.75383533601E+03  0.77295547988E+03  0.10566000000E+00 0.  1.
        994    1    1    2    0    0 -0.11087038055E+03 -0.20064894447E+02  0.66690273696E+02  0.21552696787E+03  0.17120000000E+03 0.  0.
        998    1    1    2    0    0 -0.59840809479E+02  0.27145748513E+02  0.67947438657E+03  0.68271755225E+03  0.10000000000E+02 0.  1.
</event>
<event>
 5    1  0.1020718E-008  0.3806103E+03  0.7957747E-01  0.3448506E+00
         13   -1    0    0    0    0  0.00000000000E+00  0.00000000000E+00  0.14999999963E+04  0.15000000000E+04  0.10566000000E+00 0.  1.
        994   -1    0    0    0    0 -0.00000000000E+00 -0.00000000000E+00  0.11368683772E-12  0.17120000000E+03  0.17120000000E+03 0.  0.
         13    1    1    2    0    0  0.11644364907E+02 -0.16284441897E+01  0.16404170420E+02  0.20182939225E+02  0.10566000000E+00 0.  1.
        994    1    1    2    0    0 -0.97489503167E+01 -0.44486252143E+00  0.41432024227E+01  0.17152797457E+03  0.17120000000E+03 0.  0.
        998    1    1    2    0    0 -0.18954145902E+01  0.20733067111E+01  0.14794526234E+04  0.14794890862E+04  0.10000000000E+02 0.  1.
</event>
<event>
 5    1  0.1020718E-008  0.3759354E+03  0.7957747E-01  0.3469050E+00
         13   -1    0    0    0    0  0.00000000000E+00  0.00000000000E+00  0.14999999963E+04  0.15000000000E+04  0.10566000000E+00 0. -1.
        994   -1    0    0    0    0 -0.00000000000E+00 -0.00000000000E+00  0.11368683772E-12  0.17120000000E+03  0.17120000000E+03 0.  0.
         13    1    1    2    0    0  0.45441979446E+02 -0.17556615282E+02  0.14261603369E+03  0.15070684280E+03  0.10566000000E+00 0. -1.
        994    1    1    2    0    0 -0.80137805542E+02  0.27463897621E+02  0.30917671513E+02  0.19349851669E+03  0.17120000000E+03 0.  0.
        998    1    1    2    0    0  0.34695826095E+02 -0.99072823397E+01  0.13264662911E+04  0.13269946405E+04  0.10000000000E+02 0. -1.
</event>
<event>
 5    1  0.1020718E-008  0.3776488E+03  0.7957747E-01  0.3461461E+00
         13   -1    0    0    0    0  0.00000000000E+00  0.00000000000E+00  0.14999999963E+04  0.15000000000E+04  0.10566000000E+00 0. -1.
        994   -1    0    0    0    0 -0.00000000000E+00 -0.00000000000E+00  0.11368683772E-12  0.17120000000E+03  0.17120000000E+03 0.  0.
         13    1    1    2    0    0 -0.77167884299E+02 -0.10541553089E+02  0.18089619610E+03  0.19695037861E+03  0.10566000000E+00 0. -1.
        994    1    1    2    0    0  0.66850856661E+02  0.16514319059E+02  0.32280043902E+02  0.18733179390E+03  0.17120000000E+03 0.  0.
        998    1    1    2    0    0  0.10317027638E+02 -0.59727659696E+01  0.12868237563E+04  0.12869178275E+04  0.10000000000E+02 0. -1.
</event>
<event>
 5    1  0.1277256E-008  0.3859972E+03  0.7957747E-01  0.3425454E+00
         13   -1    0    0    0    0  0.00000000000E+00  0.00000000000E+00  0.14999999963E+04  0.15000000000E+04  0.10566000000E+00 0. -1.
        994   -1    0    0    0    0 -0.00000000000E+00 -0.00000000000E+00  0.11368683772E-12  0.17120000000E+03  0.17120000000E+03 0.  0.
         13    1    1    2    0    0  0.11990822747E+02  0.29440229700E+01  0.63889027006E+02  0.65071238172E+02  0.10566000000E+00 0. -1.
        994    1    1    2    0    0 -0.16679556299E+02 -0.10870934487E+01  0.20522200396E+01  0.17202627990E+03  0.17120000000E+03 0.  0.
        998    1    1    2    0    0  0.46887335521E+01 -0.18569295213E+01  0.14340587492E+04  0.14341024819E+04  0.10000000000E+02 0. -1.
</event>
<event>
 5    1  0.1020718E-008  0.3200567E+03  0.7957747E-01  0.3762481E+00
         13   -1    0    0    0    0  0.00000000000E+00  0.00000000000E+00  0.14999999963E+04  0.15000000000E+04  0.10566000000E+00 0.  1.
        994   -1    0    0    0    0 -0.00000000000E+00 -0.00000000000E+00  0.11368683772E-12  0.17120000000E+03  0.17120000000E+03 0.  0.
         13    1    1    2    0    0  0.49042057512E+02 -0.16517212494E+03  0.10187263460E+04  0.10331942380E+04  0.10566000000E+00 0.  1.
        994    1    1    2    0    0 -0.54734796885E+02  0.54427282855E+02  0.52479170468E+02  0.19499161634E+03  0.17120000000E+03 0.  0.
        998    1    1    2    0    0  0.56927393732E+01  0.11074484209E+03  0.42879447986E+03  0.44301414570E+03  0.10000000000E+02 0. -1.
</event>
<event>
 5    1  0.1020718E-008  0.3832246E+03  0.7957747E-01  0.3437237E+00
         13   -1    0    0    0    0  0.00000000000E+00  0.00000000000E+00  0.14999999963E+04  0.15000000000E+04  0.10566000000E+00 0. -1.
        994   -1    0    0    0    0 -0.00000000000E+00 -0.00000000000E+00  0.11368683772E-12  0.17120000000E+03  0.17120000000E+03 0.  0.
         13    1    1    2    0    0 -0.68278677442E+01 -0.28224972913E+02  0.15564891055E+03  0.15833465632E+03  0.10566000000E+00 0. -1.
        994    1    1    2    0    0 -0.86743289754E+01  0.29329922134E+02  0.56145950110E+01  0.17400129882E+03  0.17120000000E+03 0.  0.
        998    1    1    2    0    0  0.15502196720E+02 -0.11049492207E+01  0.13387364907E+04  0.13388640449E+04  0.10000000000E+02 0. -1.
</event>
<event>
 5    1  0.1020718E-008  0.3758843E+03  0.7957747E-01  0.3469277E+00
         13   -1    0    0    0    0  0.00000000000E+00  0.00000000000E+00  0.14999999963E+04  0.15000000000E+04  0.10566000000E+00 0.  1.
        994   -1    0    0    0    0 -0.00000000000E+00 -0.00000000000E+00  0.11368683772E-12  0.17120000000E+03  0.17120000000E+03 0.  0.
         13    1    1    2    0    0 -0.88329408983E+01  0.16159559070E+02  0.24684115855E+02  0.30797222826E+02  0.10566000000E+00 0.  1.
        994    1    1    2    0    0 -0.29595595581E+01 -0.15143202942E+02  0.70325687226E+01  0.17203770695E+03  0.17120000000E+03 0.  0.
        998    1    1    2    0    0  0.11792500456E+02 -0.10163561279E+01  0.14682833117E+04  0.14683650702E+04  0.10000000000E+02 0.  1.
</event>
<event>
 5    1  0.1020718E-008  0.3854771E+03  0.7957747E-01  0.3427651E+00
         13   -1    0    0    0    0  0.00000000000E+00  0.00000000000E+00  0.14999999963E+04  0.15000000000E+04  0.10566000000E+00 0. -1.
        994   -1    0    0    0    0 -0.00000000000E+00 -0.00000000000E+00  0.11368683772E-12  0.17120000000E+03  0.17120000000E+03 0.  0.
         13    1    1    2    0    0 -0.88243133919E+01 -0.51438636099E+01  0.40186287096E+02  0.41464161323E+02  0.10566000000E+00 0. -1.
        994    1    1    2    0    0  0.72038578677E+01 -0.22594541247E+02  0.32423428029E+01  0.17286515453E+03  0.17120000000E+03 0.  0.
        998    1    1    2    0    0  0.16204555241E+01  0.27738404857E+02  0.14565713664E+04  0.14568706842E+04  0.10000000000E+02 0. -1.
</event>
<event>
 5    1  0.1020718E-008  0.3709060E+03  0.7957747E-01  0.3491737E+00
         13   -1    0    0    0    0  0.00000000000E+00  0.00000000000E+00  0.14999999963E+04  0.15000000000E+04  0.10566000000E+00 0.  1.
        994   -1    0    0    0    0 -0.00000000000E+00 -0.00000000000E+00  0.11368683772E-12  0.17120000000E+03  0.17120000000E+03 0.  0.
         13    1    1    2    0    0 -0.12086477663E+03 -0.11774332772E+03  0.80732607745E+03  0.82477099364E+03  0.10566000000E+00 0.  1.
        994    1    1    2    0    0  0.11262756307E+03  0.10752773901E+03  0.97658358232E+02  0.25118474785E+03  0.17120000000E+03 0.  0.
        998    1    1    2    0    0  0.82372135530E+01  0.10215588711E+02  0.59501556059E+03  0.59524425851E+03  0.10000000000E+02 0. -1.
</event>
<event>
 5    1  0.1020718E-008  0.3855237E+03  0.7957747E-01  0.3427454E+00
         13   -1    0    0    0    0  0.00000000000E+00  0.00000000000E+00  0.14999999963E+04  0.15000000000E+04  0.10566000000E+00 0.  1.
        994   -1    0    0    0    0 -0.00000000000E+00 -0.00000000000E+00  0.11368683772E-12  0.17120000000E+03  0.17120000000E+03 0.  0.
         13    1    1    2    0    0  0.12753372868E+02 -0.68964426533E+01  0.79507715061E+02  0.80818917087E+02  0.10566000000E+00 0.  1.
        994    1    1    2    0    0 -0.32078359197E+01  0.56540773031E+01  0.15091048845E+01  0.17133002130E+03  0.17120000000E+03 0.  0.
        998    1    1    2    0    0 -0.95455369478E+01  0.12423653503E+01  0.14189831763E+04  0.14190510616E+04  0.10000000000E+02 0.  1.
</event>
<event>
 5    1  0.1020718E-008  0.3803074E+03  0.7957747E-01  0.3449821E+00
         13   -1    0    0    0    0  0.00000000000E+00  0.00000000000E+00  0.14999999963E+04  0.15000000000E+04  0.10566000000E+00 0.  1.
        994   -1    0    0    0    0 -0.00000000000E+00 -0.00000000000E+00  0.11368683772E-12  0.17120000000E+03  0.17120000000E+03 0.  0.
         13    1    1    2    0    0  0.19033186588E+02 -0.19796864038E+02  0.91513821913E+02  0.95545637172E+02  0.10566000000E+00 0.  1.
        994    1    1    2    0    0 -0.21296639325E+02  0.87041412532E+01  0.57476995314E+01  0.17283455954E+03  0.17120000000E+03 0.  0.
        998    1    1    2    0    0  0.22634527371E+01  0.11092722785E+02  0.14027384748E+04  0.14028198033E+04  0.10000000000E+02 0.  1.
</event>
<event>
 5    1  0.1020718E-008  0.3838230E+03  0.7957747E-01  0.3434679E+00
         13   -1    0    0    0    0  0.00000000000E+00  0.00000000000E+00  0.14999999963E+04  0.15000000000E+04  0.10566000000E+00 0.  1.
        994   -1    0    0    0    0 -0.00000000000E+00 -0.00000000000E+00  0.11368683772E-12  0.17120000000E+03  0.17120000000E+03 0.  0.
         13    1    1    2    0    0  0.20919272504E+02 -0.74792890772E+01  0.10538733060E+03  0.10770355770E+03  0.10566000000E+00 0.  1.
        994    1    1    2    0    0 -0.22046341690E+02  0.12957196665E+01  0.38273407968E+01  0.17266096435E+03  0.17120000000E+03 0.  0.
        998    1    1    2    0    0  0.11270691858E+01  0.61835694107E+01  0.13907853249E+04  0.13908354780E+04  0.10000000000E+02 0.  1.
</event>
<event>
 5    1  0.1020718E-008  0.3851102E+03  0.7957747E-01  0.3429205E+00
         13   -1    0    0    0    0  0.00000000000E+00  0.00000000000E+00  0.14999999963E+04  0.15000000000E+04  0.10566000000E+00 0. -1.
        994   -1    0    0    0    0 -0.00000000000E+00 -0.00000000000E+00  0.11368683772E-12  0.17120000000E+03  0.17120000000E+03 0.  0.
         13    1    1    2    0    0 -0.31714985230E+01  0.14280086064E+02  0.66835917576E+02  0.68418055389E+02  0.10566000000E+00 0. -1.
        994    1    1    2    0    0  0.12486651532E+01 -0.12307966405E+02  0.20787050756E+01  0.17165898234E+03  0.17120000000E+03 0.  0.
        998    1    1    2    0    0  0.19228333698E+01 -0.19721196588E+01  0.14310853736E+04  0.14311229623E+04  0.10000000000E+02 0. -1.
</event>
<event>
 5    1  0.1020718E-008  0.3849339E+03  0.7957747E-01  0.3429952E+00
         13   -1    0    0    0    0  0.00000000000E+00  0.00000000000E+00  0.14999999963E+04  0.15000000000E+04  0.10566000000E+00 0.  1.
        994   -1    0    0    0    0 -0.00000000000E+00 -0.00000000000E+00  0.11368683772E-12  0.17120000000E+03  0.17120000000E+03 0.  0.
         13    1    1    2    0    0 -0.84984034755E+01 -0.14938316510E+02  0.89434225965E+02  0.91070676399E+02  0.10566000000E+00 0.  1.
        994    1    1    2    0    0  0.57172824124E+01  0.84190607452E+01  0.20036889579E+01  0.17151391393E+03  0.17120000000E+03 0.  0.
        998    1    1    2    0    0  0.27811210631E+01  0.65192557650E+01  0.14085620814E+04  0.14086154097E+04  0.10000000000E+02 0.  1.
</event>
<event>
 5    1  0.1020718E-008  0.3834664E+03  0.7957747E-01  0.3436203E+00
         13   -1    0    0    0    0  0.00000000000E+00  0.00000000000E+00  0.14999999963E+04  0.15000000000E+04  0.10566000000E+00 0. -1.
        994   -1    0    0    0    0 -0.00000000000E+00 -0.00000000000E+00  0.11368683772E-12  0.17120000000E+03  0.17120000000E+03 0.  0.
         13    1    1    2    0    0 -0.11156417884E+02 -0.15808866390E+02  0.83761149160E+02  0.85967012215E+02  0.10566000000E+00 0. -1.
        994    1    1    2    0    0 -0.46247548933E+01  0.30261112561E+01  0.24944334867E+01  0.17130734925E+03  0.17120000000E+03 0.  0.
        998    1    1    2    0    0  0.15781172777E+02  0.12782755134E+02  0.14137444136E+04  0.14139256385E+04  0.10000000000E+02 0. -1.
</event>
<event>
 5    1  0.1020718E-008  0.3838271E+03  0.7957747E-01  0.3434662E+00
         13   -1    0    0    0    0  0.00000000000E+00  0.00000000000E+00  0.14999999963E+04  0.15000000000E+04  0.10566000000E+00 0.  1.
        994   -1    0    0    0    0 -0.00000000000E+00 -0.00000000000E+00  0.11368683772E-12  0.17120000000E+03  0.17120000000E+03 0.  0.
         13    1    1    2    0    0 -0.69202809948E+01 -0.19780525139E+02  0.91660239966E+02  0.94025370079E+02  0.10566000000E+00 0.  1.
        994    1    1    2    0    0  0.61851943072E+01  0.23998997894E+02  0.42438474548E+01  0.17303658217E+03  0.17120000000E+03 0.  0.
        998    1    1    2    0    0  0.73508668760E+00 -0.42184727553E+01  0.14040959089E+04  0.14041380477E+04  0.10000000000E+02 0.  1.
</event>
<event>
 5    1  0.1020718E-008  0.3853307E+03  0.7957747E-01  0.3428271E+00
         13   -1    0    0    0    0  0.00000000000E+00  0.00000000000E+00  0.14999999963E+04  0.15000000000E+04  0.10566000000E+00 0. -1.
        994   -1    0    0    0    0 -0.00000000000E+00 -0.00000000000E+00  0.11368683772E-12  0.17120000000E+03  0.17120000000E+03 0.  0.
         13    1    1    2    0    0  0.14667527712E+02 -0.41376453809E+01  0.91274486266E+02  0.92538097483E+02  0.10566000000E+00 0. -1.
        994    1    1    2    0    0  0.60293584467E+01 -0.48006892509E+01  0.16611779895E+01  0.17138144384E+03  0.17120000000E+03 0.  0.
        998    1    1    2    0    0 -0.20696886159E+02  0.89383346318E+01  0.14070643320E+04  0.14072804587E+04  0.10000000000E+02 0. -1.
</event>
<event>
 5    1  0.1020718E-008  0.3759102E+03  0.7957747E-01  0.3469162E+00
         13   -1    0    0    0    0  0.00000000000E+00  0.00000000000E+00  0.14999999963E+04  0.15000000000E+04  0.10566000000E+00 0.  1.
        994   -1    0    0    0    0 -0.00000000000E+00 -0.00000000000E+00  0.11368683772E-12  0.17120000000E+03  0.17120000000E+03 0.  0.
         13    1    1    2    0    0  0.34922442110E+02 -0.67750797097E+01  0.95960448113E+02  0.10234206092E+03  0.10566000000E+00 0.  1.
        994    1    1    2    0    0 -0.28138353529E+02  0.16117095997E+02  0.97837187772E+01  0.17451844853E+03  0.17120000000E+03 0.  0.
        998    1    1    2    0    0 -0.67840885808E+01 -0.93420162877E+01  0.13942558294E+04  0.13943394906E+04  0.10000000000E+02 0.  1.
</event>
<event>
 5    1  0.1020718E-008  0.3771446E+03  0.7957747E-01  0.3463686E+00
         13   -1    0    0    0    0  0.00000000000E+00  0.00000000000E+00  0.14999999963E+04  0.15000000000E+04  0.10566000000E+00 0.  1.
        994   -1    0    0    0    0 -0.00000000000E+00 -0.00000000000E+00  0.11368683772E-12  0.17120000000E+03  0.17120000000E+03 0.  0.
         13    1    1    2    0    0 -0.14214499982E+02  0.11040335048E+02  0.26552017609E+02  0.32077434606E+02  0.10566000000E+00 0.  1.
        994    1    1    2    0    0  0.12231836718E+02 -0.79393829924E+01  0.62994901147E+01  0.17193538091E+03  0.17120000000E+03 0.  0.
        998    1    1    2    0    0  0.19826632649E+01 -0.31009520552E+01  0.14671484886E+04  0.14671871845E+04  0.10000000000E+02 0.  1.
</event>
<event>
 5    1  0.1020718E-008  0.3839992E+03  0.7957747E-01  0.3433928E+00
         13   -1    0    0    0    0  0.00000000000E+00  0.00000000000E+00  0.14999999963E+04  0.15000000000E+04  0.10566000000E+00 0. -1.
        994   -1    0    0    0    0 -0.00000000000E+00 -0.00000000000E+00  0.11368683772E-12  0.17120000000E+03  0.17120000000E+03 0.  0.
         13    1    1    2    0    0 -0.10243926532E+01  0.12607984014E+02  0.39946656621E+02  0.41901756293E+02  0.10566000000E+00 0. -1.
        994    1    1    2    0    0  0.31988524505E+01  0.83488858182E+01  0.23916388041E+01  0.17144998247E+03  0.17120000000E+03 0.  0.
        998    1    1    2    0    0 -0.21744597973E+01 -0.20956869832E+02  0.14576617009E+04  0.14578482612E+04  0.10000000000E+02 0. -1.
</event>
<event>
 5    1  0.1020718E-008  0.3847794E+03  0.7957747E-01  0.3430608E+00
         13   -1    0    0    0    0  0.00000000000E+00  0.00000000000E+00  0.14999999963E+04  0.15000000000E+04  0.10566000000E+00 0. -1.
        994   -1    0    0    0    0 -0.00000000000E+00 -0.00000000000E+00  0.11368683772E-12  0.17120000000E+03  0.17120000000E+03 0.  0.
         13    1    1    2    0    0  0.52678190560E+01 -0.10907023187E+02  0.40790886658E+02  0.42551388588E+02  0.10566000000E+00 0. -1.
        994    1    1    2    0    0  0.25203004791E+01  0.16713785512E+02  0.26804911064E+01  0.17205326958E+03  0.17120000000E+03 0.  0.
        998    1    1    2    0    0 -0.77881195351E+01 -0.58067623252E+01  0.14565286185E+04  0.14565953418E+04  0.10000000000E+02 0. -1.
</event>
<event>
 5    1  0.1020718E-008  0.3737309E+03  0.7957747E-01  0.3478918E+00
         13   -1    0    0    0    0  0.00000000000E+00  0.00000000000E+00  0.14999999963E+04  0.15000000000E+04  0.10566000000E+00 0. -1.
        994   -1    0    0    0    0 -0.00000000000E+00 -0.00000000000E+00  0.11368683772E-12  0.17120000000E+03  0.17120000000E+03 0.  0.
         13    1    1    2    0    0 -0.40615424007E+02  0.30423775474E+02  0.11511789063E+03  0.12580683085E+03  0.10566000000E+00 0. -1.
        994    1    1    2    0    0 -0.33058739355E+02 -0.94714263404E+01  0.17125943799E+02  0.17545747666E+03  0.17120000000E+03 0.  0.
        998    1    1    2    0    0  0.73674163362E+02 -0.20952349134E+02  0.13677561618E+04  0.13699356925E+04  0.10000000000E+02 0. -1.
</event>
<event>
 5    1  0.1020718E-008  0.3732476E+03  0.7957747E-01  0.3481097E+00
         13   -1    0    0    0    0  0.00000000000E+00  0.00000000000E+00  0.14999999963E+04  0.15000000000E+04  0.10566000000E+00 0.  1.
        994   -1    0    0    0    0 -0.00000000000E+00 -0.00000000000E+00  0.11368683772E-12  0.17120000000E+03  0.17120000000E+03 0.  0.
         13    1    1    2    0    0 -0.13784200070E+02 -0.39792470690E+02  0.12152071523E+03  0.12861080938E+03  0.10566000000E+00 0.  1.
        994    1    1    2    0    0  0.75255864486E+01  0.98670270297E+01  0.81081134812E+01  0.17184054870E+03  0.17120000000E+03 0.  0.
        998    1    1    2    0    0  0.62586136213E+01  0.29925443661E+02  0.13703711676E+04  0.13707486419E+04  0.10000000000E+02 0.  1.
</event>
<event>
 5    1  0.1020718E-008  0.3824946E+03  0.7957747E-01  0.3440368E+00
         13   -1    0    0    0    0  0.00000000000E+00  0.00000000000E+00  0.14999999963E+04  0.15000000000E+04  0.10566000000E+00 0.  1.
        994   -1    0    0    0    0 -0.00000000000E+00 -0.00000000000E+00  0.11368683772E-12  0.17120000000E+03  0.17120000000E+03 0.  0.
         13    1    1    2    0    0 -0.45057063070E+01 -0.14363249755E+02  0.37668715002E+02  0.40565349583E+02  0.10566000000E+00 0.  1.
        994    1    1    2    0    0  0.50079497615E+01  0.14097736143E+02  0.36216282715E+01  0.17189061032E+03  0.17120000000E+03 0.  0.
        998    1    1    2    0    0 -0.50224345454E+00  0.26551361148E+00  0.14587096530E+04  0.14587440401E+04  0.10000000000E+02 0.  1.
</event>
<event>
 5    1  0.1020718E-008  0.3811629E+03  0.7957747E-01  0.3446110E+00
         13   -1    0    0    0    0  0.00000000000E+00  0.00000000000E+00  0.14999999963E+04  0.15000000000E+04  0.10566000000E+00 0.  1.
        994   -1    0    0    0    0 -0.00000000000E+00 -0.00000000000E+00  0.11368683772E-12  0.17120000000E+03  0.17120000000E+03 0.  0.
         13    1    1    2    0    0  0.50863541199E+02  0.94166133801E+01  0.31130177782E+03  0.31557024649E+03  0.10566000000E+00 0.  1.
        994    1    1    2    0    0 -0.49167006614E+02 -0.13067787983E+01  0.11645448961E+02  0.17850534640E+03  0.17120000000E+03 0.  0.
        998    1    1    2    0    0 -0.16965345851E+01 -0.81098345818E+01  0.11770527695E+04  0.11771244071E+04  0.10000000000E+02 0.  1.
</event>
<event>
 5    1  0.1020718E-008  0.3791584E+03  0.7957747E-01  0.3454831E+00
         13   -1    0    0    0    0  0.00000000000E+00  0.00000000000E+00  0.14999999963E+04  0.15000000000E+04  0.10566000000E+00 0.  1.
        994   -1    0    0    0    0 -0.00000000000E+00 -0.00000000000E+00  0.11368683772E-12  0.17120000000E+03  0.17120000000E+03 0.  0.
         13    1    1    2    0    0  0.24258216961E+02 -0.15512544031E+02  0.94470580459E+02  0.98761337823E+02  0.10566000000E+00 0.  1.
        994    1    1    2    0    0 -0.12964997172E+01  0.93200089766E+01  0.48554670078E+01  0.17152713791E+03  0.17120000000E+03 0.  0.
        998    1    1    2    0    0 -0.22961717244E+02  0.61925350543E+01  0.14006739488E+04  0.14009115243E+04  0.10000000000E+02 0.  1.
</event>
<event>
 5    1  0.1020718E-008  0.3774053E+03  0.7957747E-01  0.3462535E+00
         13   -1    0    0    0    0  0.00000000000E+00  0.00000000000E+00  0.14999999963E+04  0.15000000000E+04  0.10566000000E+00 0. -1.
        994   -1    0    0    0    0 -0.00000000000E+00 -0.00000000000E+00  0.11368683772E-12  0.17120000000E+03  0.17120000000E+03 0.  0.
         13    1    1    2    0    0 -0.49475633063E+02  0.44149283859E+01  0.73232833087E+02  0.88489484492E+02  0.10566000000E+00 0. -1.
        994    1    1    2    0    0  0.53000654458E+02 -0.70936477542E+00  0.25063499420E+02  0.18096185116E+03  0.17120000000E+03 0.  0.
        998    1    1    2    0    0 -0.35250213956E+01 -0.37055636105E+01  0.14017036638E+04  0.14017486644E+04  0.10000000000E+02 0. -1.
</event>
<event>
 5    1  0.1344890E-008  0.3859309E+03  0.7957747E-01  0.3425734E+00
         13   -1    0    0    0    0  0.00000000000E+00  0.00000000000E+00  0.14999999963E+04  0.15000000000E+04  0.10566000000E+00 0.  1.
        994   -1    0    0    0    0 -0.00000000000E+00 -0.00000000000E+00  0.11368683772E-12  0.17120000000E+03  0.17120000000E+03 0.  0.
         13    1    1    2    0    0 -0.45371524977E+01 -0.10646309167E+02  0.58133490060E+02  0.59274307101E+02  0.10566000000E+00 0.  1.
        994    1    1    2    0    0  0.28401781500E+01  0.66269758297E+01  0.13391151062E+01  0.17135698600E+03  0.17120000000E+03 0.  0.
        998    1    1    2    0    0  0.16969743477E+01  0.40193333371E+01  0.14405273911E+04  0.14405687069E+04  0.10000000000E+02 0.  1.
</event>
<event>
 5    1  0.1020718E-008  0.3721072E+03  0.7957747E-01  0.3486262E+00
         13   -1    0    0    0    0  0.00000000000E+00  0.00000000000E+00  0.14999999963E+04  0.15000000000E+04  0.10566000000E+00 0.  1.
        994   -1    0    0    0    0 -0.00000000000E+00 -0.00000000000E+00  0.11368683772E-12  0.17120000000E+03  0.17120000000E+03 0.  0.
         13    1    1    2    0    0  0.16450891429E+02 -0.52372260177E+02  0.12282749330E+03  0.13453657398E+03  0.10566000000E+00 0.  1.
        994    1    1    2    0    0 -0.19927416196E+02  0.25584663769E+02  0.15770379728E+02  0.17495662838E+03  0.17120000000E+03 0.  0.
        998    1    1    2    0    0  0.34765247674E+01  0.26787596408E+02  0.13614021233E+04  0.13617067976E+04  0.10000000000E+02 0.  1.
</event>
<event>
 5    1  0.1020718E-008  0.3792365E+03  0.7957747E-01  0.3454490E+00
         13   -1    0    0    0    0  0.00000000000E+00  0.00000000000E+00  0.14999999963E+04  0.15000000000E+04  0.10566000000E+00 0. -1.
        994   -1    0    0    0    0 -0.00000000000E+00 -0.00000000000E+00  0.11368683772E-12  0.17120000000E+03  0.17120000000E+03 0.  0.
         13    1    1    2    0    0  0.27121194950E+02  0.22703085534E+02  0.33299975304E+02  0.48578686968E+02  0.10566000000E+00 0. -1.
        994    1    1    2    0    0 -0.17835720846E+02 -0.14454055573E+02  0.17815090714E+02  0.17364863984E+03  0.17120000000E+03 0.  0.
        998    1    1    2    0    0 -0.92854741045E+01 -0.82490299607E+01  0.14488849303E+04  0.14489726732E+04  0.10000000000E+02 0. -1.
</event>
<event>
 5    1  0.1020718E-008  0.3963001E+03  0.7957747E-01  0.3383117E+00
         13   -1    0    0    0    0  0.00000000000E+00  0.00000000000E+00  0.14999999963E+04  0.15000000000E+04  0.10566000000E+00 0.  1.
        994   -1    0    0    0    0 -0.00000000000E+00 -0.00000000000E+00  0.11368683772E-12  0.17120000000E+03  0.17120000000E+03 0.  0.
         13    1    1    2    0    0 -0.62711995983E+02  0.51954672717E+02  0.17702182889E+03  0.19485589939E+03  0.10566000000E+00 0.  1.
        994    1    1    2    0    0 -0.56338989241E+02  0.13135268561E+02  0.38607808297E+02  0.18478804033E+03  0.17120000000E+03 0.  0.
        998    1    1    2    0    0  0.11905098522E+03 -0.65089941279E+02  0.12843703591E+04  0.12915560603E+04  0.10000000000E+02 0.  1.
</event>
<event>
 5    1  0.1020718E-008  0.3830927E+03  0.7957747E-01  0.3437802E+00
         13   -1    0    0    0    0  0.00000000000E+00  0.00000000000E+00  0.14999999963E+04  0.15000000000E+04  0.10566000000E+00 0. -1.
        994   -1    0    0    0    0 -0.00000000000E+00 -0.00000000000E+00  0.11368683772E-12  0.17120000000E+03  0.17120000000E+03 0.  0.
         13    1    1    2    0    0  0.14272874976E+02 -0.10227649599E+02  0.57991237784E+02  0.60591373975E+02  0.10566000000E+00 0. -1.
        994    1    1    2    0    0 -0.11798824635E+02  0.93248886305E+01  0.33287933914E+01  0.17189149681E+03  0.17120000000E+03 0.  0.
        998    1    1    2    0    0 -0.24740503415E+01  0.90276096872E+00  0.14386799651E+04  0.14387171292E+04  0.10000000000E+02 0.  0.
</event>
<event>
 5    1  0.1020718E-008  0.3813830E+03  0.7957747E-01  0.3445159E+00
         13   -1    0    0    0    0  0.00000000000E+00  0.00000000000E+00  0.14999999963E+04  0.15000000000E+04  0.10566000000E+00 0.  1.
        994   -1    0    0    0    0 -0.00000000000E+00 -0.00000000000E+00  0.11368683772E-12  0.17120000000E+03  0.17120000000E+03 0.  0.
         13    1    1    2    0    0  0.15110994144E+02  0.14679045195E+02  0.60498861035E+02  0.64062000144E+02  0.10566000000E+00 0.  1.
        994    1    1    2    0    0 -0.22163468904E+02 -0.11884193598E+02  0.55441236627E+01  0.17312605442E+03  0.17120000000E+03 0.  0.
        998    1    1    2    0    0  0.70524747603E+01 -0.27948515973E+01  0.14339570116E+04  0.14340119454E+04  0.10000000000E+02 0.  1.
</event>
<event>
 5    1  0.1020718E-008  0.3823307E+03  0.7957747E-01  0.3441073E+00
         13   -1    0    0    0    0  0.00000000000E+00  0.00000000000E+00  0.14999999963E+04  0.15000000000E+04  0.10566000000E+00 0. -1.
        994   -1    0    0    0    0 -0.00000000000E+00 -0.00000000000E+00  0.11368683772E-12  0.17120000000E+03  0.17120000000E+03 0.  0.
         13    1    1    2    0    0  0.66119086001E+01 -0.24316499456E+02  0.11297375388E+03  0.11575011754E+03  0.10566000000E+00 0. -1.
        994    1    1    2    0    0 -0.40641452524E+01  0.49937071969E+01  0.30987679598E+01  0.17134904946E+03  0.17120000000E+03 0.  0.
        998    1    1    2    0    0 -0.25477633477E+01  0.19322792259E+02  0.13839274744E+04  0.13841008330E+04  0.10000000000E+02 0. -1.
</event>
<event>
 5    1  0.1020718E-008  0.3752420E+03  0.7957747E-01  0.3472141E+00
         13   -1    0    0    0    0  0.00000000000E+00  0.00000000000E+00  0.14999999963E+04  0.15000000000E+04  0.10566000000E+00 0. -1.
        994   -1    0    0    0    0 -0.00000000000E+00 -0.00000000000E+00  0.11368683772E-12  0.17120000000E+03  0.17120000000E+03 0.  0.
         13    1    1    2    0    0 -0.29744690461E+02  0.15855895254E+03  0.80689114943E+03  0.82286027139E+03  0.10566000000E+00 0. -1.
        994    1    1    2    0    0 -0.10444645973E+02 -0.17243497446E+03  0.11578651330E+03  0.26936753277E+03  0.17120000000E+03 0.  0.
        998    1    1    2    0    0  0.40189336434E+02  0.13876021916E+02  0.57732233354E+03  0.57897219584E+03  0.10000000000E+02 0. -1.
</event>
<event>
 5    1  0.1020718E-008  0.3810758E+03  0.7957747E-01  0.3446488E+00
         13   -1    0    0    0    0  0.00000000000E+00  0.00000000000E+00  0.14999999963E+04  0.15000000000E+04  0.10566000000E+00 0.  1.
        994   -1    0    0    0    0 -0.00000000000E+00 -0.00000000000E+00  0.11368683772E-12  0.17120000000E+03  0.17120000000E+03 0.  0.
         13    1    1    2    0    0 -0.40208280171E+02 -0.20711158445E+02  0.25201040674E+03  0.25603693903E+03  0.10566000000E+00 0.  1.
        994    1    1    2    0    0  0.32609795239E+02  0.22542795099E+02  0.88438812294E+01  0.17595235319E+03  0.17120000000E+03 0.  0.
        998    1    1    2    0    0  0.75984849319E+01 -0.18316366539E+01  0.12391457083E+04  0.12392107078E+04  0.10000000000E+02 0.  1.
</event>
<event>
 5    1  0.1020718E-008  0.3838870E+03  0.7957747E-01  0.3434406E+00
         13   -1    0    0    0    0  0.00000000000E+00  0.00000000000E+00  0.14999999963E+04  0.15000000000E+04  0.10566000000E+00 0. -1.
        994   -1    0    0    0    0 -0.00000000000E+00 -0.00000000000E+00  0.11368683772E-12  0.17120000000E+03  0.17120000000E+03 0.  0.
         13    1    1    2    0    0  0.15078693303E+02 -0.72894300495E+01  0.68979205831E+02  0.70983412030E+02  0.10566000000E+00 0. -1.
        994    1    1    2    0    0  0.69143036364E+01  0.82170936713E+01  0.25644582329E+01  0.17155566056E+03  0.17120000000E+03 0.  0.
        998    1    1    2    0    0 -0.21992996940E+02 -0.92766362178E+00  0.14284563322E+04  0.14286609274E+04  0.10000000000E+02 0. -1.
</event>
<event>
 5    1  0.1020718E-008  0.2905772E+03  0.7957747E-01  0.3965674E+00
         13   -1    0    0    0    0  0.00000000000E+00  0.00000000000E+00  0.14999999963E+04  0.15000000000E+04  0.10566000000E+00 0. -1.
        994   -1    0    0    0    0 -0.00000000000E+00 -0.00000000000E+00  0.11368683772E-12  0.17120000000E+03  0.17120000000E+03 0.  0.
         13    1    1    2    0    0  0.20133282461E+03 -0.76604339640E+02  0.74479966988E+03  0.77532553842E+03  0.10566000000E+00 0. -1.
        994    1    1    2    0    0 -0.14248771895E+03 -0.61700733260E+02  0.15800179659E+03  0.27997095968E+03  0.17120000000E+03 0.  0.
        998    1    1    2    0    0 -0.58845105656E+02  0.13830507290E+03  0.59719852980E+03  0.61590350190E+03  0.10000000000E+02 0. -1.
</event>
<event>
 5    1  0.1020718E-008  0.3852216E+03  0.7957747E-01  0.3428733E+00
         13   -1    0    0    0    0  0.00000000000E+00  0.00000000000E+00  0.14999999963E+04  0.15000000000E+04  0.10566000000E+00 0.  1.
        994   -1    0    0    0    0 -0.00000000000E+00 -0.00000000000E+00  0.11368683772E-12  0.17120000000E+03  0.17120000000E+03 0.  0.
         13    1    1    2    0    0  0.38282823920E+01  0.11527327182E+02  0.50229452461E+02  0.51677307173E+02  0.10566000000E+00 0.  1.
        994    1    1    2    0    0  0.92388302659E+01 -0.56970266460E+01  0.19074221035E+01  0.17155433645E+03  0.17120000000E+03 0.  0.
        998    1    1    2    0    0 -0.13067112658E+02 -0.58303005359E+01  0.14478631217E+04  0.14479683564E+04  0.10000000000E+02 0.  1.
</event>
<event>
 5    1  0.1020718E-008  0.3854832E+03  0.7957747E-01  0.3427625E+00
         13   -1    0    0    0    0  0.00000000000E+00  0.00000000000E+00  0.14999999963E+04  0.15000000000E+04  0.10566000000E+00 0.  1.
        994   -1    0    0    0    0 -0.00000000000E+00 -0.00000000000E+00  0.11368683772E-12  0.17120000000E+03  0.17120000000E+03 0.  0.
         13    1    1    2    0    0  0.78519329462E+01 -0.99475459305E+01  0.59793466730E+02  0.61121815653E+02  0.10566000000E+00 0.  1.
        994    1    1    2    0    0  0.18986755546E+01  0.65104218010E+01  0.15414456476E+01  0.17134119941E+03  0.17120000000E+03 0.  0.
        998    1    1    2    0    0 -0.97506085008E+01  0.34371241296E+01  0.14386650839E+04  0.14387369849E+04  0.10000000000E+02 0.  1.
</event>
<event>
 5    1  0.1020718E-008  0.3821972E+03  0.7957747E-01  0.3441647E+00
         13   -1    0    0    0    0  0.00000000000E+00  0.00000000000E+00  0.14999999963E+04  0.15000000000E+04  0.10566000000E+00 0.  1.
        994   -1    0    0    0    0 -0.00000000000E+00 -0.00000000000E+00  0.11368683772E-12  0.17120000000E+03  0.17120000000E+03 0.  0.
         13    1    1    2    0    0  0.91628824691E+01  0.33287829766E+02  0.20639009833E+03  0.20925802704E+03  0.10566000000E+00 0.  1.
        994    1    1    2    0    0  0.50369032140E+01 -0.16151631617E+02  0.39786682703E+01  0.17207996804E+03  0.17120000000E+03 0.  0.
        998    1    1    2    0    0 -0.14199785683E+02 -0.17136198149E+02  0.12896312297E+04  0.12898620049E+04  0.10000000000E+02 0.  1.
</event>
<event>
 5    1  0.1020718E-008  0.3846579E+03  0.7957747E-01  0.3431124E+00
         13   -1    0    0    0    0  0.00000000000E+00  0.00000000000E+00  0.14999999963E+04  0.15000000000E+04  0.10566000000E+00 0. -1.
        994   -1    0    0    0    0 -0.00000000000E+00 -0.00000000000E+00  0.11368683772E-12  0.17120000000E+03  0.17120000000E+03 0.  0.
         13    1    1    2    0    0  0.10479336424E+02  0.17061531866E+01  0.30079879918E+02  0.31898868170E+02  0.10566000000E+00 0. -1.
        994    1    1    2    0    0 -0.14499461986E+02  0.16955226365E+01  0.25019934942E+01  0.17183948663E+03  0.17120000000E+03 0.  0.
        998    1    1    2    0    0  0.40201255618E+01 -0.34016758231E+01  0.14674181229E+04  0.14674616452E+04  0.10000000000E+02 0. -1.
</event>
<event>
 5    1  0.1020718E-008  0.3813926E+03  0.7957747E-01  0.3445117E+00
         13   -1    0    0    0    0  0.00000000000E+00  0.00000000000E+00  0.14999999963E+04  0.15000000000E+04  0.10566000000E+00 0. -1.
        994   -1    0    0    0    0 -0.00000000000E+00 -0.00000000000E+00  0.11368683772E-12  0.17120000000E+03  0.17120000000E+03 0.  0.
         13    1    1    2    0    0  0.28442739257E+02 -0.94348231365E+01  0.14589675525E+03  0.14894253812E+03  0.10566000000E+00 0. -1.
        994    1    1    2    0    0 -0.71317296844E+01 -0.17428434867E+02  0.46126999711E+01  0.17229430899E+03  0.17120000000E+03 0.  0.
        998    1    1    2    0    0 -0.21311009572E+02  0.26863258003E+02  0.13494905411E+04  0.13499631529E+04  0.10000000000E+02 0. -1.
</event>
<event>
 5    1  0.1020718E-008  0.3730609E+03  0.7957747E-01  0.3481941E+00
         13   -1    0    0    0    0  0.00000000000E+00  0.00000000000E+00  0.14999999963E+04  0.15000000000E+04  0.10566000000E+00 0. -1.
        994   -1    0    0    0    0 -0.00000000000E+00 -0.00000000000E+00  0.11368683772E-12  0.17120000000E+03  0.17120000000E+03 0.  0.
         13    1    1    2    0    0 -0.29682663502E+01  0.18643036009E+02  0.81751818655E+01  0.20572266753E+02  0.10566000000E+00 0. -1.
        994    1    1    2    0    0  0.14621625326E+02 -0.30736989216E+02  0.16671786037E+02  0.17534521061E+03  0.17120000000E+03 0.  0.
        998    1    1    2    0    0 -0.11653358975E+02  0.12093953207E+02  0.14751530284E+04  0.14752825226E+04  0.10000000000E+02 0. -1.
</event>
<event>
 5    1  0.1020718E-008  0.3854216E+03  0.7957747E-01  0.3427886E+00
         13   -1    0    0    0    0  0.00000000000E+00  0.00000000000E+00  0.14999999963E+04  0.15000000000E+04  0.10566000000E+00 0.  1.
        994   -1    0    0    0    0 -0.00000000000E+00 -0.00000000000E+00  0.11368683772E-12  0.17120000000E+03  0.17120000000E+03 0.  0.
         13    1    1    2    0    0 -0.68575822168E+01 -0.13129117429E+02  0.74000607057E+02  0.75468544223E+02  0.10566000000E+00 0.  1.
        994    1    1    2    0    0 -0.22955544916E+01  0.19716672302E+02  0.27160462732E+01  0.17236830812E+03  0.17120000000E+03 0.  0.
        998    1    1    2    0    0  0.91531367084E+01 -0.65875548726E+01  0.14232833429E+04  0.14233631477E+04  0.10000000000E+02 0.  1.
</event>
<event>
 5    1  0.1020718E-008  0.3833822E+03  0.7957747E-01  0.3436563E+00
         13   -1    0    0    0    0  0.00000000000E+00  0.00000000000E+00  0.14999999963E+04  0.15000000000E+04  0.10566000000E+00 0.  1.
        994   -1    0    0    0    0 -0.00000000000E+00 -0.00000000000E+00  0.11368683772E-12  0.17120000000E+03  0.17120000000E+03 0.  0.
         13    1    1    2    0    0  0.23534332220E+01  0.18036026650E+02  0.69981574080E+02  0.72306768563E+02  0.10566000000E+00 0.  1.
        994    1    1    2    0    0  0.81671227535E+01 -0.57431308613E+01  0.27651122682E+01  0.17151318110E+03  0.17120000000E+03 0.  0.
        998    1    1    2    0    0 -0.10520555976E+02 -0.12292895789E+02  0.14272533099E+04  0.14273800503E+04  0.10000000000E+02 0.  1.
</event>
<event>
 5    1  0.1020718E-008  0.3817792E+03  0.7957747E-01  0.3443448E+00
         13   -1    0    0    0    0  0.00000000000E+00  0.00000000000E+00  0.14999999963E+04  0.15000000000E+04  0.10566000000E+00 0. -1.
        994   -1    0    0    0    0 -0.00000000000E+00 -0.00000000000E+00  0.11368683772E-12  0.17120000000E+03  0.17120000000E+03 0.  0.
         13    1    1    2    0    0  0.82363432479E+01  0.81292486273E+01  0.19545366190E+02  0.22714632660E+02  0.10566000000E+00 0. -1.
        994    1    1    2    0    0 -0.45412939628E+00 -0.70345928458E+01  0.34028728968E+01  0.17137885305E+03  0.17120000000E+03 0.  0.
        998    1    1    2    0    0 -0.77822138516E+01 -0.10946557815E+01  0.14770517572E+04  0.14771065143E+04  0.10000000000E+02 0. -1.
</event>
<event>
 5    1  0.1020718E-008  0.3795915E+03  0.7957747E-01  0.3452939E+00
         13   -1    0    0    0    0  0.00000000000E+00  0.00000000000E+00  0.14999999963E+04  0.15000000000E+04  0.10566000000E+00 0. -1.
        994   -1    0    0    0    0 -0.00000000000E+00 -0.00000000000E+00  0.11368683772E-12  0.17120000000E+03  0.17120000000E+03 0.  0.
         13    1    1    2    0    0 -0.65009037413E+01  0.21246606235E+02  0.53027665047E+02  0.57494560180E+02  0.10566000000E+00 0. -1.
        994    1    1    2    0    0  0.90284053313E+01 -0.23734861331E+02  0.65011191614E+01  0.17319515090E+03  0.17120000000E+03 0.  0.
        998    1    1    2    0    0 -0.25275015900E+01  0.24882550966E+01  0.14404712121E+04  0.14405102889E+04  0.10000000000E+02 0. -1.
</event>
<event>
 5    1  0.1020718E-008  0.3856870E+03  0.7957747E-01  0.3426764E+00
         13   -1    0    0    0    0  0.00000000000E+00  0.00000000000E+00  0.14999999963E+04  0.15000000000E+04  0.10566000000E+00 0.  1.
        994   -1    0    0    0    0 -0.00000000000E+00 -0.00000000000E+00  0.11368683772E-12  0.17120000000E+03  0.17120000000E+03 0.  0.
         13    1    1    2    0    0  0.21595717961E+01 -0.10835806513E+02  0.49084979564E+02  0.50313266998E+02  0.10566000000E+00 0.  1.
        994    1    1    2    0    0  0.59411278765E+01  0.39627308060E+01  0.14567866057E+01  0.17135507714E+03  0.17120000000E+03 0.  0.
        998    1    1    2    0    0 -0.81006996726E+01  0.68730757068E+01  0.14494582301E+04  0.14495316559E+04  0.10000000000E+02 0.  1.
</event>
<event>
 5    1  0.1020718E-008  0.3854648E+03  0.7957747E-01  0.3427704E+00
         13   -1    0    0    0    0  0.00000000000E+00  0.00000000000E+00  0.14999999963E+04  0.15000000000E+04  0.10566000000E+00 0.  1.
        994   -1    0    0    0    0 -0.00000000000E+00 -0.00000000000E+00  0.11368683772E-12  0.17120000000E+03  0.17120000000E+03 0.  0.
         13    1    1    2    0    0 -0.66123001594E+01  0.10775937094E+02  0.52799523574E+02  0.54292211111E+02  0.10566000000E+00 0.  1.
        994    1    1    2    0    0  0.45318540354E+01 -0.23231052457E+02  0.32413264173E+01  0.17285880277E+03  0.17120000000E+03 0.  0.
        998    1    1    2    0    0  0.20804461240E+01  0.12455115362E+02  0.14439591463E+04  0.14440489861E+04  0.10000000000E+02 0.  1.
</event>
<event>
 5    1  0.1020718E-008  0.3814780E+03  0.7957747E-01  0.3444748E+00
         13   -1    0    0    0    0  0.00000000000E+00  0.00000000000E+00  0.14999999963E+04  0.15000000000E+04  0.10566000000E+00 0.  1.
        994   -1    0    0    0    0 -0.00000000000E+00 -0.00000000000E+00  0.11368683772E-12  0.17120000000E+03  0.17120000000E+03 0.  0.
         13    1    1    2    0    0  0.42061671062E+02  0.62864200693E+01  0.22895806852E+03  0.23287445449E+03  0.10566000000E+00 0.  1.
        994    1    1    2    0    0 -0.40605442029E+02 -0.12289491288E+02  0.93996329727E+01  0.17662849889E+03  0.17120000000E+03 0.  0.
        998    1    1    2    0    0 -0.14562290323E+01  0.60030712188E+01  0.12616422948E+04  0.12616970466E+04  0.10000000000E+02 0.  1.
</event>
<event>
 5    1  0.1020718E-008  0.3842396E+03  0.7957747E-01  0.3432903E+00
         13   -1    0    0    0    0  0.00000000000E+00  0.00000000000E+00  0.14999999963E+04  0.15000000000E+04  0.10566000000E+00 0. -1.
        994   -1    0    0    0    0 -0.00000000000E+00 -0.00000000000E+00  0.11368683772E-12  0.17120000000E+03  0.17120000000E+03 0.  0.
         13    1    1    2    0    0 -0.10522882493E+02  0.17542715148E+02  0.11267133975E+03  0.11451340479E+03  0.10566000000E+00 0. -1.
        994    1    1    2    0    0 -0.32633908681E+01 -0.46109116680E+01  0.21133198876E+01  0.17130620639E+03  0.17120000000E+03 0.  0.
        998    1    1    2    0    0  0.13786273361E+02 -0.12931803480E+02  0.13852153366E+04  0.13853803888E+04  0.10000000000E+02 0. -1.
</event>
<event>
 5    1  0.1020718E-008  0.3843969E+03  0.7957747E-01  0.3432234E+00
         13   -1    0    0    0    0  0.00000000000E+00  0.00000000000E+00  0.14999999963E+04  0.15000000000E+04  0.10566000000E+00 0.  1.
        994   -1    0    0    0    0 -0.00000000000E+00 -0.00000000000E+00  0.11368683772E-12  0.17120000000E+03  0.17120000000E+03 0.  0.
         13    1    1    2    0    0 -0.11869993383E+02 -0.22597343225E+01  0.37871445977E+02  0.39752493338E+02  0.10566000000E+00 0.  1.
        994    1    1    2    0    0  0.46314956293E+01  0.57495138526E+01  0.21095058857E+01  0.17137210297E+03  0.17120000000E+03 0.  0.
        998    1    1    2    0    0  0.72384977533E+01 -0.34897795301E+01  0.14600190444E+04  0.14600754037E+04  0.10000000000E+02 0.  1.
</event>
<event>
 5    1  0.1020718E-008  0.3852806E+03  0.7957747E-01  0.3428483E+00
         13   -1    0    0    0    0  0.00000000000E+00  0.00000000000E+00  0.14999999963E+04  0.15000000000E+04  0.10566000000E+00 0.  1.
        994   -1    0    0    0    0 -0.00000000000E+00 -0.00000000000E+00  0.11368683772E-12  0.17120000000E+03  0.17120000000E+03 0.  0.
         13    1    1    2    0    0  0.71525672586E+01 -0.10803349917E+02  0.65530070125E+02  0.66798748809E+02  0.10566000000E+00 0.  1.
        994    1    1    2    0    0  0.28010994770E+02  0.36786828845E+01  0.41177585631E+01  0.17356423731E+03  0.17120000000E+03 0.  0.
        998    1    1    2    0    0 -0.35163562028E+02  0.71246670323E+01  0.14303521676E+04  0.14308370139E+04  0.10000000000E+02 0.  1.
</event>
<event>
 5    1  0.1020718E-008  0.3771350E+03  0.7957747E-01  0.3463729E+00
         13   -1    0    0    0    0  0.00000000000E+00  0.00000000000E+00  0.14999999963E+04  0.15000000000E+04  0.10566000000E+00 0.  1.
        994   -1    0    0    0    0 -0.00000000000E+00 -0.00000000000E+00  0.11368683772E-12  0.17120000000E+03  0.17120000000E+03 0.  0.
         13    1    1    2    0    0 -0.13196829955E+02  0.58827428324E+02  0.35655045479E+03  0.36161175398E+03  0.10566000000E+00 0.  1.
        994    1    1    2    0    0  0.66738667759E+01 -0.22894833020E+02  0.75081540639E+01  0.17301597110E+03  0.17120000000E+03 0.  0.
        998    1    1    2    0    0  0.65229631792E+01 -0.35932595304E+02  0.11359413874E+04  0.11365722749E+04  0.10000000000E+02 0.  1.
</event>
<event>
 5    1  0.1020718E-008  0.3825015E+03  0.7957747E-01  0.3440338E+00
         13   -1    0    0    0    0  0.00000000000E+00  0.00000000000E+00  0.14999999963E+04  0.15000000000E+04  0.10566000000E+00 0. -1.
        994   -1    0    0    0    0 -0.00000000000E+00 -0.00000000000E+00  0.11368683772E-12  0.17120000000E+03  0.17120000000E+03 0.  0.
         13    1    1    2    0    0  0.44347842346E+01 -0.25385677345E+02  0.13504073701E+03  0.13747767724E+03  0.10566000000E+00 0. -1.
        994    1    1    2    0    0 -0.16334700027E+02 -0.95102493124E+01  0.40611274253E+01  0.17228813082E+03  0.17120000000E+03 0.  0.
        998    1    1    2    0    0  0.11899915792E+02  0.34895926657E+02  0.13608981318E+04  0.13614341919E+04  0.10000000000E+02 0. -1.
</event>
<event>
 5    1  0.1020718E-008  0.3754369E+03  0.7957747E-01  0.3471271E+00
         13   -1    0    0    0    0  0.00000000000E+00  0.00000000000E+00  0.14999999963E+04  0.15000000000E+04  0.10566000000E+00 0.  1.
        994   -1    0    0    0    0 -0.00000000000E+00 -0.00000000000E+00  0.11368683772E-12  0.17120000000E+03  0.17120000000E+03 0.  0.
         13    1    1    2    0    0  0.15683402425E+02  0.12595209285E+02  0.27432692648E+02  0.34017233846E+02  0.10566000000E+00 0.  1.
        994    1    1    2    0    0 -0.24893304628E+02 -0.17543943268E+02  0.96089923406E+01  0.17415291928E+03  0.17120000000E+03 0.  0.
        998    1    1    2    0    0  0.92099022025E+01  0.49487339837E+01  0.14629583113E+04  0.14630298469E+04  0.10000000000E+02 0.  1.
</event>
<event>
 5    1  0.1020718E-008  0.3807175E+03  0.7957747E-01  0.3448040E+00
         13   -1    0    0    0    0  0.00000000000E+00  0.00000000000E+00  0.14999999963E+04  0.15000000000E+04  0.10566000000E+00 0. -1.
        994   -1    0    0    0    0 -0.00000000000E+00 -0.00000000000E+00  0.11368683772E-12  0.17120000000E+03  0.17120000000E+03 0.  0.
         13    1    1    2    0    0  0.65723634968E+01 -0.13051095959E+02  0.27068738247E+02  0.30761255208E+02  0.10566000000E+00 0. -1.
        994    1    1    2    0    0 -0.96398691785E+01  0.29380259826E+01  0.41101696419E+01  0.17154559910E+03  0.17120000000E+03 0.  0.
        998    1    1    2    0    0  0.30675056818E+01  0.10113069977E+02  0.14688210884E+04  0.14688931457E+04  0.10000000000E+02 0. -1.
</event>
<event>
 5    1  0.1020718E-008  0.3831473E+03  0.7957747E-01  0.3437568E+00
         13   -1    0    0    0    0  0.00000000000E+00  0.00000000000E+00  0.14999999963E+04  0.15000000000E+04  0.10566000000E+00 0. -1.
        994   -1    0    0    0    0 -0.00000000000E+00 -0.00000000000E+00  0.11368683772E-12  0.17120000000E+03  0.17120000000E+03 0.  0.
         13    1    1    2    0    0 -0.11576693846E+02  0.23287010182E+02  0.95329329557E+02  0.98812939039E+02  0.10566000000E+00 0. -1.
        994    1    1    2    0    0  0.29245888382E+02 -0.64026543775E+02  0.19121953126E+02  0.18609086325E+03  0.17120000000E+03 0.  0.
        998    1    1    2    0    0 -0.17669194535E+02  0.40739533592E+02  0.13855487136E+04  0.13862961977E+04  0.10000000000E+02 0. -1.
</event>
<event>
 5    1  0.1020718E-008  0.3847183E+03  0.7957747E-01  0.3430868E+00
         13   -1    0    0    0    0  0.00000000000E+00  0.00000000000E+00  0.14999999963E+04  0.15000000000E+04  0.10566000000E+00 0. -1.
        994   -1    0    0    0    0 -0.00000000000E+00 -0.00000000000E+00  0.11368683772E-12  0.17120000000E+03  0.17120000000E+03 0.  0.
         13    1    1    2    0    0 -0.34082945368E-01 -0.14597622557E+02  0.59058109607E+02  0.60835542410E+02  0.10566000000E+00 0. -1.
        994    1    1    2    0    0 -0.13744799997E+02  0.12738719075E+02  0.29269110141E+01  0.17224750012E+03  0.17120000000E+03 0.  0.
        998    1    1    2    0    0  0.13778882943E+02  0.18589034815E+01  0.14380149757E+04  0.14381169575E+04  0.10000000000E+02 0. -1.
</event>
<event>
 5    1  0.1020718E-008  0.3856076E+03  0.7957747E-01  0.3427099E+00
         13   -1    0    0    0    0  0.00000000000E+00  0.00000000000E+00  0.14999999963E+04  0.15000000000E+04  0.10566000000E+00 0.  1.
        994   -1    0    0    0    0 -0.00000000000E+00 -0.00000000000E+00  0.11368683772E-12  0.17120000000E+03  0.17120000000E+03 0.  0.
         13    1    1    2    0    0 -0.84567938617E+01  0.84517572295E+01  0.52782012586E+02  0.54119327226E+02  0.10566000000E+00 0.  1.
        994    1    1    2    0    0  0.63120313190E+01 -0.10648270311E+02  0.18318648985E+01  0.17165670138E+03  0.17120000000E+03 0.  0.
        998    1    1    2    0    0  0.21447625427E+01  0.21965130816E+01  0.14453861188E+04  0.14454239714E+04  0.10000000000E+02 0.  1.
</event>
<event>
 5    1  0.1020718E-008  0.3852716E+03  0.7957747E-01  0.3428521E+00
         13   -1    0    0    0    0  0.00000000000E+00  0.00000000000E+00  0.14999999963E+04  0.15000000000E+04  0.10566000000E+00 0.  1.
        994   -1    0    0    0    0 -0.00000000000E+00 -0.00000000000E+00  0.11368683772E-12  0.17120000000E+03  0.17120000000E+03 0.  0.
         13    1    1    2    0    0  0.95299185997E+01  0.85604406635E+01  0.53289982206E+02  0.54808155054E+02  0.10566000000E+00 0.  1.
        994    1    1    2    0    0 -0.13492164680E+02 -0.56948140110E+01  0.22003764898E+01  0.17183931759E+03  0.17120000000E+03 0.  0.
        998    1    1    2    0    0  0.39622460807E+01 -0.28656266525E+01  0.14445096376E+04  0.14445525274E+04  0.10000000000E+02 0.  1.
</event>
<event>
 5    1  0.1020718E-008  0.3748810E+03  0.7957747E-01  0.3473755E+00
         13   -1    0    0    0    0  0.00000000000E+00  0.00000000000E+00  0.14999999963E+04  0.15000000000E+04  0.10566000000E+00 0. -1.
        994   -1    0    0    0    0 -0.00000000000E+00 -0.00000000000E+00  0.11368683772E-12  0.17120000000E+03  0.17120000000E+03 0.  0.
         13    1    1    2    0    0  0.41636922969E+01  0.37495317875E+02  0.11790982177E+03  0.12379811158E+03  0.10566000000E+00 0. -1.
        994    1    1    2    0    0 -0.57671998369E+01  0.66580784624E+01  0.70037217859E+01  0.17156946908E+03  0.17120000000E+03 0.  0.
        998    1    1    2    0    0  0.16035075400E+01 -0.44153396337E+02  0.13750864527E+04  0.13758324193E+04  0.10000000000E+02 0. -1.
</event>
<event>
 5    1  0.1020718E-008  0.3799090E+03  0.7957747E-01  0.3451555E+00
         13   -1    0    0    0    0  0.00000000000E+00  0.00000000000E+00  0.14999999963E+04  0.15000000000E+04  0.10566000000E+00 0.  1.
        994   -1    0    0    0    0 -0.00000000000E+00 -0.00000000000E+00  0.11368683772E-12  0.17120000000E+03  0.17120000000E+03 0.  0.
         13    1    1    2    0    0  0.73750205952E+01  0.19595538601E+02  0.52249206856E+02  0.56288247823E+02  0.10566000000E+00 0.  1.
        994    1    1    2    0    0 -0.53004872833E+00 -0.69916779003E+01  0.43435045946E+01  0.17139857218E+03  0.17120000000E+03 0.  0.
        998    1    1    2    0    0 -0.68449718669E+01 -0.12603860701E+02  0.14434072848E+04  0.14435131800E+04  0.10000000000E+02 0.  1.
</event>
<event>
 5    1  0.1020718E-008  0.3686632E+03  0.7957747E-01  0.3502057E+00
         13   -1    0    0    0    0  0.00000000000E+00  0.00000000000E+00  0.14999999963E+04  0.15000000000E+04  0.10566000000E+00 0. -1.
        994   -1    0    0    0    0 -0.00000000000E+00 -0.00000000000E+00  0.11368683772E-12  0.17120000000E+03  0.17120000000E+03 0.  0.
         13    1    1    2    0    0  0.16487053617E+03 -0.72681524622E+02  0.73591632773E+03  0.75765279007E+03  0.10566000000E+00 0. -1.
        994    1    1    2    0    0 -0.15484625524E+03  0.84985059177E+02  0.12820333641E+03  0.27739026391E+03  0.17120000000E+03 0.  0.
        998    1    1    2    0    0 -0.10024280926E+02 -0.12303534555E+02  0.63588033214E+03  0.63615694602E+03  0.10000000000E+02 0. -1.
</event>
<event>
 5    1  0.1020718E-008  0.3707902E+03  0.7957747E-01  0.3492267E+00
         13   -1    0    0    0    0  0.00000000000E+00  0.00000000000E+00  0.14999999963E+04  0.15000000000E+04  0.10566000000E+00 0.  1.
        994   -1    0    0    0    0 -0.00000000000E+00 -0.00000000000E+00  0.11368683772E-12  0.17120000000E+03  0.17120000000E+03 0.  0.
         13    1    1    2    0    0 -0.31116767543E+02 -0.13700583663E+02  0.64576863960E+02  0.72980420237E+02  0.10566000000E+00 0.  1.
        994    1    1    2    0    0  0.12682873325E+02 -0.63582287777E+01  0.95509918070E+01  0.17205215428E+03  0.17120000000E+03 0.  0.
        998    1    1    2    0    0  0.18433894218E+02  0.20058812440E+02  0.14258721405E+04  0.14261674255E+04  0.10000000000E+02 0.  1.
</event>
<event>
 5    1  0.1020718E-008  0.3854063E+03  0.7957747E-01  0.3427951E+00
         13   -1    0    0    0    0  0.00000000000E+00  0.00000000000E+00  0.14999999963E+04  0.15000000000E+04  0.10566000000E+00 0.  1.
        994   -1    0    0    0    0 -0.00000000000E+00 -0.00000000000E+00  0.11368683772E-12  0.17120000000E+03  0.17120000000E+03 0.  0.
         13    1    1    2    0    0 -0.52931749575E+01  0.14599668159E+02  0.83551888733E+02  0.84982923498E+02  0.10566000000E+00 0.  1.
        994    1    1    2    0    0  0.12729526920E+02 -0.82636824786E+01  0.21853945621E+01  0.17188526770E+03  0.17120000000E+03 0.  0.
        998    1    1    2    0    0 -0.74363519630E+01 -0.63359856804E+01  0.14142627130E+04  0.14143318088E+04  0.10000000000E+02 0.  1.
</event>
<event>
 5    1  0.1020718E-008  0.4021559E+03  0.7957747E-01  0.3360019E+00
         13   -1    0    0    0    0  0.00000000000E+00  0.00000000000E+00  0.14999999963E+04  0.15000000000E+04  0.10566000000E+00 0. -1.
        994   -1    0    0    0    0 -0.00000000000E+00 -0.00000000000E+00  0.11368683772E-12  0.17120000000E+03  0.17120000000E+03 0.  0.
         13    1    1    2    0    0 -0.21804343564E+02  0.40456400842E+02  0.26090222359E+02  0.52847522497E+02  0.10566000000E+00 0. -1.
        994    1    1    2    0    0  0.97628407059E+00 -0.29690552116E+02  0.32566409351E+02  0.17678374652E+03  0.17120000000E+03 0.  0.
        998    1    1    2    0    0  0.20828059493E+02 -0.10765848725E+02  0.14413433646E+04  0.14415687310E+04  0.10000000000E+02 0. -1.
</event>
<event>
 5    1  0.1020718E-008  0.3762653E+03  0.7957747E-01  0.3467583E+00
         13   -1    0    0    0    0  0.00000000000E+00  0.00000000000E+00  0.14999999963E+04  0.15000000000E+04  0.10566000000E+00 0. -1.
        994   -1    0    0    0    0 -0.00000000000E+00 -0.00000000000E+00  0.11368683772E-12  0.17120000000E+03  0.17120000000E+03 0.  0.
         13    1    1    2    0    0  0.99224154589E+02  0.11901600319E+02  0.50712096002E+03  0.51687402740E+03  0.10566000000E+00 0. -1.
        994    1    1    2    0    0 -0.10517447918E+03 -0.33391754129E+01  0.44480414238E+02  0.20581731806E+03  0.17120000000E+03 0.  0.
        998    1    1    2    0    0  0.59503245942E+01 -0.85624249056E+01  0.94839862202E+03  0.94850865454E+03  0.10000000000E+02 0.  0.
</event>
<event>
 5    1  0.1020718E-008  0.3696666E+03  0.7957747E-01  0.3497425E+00
         13   -1    0    0    0    0  0.00000000000E+00  0.00000000000E+00  0.14999999963E+04  0.15000000000E+04  0.10566000000E+00 0. -1.
        994   -1    0    0    0    0 -0.00000000000E+00 -0.00000000000E+00  0.11368683772E-12  0.17120000000E+03  0.17120000000E+03 0.  0.
         13    1    1    2    0    0  0.14796455481E+02  0.16782481429E+02  0.18432413276E+02  0.28988821999E+02  0.10566000000E+00 0. -1.
        994    1    1    2    0    0 -0.14968562823E+02 -0.15505473789E+02  0.12386190926E+02  0.17299518871E+03  0.17120000000E+03 0.  0.
        998    1    1    2    0    0  0.17210734197E+00 -0.12770076397E+01  0.14691813921E+04  0.14692159893E+04  0.10000000000E+02 0.  0.
</event>
<event>
 5    1  0.1020718E-008  0.3828566E+03  0.7957747E-01  0.3438814E+00
         13   -1    0    0    0    0  0.00000000000E+00  0.00000000000E+00  0.14999999963E+04  0.15000000000E+04  0.10566000000E+00 0. -1.
        994   -1    0    0    0    0 -0.00000000000E+00 -0.00000000000E+00  0.11368683772E-12  0.17120000000E+03  0.17120000000E+03 0.  0.
         13    1    1    2    0    0  0.15046051715E+02 -0.85162442812E+01  0.59178737530E+02  0.61652609260E+02  0.10566000000E+00 0. -1.
        994    1    1    2    0    0  0.68601794601E+01  0.13469731586E+01  0.28599099434E+01  0.17136655299E+03  0.17120000000E+03 0.  0.
        998    1    1    2    0    0 -0.21906231175E+02  0.71692711226E+01  0.14379613488E+04  0.14381808377E+04  0.10000000000E+02 0. -1.
</event>
<event>
 5    1  0.1020718E-008  0.3760145E+03  0.7957747E-01  0.3468698E+00
         13   -1    0    0    0    0  0.00000000000E+00  0.00000000000E+00  0.14999999963E+04  0.15000000000E+04  0.10566000000E+00 0. -1.
        994   -1    0    0    0    0 -0.00000000000E+00 -0.00000000000E+00  0.11368683772E-12  0.17120000000E+03  0.17120000000E+03 0.  0.
         13    1    1    2    0    0 -0.24243917019E+02 -0.55303559215E+01  0.48101072508E+02  0.54148653626E+02  0.10566000000E+00 0. -1.
        994    1    1    2    0    0  0.10150947402E+02  0.20185927579E+02  0.78900392882E+01  0.17286470468E+03  0.17120000000E+03 0.  0.
        998    1    1    2    0    0  0.14092969617E+02 -0.14655571658E+02  0.14440088845E+04  0.14441866417E+04  0.10000000000E+02 0. -1.
</event>
<event>
 5    1  0.1020718E-008  0.3840563E+03  0.7957747E-01  0.3433684E+00
         13   -1    0    0    0    0  0.00000000000E+00  0.00000000000E+00  0.14999999963E+04  0.15000000000E+04  0.10566000000E+00 0.  1.
        994   -1    0    0    0    0 -0.00000000000E+00 -0.00000000000E+00  0.11368683772E-12  0.17120000000E+03  0.17120000000E+03 0.  0.
         13    1    1    2    0    0  0.11844530010E+02  0.54462297612E+01  0.39719592969E+02  0.41804444015E+02  0.10566000000E+00 0.  1.
        994    1    1    2    0    0 -0.94460898497E+01 -0.39309142318E+01  0.24447827261E+01  0.17152287796E+03  0.17120000000E+03 0.  0.
        998    1    1    2    0    0 -0.23984401608E+01 -0.15153155294E+01  0.14578356206E+04  0.14578726780E+04  0.10000000000E+02 0.  1.
</event>
<event>
 5    1  0.1020718E-008  0.3840635E+03  0.7957747E-01  0.3433654E+00
         13   -1    0    0    0    0  0.00000000000E+00  0.00000000000E+00  0.14999999963E+04  0.15000000000E+04  0.10566000000E+00 0. -1.
        994   -1    0    0    0    0 -0.00000000000E+00 -0.00000000000E+00  0.11368683772E-12  0.17120000000E+03  0.17120000000E+03 0.  0.
         13    1    1    2    0    0  0.12181648746E+02  0.15817973531E+02  0.96724622668E+02  0.98763680810E+02  0.10566000000E+00 0. -1.
        994    1    1    2    0    0 -0.76420976094E+01 -0.61465305506E+01  0.24131376298E+01  0.17149765225E+03  0.17120000000E+03 0.  0.
        998    1    1    2    0    0 -0.45395511366E+01 -0.96714429802E+01  0.14008622360E+04  0.14009386669E+04  0.10000000000E+02 0. -1.
</event>
<event>
 5    1  0.1020718E-008  0.3806785E+03  0.7957747E-01  0.3448209E+00
         13   -1    0    0    0    0  0.00000000000E+00  0.00000000000E+00  0.14999999963E+04  0.15000000000E+04  0.10566000000E+00 0.  1.
        994   -1    0    0    0    0 -0.00000000000E+00 -0.00000000000E+00  0.11368683772E-12  0.17120000000E+03  0.17120000000E+03 0.  0.
         13    1    1    2    0    0 -0.15904739155E+02  0.15658596534E+02  0.83178926045E+01  0.23819128330E+02  0.10566000000E+00 0.  1.
        994    1    1    2    0    0 -0.51993475927E+01  0.12631973679E+02  0.17378703445E+02  0.17262114386E+03  0.17120000000E+03 0.  0.
        998    1    1    2    0    0  0.21104086748E+02 -0.28290570213E+02  0.14743034002E+04  0.14747597278E+04  0.10000000000E+02 0.  1.
</event>
<event>
 5    1  0.1020718E-008  0.3851238E+03  0.7957747E-01  0.3429147E+00
         13   -1    0    0    0    0  0.00000000000E+00  0.00000000000E+00  0.14999999963E+04  0.15000000000E+04  0.10566000000E+00 0.  1.
        994   -1    0    0    0    0 -0.00000000000E+00 -0.00000000000E+00  0.11368683772E-12  0.17120000000E+03  0.17120000000E+03 0.  0.
         13    1    1    2    0    0  0.10278921183E+02  0.62130432248E+01  0.43511550983E+02  0.45138945045E+02  0.10566000000E+00 0.  1.
        994    1    1    2    0    0 -0.16431394107E+02 -0.84461575760E+01  0.26915345969E+01  0.17221501865E+03  0.17120000000E+03 0.  0.
        998    1    1    2    0    0  0.61524729244E+01  0.22331143512E+01  0.14537969107E+04  0.14538460363E+04  0.10000000000E+02 0.  1.
</event>
<event>
 5    1  0.1020718E-008  0.3844450E+03  0.7957747E-01  0.3432029E+00
         13   -1    0    0    0    0  0.00000000000E+00  0.00000000000E+00  0.14999999963E+04  0.15000000000E+04  0.10566000000E+00 0. -1.
        994   -1    0    0    0    0 -0.00000000000E+00 -0.00000000000E+00  0.11368683772E-12  0.17120000000E+03  0.17120000000E+03 0.  0.
         13    1    1    2    0    0  0.11435841077E+02 -0.12740076170E+02  0.69927666826E+02  0.71992900718E+02  0.10566000000E+00 0. -1.
        994    1    1    2    0    0 -0.16154288238E+02  0.20933892965E+02  0.42128535158E+01  0.17328120798E+03  0.17120000000E+03 0.  0.
        998    1    1    2    0    0  0.47184471611E+01 -0.81938167954E+01  0.14258594759E+04  0.14259258913E+04  0.10000000000E+02 0. -1.
</event>
<event>
 5    1  0.1020718E-008  0.3799066E+03  0.7957747E-01  0.3451565E+00
         13   -1    0    0    0    0  0.00000000000E+00  0.00000000000E+00  0.14999999963E+04  0.15000000000E+04  0.10566000000E+00 0. -1.
        994   -1    0    0    0    0 -0.00000000000E+00 -0.00000000000E+00  0.11368683772E-12  0.17120000000E+03  0.17120000000E+03 0.  0.
         13    1    1    2    0    0 -0.26312120214E+02 -0.41852526149E+01  0.85036169037E+02  0.89112317993E+02  0.10566000000E+00 0. -1.
        994    1    1    2    0    0  0.11170537638E+02  0.94761946585E+01  0.48981718990E+01  0.17189534975E+03  0.17120000000E+03 0.  0.
        998    1    1    2    0    0  0.15141582575E+02 -0.52909420436E+01  0.14100656553E+04  0.14101923323E+04  0.10000000000E+02 0. -1.
</event>
<event>
 5    1  0.1020718E-008  0.3826812E+03  0.7957747E-01  0.3439566E+00
         13   -1    0    0    0    0  0.00000000000E+00  0.00000000000E+00  0.14999999963E+04  0.15000000000E+04  0.10566000000E+00 0.  1.
        994   -1    0    0    0    0 -0.00000000000E+00 -0.00000000000E+00  0.11368683772E-12  0.17120000000E+03  0.17120000000E+03 0.  0.
         13    1    1    2    0    0 -0.59070630727E+02 -0.30934242951E+01  0.90580269480E+02  0.10818366361E+03  0.10566000000E+00 0.  1.
        994    1    1    2    0    0  0.46821078962E+02 -0.63818268826E+01  0.26024564293E+02  0.17949835402E+03  0.17120000000E+03 0.  0.
        998    1    1    2    0    0  0.12249551765E+02  0.94752511777E+01  0.13833951625E+04  0.13835179824E+04  0.10000000000E+02 0.  1.
</event>
<event>
 5    1  0.1020718E-008  0.3859924E+03  0.7957747E-01  0.3425474E+00
         13   -1    0    0    0    0  0.00000000000E+00  0.00000000000E+00  0.14999999963E+04  0.15000000000E+04  0.10566000000E+00 0. -1.
        994   -1    0    0    0    0 -0.00000000000E+00 -0.00000000000E+00  0.11368683772E-12  0.17120000000E+03  0.17120000000E+03 0.  0.
         13    1    1    2    0    0  0.10729904069E+02 -0.72688556570E+01  0.75228984663E+02  0.76337267447E+02  0.10566000000E+00 0. -1.
        994    1    1    2    0    0 -0.70001671280E+01  0.31562281152E+01  0.13315265537E+01  0.17137729452E+03  0.17120000000E+03 0.  0.
        998    1    1    2    0    0 -0.37297369413E+01  0.41126275418E+01  0.14234394851E+04  0.14234854380E+04  0.10000000000E+02 0. -1.
</event>
<event>
 5    1  0.1020718E-008  0.3765613E+03  0.7957747E-01  0.3466270E+00
         13   -1    0    0    0    0  0.00000000000E+00  0.00000000000E+00  0.14999999963E+04  0.15000000000E+04  0.10566000000E+00 0.  1.
        994   -1    0    0    0    0 -0.00000000000E+00 -0.00000000000E+00  0.11368683772E-12  0.17120000000E+03  0.17120000000E+03 0.  0.
         13    1    1    2    0    0  0.12668815932E+02  0.34213643718E+01  0.12062886533E+02  0.17824955170E+02  0.10566000000E+00 0.  1.
        994    1    1    2    0    0 -0.92686459360E+01  0.19024888649E+01  0.61819510729E+01  0.17157267784E+03  0.17120000000E+03 0.  0.
        998    1    1    2    0    0 -0.34001699958E+01 -0.53238532367E+01  0.14817551587E+04  0.14818023670E+04  0.10000000000E+02 0.  1.
</event>
<event>
 5    1  0.1020718E-008  0.3851720E+03  0.7957747E-01  0.3428943E+00
         13   -1    0    0    0    0  0.00000000000E+00  0.00000000000E+00  0.14999999963E+04  0.15000000000E+04  0.10566000000E+00 0.  1.
        994   -1    0    0    0    0 -0.00000000000E+00 -0.00000000000E+00  0.11368683772E-12  0.17120000000E+03  0.17120000000E+03 0.  0.
         13    1    1    2    0    0  0.15850409757E+02 -0.32255671132E+01  0.81087220987E+02  0.82684873732E+02  0.10566000000E+00 0.  1.
        994    1    1    2    0    0 -0.17029265154E+02  0.72103285954E+00  0.25001961918E+01  0.17206454237E+03  0.17120000000E+03 0.  0.
        998    1    1    2    0    0  0.11788553966E+01  0.25045342537E+01  0.14164125791E+04  0.14164505839E+04  0.10000000000E+02 0.  1.
</event>
<event>
 5    1  0.1020718E-008  0.3824769E+03  0.7957747E-01  0.3440444E+00
         13   -1    0    0    0    0  0.00000000000E+00  0.00000000000E+00  0.14999999963E+04  0.15000000000E+04  0.10566000000E+00 0.  1.
        994   -1    0    0    0    0 -0.00000000000E+00 -0.00000000000E+00  0.11368683772E-12  0.17120000000E+03  0.17120000000E+03 0.  0.
         13    1    1    2    0    0 -0.15093868045E+02  0.84316059177E+01  0.54244260581E+02  0.56933011521E+02  0.10566000000E+00 0.  1.
        994    1    1    2    0    0 -0.53889454100E+01 -0.34235667556E+01  0.30231600222E+01  0.17134567703E+03  0.17120000000E+03 0.  0.
        998    1    1    2    0    0  0.20482813455E+02 -0.50080391622E+01  0.14427325757E+04  0.14429213114E+04  0.10000000000E+02 0.  1.
</event>
<event>
 5    1  0.1020718E-008  0.3722543E+03  0.7957747E-01  0.3485594E+00
         13   -1    0    0    0    0  0.00000000000E+00  0.00000000000E+00  0.14999999963E+04  0.15000000000E+04  0.10566000000E+00 0. -1.
        994   -1    0    0    0    0 -0.00000000000E+00 -0.00000000000E+00  0.11368683772E-12  0.17120000000E+03  0.17120000000E+03 0.  0.
         13    1    1    2    0    0  0.10288830547E+03  0.12613712946E+03  0.53488814253E+03  0.55910814251E+03  0.10566000000E+00 0. -1.
        994    1    1    2    0    0 -0.95478064085E+02 -0.15501355460E+03  0.14013885813E+03  0.28651981152E+03  0.17120000000E+03 0.  0.
        998    1    1    2    0    0 -0.74102413850E+01  0.28876425140E+02  0.82497299562E+03  0.82557204598E+03  0.10000000000E+02 0. -1.
</event>
<event>
 5    1  0.1020718E-008  0.3854093E+03  0.7957747E-01  0.3427938E+00
         13   -1    0    0    0    0  0.00000000000E+00  0.00000000000E+00  0.14999999963E+04  0.15000000000E+04  0.10566000000E+00 0.  1.
        994   -1    0    0    0    0 -0.00000000000E+00 -0.00000000000E+00  0.11368683772E-12  0.17120000000E+03  0.17120000000E+03 0.  0.
         13    1    1    2    0    0 -0.14347428313E+02  0.12951189749E+01  0.73430641457E+02  0.74830450361E+02  0.10566000000E+00 0.  1.
        994    1    1    2    0    0  0.84573924677E+01 -0.28314261690E+01  0.16883679330E+01  0.17144047086E+03  0.17120000000E+03 0.  0.
        998    1    1    2    0    0  0.58900358450E+01  0.15363071941E+01  0.14248809869E+04  0.14249290788E+04  0.10000000000E+02 0.  1.
</event>
<event>
 5    1  0.1020718E-008  0.3754193E+03  0.7957747E-01  0.3471350E+00
         13   -1    0    0    0    0  0.00000000000E+00  0.00000000000E+00  0.14999999963E+04  0.15000000000E+04  0.10566000000E+00 0. -1.
        994   -1    0    0    0    0 -0.00000000000E+00 -0.00000000000E+00  0.11368683772E-12  0.17120000000E+03  0.17120000000E+03 0.  0.
         13    1    1    2    0    0  0.35525269022E+02 -0.20388142957E+01  0.10025733810E+03  0.10638489794E+03  0.10566000000E+00 0. -1.
        994    1    1    2    0    0 -0.12030793651E+02 -0.17342732709E+02  0.79772847829E+01  0.17268059372E+03  0.17120000000E+03 0.  0.
        998    1    1    2    0    0 -0.23494475371E+02  0.19381547005E+02  0.13917653734E+04  0.13921345083E+04  0.10000000000E+02 0. -1.
</event>
<event>
 5    1  0.1020718E-008  0.3728179E+03  0.7957747E-01  0.3483040E+00
         13   -1    0    0    0    0  0.00000000000E+00  0.00000000000E+00  0.14999999963E+04  0.15000000000E+04  0.10566000000E+00 0.  1.
        994   -1    0    0    0    0 -0.00000000000E+00 -0.00000000000E+00  0.11368683772E-12  0.17120000000E+03  0.17120000000E+03 0.  0.
         13    1    1    2    0    0  0.38071780359E+02 -0.32922226892E+02  0.19002019718E+03  0.19657319243E+03  0.10566000000E+00 0.  1.
        994    1    1    2    0    0  0.21831944234E+02  0.24300208314E+02  0.11466629213E+02  0.17466555899E+03  0.17120000000E+03 0.  0.
        998    1    1    2    0    0 -0.59903724593E+02  0.86220185785E+01  0.12985131699E+04  0.12999612486E+04  0.10000000000E+02 0.  1.
</event>
<event>
 5    1  0.1020718E-008  0.3728554E+03  0.7957747E-01  0.3482870E+00
         13   -1    0    0    0    0  0.00000000000E+00  0.00000000000E+00  0.14999999963E+04  0.15000000000E+04  0.10566000000E+00 0.  1.
        994   -1    0    0    0    0 -0.00000000000E+00 -0.00000000000E+00  0.11368683772E-12  0.17120000000E+03  0.17120000000E+03 0.  0.
         13    1    1    2    0    0 -0.33079026331E+02  0.34937896819E+02  0.15798163940E+03  0.16514565743E+03  0.10566000000E+00 0.  1.
        994    1    1    2    0    0  0.10771720458E+02 -0.75954366931E+01  0.83792042005E+01  0.17191094114E+03  0.17120000000E+03 0.  0.
        998    1    1    2    0    0  0.22307305873E+02 -0.27342460126E+02  0.13336391527E+04  0.13341434014E+04  0.10000000000E+02 0.  1.
</event>
<event>
 5    1  0.1020718E-008  0.3301529E+03  0.7957747E-01  0.3701793E+00
         13   -1    0    0    0    0  0.00000000000E+00  0.00000000000E+00  0.14999999963E+04  0.15000000000E+04  0.10566000000E+00 0. -1.
        994   -1    0    0    0    0 -0.00000000000E+00 -0.00000000000E+00  0.11368683772E-12  0.17120000000E+03  0.17120000000E+03 0.  0.
         13    1    1    2    0    0  0.83728943536E+02 -0.23645139980E+03  0.70316814913E+03  0.74656899049E+03  0.10566000000E+00 0. -1.
        994    1    1    2    0    0 -0.89635649246E+02  0.23990507882E+03  0.30789167182E+03  0.43554071915E+03  0.17120000000E+03 0.  0.
        998    1    1    2    0    0  0.59067057096E+01 -0.34536790258E+01  0.48894017533E+03  0.48909029036E+03  0.10000000000E+02 0. -1.
</event>
<event>
 5    1  0.1020718E-008  0.4078692E+03  0.7957747E-01  0.3338118E+00
         13   -1    0    0    0    0  0.00000000000E+00  0.00000000000E+00  0.14999999963E+04  0.15000000000E+04  0.10566000000E+00 0.  1.
        994   -1    0    0    0    0 -0.00000000000E+00 -0.00000000000E+00  0.11368683772E-12  0.17120000000E+03  0.17120000000E+03 0.  0.
         13    1    1    2    0    0 -0.11379141939E+03  0.10924007787E+03  0.33488750190E+03  0.37017770305E+03  0.10566000000E+00 0.  1.
        994    1    1    2    0    0  0.98427624727E+02 -0.73207870024E+02  0.96535212230E+02  0.23168054891E+03  0.17120000000E+03 0.  0.
        998    1    1    2    0    0  0.15363794658E+02 -0.36032207846E+02  0.10685772821E+04  0.10693417480E+04  0.10000000000E+02 0.  1.
</event>
<event>
 5    1  0.1020718E-008  0.3822944E+03  0.7957747E-01  0.3441229E+00
         13   -1    0    0    0    0  0.00000000000E+00  0.00000000000E+00  0.14999999963E+04  0.15000000000E+04  0.10566000000E+00 0.  1.
        994   -1    0    0    0    0 -0.00000000000E+00 -0.00000000000E+00  0.11368683772E-12  0.17120000000E+03  0.17120000000E+03 0.  0.
         13    1    1    2    0    0 -0.32912923241E+02  0.11720097706E+02  0.16342837816E+03  0.16712111524E+03  0.10566000000E+00 0.  1.
        994    1    1    2    0    0  0.48229719288E+02 -0.14710505437E+02  0.11461116219E+02  0.17883875972E+03  0.17120000000E+03 0.  0.
        998    1    1    2    0    0 -0.15316796047E+02  0.29904077316E+01  0.13251105019E+04  0.13252401250E+04  0.10000000000E+02 0.  1.
</event>
<event>
 5    1  0.1020718E-008  0.3817205E+03  0.7957747E-01  0.3443701E+00
         13   -1    0    0    0    0  0.00000000000E+00  0.00000000000E+00  0.14999999963E+04  0.15000000000E+04  0.10566000000E+00 0. -1.
        994   -1    0    0    0    0 -0.00000000000E+00 -0.00000000000E+00  0.11368683772E-12  0.17120000000E+03  0.17120000000E+03 0.  0.
         13    1    1    2    0    0 -0.12443289452E+02 -0.20741399606E+02  0.10467853566E+03  0.10743671673E+03  0.10566000000E+00 0. -1.
        994    1    1    2    0    0 -0.30773169226E+01 -0.13462787831E+02  0.39013751788E+01  0.17180039949E+03  0.17120000000E+03 0.  0.
        998    1    1    2    0    0  0.15520606374E+02  0.34204187437E+02  0.13914200854E+04  0.13919628838E+04  0.10000000000E+02 0. -1.
</event>
<event>
 5    1  0.1020718E-008  0.3779834E+03  0.7957747E-01  0.3459986E+00
         13   -1    0    0    0    0  0.00000000000E+00  0.00000000000E+00  0.14999999963E+04  0.15000000000E+04  0.10566000000E+00 0. -1.
        994   -1    0    0    0    0 -0.00000000000E+00 -0.00000000000E+00  0.11368683772E-12  0.17120000000E+03  0.17120000000E+03 0.  0.
         13    1    1    2    0    0 -0.96518851623E+01  0.16261520349E+02  0.32316317991E+02  0.37442642852E+02  0.10566000000E+00 0. -1.
        994    1    1    2    0    0  0.10924394503E+02 -0.11951536569E+02  0.60373989079E+01  0.17206996196E+03  0.17120000000E+03 0.  0.
        998    1    1    2    0    0 -0.12725093408E+01 -0.43099837792E+01  0.14616462794E+04  0.14616873952E+04  0.10000000000E+02 0. -1.
</event>
<event>
 5    1  0.1020718E-008  0.3722543E+03  0.7957747E-01  0.3485594E+00
         13   -1    0    0    0    0  0.00000000000E+00  0.00000000000E+00  0.14999999963E+04  0.15000000000E+04  0.10566000000E+00 0.  1.
        994   -1    0    0    0    0 -0.00000000000E+00 -0.00000000000E+00  0.11368683772E-12  0.17120000000E+03  0.17120000000E+03 0.  0.
         13    1    1    2    0    0 -0.29542465687E+02  0.40615980184E+01  0.52448652745E+02  0.60333458347E+02  0.10566000000E+00 0.  1.
        994    1    1    2    0    0  0.15166585203E+02 -0.42197625273E+01  0.89462856919E+01  0.17215489459E+03  0.17120000000E+03 0.  0.
        998    1    1    2    0    0  0.14375880484E+02  0.15816450888E+00  0.14386050578E+04  0.14387116471E+04  0.10000000000E+02 0.  1.
</event>
<event>
 5    1  0.1020718E-008  0.3826485E+03  0.7957747E-01  0.3439707E+00
         13   -1    0    0    0    0  0.00000000000E+00  0.00000000000E+00  0.14999999963E+04  0.15000000000E+04  0.10566000000E+00 0.  1.
        994   -1    0    0    0    0 -0.00000000000E+00 -0.00000000000E+00  0.11368683772E-12  0.17120000000E+03  0.17120000000E+03 0.  0.
         13    1    1    2    0    0  0.18243177574E+01  0.29878707036E+02  0.16672346376E+03  0.16938946190E+03  0.10566000000E+00 0.  1.
        994    1    1    2    0    0 -0.76955491902E+01 -0.11468786569E+02  0.34345145956E+01  0.17179054233E+03  0.17120000000E+03 0.  0.
        998    1    1    2    0    0  0.58712314328E+01 -0.18409920467E+02  0.13298420179E+04  0.13300199958E+04  0.10000000000E+02 0.  1.
</event>
<event>
 5    1  0.1020718E-008  0.3838568E+03  0.7957747E-01  0.3434535E+00
         13   -1    0    0    0    0  0.00000000000E+00  0.00000000000E+00  0.14999999963E+04  0.15000000000E+04  0.10566000000E+00 0. -1.
        994   -1    0    0    0    0 -0.00000000000E+00 -0.00000000000E+00  0.11368683772E-12  0.17120000000E+03  0.17120000000E+03 0.  0.
         13    1    1    2    0    0 -0.14596634907E+02  0.18845360451E+02  0.13852429737E+03  0.14056031263E+03  0.10566000000E+00 0. -1.
        994    1    1    2    0    0 -0.98979495852E+00 -0.79099630218E+01  0.24085783449E+01  0.17140241672E+03  0.17120000000E+03 0.  0.
        998    1    1    2    0    0  0.15586429865E+02 -0.10935397430E+02  0.13590671206E+04  0.13592372706E+04  0.10000000000E+02 0. -1.
</event>
<event>
 5    1  0.1020718E-008  0.3807020E+03  0.7957747E-01  0.3448107E+00
         13   -1    0    0    0    0  0.00000000000E+00  0.00000000000E+00  0.14999999963E+04  0.15000000000E+04  0.10566000000E+00 0. -1.
        994   -1    0    0    0    0 -0.00000000000E+00 -0.00000000000E+00  0.11368683772E-12  0.17120000000E+03  0.17120000000E+03 0.  0.
         13    1    1    2    0    0  0.15135123113E+02 -0.12865823161E+02  0.49709764480E+02  0.53531983019E+02  0.10566000000E+00 0. -1.
        994    1    1    2    0    0 -0.14389908084E+02  0.11969063787E+02  0.49484719821E+01  0.17229119338E+03  0.17120000000E+03 0.  0.
        998    1    1    2    0    0 -0.74521502949E+00  0.89675937372E+00  0.14453417598E+04  0.14453768236E+04  0.10000000000E+02 0. -1.
</event>
<event>
 5    1  0.1020718E-008  0.4057795E+03  0.7957747E-01  0.3346057E+00
         13   -1    0    0    0    0  0.00000000000E+00  0.00000000000E+00  0.14999999963E+04  0.15000000000E+04  0.10566000000E+00 0.  1.
        994   -1    0    0    0    0 -0.00000000000E+00 -0.00000000000E+00  0.11368683772E-12  0.17120000000E+03  0.17120000000E+03 0.  0.
         13    1    1    2    0    0 -0.41698833411E+01 -0.48492451135E+02  0.25287965405E+02  0.54848866009E+02  0.10566000000E+00 0.  1.
        994    1    1    2    0    0  0.72990278244E+01  0.52346671733E+02  0.42563402040E+02  0.18415898849E+03  0.17120000000E+03 0.  0.
        998    1    1    2    0    0 -0.31291444833E+01 -0.38542205985E+01  0.14321486288E+04  0.14321921455E+04  0.10000000000E+02 0.  1.
</event>
<event>
 5    1  0.1020718E-008  0.3695812E+03  0.7957747E-01  0.3497818E+00
         13   -1    0    0    0    0  0.00000000000E+00  0.00000000000E+00  0.14999999963E+04  0.15000000000E+04  0.10566000000E+00 0.  1.
        994   -1    0    0    0    0 -0.00000000000E+00 -0.00000000000E+00  0.11368683772E-12  0.17120000000E+03  0.17120000000E+03 0.  0.
         13    1    1    2    0    0  0.15957121206E+02  0.65664714844E+01  0.11859062621E+02  0.20937927195E+02  0.10566000000E+00 0.  1.
        994    1    1    2    0    0 -0.21397745801E+01  0.81836978383E+01  0.97359412196E+01  0.17168511903E+03  0.17120000000E+03 0.  0.
        998    1    1    2    0    0 -0.13817346626E+02 -0.14750169323E+02  0.14784049924E+04  0.14785769538E+04  0.10000000000E+02 0.  1.
</event>
<event>
 5    1  0.1020718E-008  0.3698478E+03  0.7957747E-01  0.3496591E+00
         13   -1    0    0    0    0  0.00000000000E+00  0.00000000000E+00  0.14999999963E+04  0.15000000000E+04  0.10566000000E+00 0.  1.
        994   -1    0    0    0    0 -0.00000000000E+00 -0.00000000000E+00  0.11368683772E-12  0.17120000000E+03  0.17120000000E+03 0.  0.
         13    1    1    2    0    0 -0.36966403771E+02  0.18583796995E+01  0.56362201405E+02  0.67429055267E+02  0.10566000000E+00 0.  1.
        994    1    1    2    0    0  0.40471015992E+02 -0.33704479472E+01  0.16643238311E+02  0.17673624539E+03  0.17120000000E+03 0.  0.
        998    1    1    2    0    0 -0.35046122212E+01  0.15120682477E+01  0.14269945566E+04  0.14270346993E+04  0.10000000000E+02 0.  1.
</event>
<event>
 5    1  0.1020718E-008  0.3848342E+03  0.7957747E-01  0.3430376E+00
         13   -1    0    0    0    0  0.00000000000E+00  0.00000000000E+00  0.14999999963E+04  0.15000000000E+04  0.10566000000E+00 0.  1.
        994   -1    0    0    0    0 -0.00000000000E+00 -0.00000000000E+00  0.11368683772E-12  0.17120000000E+03  0.17120000000E+03 0.  0.
         13    1    1    2    0    0  0.14115235650E+02 -0.95251670399E+01  0.80521689857E+02  0.82302626848E+02  0.10566000000E+00 0.  1.
        994    1    1    2    0    0 -0.14723011840E+02  0.10887086962E+02  0.28165140777E+01  0.17219950201E+03  0.17120000000E+03 0.  0.
        998    1    1    2    0    0  0.60777619026E+00 -0.13619199223E+01  0.14166617923E+04  0.14166978711E+04  0.10000000000E+02 0.  1.
</event>
<event>
 5    1  0.1020718E-008  0.3802825E+03  0.7957747E-01  0.3449929E+00
         13   -1    0    0    0    0  0.00000000000E+00  0.00000000000E+00  0.14999999963E+04  0.15000000000E+04  0.10566000000E+00 0. -1.
        994   -1    0    0    0    0 -0.00000000000E+00 -0.00000000000E+00  0.11368683772E-12  0.17120000000E+03  0.17120000000E+03 0.  0.
         13    1    1    2    0    0 -0.25752503458E+02  0.30607989895E+02  0.23516476632E+03  0.23854248879E+03  0.10566000000E+00 0. -1.
        994    1    1    2    0    0 -0.15380728767E+01 -0.58113356164E+01  0.41113165024E+01  0.17135483715E+03  0.17120000000E+03 0.  0.
        998    1    1    2    0    0  0.27290576335E+02 -0.24796654278E+02  0.12607239135E+04  0.12613026741E+04  0.10000000000E+02 0. -1.
</event>
<event>
 5    1  0.1020718E-008  0.3818779E+03  0.7957747E-01  0.3443022E+00
         13   -1    0    0    0    0  0.00000000000E+00  0.00000000000E+00  0.14999999963E+04  0.15000000000E+04  0.10566000000E+00 0.  1.
        994   -1    0    0    0    0 -0.00000000000E+00 -0.00000000000E+00  0.11368683772E-12  0.17120000000E+03  0.17120000000E+03 0.  0.
         13    1    1    2    0    0 -0.14063383197E+02  0.80498708701E+01  0.42381975266E+02  0.45374245553E+02  0.10566000000E+00 0.  1.
        994    1    1    2    0    0  0.12587824014E+01  0.96487575876E+01  0.35028013088E+01  0.17151207734E+03  0.17120000000E+03 0.  0.
        998    1    1    2    0    0  0.12804600796E+02 -0.17698628458E+02  0.14541152197E+04  0.14543136771E+04  0.10000000000E+02 0.  1.
</event>
<event>
 5    1  0.1020718E-008  0.3973346E+03  0.7957747E-01  0.3378987E+00
         13   -1    0    0    0    0  0.00000000000E+00  0.00000000000E+00  0.14999999963E+04  0.15000000000E+04  0.10566000000E+00 0.  1.
        994   -1    0    0    0    0 -0.00000000000E+00 -0.00000000000E+00  0.11368683772E-12  0.17120000000E+03  0.17120000000E+03 0.  0.
         13    1    1    2    0    0  0.36894409679E+02  0.60693951905E+02  0.97516406629E+02  0.12064167601E+03  0.10566000000E+00 0.  1.
        994    1    1    2    0    0  0.46207649591E+01 -0.20409640133E+02  0.27893447276E+02  0.17471516614E+03  0.17120000000E+03 0.  0.
        998    1    1    2    0    0 -0.41515174638E+02 -0.40284311772E+02  0.13745901424E+04  0.13758431579E+04  0.10000000000E+02 0.  1.
</event>
<event>
 5    1  0.1020718E-008  0.3924742E+03  0.7957747E-01  0.3398579E+00
         13   -1    0    0    0    0  0.00000000000E+00  0.00000000000E+00  0.14999999963E+04  0.15000000000E+04  0.10566000000E+00 0.  1.
        994   -1    0    0    0    0 -0.00000000000E+00 -0.00000000000E+00  0.11368683772E-12  0.17120000000E+03  0.17120000000E+03 0.  0.
         13    1    1    2    0    0 -0.33942330642E+02 -0.45739111456E+02  0.72721906621E+02  0.92372263114E+02  0.10566000000E+00 0.  1.
        994    1    1    2    0    0  0.34923089627E+02 -0.58458803656E+02  0.41191891232E+02  0.18879424201E+03  0.17120000000E+03 0.  0.
        998    1    1    2    0    0 -0.98075898540E+00  0.10419791511E+03  0.13860861984E+04  0.13900334949E+04  0.10000000000E+02 0.  1.
</event>
<event>
 5    1  0.1020718E-008  0.2681341E+03  0.7957747E-01  0.4153541E+00
         13   -1    0    0    0    0  0.00000000000E+00  0.00000000000E+00  0.14999999963E+04  0.15000000000E+04  0.10566000000E+00 0. -1.
        994   -1    0    0    0    0 -0.00000000000E+00 -0.00000000000E+00  0.11368683772E-12  0.17120000000E+03  0.17120000000E+03 0.  0.
         13    1    1    2    0    0 -0.12685242827E+03  0.75622188040E+02  0.56633735746E+03  0.58527623179E+03  0.10566000000E+00 0. -1.
        994    1    1    2    0    0  0.94043373694E+02  0.14601085552E+02  0.57050470935E+02  0.20401358795E+03  0.17120000000E+03 0.  0.
        998    1    1    2    0    0  0.32809054572E+02 -0.90223273592E+02  0.87661216789E+03  0.88191018026E+03  0.10000000000E+02 0. -1.
</event>
<event>
 5    1  0.1020718E-008  0.3779425E+03  0.7957747E-01  0.3460167E+00
         13   -1    0    0    0    0  0.00000000000E+00  0.00000000000E+00  0.14999999963E+04  0.15000000000E+04  0.10566000000E+00 0.  1.
        994   -1    0    0    0    0 -0.00000000000E+00 -0.00000000000E+00  0.11368683772E-12  0.17120000000E+03  0.17120000000E+03 0.  0.
         13    1    1    2    0    0 -0.49137834343E+01 -0.14700450399E+02  0.21188746602E+02  0.26253050417E+02  0.10566000000E+00 0.  1.
        994    1    1    2    0    0 -0.12341183376E+02  0.12236634972E+02  0.61926549592E+01  0.17219125709E+03  0.17120000000E+03 0.  0.
        998    1    1    2    0    0  0.17254966810E+02  0.24638154268E+01  0.14726185947E+04  0.14727556925E+04  0.10000000000E+02 0.  1.
</event>
<event>
 5    1  0.1020718E-008  0.3788370E+03  0.7957747E-01  0.3456238E+00
         13   -1    0    0    0    0  0.00000000000E+00  0.00000000000E+00  0.14999999963E+04  0.15000000000E+04  0.10566000000E+00 0.  1.
        994   -1    0    0    0    0 -0.00000000000E+00 -0.00000000000E+00  0.11368683772E-12  0.17120000000E+03  0.17120000000E+03 0.  0.
         13    1    1    2    0    0  0.52543690573E+02 -0.36686548884E+02  0.33620410528E+03  0.34225714581E+03  0.10566000000E+00 0.  1.
        994    1    1    2    0    0 -0.55953356932E+02  0.32513893555E+02  0.18906167608E+02  0.18399677878E+03  0.17120000000E+03 0.  0.
        998    1    1    2    0    0  0.34096663598E+01  0.41726553288E+01  0.11448897234E+04  0.11449460754E+04  0.10000000000E+02 0.  1.
</event>
<event>
 5    1  0.1020718E-008  0.3767568E+03  0.7957747E-01  0.3465403E+00
         13   -1    0    0    0    0  0.00000000000E+00  0.00000000000E+00  0.14999999963E+04  0.15000000000E+04  0.10566000000E+00 0. -1.
        994   -1    0    0    0    0 -0.00000000000E+00 -0.00000000000E+00  0.11368683772E-12  0.17120000000E+03  0.17120000000E+03 0.  0.
         13    1    1    2    0    0 -0.32465981078E+02 -0.56094219345E+02  0.27098558677E+03  0.27862842779E+03  0.10566000000E+00 0. -1.
        994    1    1    2    0    0  0.36930457025E+02  0.67188203968E+02  0.25907960504E+02  0.18936413553E+03  0.17120000000E+03 0.  0.
        998    1    1    2    0    0 -0.44644759473E+01 -0.11093984623E+02  0.12031064490E+04  0.12032074367E+04  0.10000000000E+02 0. -1.
</event>
<event>
 5    1  0.1020718E-008  0.3735785E+03  0.7957747E-01  0.3479605E+00
         13   -1    0    0    0    0  0.00000000000E+00  0.00000000000E+00  0.14999999963E+04  0.15000000000E+04  0.10566000000E+00 0. -1.
        994   -1    0    0    0    0 -0.00000000000E+00 -0.00000000000E+00  0.11368683772E-12  0.17120000000E+03  0.17120000000E+03 0.  0.
         13    1    1    2    0    0  0.59083051764E+02 -0.21176044215E+02  0.13998984185E+03  0.15341577116E+03  0.10566000000E+00 0. -1.
        994    1    1    2    0    0 -0.53080682276E+02  0.16078414623E+02  0.23815285687E+02  0.18152873624E+03  0.17120000000E+03 0.  0.
        998    1    1    2    0    0 -0.60023694886E+01  0.50976295918E+01  0.13361948687E+04  0.13362554926E+04  0.10000000000E+02 0. -1.
</event>
<event>
 5    1  0.1020718E-008  0.3857916E+03  0.7957747E-01  0.3426322E+00
         13   -1    0    0    0    0  0.00000000000E+00  0.00000000000E+00  0.14999999963E+04  0.15000000000E+04  0.10566000000E+00 0.  1.
        994   -1    0    0    0    0 -0.00000000000E+00 -0.00000000000E+00  0.11368683772E-12  0.17120000000E+03  0.17120000000E+03 0.  0.
         13    1    1    2    0    0  0.11200083583E+02 -0.27464383704E+01  0.61026341926E+02  0.62106443859E+02  0.10566000000E+00 0.  1.
        994    1    1    2    0    0  0.94416242289E+01  0.13754288237E+01  0.15362851164E+01  0.17147255245E+03  0.17120000000E+03 0.  0.
        998    1    1    2    0    0 -0.20641707812E+02  0.13710095467E+01  0.14374373692E+04  0.14376210037E+04  0.10000000000E+02 0.  1.
</event>
<event>
 5    1  0.1020718E-008  0.4109533E+03  0.7957747E-01  0.3326545E+00
         13   -1    0    0    0    0  0.00000000000E+00  0.00000000000E+00  0.14999999963E+04  0.15000000000E+04  0.10566000000E+00 0. -1.
        994   -1    0    0    0    0 -0.00000000000E+00 -0.00000000000E+00  0.11368683772E-12  0.17120000000E+03  0.17120000000E+03 0.  0.
         13    1    1    2    0    0 -0.21089534936E+02 -0.22806899697E+02 -0.19157300122E+00  0.31063982711E+02  0.10566000000E+00 0. -1.
        994    1    1    2    0    0  0.13082537032E+02  0.20793022026E+02  0.36974756080E+02  0.17686174015E+03  0.17120000000E+03 0.  0.
        998    1    1    2    0    0  0.80069979038E+01  0.20138776717E+01  0.14632168132E+04  0.14632742771E+04  0.10000000000E+02 0. -1.
</event>
<event>
 5    1  0.1020718E-008  0.3845999E+03  0.7957747E-01  0.3431371E+00
         13   -1    0    0    0    0  0.00000000000E+00  0.00000000000E+00  0.14999999963E+04  0.15000000000E+04  0.10566000000E+00 0. -1.
        994   -1    0    0    0    0 -0.00000000000E+00 -0.00000000000E+00  0.11368683772E-12  0.17120000000E+03  0.17120000000E+03 0.  0.
         13    1    1    2    0    0 -0.18994796383E+02  0.71774648497E+01  0.12202802768E+03  0.12370597801E+03  0.10566000000E+00 0. -1.
        994    1    1    2    0    0 -0.34181436225E+00 -0.10029557444E+02  0.21606029618E+01  0.17150748399E+03  0.17120000000E+03 0.  0.
        998    1    1    2    0    0  0.19336610745E+02  0.28520925944E+01  0.13758113656E+04  0.13759865380E+04  0.10000000000E+02 0. -1.
</event>
<event>
 5    1  0.1020718E-008  0.3860605E+03  0.7957747E-01  0.3425187E+00
         13   -1    0    0    0    0  0.00000000000E+00  0.00000000000E+00  0.14999999963E+04  0.15000000000E+04  0.10566000000E+00 0. -1.
        994   -1    0    0    0    0 -0.00000000000E+00 -0.00000000000E+00  0.11368683772E-12  0.17120000000E+03  0.17120000000E+03 0.  0.
         13    1    1    2    0    0  0.12724933594E+02  0.27482624927E+01  0.73963416108E+02  0.75100432543E+02  0.10566000000E+00 0. -1.
        994    1    1    2    0    0 -0.20004264951E+02  0.18964025108E+02  0.35986783672E+01  0.17344219599E+03  0.17120000000E+03 0.  0.
        998    1    1    2    0    0  0.72793313576E+01 -0.21712287600E+02  0.14224379018E+04  0.14226573715E+04  0.10000000000E+02 0. -1.
</event>
<event>
 5    1  0.1020718E-008  0.3819650E+03  0.7957747E-01  0.3442647E+00
         13   -1    0    0    0    0  0.00000000000E+00  0.00000000000E+00  0.14999999963E+04  0.15000000000E+04  0.10566000000E+00 0.  1.
        994   -1    0    0    0    0 -0.00000000000E+00 -0.00000000000E+00  0.11368683772E-12  0.17120000000E+03  0.17120000000E+03 0.  0.
         13    1    1    2    0    0  0.12782797916E+02  0.15194582867E+02  0.59486638032E+02  0.62713208652E+02  0.10566000000E+00 0.  1.
        994    1    1    2    0    0 -0.11998091250E+02 -0.16965618918E+02  0.45799458304E+01  0.17251725225E+03  0.17120000000E+03 0.  0.
        998    1    1    2    0    0 -0.78470666603E+00  0.17710360509E+01  0.14359334124E+04  0.14359695391E+04  0.10000000000E+02 0.  1.
</event>
<event>
 5    1  0.1020718E-008  0.3814630E+03  0.7957747E-01  0.3444813E+00
         13   -1    0    0    0    0  0.00000000000E+00  0.00000000000E+00  0.14999999963E+04  0.15000000000E+04  0.10566000000E+00 0.  1.
        994   -1    0    0    0    0 -0.00000000000E+00 -0.00000000000E+00  0.11368683772E-12  0.17120000000E+03  0.17120000000E+03 0.  0.
         13    1    1    2    0    0 -0.13955102389E+02  0.16979796268E+01  0.29940338619E+02  0.33076624044E+02  0.10566000000E+00 0.  1.
        994    1    1    2    0    0 -0.19137252631E+02 -0.50750996461E+02  0.13246207569E+02  0.18007442932E+03  0.17120000000E+03 0.  0.
        998    1    1    2    0    0  0.33092355019E+02  0.49053016834E+02  0.14568134501E+04  0.14580489466E+04  0.10000000000E+02 0.  1.
</event>
<event>
 5    1  0.1020718E-008  0.3822533E+03  0.7957747E-01  0.3441405E+00
         13   -1    0    0    0    0  0.00000000000E+00  0.00000000000E+00  0.14999999963E+04  0.15000000000E+04  0.10566000000E+00 0. -1.
        994   -1    0    0    0    0 -0.00000000000E+00 -0.00000000000E+00  0.11368683772E-12  0.17120000000E+03  0.17120000000E+03 0.  0.
         13    1    1    2    0    0 -0.18283069986E+02  0.75783565198E+01  0.65436402560E+02  0.68363996955E+02  0.10566000000E+00 0. -1.
        994    1    1    2    0    0  0.75613070908E+01 -0.56493704808E+01  0.32956431035E+01  0.17149166165E+03  0.17120000000E+03 0.  0.
        998    1    1    2    0    0  0.10721762896E+02 -0.19289860390E+01  0.14312679506E+04  0.14313443414E+04  0.10000000000E+02 0. -1.
</event>
<event>
 5    1  0.1020718E-008  0.3729332E+03  0.7957747E-01  0.3482518E+00
         13   -1    0    0    0    0  0.00000000000E+00  0.00000000000E+00  0.14999999963E+04  0.15000000000E+04  0.10566000000E+00 0. -1.
        994   -1    0    0    0    0 -0.00000000000E+00 -0.00000000000E+00  0.11368683772E-12  0.17120000000E+03  0.17120000000E+03 0.  0.
         13    1    1    2    0    0 -0.22987163743E+02 -0.49471477020E+02  0.16639479374E+03  0.17510875274E+03  0.10566000000E+00 0. -1.
        994    1    1    2    0    0  0.23073711273E+02  0.53203561125E+02  0.19344742784E+02  0.18178744220E+03  0.17120000000E+03 0.  0.
        998    1    1    2    0    0 -0.86547529873E-01 -0.37320841055E+01  0.13142604597E+04  0.13143038051E+04  0.10000000000E+02 0. -1.
</event>
<event>
 5    1  0.1020718E-008  0.3843251E+03  0.7957747E-01  0.3432540E+00
         13   -1    0    0    0    0  0.00000000000E+00  0.00000000000E+00  0.14999999963E+04  0.15000000000E+04  0.10566000000E+00 0. -1.
        994   -1    0    0    0    0 -0.00000000000E+00 -0.00000000000E+00  0.11368683772E-12  0.17120000000E+03  0.17120000000E+03 0.  0.
         13    1    1    2    0    0  0.18326995772E+02  0.15326312368E+02  0.12991268656E+03  0.13209122574E+03  0.10566000000E+00 0. -1.
        994    1    1    2    0    0 -0.24373750018E+02 -0.14736616998E+02  0.46439144163E+01  0.17361524562E+03  0.17120000000E+03 0.  0.
        998    1    1    2    0    0  0.60467542452E+01 -0.58969536984E+00  0.13654433953E+04  0.13654935286E+04  0.10000000000E+02 0. -1.
</event>
<event>
 5    1  0.1020718E-008  0.3859977E+03  0.7957747E-01  0.3425452E+00
         13   -1    0    0    0    0  0.00000000000E+00  0.00000000000E+00  0.14999999963E+04  0.15000000000E+04  0.10566000000E+00 0.  1.
        994   -1    0    0    0    0 -0.00000000000E+00 -0.00000000000E+00  0.11368683772E-12  0.17120000000E+03  0.17120000000E+03 0.  0.
         13    1    1    2    0    0  0.10742304026E+02 -0.64321727551E+00  0.53030717611E+02  0.54111726997E+02  0.10566000000E+00 0.  1.
        994    1    1    2    0    0 -0.26805137687E+01  0.12260226941E+02  0.16520841081E+01  0.17166731693E+03  0.17120000000E+03 0.  0.
        998    1    1    2    0    0 -0.80617902578E+01 -0.11617009665E+02  0.14453171946E+04  0.14454209561E+04  0.10000000000E+02 0.  1.
</event>
<event>
 5    1  0.1020718E-008  0.3788638E+03  0.7957747E-01  0.3456121E+00
         13   -1    0    0    0    0  0.00000000000E+00  0.00000000000E+00  0.14999999963E+04  0.15000000000E+04  0.10566000000E+00 0. -1.
        994   -1    0    0    0    0 -0.00000000000E+00 -0.00000000000E+00  0.11368683772E-12  0.17120000000E+03  0.17120000000E+03 0.  0.
         13    1    1    2    0    0  0.12495450573E+02  0.14679188743E+02  0.35630929606E+02  0.40511593104E+02  0.10566000000E+00 0. -1.
        994    1    1    2    0    0 -0.27314194175E+02 -0.16268166262E+02  0.81067067150E+01  0.17431545293E+03  0.17120000000E+03 0.  0.
        998    1    1    2    0    0  0.14818743602E+02  0.15889775189E+01  0.14562623600E+04  0.14563729540E+04  0.10000000000E+02 0. -1.
</event>
<event>
 5    1  0.1020718E-008  0.3888319E+03  0.7957747E-01  0.3413581E+00
         13   -1    0    0    0    0  0.00000000000E+00  0.00000000000E+00  0.14999999963E+04  0.15000000000E+04  0.10566000000E+00 0.  1.
        994   -1    0    0    0    0 -0.00000000000E+00 -0.00000000000E+00  0.11368683772E-12  0.17120000000E+03  0.17120000000E+03 0.  0.
         13    1    1    2    0    0 -0.53726670136E+02 -0.24581853992E+01  0.58583959307E+02  0.79527914668E+02  0.10566000000E+00 0.  1.
        994    1    1    2    0    0  0.51630638076E+02  0.15585116007E+01  0.31327382960E+02  0.18154612821E+03  0.17120000000E+03 0.  0.
        998    1    1    2    0    0  0.20960320592E+01  0.89967379850E+00  0.14100886540E+04  0.14101259571E+04  0.10000000000E+02 0.  1.
</event>
<event>
 5    1  0.1020718E-008  0.3774759E+03  0.7957747E-01  0.3462223E+00
         13   -1    0    0    0    0  0.00000000000E+00  0.00000000000E+00  0.14999999963E+04  0.15000000000E+04  0.10566000000E+00 0.  1.
        994   -1    0    0    0    0 -0.00000000000E+00 -0.00000000000E+00  0.11368683772E-12  0.17120000000E+03  0.17120000000E+03 0.  0.
         13    1    1    2    0    0 -0.89795306167E+01  0.51022000230E+02  0.18647691982E+03  0.19353947728E+03  0.10566000000E+00 0.  1.
        994    1    1    2    0    0  0.65198587559E+02 -0.67891897666E+02  0.35888556295E+02  0.19863935678E+03  0.17120000000E+03 0.  0.
        998    1    1    2    0    0 -0.56219056942E+02  0.16869897436E+02  0.12776345202E+04  0.12790211659E+04  0.10000000000E+02 0.  1.
</event>
<event>
 5    1  0.1020718E-008  0.3835365E+03  0.7957747E-01  0.3435903E+00
         13   -1    0    0    0    0  0.00000000000E+00  0.00000000000E+00  0.14999999963E+04  0.15000000000E+04  0.10566000000E+00 0.  1.
        994   -1    0    0    0    0 -0.00000000000E+00 -0.00000000000E+00  0.11368683772E-12  0.17120000000E+03  0.17120000000E+03 0.  0.
         13    1    1    2    0    0 -0.15264058214E+02  0.15207929960E+02  0.90550034748E+02  0.93078421579E+02  0.10566000000E+00 0.  1.
        994    1    1    2    0    0  0.19012971407E+02 -0.17722104120E+02  0.45939440774E+01  0.17322271900E+03  0.17120000000E+03 0.  0.
        998    1    1    2    0    0 -0.37489131928E+01  0.25141741606E+01  0.14048560175E+04  0.14048988594E+04  0.10000000000E+02 0.  1.
</event>
<event>
 5    1  0.1020718E-008  0.3840569E+03  0.7957747E-01  0.3433682E+00
         13   -1    0    0    0    0  0.00000000000E+00  0.00000000000E+00  0.14999999963E+04  0.15000000000E+04  0.10566000000E+00 0. -1.
        994   -1    0    0    0    0 -0.00000000000E+00 -0.00000000000E+00  0.11368683772E-12  0.17120000000E+03  0.17120000000E+03 0.  0.
         13    1    1    2    0    0  0.93705557493E+01 -0.14323973752E+02  0.72479281178E+02  0.74473088450E+02  0.10566000000E+00 0. -1.
        994    1    1    2    0    0  0.18888827390E+01  0.58043180326E+01  0.22220056862E+01  0.17132318960E+03  0.17120000000E+03 0.  0.
        998    1    1    2    0    0 -0.11259438488E+02  0.85196557195E+01  0.14252987094E+04  0.14254037219E+04  0.10000000000E+02 0. -1.
</event>
<event>
 5    1  0.1020718E-008  0.3844778E+03  0.7957747E-01  0.3431890E+00
         13   -1    0    0    0    0  0.00000000000E+00  0.00000000000E+00  0.14999999963E+04  0.15000000000E+04  0.10566000000E+00 0.  1.
        994   -1    0    0    0    0 -0.00000000000E+00 -0.00000000000E+00  0.11368683772E-12  0.17120000000E+03  0.17120000000E+03 0.  0.
         13    1    1    2    0    0  0.20906481745E+01  0.13185555224E+02  0.46047296111E+02  0.47943657761E+02  0.10566000000E+00 0.  1.
        994    1    1    2    0    0 -0.30361651757E+01 -0.12075151909E+02  0.24004905753E+01  0.17166895452E+03  0.17120000000E+03 0.  0.
        998    1    1    2    0    0  0.94551700115E+00 -0.11104033151E+01  0.14515522096E+04  0.14515873877E+04  0.10000000000E+02 0.  1.
</event>
<event>
 5    1  0.1020718E-008  0.3830105E+03  0.7957747E-01  0.3438154E+00
         13   -1    0    0    0    0  0.00000000000E+00  0.00000000000E+00  0.14999999963E+04  0.15000000000E+04  0.10566000000E+00 0. -1.
        994   -1    0    0    0    0 -0.00000000000E+00 -0.00000000000E+00  0.11368683772E-12  0.17120000000E+03  0.17120000000E+03 0.  0.
         13    1    1    2    0    0  0.98246454023E+00  0.12117895907E+02  0.26959247418E+02  0.29573988963E+02  0.10566000000E+00 0. -1.
        994    1    1    2    0    0  0.43878146865E+00 -0.11933998703E+02  0.30933308424E+01  0.17164388002E+03  0.17120000000E+03 0.  0.
        998    1    1    2    0    0 -0.14212460089E+01 -0.18389720397E+00  0.14699474180E+04  0.14699821310E+04  0.10000000000E+02 0. -1.
</event>
<event>
 5    1  0.1020718E-008  0.3802247E+03  0.7957747E-01  0.3450180E+00
         13   -1    0    0    0    0  0.00000000000E+00  0.00000000000E+00  0.14999999963E+04  0.15000000000E+04  0.10566000000E+00 0. -1.
        994   -1    0    0    0    0 -0.00000000000E+00 -0.00000000000E+00  0.11368683772E-12  0.17120000000E+03  0.17120000000E+03 0.  0.
         13    1    1    2    0    0  0.24746119041E+02 -0.34396313303E+02  0.20646534804E+03  0.21076865962E+03  0.10566000000E+00 0. -1.
        994    1    1    2    0    0 -0.19401288180E+02  0.27941114355E+02  0.78946737399E+01  0.17472516055E+03  0.17120000000E+03 0.  0.
        998    1    1    2    0    0 -0.53448308610E+01  0.64551989487E+01  0.12856399745E+04  0.12857061798E+04  0.10000000000E+02 0. -1.
</event>
<event>
 5    1  0.1020718E-008  0.3811388E+03  0.7957747E-01  0.3446215E+00
         13   -1    0    0    0    0  0.00000000000E+00  0.00000000000E+00  0.14999999963E+04  0.15000000000E+04  0.10566000000E+00 0. -1.
        994   -1    0    0    0    0 -0.00000000000E+00 -0.00000000000E+00  0.11368683772E-12  0.17120000000E+03  0.17120000000E+03 0.  0.
         13    1    1    2    0    0  0.28077768188E+02 -0.10670797077E+02  0.13603473799E+03  0.13931147864E+03  0.10566000000E+00 0. -1.
        994    1    1    2    0    0 -0.44500614949E+01  0.40533577954E+01  0.36800796929E+01  0.17134531141E+03  0.17120000000E+03 0.  0.
        998    1    1    2    0    0 -0.23627706694E+02  0.66174392820E+01  0.13602851786E+04  0.13605432099E+04  0.10000000000E+02 0. -1.
</event>
<event>
 5    1  0.1020718E-008  0.3811018E+03  0.7957747E-01  0.3446375E+00
         13   -1    0    0    0    0  0.00000000000E+00  0.00000000000E+00  0.14999999963E+04  0.15000000000E+04  0.10566000000E+00 0.  1.
        994   -1    0    0    0    0 -0.00000000000E+00 -0.00000000000E+00  0.11368683772E-12  0.17120000000E+03  0.17120000000E+03 0.  0.
         13    1    1    2    0    0  0.74947440735E+01 -0.15495576251E+02  0.37802598690E+02  0.41537112367E+02  0.10566000000E+00 0.  1.
        994    1    1    2    0    0 -0.11503769320E+02  0.25560526654E+02  0.61993315754E+01  0.17359017525E+03  0.17120000000E+03 0.  0.
        998    1    1    2    0    0  0.40090252469E+01 -0.10064950403E+02  0.14559980660E+04  0.14560727124E+04  0.10000000000E+02 0.  1.
</event>
<event>
 5    1  0.1020718E-008  0.3838622E+03  0.7957747E-01  0.3434512E+00
         13   -1    0    0    0    0  0.00000000000E+00  0.00000000000E+00  0.14999999963E+04  0.15000000000E+04  0.10566000000E+00 0.  1.
        994   -1    0    0    0    0 -0.00000000000E+00 -0.00000000000E+00  0.11368683772E-12  0.17120000000E+03  0.17120000000E+03 0.  0.
         13    1    1    2    0    0  0.10397526481E+02 -0.57512205042E+00  0.23743497876E+02  0.25926900658E+02  0.10566000000E+00 0.  1.
        994    1    1    2    0    0 -0.10310974913E+02 -0.12754669993E+01  0.25524470672E+01  0.17153395584E+03  0.17120000000E+03 0.  0.
        998    1    1    2    0    0 -0.86551567926E-01  0.18505890497E+01  0.14737040513E+04  0.14737391435E+04  0.10000000000E+02 0.  1.
</event>
<event>
 5    1  0.1020718E-008  0.3846749E+03  0.7957747E-01  0.3431052E+00
         13   -1    0    0    0    0  0.00000000000E+00  0.00000000000E+00  0.14999999963E+04  0.15000000000E+04  0.10566000000E+00 0.  1.
        994   -1    0    0    0    0 -0.00000000000E+00 -0.00000000000E+00  0.11368683772E-12  0.17120000000E+03  0.17120000000E+03 0.  0.
         13    1    1    2    0    0  0.12541660909E+02 -0.59180396197E+01  0.48885291959E+02  0.50814361997E+02  0.10566000000E+00 0.  1.
        994    1    1    2    0    0 -0.25068650577E+02  0.88056405434E+01  0.41192662892E+01  0.17329854270E+03  0.17120000000E+03 0.  0.
        998    1    1    2    0    0  0.12526989668E+02 -0.28876009237E+01  0.14469954380E+04  0.14470870953E+04  0.10000000000E+02 0.  1.
</event>
<event>
 5    1  0.1020718E-008  0.3684488E+03  0.7957747E-01  0.3503050E+00
         13   -1    0    0    0    0  0.00000000000E+00  0.00000000000E+00  0.14999999963E+04  0.15000000000E+04  0.10566000000E+00 0. -1.
        994   -1    0    0    0    0 -0.00000000000E+00 -0.00000000000E+00  0.11368683772E-12  0.17120000000E+03  0.17120000000E+03 0.  0.
         13    1    1    2    0    0  0.67201694464E+02  0.38483915159E+02  0.22439704178E+03  0.23738391476E+03  0.10566000000E+00 0. -1.
        994    1    1    2    0    0 -0.82543927532E+02 -0.48622573208E+02  0.42749576307E+02  0.20078501157E+03  0.17120000000E+03 0.  0.
        998    1    1    2    0    0  0.15342233068E+02  0.10138658049E+02  0.12328533782E+04  0.12330310737E+04  0.10000000000E+02 0. -1.
</event>
<event>
 5    1  0.1020718E-008  0.3801283E+03  0.7957747E-01  0.3450600E+00
         13   -1    0    0    0    0  0.00000000000E+00  0.00000000000E+00  0.14999999963E+04  0.15000000000E+04  0.10566000000E+00 0. -1.
        994   -1    0    0    0    0 -0.00000000000E+00 -0.00000000000E+00  0.11368683772E-12  0.17120000000E+03  0.17120000000E+03 0.  0.
         13    1    1    2    0    0 -0.12400506300E+03  0.14891601744E+03  0.89150196444E+03  0.91232066713E+03  0.10566000000E+00 0. -1.
        994    1    1    2    0    0  0.13995207631E+03 -0.15968065187E+03  0.17332152743E+03  0.32316294051E+03  0.17120000000E+03 0.  0.
        998    1    1    2    0    0 -0.15947013316E+02  0.10764634430E+02  0.43517650441E+03  0.43571639236E+03  0.10000000000E+02 0.  1.
</event>
<event>
 5    1  0.1020718E-008  0.3821898E+03  0.7957747E-01  0.3441679E+00
         13   -1    0    0    0    0  0.00000000000E+00  0.00000000000E+00  0.14999999963E+04  0.15000000000E+04  0.10566000000E+00 0. -1.
        994   -1    0    0    0    0 -0.00000000000E+00 -0.00000000000E+00  0.11368683772E-12  0.17120000000E+03  0.17120000000E+03 0.  0.
         13    1    1    2    0    0  0.10337795647E+02  0.39336822190E+01  0.19694081610E+02  0.22587870398E+02  0.10566000000E+00 0. -1.
        994    1    1    2    0    0  0.47318245867E+01  0.10787661454E+01  0.31100099814E+01  0.17129701125E+03  0.17120000000E+03 0.  0.
        998    1    1    2    0    0 -0.15069620233E+02 -0.50124483645E+01  0.14771959047E+04  0.14773151184E+04  0.10000000000E+02 0. -1.
</event>
<event>
 5    1  0.1020718E-008  0.3728865E+03  0.7957747E-01  0.3482729E+00
         13   -1    0    0    0    0  0.00000000000E+00  0.00000000000E+00  0.14999999963E+04  0.15000000000E+04  0.10566000000E+00 0. -1.
        994   -1    0    0    0    0 -0.00000000000E+00 -0.00000000000E+00  0.11368683772E-12  0.17120000000E+03  0.17120000000E+03 0.  0.
         13    1    1    2    0    0  0.52117167622E+01  0.16375900635E+02  0.15326787074E+02  0.23027237769E+02  0.10566000000E+00 0. -1.
        994    1    1    2    0    0 -0.17773134548E+02 -0.15577180728E+02  0.96826044690E+01  0.17309455711E+03  0.17120000000E+03 0.  0.
        998    1    1    2    0    0  0.12561417786E+02 -0.79871990712E+00  0.14749906047E+04  0.14750782051E+04  0.10000000000E+02 0. -1.
</event>
<event>
 5    1  0.1020718E-008  0.3806019E+03  0.7957747E-01  0.3448542E+00
         13   -1    0    0    0    0  0.00000000000E+00  0.00000000000E+00  0.14999999963E+04  0.15000000000E+04  0.10566000000E+00 0. -1.
        994   -1    0    0    0    0 -0.00000000000E+00 -0.00000000000E+00  0.11368683772E-12  0.17120000000E+03  0.17120000000E+03 0.  0.
         13    1    1    2    0    0 -0.13567030728E+02  0.16372561158E+01  0.23407627458E+02  0.27104854134E+02  0.10566000000E+00 0. -1.
        994    1    1    2    0    0 -0.29975596941E+01 -0.30121739549E+02  0.68926744728E+01  0.17399210763E+03  0.17120000000E+03 0.  0.
        998    1    1    2    0    0  0.16564590422E+02  0.28484483434E+02  0.14696996943E+04  0.14701030382E+04  0.10000000000E+02 0. -1.
</event>
<event>
 5    1  0.1020718E-008  0.3795219E+03  0.7957747E-01  0.3453243E+00
         13   -1    0    0    0    0  0.00000000000E+00  0.00000000000E+00  0.14999999963E+04  0.15000000000E+04  0.10566000000E+00 0.  1.
        994   -1    0    0    0    0 -0.00000000000E+00 -0.00000000000E+00  0.11368683772E-12  0.17120000000E+03  0.17120000000E+03 0.  0.
         13    1    1    2    0    0 -0.21526298809E+02 -0.32173255638E+02  0.16253267221E+03  0.16707896522E+03  0.10566000000E+00 0.  1.
        994    1    1    2    0    0  0.12991413921E+02  0.26732623623E+02  0.73381672443E+01  0.17391578048E+03  0.17120000000E+03 0.  0.
        998    1    1    2    0    0  0.85348848887E+01  0.54406320148E+01  0.13301291568E+04  0.13302052543E+04  0.10000000000E+02 0.  1.
</event>
<event>
 5    1  0.1020718E-008  0.3848388E+03  0.7957747E-01  0.3430356E+00
         13   -1    0    0    0    0  0.00000000000E+00  0.00000000000E+00  0.14999999963E+04  0.15000000000E+04  0.10566000000E+00 0.  1.
        994   -1    0    0    0    0 -0.00000000000E+00 -0.00000000000E+00  0.11368683772E-12  0.17120000000E+03  0.17120000000E+03 0.  0.
         13    1    1    2    0    0  0.32495142084E+01 -0.10550521761E+02  0.34223919175E+02  0.35960543096E+02  0.10566000000E+00 0.  1.
        994    1    1    2    0    0 -0.88504520133E+01  0.12787687968E+02  0.25063921576E+01  0.17192317315E+03  0.17120000000E+03 0.  0.
        998    1    1    2    0    0  0.56009378049E+01 -0.22371662067E+01  0.14632696849E+04  0.14633162838E+04  0.10000000000E+02 0.  1.
</event>
<event>
 5    1  0.1020718E-008  0.3699922E+03  0.7957747E-01  0.3495927E+00
         13   -1    0    0    0    0  0.00000000000E+00  0.00000000000E+00  0.14999999963E+04  0.15000000000E+04  0.10566000000E+00 0. -1.
        994   -1    0    0    0    0 -0.00000000000E+00 -0.00000000000E+00  0.11368683772E-12  0.17120000000E+03  0.17120000000E+03 0.  0.
         13    1    1    2    0    0  0.69958612374E+01  0.28158780944E+02  0.34344296985E+02  0.44959992417E+02  0.10566000000E+00 0. -1.
        994    1    1    2    0    0  0.64626294037E+01 -0.19552919117E+02  0.12418616317E+02  0.17288072263E+03  0.17120000000E+03 0.  0.
        998    1    1    2    0    0 -0.13458490641E+02 -0.86058618273E+01  0.14532370830E+04  0.14533592850E+04  0.10000000000E+02 0. -1.
</event>
<event>
 5    1  0.1020718E-008  0.3833056E+03  0.7957747E-01  0.3436890E+00
         13   -1    0    0    0    0  0.00000000000E+00  0.00000000000E+00  0.14999999963E+04  0.15000000000E+04  0.10566000000E+00 0.  1.
        994   -1    0    0    0    0 -0.00000000000E+00 -0.00000000000E+00  0.11368683772E-12  0.17120000000E+03  0.17120000000E+03 0.  0.
         13    1    1    2    0    0  0.94536962479E+01 -0.25769185296E+02  0.14868717653E+03  0.15119957312E+03  0.10566000000E+00 0.  1.
        994    1    1    2    0    0 -0.46983324517E+01  0.18394888584E+02  0.36665669351E+01  0.17228850794E+03  0.17120000000E+03 0.  0.
        998    1    1    2    0    0 -0.47553637962E+01  0.73742967119E+01  0.13476462528E+04  0.13477119189E+04  0.10000000000E+02 0.  1.
</event>
<event>
 5    1  0.1020718E-008  0.3826537E+03  0.7957747E-01  0.3439685E+00
         13   -1    0    0    0    0  0.00000000000E+00  0.00000000000E+00  0.14999999963E+04  0.15000000000E+04  0.10566000000E+00 0. -1.
        994   -1    0    0    0    0 -0.00000000000E+00 -0.00000000000E+00  0.11368683772E-12  0.17120000000E+03  0.17120000000E+03 0.  0.
         13    1    1    2    0    0 -0.10695289653E+02 -0.98447664175E+01  0.36676153959E+02  0.39451997159E+02  0.10566000000E+00 0. -1.
        994    1    1    2    0    0  0.13492999471E+02  0.11096597289E+01  0.34071774242E+01  0.17176827774E+03  0.17120000000E+03 0.  0.
        998    1    1    2    0    0 -0.27977098177E+01  0.87351066886E+01  0.14599166649E+04  0.14599797251E+04  0.10000000000E+02 0. -1.
</event>
<event>
 5    1  0.1020718E-008  0.3729836E+03  0.7957747E-01  0.3482290E+00
         13   -1    0    0    0    0  0.00000000000E+00  0.00000000000E+00  0.14999999963E+04  0.15000000000E+04  0.10566000000E+00 0. -1.
        994   -1    0    0    0    0 -0.00000000000E+00 -0.00000000000E+00  0.11368683772E-12  0.17120000000E+03  0.17120000000E+03 0.  0.
         13    1    1    2    0    0 -0.62142180425E+02  0.88195318876E+01  0.14088925441E+03  0.15423756969E+03  0.10566000000E+00 0. -1.
        994    1    1    2    0    0  0.61595684450E+02  0.57716740799E+01  0.26172826675E+02  0.18390703472E+03  0.17120000000E+03 0.  0.
        998    1    1    2    0    0  0.54649597431E+00 -0.14591205967E+02  0.13329379152E+04  0.13330553956E+04  0.10000000000E+02 0. -1.
</event>
<event>
 5    1  0.1020718E-008  0.3818264E+03  0.7957747E-01  0.3443244E+00
         13   -1    0    0    0    0  0.00000000000E+00  0.00000000000E+00  0.14999999963E+04  0.15000000000E+04  0.10566000000E+00 0. -1.
        994   -1    0    0    0    0 -0.00000000000E+00 -0.00000000000E+00  0.11368683772E-12  0.17120000000E+03  0.17120000000E+03 0.  0.
         13    1    1    2    0    0 -0.15147076197E+02  0.23419896271E+02  0.12448854020E+03  0.12757481438E+03  0.10566000000E+00 0. -1.
        994    1    1    2    0    0 -0.21975607501E+01 -0.14762858772E+02  0.39545857185E+01  0.17189488073E+03  0.17120000000E+03 0.  0.
        998    1    1    2    0    0  0.17344636947E+02 -0.86570374990E+01  0.13715568704E+04  0.13717303049E+04  0.10000000000E+02 0. -1.
</event>
<event>
 5    1  0.1020718E-008  0.3845769E+03  0.7957747E-01  0.3431468E+00
         13   -1    0    0    0    0  0.00000000000E+00  0.00000000000E+00  0.14999999963E+04  0.15000000000E+04  0.10566000000E+00 0. -1.
        994   -1    0    0    0    0 -0.00000000000E+00 -0.00000000000E+00  0.11368683772E-12  0.17120000000E+03  0.17120000000E+03 0.  0.
         13    1    1    2    0    0 -0.23526604028E+01  0.13684898622E+02  0.58322452580E+02  0.59952740556E+02  0.10566000000E+00 0. -1.
        994    1    1    2    0    0  0.31458919032E+01  0.10765775660E+02  0.22547073404E+01  0.17158182382E+03  0.17120000000E+03 0.  0.
        998    1    1    2    0    0 -0.79323150040E+00 -0.24450674282E+02  0.14394228364E+04  0.14396654356E+04  0.10000000000E+02 0. -1.
</event>
<event>
 5    1  0.1020718E-008  0.3687994E+03  0.7957747E-01  0.3501427E+00
         13   -1    0    0    0    0  0.00000000000E+00  0.00000000000E+00  0.14999999963E+04  0.15000000000E+04  0.10566000000E+00 0.  1.
        994   -1    0    0    0    0 -0.00000000000E+00 -0.00000000000E+00  0.11368683772E-12  0.17120000000E+03  0.17120000000E+03 0.  0.
         13    1    1    2    0    0 -0.32532464551E+02 -0.47116595988E+02  0.15595190085E+03  0.16613049512E+03  0.10566000000E+00 0.  1.
        994    1    1    2    0    0  0.11011996037E+02  0.34079821430E+02  0.14784103953E+02  0.17552979239E+03  0.17120000000E+03 0.  0.
        998    1    1    2    0    0  0.21520468514E+02  0.13036774558E+02  0.13292639915E+04  0.13295397125E+04  0.10000000000E+02 0.  1.
</event>
<event>
 5    1  0.1020718E-008  0.3823018E+03  0.7957747E-01  0.3441197E+00
         13   -1    0    0    0    0  0.00000000000E+00  0.00000000000E+00  0.14999999963E+04  0.15000000000E+04  0.10566000000E+00 0.  1.
        994   -1    0    0    0    0 -0.00000000000E+00 -0.00000000000E+00  0.11368683772E-12  0.17120000000E+03  0.17120000000E+03 0.  0.
         13    1    1    2    0    0  0.20201973778E+01  0.13872522867E+02  0.31918402372E+02  0.34861492541E+02  0.10566000000E+00 0.  1.
        994    1    1    2    0    0 -0.74788224205E+00 -0.98804272487E+01  0.33014982078E+01  0.17151828492E+03  0.17120000000E+03 0.  0.
        998    1    1    2    0    0 -0.12723151358E+01 -0.39920956185E+01  0.14647800957E+04  0.14648202225E+04  0.10000000000E+02 0.  1.
</event>
<event>
 5    1  0.1020718E-008  0.3746757E+03  0.7957747E-01  0.3474674E+00
         13   -1    0    0    0    0  0.00000000000E+00  0.00000000000E+00  0.14999999963E+04  0.15000000000E+04  0.10566000000E+00 0. -1.
        994   -1    0    0    0    0 -0.00000000000E+00 -0.00000000000E+00  0.11368683772E-12  0.17120000000E+03  0.17120000000E+03 0.  0.
         13    1    1    2    0    0 -0.22499571671E+02  0.15281263543E+02  0.50081530403E+02  0.56990513179E+02  0.10566000000E+00 0. -1.
        994    1    1    2    0    0  0.20271987690E+02 -0.16390283539E+02  0.91614204378E+01  0.17341558899E+03  0.17120000000E+03 0.  0.
        998    1    1    2    0    0  0.22275839815E+01  0.11090199964E+01  0.14407570454E+04  0.14407938978E+04  0.10000000000E+02 0. -1.
</event>
<event>
 5    1  0.1020718E-008  0.3834518E+03  0.7957747E-01  0.3436265E+00
         13   -1    0    0    0    0  0.00000000000E+00  0.00000000000E+00  0.14999999963E+04  0.15000000000E+04  0.10566000000E+00 0.  1.
        994   -1    0    0    0    0 -0.00000000000E+00 -0.00000000000E+00  0.11368683772E-12  0.17120000000E+03  0.17120000000E+03 0.  0.
         13    1    1    2    0    0  0.16818128342E+02 -0.19501895559E+01  0.64264726768E+02  0.66457647798E+02  0.10566000000E+00 0.  1.
        994    1    1    2    0    0  0.41725352333E+01 -0.49314489264E+01  0.25386637161E+01  0.17134063748E+03  0.17120000000E+03 0.  0.
        998    1    1    2    0    0 -0.20990663575E+02  0.68816384823E+01  0.14331966058E+04  0.14334017147E+04  0.10000000000E+02 0.  1.
</event>
<event>
 5    1  0.1020718E-008  0.3726228E+03  0.7957747E-01  0.3483923E+00
         13   -1    0    0    0    0  0.00000000000E+00  0.00000000000E+00  0.14999999963E+04  0.15000000000E+04  0.10566000000E+00 0.  1.
        994   -1    0    0    0    0 -0.00000000000E+00 -0.00000000000E+00  0.11368683772E-12  0.17120000000E+03  0.17120000000E+03 0.  0.
         13    1    1    2    0    0 -0.30653665141E+02  0.28306346898E+02  0.11254550025E+03  0.12003081793E+03  0.10566000000E+00 0.  1.
        994    1    1    2    0    0  0.10749802738E+02 -0.94492041189E+01  0.86068276196E+01  0.17201268325E+03  0.17120000000E+03 0.  0.
        998    1    1    2    0    0  0.19903862402E+02 -0.18857142779E+02  0.13788476684E+04  0.13791564988E+04  0.10000000000E+02 0.  1.
</event>
<event>
 5    1  0.1020718E-008  0.3842051E+03  0.7957747E-01  0.3433050E+00
         13   -1    0    0    0    0  0.00000000000E+00  0.00000000000E+00  0.14999999963E+04  0.15000000000E+04  0.10566000000E+00 0.  1.
        994   -1    0    0    0    0 -0.00000000000E+00 -0.00000000000E+00  0.11368683772E-12  0.17120000000E+03  0.17120000000E+03 0.  0.
         13    1    1    2    0    0 -0.12191285487E+02  0.10778751016E+02  0.64498889233E+02  0.66520123208E+02  0.10566000000E+00 0.  1.
        994    1    1    2    0    0  0.41321047546E+01 -0.13598439727E+02  0.26915661663E+01  0.17181000082E+03  0.17120000000E+03 0.  0.
        998    1    1    2    0    0  0.80591807320E+01  0.28196887118E+01  0.14328095409E+04  0.14328698760E+04  0.10000000000E+02 0.  1.
</event>
<event>
 5    1  0.1020718E-008  0.4078649E+03  0.7957747E-01  0.3338134E+00
         13   -1    0    0    0    0  0.00000000000E+00  0.00000000000E+00  0.14999999963E+04  0.15000000000E+04  0.10566000000E+00 0.  1.
        994   -1    0    0    0    0 -0.00000000000E+00 -0.00000000000E+00  0.11368683772E-12  0.17120000000E+03  0.17120000000E+03 0.  0.
         13    1    1    2    0    0  0.28785842969E+02 -0.64551852976E+02  0.62738262158E+02  0.94507498013E+02  0.10566000000E+00 0.  1.
        994    1    1    2    0    0 -0.33373515983E+02  0.66193122849E+02  0.55157271127E+02  0.19454327447E+03  0.17120000000E+03 0.  0.
        998    1    1    2    0    0  0.45876730140E+01 -0.16412698737E+01  0.13821044630E+04  0.13821492275E+04  0.10000000000E+02 0.  1.
</event>
<event>
 5    1  0.1020718E-008  0.3712975E+03  0.7957747E-01  0.3489949E+00
         13   -1    0    0    0    0  0.00000000000E+00  0.00000000000E+00  0.14999999963E+04  0.15000000000E+04  0.10566000000E+00 0. -1.
        994   -1    0    0    0    0 -0.00000000000E+00 -0.00000000000E+00  0.11368683772E-12  0.17120000000E+03  0.17120000000E+03 0.  0.
         13    1    1    2    0    0 -0.64936772251E+02  0.11427475356E+03  0.78717289646E+03  0.79807060075E+03  0.10566000000E+00 0. -1.
        994    1    1    2    0    0  0.67336002049E+02 -0.75729398803E+02  0.44816970212E+02  0.20392910492E+03  0.17120000000E+03 0.  0.
        998    1    1    2    0    0 -0.23992297973E+01 -0.38545354753E+02  0.66801012961E+03  0.66920029433E+03  0.10000000000E+02 0.  1.
</event>
<event>
 5    1  0.1020718E-008  0.3890988E+03  0.7957747E-01  0.3412473E+00
         13   -1    0    0    0    0  0.00000000000E+00  0.00000000000E+00  0.14999999963E+04  0.15000000000E+04  0.10566000000E+00 0. -1.
        994   -1    0    0    0    0 -0.00000000000E+00 -0.00000000000E+00  0.11368683772E-12  0.17120000000E+03  0.17120000000E+03 0.  0.
         13    1    1    2    0    0  0.17079262788E+02 -0.12005512943E+03  0.24895208028E+03  0.27691530250E+03  0.10566000000E+00 0. -1.
        994    1    1    2    0    0 -0.66351663509E+02  0.13296102986E+03  0.10985194361E+03  0.25190884905E+03  0.17120000000E+03 0.  0.
        998    1    1    2    0    0  0.49272400721E+02 -0.12905900435E+02  0.11411959724E+04  0.11423758485E+04  0.10000000000E+02 0. -1.
</event>
<event>
 5    1  0.1020718E-008  0.3752781E+03  0.7957747E-01  0.3471980E+00
         13   -1    0    0    0    0  0.00000000000E+00  0.00000000000E+00  0.14999999963E+04  0.15000000000E+04  0.10566000000E+00 0.  1.
        994   -1    0    0    0    0 -0.00000000000E+00 -0.00000000000E+00  0.11368683772E-12  0.17120000000E+03  0.17120000000E+03 0.  0.
         13    1    1    2    0    0 -0.29636912052E+02 -0.11523647012E+03  0.64483750044E+03  0.65572342016E+03  0.10566000000E+00 0.  1.
        994    1    1    2    0    0  0.47992954679E+02  0.10531288320E+03  0.53475037745E+02  0.21345525697E+03  0.17120000000E+03 0.  0.
        998    1    1    2    0    0 -0.18356042627E+02  0.99235869121E+01  0.80168745809E+03  0.80202132287E+03  0.10000000000E+02 0.  1.
</event>
<event>
 5    1  0.1020718E-008  0.3814437E+03  0.7957747E-01  0.3444897E+00
         13   -1    0    0    0    0  0.00000000000E+00  0.00000000000E+00  0.14999999963E+04  0.15000000000E+04  0.10566000000E+00 0.  1.
        994   -1    0    0    0    0 -0.00000000000E+00 -0.00000000000E+00  0.11368683772E-12  0.17120000000E+03  0.17120000000E+03 0.  0.
         13    1    1    2    0    0  0.13218008350E+02 -0.75175454636E+01  0.34056154911E+02  0.37296944726E+02  0.10566000000E+00 0.  1.
        994    1    1    2    0    0 -0.11256846439E+01 -0.55271049268E+01  0.35120359533E+01  0.17132889555E+03  0.17120000000E+03 0.  0.
        998    1    1    2    0    0 -0.12092323706E+02  0.13044650390E+02  0.14624318054E+04  0.14625741597E+04  0.10000000000E+02 0.  1.
</event>
<event>
 5    1  0.1020718E-008  0.3708527E+03  0.7957747E-01  0.3491981E+00
         13   -1    0    0    0    0  0.00000000000E+00  0.00000000000E+00  0.14999999963E+04  0.15000000000E+04  0.10566000000E+00 0.  1.
        994   -1    0    0    0    0 -0.00000000000E+00 -0.00000000000E+00  0.11368683772E-12  0.17120000000E+03  0.17120000000E+03 0.  0.
         13    1    1    2    0    0 -0.37423051387E+02  0.55772947035E+02  0.21747935783E+03  0.22761456158E+03  0.10566000000E+00 0.  1.
        994    1    1    2    0    0  0.38864172772E+02 -0.54017160814E+02  0.24249039317E+02  0.18527205266E+03  0.17120000000E+03 0.  0.
        998    1    1    2    0    0 -0.14411213849E+01 -0.17557862204E+01  0.12582715991E+04  0.12583133858E+04  0.10000000000E+02 0.  0.
</event>
<event>
 5    1  0.1020718E-008  0.3786489E+03  0.7957747E-01  0.3457063E+00
         13   -1    0    0    0    0  0.00000000000E+00  0.00000000000E+00  0.14999999963E+04  0.15000000000E+04  0.10566000000E+00 0.  1.
        994   -1    0    0    0    0 -0.00000000000E+00 -0.00000000000E+00  0.11368683772E-12  0.17120000000E+03  0.17120000000E+03 0.  0.
         13    1    1    2    0    0  0.10813819168E+03  0.16158241164E+03  0.89001324183E+03  0.91100292318E+03  0.10566000000E+00 0.  1.
        994    1    1    2    0    0 -0.92903212107E+02 -0.19263794676E+03  0.17797608113E+03  0.32668840017E+03  0.17120000000E+03 0.  0.
        998    1    1    2    0    0 -0.15234979575E+02  0.31055535117E+02  0.43201067332E+03  0.43350867665E+03  0.10000000000E+02 0. -1.
</event>
<event>
 5    1  0.1020718E-008  0.3694504E+03  0.7957747E-01  0.3498420E+00
         13   -1    0    0    0    0  0.00000000000E+00  0.00000000000E+00  0.14999999963E+04  0.15000000000E+04  0.10566000000E+00 0. -1.
        994   -1    0    0    0    0 -0.00000000000E+00 -0.00000000000E+00  0.11368683772E-12  0.17120000000E+03  0.17120000000E+03 0.  0.
         13    1    1    2    0    0  0.10098252596E+02  0.27226384977E+02  0.44295098317E+02  0.52965249394E+02  0.10566000000E+00 0. -1.
        994    1    1    2    0    0  0.70727045532E+01  0.69607861193E+02  0.27930367200E+02  0.18704230244E+03  0.17120000000E+03 0.  0.
        998    1    1    2    0    0 -0.17170957150E+02 -0.96834246170E+02  0.14277745308E+04  0.14311924482E+04  0.10000000000E+02 0. -1.
</event>
<event>
 5    1  0.1020718E-008  0.3830881E+03  0.7957747E-01  0.3437821E+00
         13   -1    0    0    0    0  0.00000000000E+00  0.00000000000E+00  0.14999999963E+04  0.15000000000E+04  0.10566000000E+00 0.  1.
        994   -1    0    0    0    0 -0.00000000000E+00 -0.00000000000E+00  0.11368683772E-12  0.17120000000E+03  0.17120000000E+03 0.  0.
         13    1    1    2    0    0 -0.34967276421E+02  0.14289854779E+02  0.21527970291E+03  0.21856868948E+03  0.10566000000E+00 0.  1.
        994    1    1    2    0    0  0.52972941262E+02 -0.14306101716E+01  0.11931177581E+02  0.17961061258E+03  0.17120000000E+03 0.  0.
        998    1    1    2    0    0 -0.18005664841E+02 -0.12859244607E+02  0.12727891158E+04  0.12730206979E+04  0.10000000000E+02 0.  1.
</event>
<event>
 5    1  0.1020718E-008  0.3852624E+03  0.7957747E-01  0.3428560E+00
         13   -1    0    0    0    0  0.00000000000E+00  0.00000000000E+00  0.14999999963E+04  0.15000000000E+04  0.10566000000E+00 0. -1.
        994   -1    0    0    0    0 -0.00000000000E+00 -0.00000000000E+00  0.11368683772E-12  0.17120000000E+03  0.17120000000E+03 0.  0.
         13    1    1    2    0    0 -0.12533961535E+02 -0.89233239061E+01  0.85593507086E+02  0.86965427157E+02  0.10566000000E+00 0. -1.
        994    1    1    2    0    0  0.33064576035E+01 -0.49066755516E+01  0.16149522380E+01  0.17130982516E+03  0.17120000000E+03 0.  0.
        998    1    1    2    0    0  0.92275039318E+01  0.13829999458E+02  0.14127915370E+04  0.14129247477E+04  0.10000000000E+02 0. -1.
</event>
<event>
 5    1  0.1020718E-008  0.3826723E+03  0.7957747E-01  0.3439605E+00
         13   -1    0    0    0    0  0.00000000000E+00  0.00000000000E+00  0.14999999963E+04  0.15000000000E+04  0.10566000000E+00 0. -1.
        994   -1    0    0    0    0 -0.00000000000E+00 -0.00000000000E+00  0.11368683772E-12  0.17120000000E+03  0.17120000000E+03 0.  0.
         13    1    1    2    0    0 -0.92862199065E+01 -0.34847229358E+02  0.20952372724E+03  0.21260471941E+03  0.10566000000E+00 0. -1.
        994    1    1    2    0    0 -0.17461272401E+01  0.34239625168E+02  0.66948748134E+01  0.17472739408E+03  0.17120000000E+03 0.  0.
        998    1    1    2    0    0  0.11032347147E+02  0.60760419069E+00  0.12837813942E+04  0.12838678865E+04  0.10000000000E+02 0. -1.
</event>
<event>
 5    1  0.1020718E-008  0.3832312E+03  0.7957747E-01  0.3437209E+00
         13   -1    0    0    0    0  0.00000000000E+00  0.00000000000E+00  0.14999999963E+04  0.15000000000E+04  0.10566000000E+00 0.  1.
        994   -1    0    0    0    0 -0.00000000000E+00 -0.00000000000E+00  0.11368683772E-12  0.17120000000E+03  0.17120000000E+03 0.  0.
         13    1    1    2    0    0 -0.91292767791E+00  0.10797064794E+02  0.22624958727E+02  0.25086051235E+02  0.10566000000E+00 0.  1.
        994    1    1    2    0    0  0.13786481995E+02 -0.46268161314E+01  0.32106358529E+01  0.17184650912E+03  0.17120000000E+03 0.  0.
        998    1    1    2    0    0 -0.12873554318E+02 -0.61702486629E+01  0.14741644017E+04  0.14742674396E+04  0.10000000000E+02 0.  1.
</event>
<event>
 5    1  0.1020718E-008  0.3832189E+03  0.7957747E-01  0.3437261E+00
         13   -1    0    0    0    0  0.00000000000E+00  0.00000000000E+00  0.14999999963E+04  0.15000000000E+04  0.10566000000E+00 0. -1.
        994   -1    0    0    0    0 -0.00000000000E+00 -0.00000000000E+00  0.11368683772E-12  0.17120000000E+03  0.17120000000E+03 0.  0.
         13    1    1    2    0    0  0.20567530788E+02 -0.49915196842E+01  0.10360406156E+03  0.10574380042E+03  0.10566000000E+00 0. -1.
        994    1    1    2    0    0  0.64196232787E+01 -0.16962597173E+02  0.36058085371E+01  0.17219576975E+03  0.17120000000E+03 0.  0.
        998    1    1    2    0    0 -0.26987154066E+02  0.21954116857E+02  0.13927901262E+04  0.13932604298E+04  0.10000000000E+02 0. -1.
</event>
<event>
 5    1  0.1020718E-008  0.3777991E+03  0.7957747E-01  0.3460798E+00
         13   -1    0    0    0    0  0.00000000000E+00  0.00000000000E+00  0.14999999963E+04  0.15000000000E+04  0.10566000000E+00 0.  1.
        994   -1    0    0    0    0 -0.00000000000E+00 -0.00000000000E+00  0.11368683772E-12  0.17120000000E+03  0.17120000000E+03 0.  0.
         13    1    1    2    0    0  0.52356967988E+02  0.21034884651E+02  0.25671722028E+03  0.26284493683E+03  0.10566000000E+00 0.  1.
        994    1    1    2    0    0 -0.46467134288E+02 -0.28903221597E+02  0.15399494154E+02  0.18039172710E+03  0.17120000000E+03 0.  0.
        998    1    1    2    0    0 -0.58898337008E+01  0.78683369467E+01  0.12278832818E+04  0.12279633361E+04  0.10000000000E+02 0.  1.
</event>
<event>
 5    1  0.1020718E-008  0.2951882E+03  0.7957747E-01  0.3930981E+00
         13   -1    0    0    0    0  0.00000000000E+00  0.00000000000E+00  0.14999999963E+04  0.15000000000E+04  0.10566000000E+00 0.  1.
        994   -1    0    0    0    0 -0.00000000000E+00 -0.00000000000E+00  0.11368683772E-12  0.17120000000E+03  0.17120000000E+03 0.  0.
         13    1    1    2    0    0 -0.15108181362E+03 -0.53658269804E+02  0.90208575895E+03  0.91622249044E+03  0.10566000000E+00 0.  1.
        994    1    1    2    0    0 -0.92684021387E+00  0.70328857775E+02  0.58338009700E+02  0.19406125488E+03  0.17120000000E+03 0.  0.
        998    1    1    2    0    0  0.15200865384E+03 -0.16670587971E+02  0.53957622763E+03  0.56091625469E+03  0.10000000000E+02 0. -1.
</event>
<event>
 5    1  0.1020718E-008  0.3717012E+03  0.7957747E-01  0.3488109E+00
         13   -1    0    0    0    0  0.00000000000E+00  0.00000000000E+00  0.14999999963E+04  0.15000000000E+04  0.10566000000E+00 0. -1.
        994   -1    0    0    0    0 -0.00000000000E+00 -0.00000000000E+00  0.11368683772E-12  0.17120000000E+03  0.17120000000E+03 0.  0.
         13    1    1    2    0    0 -0.27008492074E+02  0.29821486188E+02  0.94109939044E+02  0.10234975072E+03  0.10566000000E+00 0. -1.
        994    1    1    2    0    0  0.24849945722E+02 -0.94164611283E+01  0.10813887004E+02  0.17358735465E+03  0.17120000000E+03 0.  0.
        998    1    1    2    0    0  0.21585463520E+01 -0.20405025060E+02  0.13950761702E+04  0.13952628946E+04  0.10000000000E+02 0. -1.
</event>
<event>
 5    1  0.1020718E-008  0.3726566E+03  0.7957747E-01  0.3483770E+00
         13   -1    0    0    0    0  0.00000000000E+00  0.00000000000E+00  0.14999999963E+04  0.15000000000E+04  0.10566000000E+00 0. -1.
        994   -1    0    0    0    0 -0.00000000000E+00 -0.00000000000E+00  0.11368683772E-12  0.17120000000E+03  0.17120000000E+03 0.  0.
         13    1    1    2    0    0 -0.31941559608E+02 -0.29178942833E+01  0.63322009815E+02  0.70982148660E+02  0.10566000000E+00 0. -1.
        994    1    1    2    0    0  0.15241649907E+02  0.42595816883E+01  0.87456228711E+01  0.17215219385E+03  0.17120000000E+03 0.  0.
        998    1    1    2    0    0  0.16699909701E+02 -0.13416874050E+01  0.14279323636E+04  0.14280656575E+04  0.10000000000E+02 0. -1.
</event>
<event>
 5    1  0.1020718E-008  0.3854101E+03  0.7957747E-01  0.3427935E+00
         13   -1    0    0    0    0  0.00000000000E+00  0.00000000000E+00  0.14999999963E+04  0.15000000000E+04  0.10566000000E+00 0. -1.
        994   -1    0    0    0    0 -0.00000000000E+00 -0.00000000000E+00  0.11368683772E-12  0.17120000000E+03  0.17120000000E+03 0.  0.
         13    1    1    2    0    0 -0.55785804180E+01  0.11729316138E+02  0.63699408564E+02  0.65010177911E+02  0.10566000000E+00 0. -1.
        994    1    1    2    0    0 -0.76368557453E+01 -0.17238712354E+01  0.16280165398E+01  0.17138664982E+03  0.17120000000E+03 0.  0.
        998    1    1    2    0    0  0.13215436163E+02 -0.10005444903E+02  0.14346725712E+04  0.14348031723E+04  0.10000000000E+02 0. -1.
</event>
<event>
 5    1  0.1020718E-008  0.3825225E+03  0.7957747E-01  0.3440248E+00
         13   -1    0    0    0    0  0.00000000000E+00  0.00000000000E+00  0.14999999963E+04  0.15000000000E+04  0.10566000000E+00 0.  1.
        994   -1    0    0    0    0 -0.00000000000E+00 -0.00000000000E+00  0.11368683772E-12  0.17120000000E+03  0.17120000000E+03 0.  0.
         13    1    1    2    0    0 -0.26052502711E+02 -0.75272776499E+01  0.14078586221E+03  0.14337385734E+03  0.10566000000E+00 0.  1.
        994    1    1    2    0    0  0.47896572220E+01 -0.63808825220E+01  0.30762597179E+01  0.17141341795E+03  0.17120000000E+03 0.  0.
        998    1    1    2    0    0  0.21262845489E+02  0.13908160172E+02  0.13561378743E+04  0.13564127247E+04  0.10000000000E+02 0.  1.
</event>
<event>
 5    1  0.1020718E-008  0.3698458E+03  0.7957747E-01  0.3496600E+00
         13   -1    0    0    0    0  0.00000000000E+00  0.00000000000E+00  0.14999999963E+04  0.15000000000E+04  0.10566000000E+00 0. -1.
        994   -1    0    0    0    0 -0.00000000000E+00 -0.00000000000E+00  0.11368683772E-12  0.17120000000E+03  0.17120000000E+03 0.  0.
         13    1    1    2    0    0 -0.47708837233E+02  0.36334208708E+02  0.16289071996E+03  0.17357910498E+03  0.10566000000E+00 0. -1.
        994    1    1    2    0    0 -0.69301413533E+01 -0.69741297228E+02  0.28222938901E+02  0.18713056853E+03  0.17120000000E+03 0.  0.
        998    1    1    2    0    0  0.54638978586E+02  0.33407088521E+02  0.13088863374E+04  0.13104903265E+04  0.10000000000E+02 0. -1.
</event>
<event>
 5    1  0.1020718E-008  0.3856993E+03  0.7957747E-01  0.3426712E+00
         13   -1    0    0    0    0  0.00000000000E+00  0.00000000000E+00  0.14999999963E+04  0.15000000000E+04  0.10566000000E+00 0.  1.
        994   -1    0    0    0    0 -0.00000000000E+00 -0.00000000000E+00  0.11368683772E-12  0.17120000000E+03  0.17120000000E+03 0.  0.
         13    1    1    2    0    0  0.10544526809E+02 -0.19141860862E+01  0.45501915375E+02  0.46747049328E+02  0.10566000000E+00 0.  1.
        994    1    1    2    0    0 -0.59673968988E+01 -0.18857154495E+01  0.14118819705E+01  0.17132016565E+03  0.17120000000E+03 0.  0.
        998    1    1    2    0    0 -0.45771299105E+01  0.37999015358E+01  0.14530861989E+04  0.14531327850E+04  0.10000000000E+02 0.  1.
</event>
<event>
 5    1  0.1020718E-008  0.3848579E+03  0.7957747E-01  0.3430275E+00
         13   -1    0    0    0    0  0.00000000000E+00  0.00000000000E+00  0.14999999963E+04  0.15000000000E+04  0.10566000000E+00 0.  1.
        994   -1    0    0    0    0 -0.00000000000E+00 -0.00000000000E+00  0.11368683772E-12  0.17120000000E+03  0.17120000000E+03 0.  0.
         13    1    1    2    0    0 -0.14469205571E+02 -0.68880057284E+01  0.84240667058E+02  0.85751406304E+02  0.10566000000E+00 0.  1.
        994    1    1    2    0    0 -0.66734315758E+01  0.28322213302E+01  0.18736491019E+01  0.17136366805E+03  0.17120000000E+03 0.  0.
        998    1    1    2    0    0  0.21142637147E+02  0.40557843981E+01  0.14138856801E+04  0.14140849256E+04  0.10000000000E+02 0.  1.
</event>
<event>
 5    1  0.1020718E-008  0.3785279E+03  0.7957747E-01  0.3457593E+00
         13   -1    0    0    0    0  0.00000000000E+00  0.00000000000E+00  0.14999999963E+04  0.15000000000E+04  0.10566000000E+00 0. -1.
        994   -1    0    0    0    0 -0.00000000000E+00 -0.00000000000E+00  0.11368683772E-12  0.17120000000E+03  0.17120000000E+03 0.  0.
         13    1    1    2    0    0  0.83501414915E+01 -0.27734895115E+02  0.79032931370E+02  0.84173420240E+02  0.10566000000E+00 0. -1.
        994    1    1    2    0    0  0.23695032387E+02  0.41989892423E+02  0.12727056853E+02  0.17831439539E+03  0.17120000000E+03 0.  0.
        998    1    1    2    0    0 -0.32045173878E+02 -0.14254997308E+02  0.14082400081E+04  0.14087121844E+04  0.10000000000E+02 0. -1.
</event>
<event>
 5    1  0.1020718E-008  0.3735540E+03  0.7957747E-01  0.3479715E+00
         13   -1    0    0    0    0  0.00000000000E+00  0.00000000000E+00  0.14999999963E+04  0.15000000000E+04  0.10566000000E+00 0.  1.
        994   -1    0    0    0    0 -0.00000000000E+00 -0.00000000000E+00  0.11368683772E-12  0.17120000000E+03  0.17120000000E+03 0.  0.
         13    1    1    2    0    0 -0.20092097536E+02  0.66987168443E+02  0.16334730519E+03  0.17768884714E+03  0.10566000000E+00 0.  1.
        994    1    1    2    0    0  0.23504079388E+02 -0.70668979354E+02  0.32735278343E+02  0.18954573284E+03  0.17120000000E+03 0.  0.
        998    1    1    2    0    0 -0.34119818514E+01  0.36818109105E+01  0.13039174127E+04  0.13039654200E+04  0.10000000000E+02 0.  1.
</event>
<event>
 5    1  0.1020718E-008  0.3773205E+03  0.7957747E-01  0.3462909E+00
         13   -1    0    0    0    0  0.00000000000E+00  0.00000000000E+00  0.14999999963E+04  0.15000000000E+04  0.10566000000E+00 0. -1.
        994   -1    0    0    0    0 -0.00000000000E+00 -0.00000000000E+00  0.11368683772E-12  0.17120000000E+03  0.17120000000E+03 0.  0.
         13    1    1    2    0    0  0.51716775331E+01 -0.15700355781E+02  0.23635254865E+02  0.28842396862E+02  0.10566000000E+00 0. -1.
        994    1    1    2    0    0 -0.19453266154E+01 -0.72083834923E+01  0.56799187944E+01  0.17145683587E+03  0.17120000000E+03 0.  0.
        998    1    1    2    0    0 -0.32263509177E+01  0.22908739273E+02  0.14706848226E+04  0.14709007673E+04  0.10000000000E+02 0. -1.
</event>
<event>
 5    1  0.1020718E-008  0.3692545E+03  0.7957747E-01  0.3499324E+00
         13   -1    0    0    0    0  0.00000000000E+00  0.00000000000E+00  0.14999999963E+04  0.15000000000E+04  0.10566000000E+00 0.  1.
        994   -1    0    0    0    0 -0.00000000000E+00 -0.00000000000E+00  0.11368683772E-12  0.17120000000E+03  0.17120000000E+03 0.  0.
         13    1    1    2    0    0 -0.93523187931E+00  0.27548263165E+02  0.29195065960E+02  0.40151519306E+02  0.10566000000E+00 0.  1.
        994    1    1    2    0    0  0.58062282081E+01 -0.52009067819E+02  0.20156268386E+02  0.18015096607E+03  0.17120000000E+03 0.  0.
        998    1    1    2    0    0 -0.48709963288E+01  0.24460804654E+02  0.14506486619E+04  0.14508975146E+04  0.10000000000E+02 0.  1.
</event>
<event>
 5    1  0.1020718E-008  0.3783721E+03  0.7957747E-01  0.3458277E+00
         13   -1    0    0    0    0  0.00000000000E+00  0.00000000000E+00  0.14999999963E+04  0.15000000000E+04  0.10566000000E+00 0. -1.
        994   -1    0    0    0    0 -0.00000000000E+00 -0.00000000000E+00  0.11368683772E-12  0.17120000000E+03  0.17120000000E+03 0.  0.
         13    1    1    2    0    0  0.22859380660E+02  0.32816880052E+01  0.53924209552E+02  0.58661335649E+02  0.10566000000E+00 0. -1.
        994    1    1    2    0    0 -0.37457575698E+01 -0.53422909985E+01  0.51002344976E+01  0.17140018426E+03  0.17120000000E+03 0.  0.
        998    1    1    2    0    0 -0.19113623090E+02  0.20606029932E+01  0.14409755522E+04  0.14411384801E+04  0.10000000000E+02 0. -1.
</event>
<event>
 5    1  0.1020718E-008  0.3822676E+03  0.7957747E-01  0.3441344E+00
         13   -1    0    0    0    0  0.00000000000E+00  0.00000000000E+00  0.14999999963E+04  0.15000000000E+04  0.10566000000E+00 0.  1.
        994   -1    0    0    0    0 -0.00000000000E+00 -0.00000000000E+00  0.11368683772E-12  0.17120000000E+03  0.17120000000E+03 0.  0.
         13    1    1    2    0    0  0.11567105360E+02 -0.29222616421E+02  0.15594848889E+03  0.15908394509E+03  0.10566000000E+00 0.  1.
        994    1    1    2    0    0 -0.36994020736E+02  0.14062548829E+02  0.82073974129E+01  0.17590654968E+03  0.17120000000E+03 0.  0.
        998    1    1    2    0    0  0.25426915376E+02  0.15160067592E+02  0.13358441100E+04  0.13362095052E+04  0.10000000000E+02 0.  1.
</event>
<event>
 5    1  0.1020718E-008  0.3844292E+03  0.7957747E-01  0.3432097E+00
         13   -1    0    0    0    0  0.00000000000E+00  0.00000000000E+00  0.14999999963E+04  0.15000000000E+04  0.10566000000E+00 0. -1.
        994   -1    0    0    0    0 -0.00000000000E+00 -0.00000000000E+00  0.11368683772E-12  0.17120000000E+03  0.17120000000E+03 0.  0.
         13    1    1    2    0    0  0.95358550936E+01  0.65452676909E+01  0.34146215473E+02  0.36052021533E+02  0.10566000000E+00 0. -1.
        994    1    1    2    0    0 -0.81049186253E+01 -0.67566893616E+01  0.22807164746E+01  0.17154003680E+03  0.17120000000E+03 0.  0.
        998    1    1    2    0    0 -0.14309364683E+01  0.21142167066E+00  0.14635730643E+04  0.14636079417E+04  0.10000000000E+02 0. -1.
</event>
<event>
 5    1  0.1020718E-008  0.3784190E+03  0.7957747E-01  0.3458072E+00
         13   -1    0    0    0    0  0.00000000000E+00  0.00000000000E+00  0.14999999963E+04  0.15000000000E+04  0.10566000000E+00 0.  1.
        994   -1    0    0    0    0 -0.00000000000E+00 -0.00000000000E+00  0.11368683772E-12  0.17120000000E+03  0.17120000000E+03 0.  0.
         13    1    1    2    0    0  0.15622517151E+01  0.13580471049E+02  0.16532551118E+02  0.21452417925E+02  0.10566000000E+00 0.  1.
        994    1    1    2    0    0 -0.37338809211E+01 -0.16210946636E+02  0.58638900962E+01  0.17210625167E+03  0.17120000000E+03 0.  0.
        998    1    1    2    0    0  0.21716292060E+01  0.26304755874E+01  0.14776035551E+04  0.14776413304E+04  0.10000000000E+02 0.  1.
</event>
<event>
 5    1  0.1020718E-008  0.3818426E+03  0.7957747E-01  0.3443174E+00
         13   -1    0    0    0    0  0.00000000000E+00  0.00000000000E+00  0.14999999963E+04  0.15000000000E+04  0.10566000000E+00 0.  1.
        994   -1    0    0    0    0 -0.00000000000E+00 -0.00000000000E+00  0.11368683772E-12  0.17120000000E+03  0.17120000000E+03 0.  0.
         13    1    1    2    0    0 -0.24089486540E+02 -0.16733093541E+02  0.14989942249E+03  0.15274209573E+03  0.10566000000E+00 0.  1.
        994    1    1    2    0    0  0.38317307980E+01 -0.35761053817E+01  0.32971735361E+01  0.17131194367E+03  0.17120000000E+03 0.  0.
        998    1    1    2    0    0  0.20257755742E+02  0.20309198923E+02  0.13468034003E+04  0.13471459606E+04  0.10000000000E+02 0.  1.
</event>
<event>
 5    1  0.1020718E-008  0.3745919E+03  0.7957747E-01  0.3475050E+00
         13   -1    0    0    0    0  0.00000000000E+00  0.00000000000E+00  0.14999999963E+04  0.15000000000E+04  0.10566000000E+00 0.  1.
        994   -1    0    0    0    0 -0.00000000000E+00 -0.00000000000E+00  0.11368683772E-12  0.17120000000E+03  0.17120000000E+03 0.  0.
         13    1    1    2    0    0  0.33799189383E+02 -0.47382115635E+02  0.10976950880E+03  0.12424494481E+03  0.10566000000E+00 0.  1.
        994    1    1    2    0    0 -0.72530635990E+02  0.30998926544E+02  0.35838655592E+02  0.19187359339E+03  0.17120000000E+03 0.  0.
        998    1    1    2    0    0  0.38731446606E+02  0.16383189091E+02  0.13543918319E+04  0.13550814618E+04  0.10000000000E+02 0.  1.
</event>
<event>
 5    1  0.1020718E-008  0.3777198E+03  0.7957747E-01  0.3461147E+00
         13   -1    0    0    0    0  0.00000000000E+00  0.00000000000E+00  0.14999999963E+04  0.15000000000E+04  0.10566000000E+00 0.  1.
        994   -1    0    0    0    0 -0.00000000000E+00 -0.00000000000E+00  0.11368683772E-12  0.17120000000E+03  0.17120000000E+03 0.  0.
         13    1    1    2    0    0 -0.29489335664E+02  0.24263215148E+02  0.12446061938E+03  0.13018748583E+03  0.10566000000E+00 0.  1.
        994    1    1    2    0    0  0.35968803052E+02 -0.19528907265E+02  0.10951820997E+02  0.17636472265E+03  0.17120000000E+03 0.  0.
        998    1    1    2    0    0 -0.64794673880E+01 -0.47343078830E+01  0.13645875559E+04  0.13646477915E+04  0.10000000000E+02 0.  1.
</event>
<event>
 5    1  0.1020718E-008  0.3830408E+03  0.7957747E-01  0.3438024E+00
         13   -1    0    0    0    0  0.00000000000E+00  0.00000000000E+00  0.14999999963E+04  0.15000000000E+04  0.10566000000E+00 0.  1.
        994   -1    0    0    0    0 -0.00000000000E+00 -0.00000000000E+00  0.11368683772E-12  0.17120000000E+03  0.17120000000E+03 0.  0.
         13    1    1    2    0    0 -0.34527696515E+02 -0.96308343490E+01  0.20409136649E+03  0.20721537548E+03  0.10566000000E+00 0.  1.
        994    1    1    2    0    0  0.42217308949E+02  0.39910083182E+01  0.85804189966E+01  0.17658225537E+03  0.17120000000E+03 0.  0.
        998    1    1    2    0    0 -0.76896124336E+01  0.56398260308E+01  0.12873282108E+04  0.12874023691E+04  0.10000000000E+02 0.  1.
</event>
<event>
 5    1  0.1020718E-008  0.3275054E+03  0.7957747E-01  0.3717324E+00
         13   -1    0    0    0    0  0.00000000000E+00  0.00000000000E+00  0.14999999963E+04  0.15000000000E+04  0.10566000000E+00 0.  1.
        994   -1    0    0    0    0 -0.00000000000E+00 -0.00000000000E+00  0.11368683772E-12  0.17120000000E+03  0.17120000000E+03 0.  0.
         13    1    1    2    0    0  0.11667786025E+03 -0.19870650890E+03  0.73535688591E+03  0.77061518319E+03  0.10566000000E+00 0.  1.
        994    1    1    2    0    0 -0.14119141577E+03  0.19880913611E+03  0.26055224232E+03  0.39579919083E+03  0.17120000000E+03 0.  0.
        998    1    1    2    0    0  0.24513555527E+02 -0.10262720929E+00  0.50409086805E+03  0.50478562597E+03  0.10000000000E+02 0. -1.
</event>
<event>
 5    1  0.1020718E-008  0.3831778E+03  0.7957747E-01  0.3437437E+00
         13   -1    0    0    0    0  0.00000000000E+00  0.00000000000E+00  0.14999999963E+04  0.15000000000E+04  0.10566000000E+00 0. -1.
        994   -1    0    0    0    0 -0.00000000000E+00 -0.00000000000E+00  0.11368683772E-12  0.17120000000E+03  0.17120000000E+03 0.  0.
         13    1    1    2    0    0 -0.90038814886E+01 -0.14603176526E+02  0.56809953623E+02  0.59343952019E+02  0.10566000000E+00 0. -1.
        994    1    1    2    0    0  0.57852699584E-01  0.15156590633E+02  0.32978704486E+01  0.17190125519E+03  0.17120000000E+03 0.  0.
        998    1    1    2    0    0  0.89460287890E+01 -0.55341410618E+00  0.14398921722E+04  0.14399547928E+04  0.10000000000E+02 0. -1.
</event>
<event>
 5    1  0.1020718E-008  0.3815585E+03  0.7957747E-01  0.3444400E+00
         13   -1    0    0    0    0  0.00000000000E+00  0.00000000000E+00  0.14999999963E+04  0.15000000000E+04  0.10566000000E+00 0. -1.
        994   -1    0    0    0    0 -0.00000000000E+00 -0.00000000000E+00  0.11368683772E-12  0.17120000000E+03  0.17120000000E+03 0.  0.
         13    1    1    2    0    0  0.55499206934E+02  0.17189761248E+02  0.35106548804E+03  0.35584074798E+03  0.10566000000E+00 0. -1.
        994    1    1    2    0    0 -0.60524775886E+02 -0.31854297629E+02  0.19065767328E+02  0.18533992624E+03  0.17120000000E+03 0.  0.
        998    1    1    2    0    0  0.50255689520E+01  0.14664536381E+02  0.11298687409E+04  0.11300193258E+04  0.10000000000E+02 0. -1.
</event>
<event>
 5    1  0.1150820E-008  0.3852972E+03  0.7957747E-01  0.3428413E+00
         13   -1    0    0    0    0  0.00000000000E+00  0.00000000000E+00  0.14999999963E+04  0.15000000000E+04  0.10566000000E+00 0. -1.
        994   -1    0    0    0    0 -0.00000000000E+00 -0.00000000000E+00  0.11368683772E-12  0.17120000000E+03  0.17120000000E+03 0.  0.
         13    1    1    2    0    0  0.31901689835E+01 -0.10050598718E+02  0.36756466361E+02  0.38239255957E+02  0.10566000000E+00 0. -1.
        994    1    1    2    0    0 -0.49333385714E+01  0.99924546029E+01  0.18907720726E+01  0.17157273093E+03  0.17120000000E+03 0.  0.
        998    1    1    2    0    0  0.17431695879E+01  0.58144115486E-01  0.14613527578E+04  0.14613880131E+04  0.10000000000E+02 0. -1.
</event>
<event>
 5    1  0.1020718E-008  0.3847436E+03  0.7957747E-01  0.3430761E+00
         13   -1    0    0    0    0  0.00000000000E+00  0.00000000000E+00  0.14999999963E+04  0.15000000000E+04  0.10566000000E+00 0.  1.
        994   -1    0    0    0    0 -0.00000000000E+00 -0.00000000000E+00  0.11368683772E-12  0.17120000000E+03  0.17120000000E+03 0.  0.
         13    1    1    2    0    0  0.14340516171E+02  0.14635908973E+02  0.10756972734E+03  0.10950396176E+03  0.10566000000E+00 0.  1.
        994    1    1    2    0    0 -0.10487437657E+02 -0.26871594928E+02  0.45009702674E+01  0.17367143604E+03  0.17120000000E+03 0.  0.
        998    1    1    2    0    0 -0.38530785148E+01  0.12235685955E+02  0.13879292987E+04  0.13880246022E+04  0.10000000000E+02 0.  1.
</event>
<event>
 5    1  0.1020718E-008  0.3851642E+03  0.7957747E-01  0.3428976E+00
         13   -1    0    0    0    0  0.00000000000E+00  0.00000000000E+00  0.14999999963E+04  0.15000000000E+04  0.10566000000E+00 0.  1.
        994   -1    0    0    0    0 -0.00000000000E+00 -0.00000000000E+00  0.11368683772E-12  0.17120000000E+03  0.17120000000E+03 0.  0.
         13    1    1    2    0    0  0.63356379081E+01  0.86478659228E+01  0.36871030039E+02  0.38398045691E+02  0.10566000000E+00 0.  1.
        994    1    1    2    0    0 -0.68130716597E+01 -0.50314355835E+01  0.17844408384E+01  0.17141866152E+03  0.17120000000E+03 0.  0.
        998    1    1    2    0    0  0.47743375161E+00 -0.36164303393E+01  0.14613445254E+04  0.14613832928E+04  0.10000000000E+02 0.  1.
</event>
<event>
 5    1  0.1020718E-008  0.4140709E+03  0.7957747E-01  0.3315021E+00
         13   -1    0    0    0    0  0.00000000000E+00  0.00000000000E+00  0.14999999963E+04  0.15000000000E+04  0.10566000000E+00 0. -1.
        994   -1    0    0    0    0 -0.00000000000E+00 -0.00000000000E+00  0.11368683772E-12  0.17120000000E+03  0.17120000000E+03 0.  0.
         13    1    1    2    0    0  0.43116190537E+02  0.52250076223E+02  0.61179665266E+02  0.91280003055E+02  0.10566000000E+00 0. -1.
        994    1    1    2    0    0  0.12876575771E+02  0.13203638905E+02  0.37891952685E+02  0.17631047150E+03  0.17120000000E+03 0.  0.
        998    1    1    2    0    0 -0.55992766308E+02 -0.65453715128E+02  0.14009283783E+04  0.14036095254E+04  0.10000000000E+02 0. -1.
</event>
<event>
 5    1  0.1020718E-008  0.3784468E+03  0.7957747E-01  0.3457950E+00
         13   -1    0    0    0    0  0.00000000000E+00  0.00000000000E+00  0.14999999963E+04  0.15000000000E+04  0.10566000000E+00 0.  1.
        994   -1    0    0    0    0 -0.00000000000E+00 -0.00000000000E+00  0.11368683772E-12  0.17120000000E+03  0.17120000000E+03 0.  0.
         13    1    1    2    0    0  0.43781995723E+02  0.20027511882E+02  0.23108460453E+03  0.23604675384E+03  0.10566000000E+00 0.  1.
        994    1    1    2    0    0 -0.32733658800E+02  0.56299927405E+00  0.85291359179E+01  0.17451073189E+03  0.17120000000E+03 0.  0.
        998    1    1    2    0    0 -0.11048336923E+02 -0.20590511156E+02  0.12603862558E+04  0.12606425143E+04  0.10000000000E+02 0.  1.
</event>
<event>
 5    1  0.1020718E-008  0.3810767E+03  0.7957747E-01  0.3446484E+00
         13   -1    0    0    0    0  0.00000000000E+00  0.00000000000E+00  0.14999999963E+04  0.15000000000E+04  0.10566000000E+00 0.  1.
        994   -1    0    0    0    0 -0.00000000000E+00 -0.00000000000E+00  0.11368683772E-12  0.17120000000E+03  0.17120000000E+03 0.  0.
         13    1    1    2    0    0 -0.30508182090E+02 -0.17697891158E+02  0.18198767364E+03  0.18537391685E+03  0.10566000000E+00 0.  1.
        994    1    1    2    0    0  0.82081335338E+01  0.12060682391E+02  0.42999065804E+01  0.17187426425E+03  0.17120000000E+03 0.  0.
        998    1    1    2    0    0  0.22300048556E+02  0.56372087666E+01  0.13137124161E+04  0.13139518189E+04  0.10000000000E+02 0.  1.
</event>
<event>
 5    1  0.1020718E-008  0.3861032E+03  0.7957747E-01  0.3425007E+00
         13   -1    0    0    0    0  0.00000000000E+00  0.00000000000E+00  0.14999999963E+04  0.15000000000E+04  0.10566000000E+00 0. -1.
        994   -1    0    0    0    0 -0.00000000000E+00 -0.00000000000E+00  0.11368683772E-12  0.17120000000E+03  0.17120000000E+03 0.  0.
         13    1    1    2    0    0 -0.10492884992E+02 -0.17730274941E+00  0.50963712669E+02  0.52033097590E+02  0.10566000000E+00 0. -1.
        994    1    1    2    0    0  0.86283425723E+01  0.13211638319E+01  0.13331386869E+01  0.17142756788E+03  0.17120000000E+03 0.  0.
        998    1    1    2    0    0  0.18645424194E+01 -0.11438610825E+01  0.14477031449E+04  0.14477393345E+04  0.10000000000E+02 0. -1.
</event>
<event>
 5    1  0.1020718E-008  0.3777838E+03  0.7957747E-01  0.3460865E+00
         13   -1    0    0    0    0  0.00000000000E+00  0.00000000000E+00  0.14999999963E+04  0.15000000000E+04  0.10566000000E+00 0. -1.
        994   -1    0    0    0    0 -0.00000000000E+00 -0.00000000000E+00  0.11368683772E-12  0.17120000000E+03  0.17120000000E+03 0.  0.
         13    1    1    2    0    0  0.92637822337E+02 -0.48165072114E+02  0.61801567670E+03  0.62677350623E+03  0.10566000000E+00 0. -1.
        994    1    1    2    0    0 -0.88086956255E+02  0.50981597356E+02  0.40973112103E+02  0.20333880851E+03  0.17120000000E+03 0.  0.
        998    1    1    2    0    0 -0.45508660821E+01 -0.28165252416E+01  0.84101120747E+03  0.84108768526E+03  0.10000000000E+02 0. -1.
</event>
<event>
 5    1  0.1020718E-008  0.3694224E+03  0.7957747E-01  0.3498550E+00
         13   -1    0    0    0    0  0.00000000000E+00  0.00000000000E+00  0.14999999963E+04  0.15000000000E+04  0.10566000000E+00 0. -1.
        994   -1    0    0    0    0 -0.00000000000E+00 -0.00000000000E+00  0.11368683772E-12  0.17120000000E+03  0.17120000000E+03 0.  0.
         13    1    1    2    0    0  0.31589981086E+02 -0.18703466296E+01  0.47798060061E+02  0.57324434678E+02  0.10566000000E+00 0. -1.
        994    1    1    2    0    0 -0.28106967385E+02 -0.15799339857E+02  0.13181607564E+02  0.17470780044E+03  0.17120000000E+03 0.  0.
        998    1    1    2    0    0 -0.34830137011E+01  0.17669686486E+02  0.14390203287E+04  0.14391677649E+04  0.10000000000E+02 0. -1.
</event>
<event>
 5    1  0.1020718E-008  0.3714914E+03  0.7957747E-01  0.3489064E+00
         13   -1    0    0    0    0  0.00000000000E+00  0.00000000000E+00  0.14999999963E+04  0.15000000000E+04  0.10566000000E+00 0. -1.
        994   -1    0    0    0    0 -0.00000000000E+00 -0.00000000000E+00  0.11368683772E-12  0.17120000000E+03  0.17120000000E+03 0.  0.
         13    1    1    2    0    0  0.27650204720E+02  0.10140845236E+02  0.31818151959E+02  0.43356389625E+02  0.10566000000E+00 0. -1.
        994    1    1    2    0    0 -0.25242950122E+02 -0.73150807504E+01  0.14160802961E+02  0.17378344362E+03  0.17120000000E+03 0.  0.
        998    1    1    2    0    0 -0.24072545981E+01 -0.28257644855E+01  0.14540210414E+04  0.14540601668E+04  0.10000000000E+02 0. -1.
</event>
<event>
 5    1  0.1020718E-008  0.3850125E+03  0.7957747E-01  0.3429619E+00
         13   -1    0    0    0    0  0.00000000000E+00  0.00000000000E+00  0.14999999963E+04  0.15000000000E+04  0.10566000000E+00 0. -1.
        994   -1    0    0    0    0 -0.00000000000E+00 -0.00000000000E+00  0.11368683772E-12  0.17120000000E+03  0.17120000000E+03 0.  0.
         13    1    1    2    0    0  0.70926717640E+01  0.11196594120E+02  0.53645767271E+02  0.55258928896E+02  0.10566000000E+00 0. -1.
        994    1    1    2    0    0 -0.11721470759E+01 -0.11325973107E+02  0.20504050116E+01  0.17159048854E+03  0.17120000000E+03 0.  0.
        998    1    1    2    0    0 -0.59205246881E+01  0.12937898758E+00  0.14443038240E+04  0.14443505826E+04  0.10000000000E+02 0. -1.
</event>
<event>
 5    1  0.1020718E-008  0.3819835E+03  0.7957747E-01  0.3442567E+00
         13   -1    0    0    0    0  0.00000000000E+00  0.00000000000E+00  0.14999999963E+04  0.15000000000E+04  0.10566000000E+00 0.  1.
        994   -1    0    0    0    0 -0.00000000000E+00 -0.00000000000E+00  0.11368683772E-12  0.17120000000E+03  0.17120000000E+03 0.  0.
         13    1    1    2    0    0 -0.80541944306E+01  0.61783294966E+01  0.15115513746E+02  0.18208012608E+02  0.10566000000E+00 0.  1.
        994    1    1    2    0    0  0.52590758220E+01 -0.61663540151E+01  0.33534033907E+01  0.17142452308E+03  0.17120000000E+03 0.  0.
        998    1    1    2    0    0  0.27951186086E+01 -0.11975481516E-01  0.14815310791E+04  0.14815674643E+04  0.10000000000E+02 0.  1.
</event>
<event>
 5    1  0.1020718E-008  0.3725392E+03  0.7957747E-01  0.3484302E+00
         13   -1    0    0    0    0  0.00000000000E+00  0.00000000000E+00  0.14999999963E+04  0.15000000000E+04  0.10566000000E+00 0.  1.
        994   -1    0    0    0    0 -0.00000000000E+00 -0.00000000000E+00  0.11368683772E-12  0.17120000000E+03  0.17120000000E+03 0.  0.
         13    1    1    2    0    0  0.78043797647E+02 -0.59830797432E+02  0.29339470693E+03  0.30943662338E+03  0.10566000000E+00 0.  1.
        994    1    1    2    0    0 -0.79128382319E+02  0.73037879852E+02  0.54400482134E+02  0.20943897736E+03  0.17120000000E+03 0.  0.
        998    1    1    2    0    0  0.10845846718E+01 -0.13207082420E+02  0.11522048072E+04  0.11523243993E+04  0.10000000000E+02 0.  1.
</event>
<event>
 5    1  0.1020718E-008  0.3800063E+03  0.7957747E-01  0.3451131E+00
         13   -1    0    0    0    0  0.00000000000E+00  0.00000000000E+00  0.14999999963E+04  0.15000000000E+04  0.10566000000E+00 0.  1.
        994   -1    0    0    0    0 -0.00000000000E+00 -0.00000000000E+00  0.11368683772E-12  0.17120000000E+03  0.17120000000E+03 0.  0.
         13    1    1    2    0    0 -0.32859232980E+02 -0.88527233299E+01  0.14597650524E+03  0.14989079741E+03  0.10566000000E+00 0.  1.
        994    1    1    2    0    0  0.14257909154E+02 -0.61212976980E+01  0.49352069160E+01  0.17197254004E+03  0.17120000000E+03 0.  0.
        998    1    1    2    0    0  0.18601323826E+02  0.14974021028E+02  0.13490882841E+04  0.13493366626E+04  0.10000000000E+02 0.  1.
</event>
<event>
 5    1  0.1020718E-008  0.4096416E+03  0.7957747E-01  0.3331446E+00
         13   -1    0    0    0    0  0.00000000000E+00  0.00000000000E+00  0.14999999963E+04  0.15000000000E+04  0.10566000000E+00 0.  1.
        994   -1    0    0    0    0 -0.00000000000E+00 -0.00000000000E+00  0.11368683772E-12  0.17120000000E+03  0.17120000000E+03 0.  0.
         13    1    1    2    0    0  0.10747836895E+03  0.39792833265E+02  0.18251753447E+03  0.21551735644E+03  0.10566000000E+00 0.  1.
        994    1    1    2    0    0 -0.87513469656E+02 -0.50185598626E+01  0.65743978485E+02  0.20326215590E+03  0.17120000000E+03 0.  0.
        998    1    1    2    0    0 -0.19964899291E+02 -0.34774273402E+02  0.12517384833E+04  0.12524204877E+04  0.10000000000E+02 0.  1.
</event>
<event>
 5    1  0.1020718E-008  0.3844242E+03  0.7957747E-01  0.3432118E+00
         13   -1    0    0    0    0  0.00000000000E+00  0.00000000000E+00  0.14999999963E+04  0.15000000000E+04  0.10566000000E+00 0. -1.
        994   -1    0    0    0    0 -0.00000000000E+00 -0.00000000000E+00  0.11368683772E-12  0.17120000000E+03  0.17120000000E+03 0.  0.
         13    1    1    2    0    0  0.83233671295E+00 -0.16497237173E+02  0.79400072263E+02  0.81100149557E+02  0.10566000000E+00 0. -1.
        994    1    1    2    0    0  0.25967168245E+00 -0.63047866752E+01  0.20474711432E+01  0.17132848538E+03  0.17120000000E+03 0.  0.
        998    1    1    2    0    0 -0.10920083954E+01  0.22802023848E+02  0.14185524529E+04  0.14187713651E+04  0.10000000000E+02 0. -1.
</event>
<event>
 5    1  0.1020718E-008  0.3688887E+03  0.7957747E-01  0.3501014E+00
         13   -1    0    0    0    0  0.00000000000E+00  0.00000000000E+00  0.14999999963E+04  0.15000000000E+04  0.10566000000E+00 0.  1.
        994   -1    0    0    0    0 -0.00000000000E+00 -0.00000000000E+00  0.11368683772E-12  0.17120000000E+03  0.17120000000E+03 0.  0.
         13    1    1    2    0    0 -0.51634525984E+02 -0.15039350475E+02  0.13032486015E+03  0.14098541299E+03  0.10566000000E+00 0.  1.
        994    1    1    2    0    0  0.33862457610E+02  0.41883440918E+02  0.20523709076E+02  0.18064205295E+03  0.17120000000E+03 0.  0.
        998    1    1    2    0    0  0.17772068374E+02 -0.26844090442E+02  0.13491514270E+04  0.13495725341E+04  0.10000000000E+02 0.  1.
</event>
<event>
 5    1  0.1020718E-008  0.3774738E+03  0.7957747E-01  0.3462233E+00
         13   -1    0    0    0    0  0.00000000000E+00  0.00000000000E+00  0.14999999963E+04  0.15000000000E+04  0.10566000000E+00 0.  1.
        994   -1    0    0    0    0 -0.00000000000E+00 -0.00000000000E+00  0.11368683772E-12  0.17120000000E+03  0.17120000000E+03 0.  0.
         13    1    1    2    0    0  0.17687187124E+02  0.16730032288E+02  0.64989724865E+02  0.69400331922E+02  0.10566000000E+00 0.  1.
        994    1    1    2    0    0  0.55000200960E+02 -0.20682426839E+01  0.15694803820E+02  0.18051334189E+03  0.17120000000E+03 0.  0.
        998    1    1    2    0    0 -0.72687388084E+02 -0.14661789604E+02  0.14193154676E+04  0.14212863262E+04  0.10000000000E+02 0.  1.
</event>
<event>
 5    1  0.1020718E-008  0.3746535E+03  0.7957747E-01  0.3474774E+00
         13   -1    0    0    0    0  0.00000000000E+00  0.00000000000E+00  0.14999999963E+04  0.15000000000E+04  0.10566000000E+00 0. -1.
        994   -1    0    0    0    0 -0.00000000000E+00 -0.00000000000E+00  0.11368683772E-12  0.17120000000E+03  0.17120000000E+03 0.  0.
         13    1    1    2    0    0  0.13524650096E+02  0.20232145135E+02  0.39742667387E+02  0.46602002447E+02  0.10566000000E+00 0. -1.
        994    1    1    2    0    0 -0.22939149315E+02 -0.11584543746E+02  0.91075024036E+01  0.17335741353E+03  0.17120000000E+03 0.  0.
        998    1    1    2    0    0  0.94144992191E+01 -0.86476013889E+01  0.14511498265E+04  0.14512405840E+04  0.10000000000E+02 0. -1.
</event>
<event>
 5    1  0.1020718E-008  0.3760717E+03  0.7957747E-01  0.3468444E+00
         13   -1    0    0    0    0  0.00000000000E+00  0.00000000000E+00  0.14999999963E+04  0.15000000000E+04  0.10566000000E+00 0.  1.
        994   -1    0    0    0    0 -0.00000000000E+00 -0.00000000000E+00  0.11368683772E-12  0.17120000000E+03  0.17120000000E+03 0.  0.
         13    1    1    2    0    0 -0.24725566311E+02 -0.29879089798E+02  0.12740375140E+03  0.13317597632E+03  0.10566000000E+00 0.  1.
        994    1    1    2    0    0 -0.11518052288E+01  0.16726502379E+02  0.70820747009E+01  0.17216474180E+03  0.17120000000E+03 0.  0.
        998    1    1    2    0    0  0.25877371539E+02  0.13152587419E+02  0.13655141702E+04  0.13658592819E+04  0.10000000000E+02 0.  1.
</event>
<event>
 5    1  0.1020718E-008  0.3848624E+03  0.7957747E-01  0.3430256E+00
         13   -1    0    0    0    0  0.00000000000E+00  0.00000000000E+00  0.14999999963E+04  0.15000000000E+04  0.10566000000E+00 0. -1.
        994   -1    0    0    0    0 -0.00000000000E+00 -0.00000000000E+00  0.11368683772E-12  0.17120000000E+03  0.17120000000E+03 0.  0.
         13    1    1    2    0    0 -0.15443026770E+02  0.76554178716E+01  0.91817539634E+02  0.93421433552E+02  0.10566000000E+00 0. -1.
        994    1    1    2    0    0  0.59061432448E+01  0.16826817360E+01  0.18225830679E+01  0.17131980550E+03  0.17120000000E+03 0.  0.
        998    1    1    2    0    0  0.95368835251E+01 -0.93380996076E+01  0.14063598736E+04  0.14064587610E+04  0.10000000000E+02 0. -1.
</event>
<event>
 5    1  0.1020718E-008  0.3805623E+03  0.7957747E-01  0.3448714E+00
         13   -1    0    0    0    0  0.00000000000E+00  0.00000000000E+00  0.14999999963E+04  0.15000000000E+04  0.10566000000E+00 0.  1.
        994   -1    0    0    0    0 -0.00000000000E+00 -0.00000000000E+00  0.11368683772E-12  0.17120000000E+03  0.17120000000E+03 0.  0.
         13    1    1    2    0    0 -0.41637442746E+02  0.10066092047E+02  0.20974169349E+03  0.21407146470E+03  0.10566000000E+00 0.  1.
        994    1    1    2    0    0  0.40249363724E+02 -0.62218116260E+01  0.94041537139E+01  0.17622882944E+03  0.17120000000E+03 0.  0.
        998    1    1    2    0    0  0.13880790222E+01 -0.38442804212E+01  0.12808541491E+04  0.12808997059E+04  0.10000000000E+02 0.  1.
</event>
<event>
 5    1  0.1020718E-008  0.3777194E+03  0.7957747E-01  0.3461149E+00
         13   -1    0    0    0    0  0.00000000000E+00  0.00000000000E+00  0.14999999963E+04  0.15000000000E+04  0.10566000000E+00 0.  1.
        994   -1    0    0    0    0 -0.00000000000E+00 -0.00000000000E+00  0.11368683772E-12  0.17120000000E+03  0.17120000000E+03 0.  0.
         13    1    1    2    0    0 -0.24999597095E+02  0.19910839411E+02  0.93367484896E+02  0.98685965470E+02  0.10566000000E+00 0.  1.
        994    1    1    2    0    0  0.13203489587E+02 -0.19879887072E+02  0.72095849793E+01  0.17300566512E+03  0.17120000000E+03 0.  0.
        998    1    1    2    0    0  0.11796107508E+02 -0.30952338782E-01  0.13994229264E+04  0.13995083694E+04  0.10000000000E+02 0.  1.
</event>
<event>
 5    1  0.1020718E-008  0.3844369E+03  0.7957747E-01  0.3432064E+00
         13   -1    0    0    0    0  0.00000000000E+00  0.00000000000E+00  0.14999999963E+04  0.15000000000E+04  0.10566000000E+00 0. -1.
        994   -1    0    0    0    0 -0.00000000000E+00 -0.00000000000E+00  0.11368683772E-12  0.17120000000E+03  0.17120000000E+03 0.  0.
         13    1    1    2    0    0  0.20222881167E+02 -0.17619523793E+01  0.10840980666E+03  0.11029400139E+03  0.10566000000E+00 0. -1.
        994    1    1    2    0    0 -0.10676013015E+02  0.19697772716E+02  0.35655642688E+01  0.17269664951E+03  0.17120000000E+03 0.  0.
        998    1    1    2    0    0 -0.95468681522E+01 -0.17935820337E+02  0.13880246254E+04  0.13882093491E+04  0.10000000000E+02 0. -1.
</event>
<event>
 5    1  0.1020718E-008  0.3816686E+03  0.7957747E-01  0.3443925E+00
         13   -1    0    0    0    0  0.00000000000E+00  0.00000000000E+00  0.14999999963E+04  0.15000000000E+04  0.10566000000E+00 0.  1.
        994   -1    0    0    0    0 -0.00000000000E+00 -0.00000000000E+00  0.11368683772E-12  0.17120000000E+03  0.17120000000E+03 0.  0.
         13    1    1    2    0    0 -0.18531924028E+02  0.15823186776E+02  0.83884250374E+02  0.87352069653E+02  0.10566000000E+00 0.  1.
        994    1    1    2    0    0  0.15936911935E+02 -0.22553200272E+02  0.58327899055E+01  0.17351107585E+03  0.17120000000E+03 0.  0.
        998    1    1    2    0    0  0.25950120921E+01  0.67300134960E+01  0.14102829560E+04  0.14103368545E+04  0.10000000000E+02 0.  1.
</event>
<event>
 5    1  0.1020718E-008  0.3816389E+03  0.7957747E-01  0.3444053E+00
         13   -1    0    0    0    0  0.00000000000E+00  0.00000000000E+00  0.14999999963E+04  0.15000000000E+04  0.10566000000E+00 0. -1.
        994   -1    0    0    0    0 -0.00000000000E+00 -0.00000000000E+00  0.11368683772E-12  0.17120000000E+03  0.17120000000E+03 0.  0.
         13    1    1    2    0    0 -0.16967763580E+02 -0.95350211531E+01  0.56706368598E+02  0.59953690736E+02  0.10566000000E+00 0. -1.
        994    1    1    2    0    0  0.31090852185E+01  0.15468464917E+02  0.41362710838E+01  0.17197525565E+03  0.17120000000E+03 0.  0.
        998    1    1    2    0    0  0.13858678361E+02 -0.59334437635E+01  0.14391573566E+04  0.14392710536E+04  0.10000000000E+02 0. -1.
</event>
<event>
 5    1  0.1020718E-008  0.3690300E+03  0.7957747E-01  0.3500361E+00
         13   -1    0    0    0    0  0.00000000000E+00  0.00000000000E+00  0.14999999963E+04  0.15000000000E+04  0.10566000000E+00 0. -1.
        994   -1    0    0    0    0 -0.00000000000E+00 -0.00000000000E+00  0.11368683772E-12  0.17120000000E+03  0.17120000000E+03 0.  0.
         13    1    1    2    0    0  0.38873784385E+02 -0.96967183761E+02  0.41697565086E+03  0.42986336249E+03  0.10566000000E+00 0. -1.
        994    1    1    2    0    0 -0.49173541114E+02  0.85668546913E+02  0.44434059495E+02  0.20258569229E+03  0.17120000000E+03 0.  0.
        998    1    1    2    0    0  0.10299756729E+02  0.11298636848E+02  0.10385902859E+04  0.10387509452E+04  0.10000000000E+02 0. -1.
</event>
<event>
 5    1  0.1020718E-008  0.3770151E+03  0.7957747E-01  0.3464259E+00
         13   -1    0    0    0    0  0.00000000000E+00  0.00000000000E+00  0.14999999963E+04  0.15000000000E+04  0.10566000000E+00 0. -1.
        994   -1    0    0    0    0 -0.00000000000E+00 -0.00000000000E+00  0.11368683772E-12  0.17120000000E+03  0.17120000000E+03 0.  0.
         13    1    1    2    0    0  0.13829460028E+03 -0.69882237911E+02  0.46976069570E+03  0.49465548216E+03  0.10566000000E+00 0. -1.
        994    1    1    2    0    0 -0.15380518453E+03  0.64348175480E+02  0.12238371929E+03  0.26848451952E+03  0.17120000000E+03 0.  0.
        998    1    1    2    0    0  0.15510584253E+02  0.55340624315E+01  0.90785558129E+03  0.90805999832E+03  0.10000000000E+02 0.  1.
</event>
<event>
 5    1  0.1020718E-008  0.3799158E+03  0.7957747E-01  0.3451525E+00
         13   -1    0    0    0    0  0.00000000000E+00  0.00000000000E+00  0.14999999963E+04  0.15000000000E+04  0.10566000000E+00 0.  1.
        994   -1    0    0    0    0 -0.00000000000E+00 -0.00000000000E+00  0.11368683772E-12  0.17120000000E+03  0.17120000000E+03 0.  0.
         13    1    1    2    0    0 -0.10176039561E+02  0.19869388040E+01  0.11113412457E+02  0.15199302860E+02  0.10566000000E+00 0.  1.
        994    1    1    2    0    0  0.38775840802E+01 -0.32288719462E+01  0.42607787340E+01  0.17132733439E+03  0.17120000000E+03 0.  0.
        998    1    1    2    0    0  0.62984554808E+01  0.12419331422E+01  0.14846258051E+04  0.14846733628E+04  0.10000000000E+02 0.  1.
</event>
<event>
 5    1  0.1020718E-008  0.3704995E+03  0.7957747E-01  0.3493598E+00
         13   -1    0    0    0    0  0.00000000000E+00  0.00000000000E+00  0.14999999963E+04  0.15000000000E+04  0.10566000000E+00 0.  1.
        994   -1    0    0    0    0 -0.00000000000E+00 -0.00000000000E+00  0.11368683772E-12  0.17120000000E+03  0.17120000000E+03 0.  0.
         13    1    1    2    0    0 -0.72791061391E+00 -0.17350491385E+02  0.12991850949E+02  0.21687986543E+02  0.10566000000E+00 0.  1.
        994    1    1    2    0    0  0.48860093139E+01  0.48930594743E+01  0.91732943738E+01  0.17158497734E+03  0.17120000000E+03 0.  0.
        998    1    1    2    0    0 -0.41580987000E+01  0.12457431911E+02  0.14778348510E+04  0.14779270361E+04  0.10000000000E+02 0.  1.
</event>
<event>
 5    1  0.1020718E-008  0.3824264E+03  0.7957747E-01  0.3440661E+00
         13   -1    0    0    0    0  0.00000000000E+00  0.00000000000E+00  0.14999999963E+04  0.15000000000E+04  0.10566000000E+00 0. -1.
        994   -1    0    0    0    0 -0.00000000000E+00 -0.00000000000E+00  0.11368683772E-12  0.17120000000E+03  0.17120000000E+03 0.  0.
         13    1    1    2    0    0 -0.97668731595E+01  0.22804165054E+02  0.10944584955E+03  0.11222222108E+03  0.10566000000E+00 0. -1.
        994    1    1    2    0    0  0.20494058351E+02 -0.61880005510E+00  0.43086719779E+01  0.17247722747E+03  0.17120000000E+03 0.  0.
        998    1    1    2    0    0 -0.10727185191E+02 -0.22185364999E+02  0.13862454748E+04  0.13865005515E+04  0.10000000000E+02 0. -1.
</event>
<event>
 5    1  0.1020718E-008  0.3859778E+03  0.7957747E-01  0.3425536E+00
         13   -1    0    0    0    0  0.00000000000E+00  0.00000000000E+00  0.14999999963E+04  0.15000000000E+04  0.10566000000E+00 0.  1.
        994   -1    0    0    0    0 -0.00000000000E+00 -0.00000000000E+00  0.11368683772E-12  0.17120000000E+03  0.17120000000E+03 0.  0.
         13    1    1    2    0    0  0.12249836527E+02  0.49725835144E+01  0.75207107110E+02  0.76360364101E+02  0.10566000000E+00 0.  1.
        994    1    1    2    0    0 -0.11312991623E+02 -0.37133594006E+01  0.16103627751E+01  0.17162111200E+03  0.17120000000E+03 0.  0.
        998    1    1    2    0    0 -0.93684490346E+00 -0.12592241138E+01  0.14231825264E+04  0.14232185239E+04  0.10000000000E+02 0.  0.
</event>
<event>
 5    1  0.1020718E-008  0.3715691E+03  0.7957747E-01  0.3488711E+00
         13   -1    0    0    0    0  0.00000000000E+00  0.00000000000E+00  0.14999999963E+04  0.15000000000E+04  0.10566000000E+00 0.  1.
        994   -1    0    0    0    0 -0.00000000000E+00 -0.00000000000E+00  0.11368683772E-12  0.17120000000E+03  0.17120000000E+03 0.  0.
         13    1    1    2    0    0  0.14113871953E+01 -0.21035392123E+02  0.23604599248E+02  0.31649139092E+02  0.10566000000E+00 0.  1.
        994    1    1    2    0    0  0.72308927734E+01 -0.44783228527E+00  0.86317413248E+01  0.17157049083E+03  0.17120000000E+03 0.  0.
        998    1    1    2    0    0 -0.86422799688E+01  0.21483224408E+02  0.14677636557E+04  0.14679803701E+04  0.10000000000E+02 0.  1.
</event>
<event>
 5    1  0.1020718E-008  0.3753025E+03  0.7957747E-01  0.3471871E+00
         13   -1    0    0    0    0  0.00000000000E+00  0.00000000000E+00  0.14999999963E+04  0.15000000000E+04  0.10566000000E+00 0.  1.
        994   -1    0    0    0    0 -0.00000000000E+00 -0.00000000000E+00  0.11368683772E-12  0.17120000000E+03  0.17120000000E+03 0.  0.
         13    1    1    2    0    0  0.77797316786E+02  0.49006703080E+02  0.29552746627E+03  0.30950052331E+03  0.10566000000E+00 0.  1.
        994    1    1    2    0    0 -0.52331004829E+02 -0.27059057527E+02  0.26239466519E+02  0.18294446224E+03  0.17120000000E+03 0.  0.
        998    1    1    2    0    0 -0.25466311956E+02 -0.21947645553E+02  0.11782330635E+04  0.11787550145E+04  0.10000000000E+02 0.  1.
</event>
<event>
 5    1  0.1020718E-008  0.3780538E+03  0.7957747E-01  0.3459677E+00
         13   -1    0    0    0    0  0.00000000000E+00  0.00000000000E+00  0.14999999963E+04  0.15000000000E+04  0.10566000000E+00 0.  1.
        994   -1    0    0    0    0 -0.00000000000E+00 -0.00000000000E+00  0.11368683772E-12  0.17120000000E+03  0.17120000000E+03 0.  0.
         13    1    1    2    0    0 -0.77605678372E+01  0.25502878434E+02  0.71543794691E+02  0.76348863412E+02  0.10566000000E+00 0.  1.
        994    1    1    2    0    0  0.66355614068E+01 -0.65001799191E+00  0.52683811982E+01  0.17141076115E+03  0.17120000000E+03 0.  0.
        998    1    1    2    0    0  0.11250064304E+01 -0.24852860443E+02  0.14231878204E+04  0.14234403754E+04  0.10000000000E+02 0.  1.
</event>
<event>
 5    1  0.1020718E-008  0.3844049E+03  0.7957747E-01  0.3432200E+00
         13   -1    0    0    0    0  0.00000000000E+00  0.00000000000E+00  0.14999999963E+04  0.15000000000E+04  0.10566000000E+00 0.  1.
        994   -1    0    0    0    0 -0.00000000000E+00 -0.00000000000E+00  0.11368683772E-12  0.17120000000E+03  0.17120000000E+03 0.  0.
         13    1    1    2    0    0  0.17852526736E+02 -0.14273423829E+02  0.12968919926E+03  0.13168805150E+03  0.10566000000E+00 0.  1.
        994    1    1    2    0    0 -0.11580587646E+02  0.16424069708E+02  0.32577458633E+01  0.17240624404E+03  0.17120000000E+03 0.  0.
        998    1    1    2    0    0 -0.62719390895E+01 -0.21506458789E+01  0.13670530512E+04  0.13671057045E+04  0.10000000000E+02 0.  1.
</event>
