<event>
 5    1  0.1145138E-008  0.3841907E+03  0.7957747E-01  0.3433112E+00
         13   -1    0    0    0    0  0.00000000000E+00  0.00000000000E+00  0.14999999963E+04  0.15000000000E+04  0.10566000000E+00 0.  1.
        994   -1    0    0    0    0 -0.00000000000E+00 -0.00000000000E+00  0.11368683772E-12  0.17120000000E+03  0.17120000000E+03 0.  0.
         13    1    1    2    0    0 -0.94802846583E+01  0.22611698024E+02  0.13453451150E+03  0.13675054162E+03  0.10566000000E+00 0.  1.
        994    1    1    2    0    0  0.10331154243E+02 -0.24154867521E+02  0.43115695118E+01  0.17325766940E+03  0.17120000000E+03 0.  0.
        998    1    1    2    0    0 -0.85086958478E+00  0.15431694966E+01  0.13611539153E+04  0.13611917890E+04  0.10000000000E+02 0.  1.
</event>
<event>
 5    1  0.1145138E-008  0.3854405E+03  0.7957747E-01  0.3427806E+00
         13   -1    0    0    0    0  0.00000000000E+00  0.00000000000E+00  0.14999999963E+04  0.15000000000E+04  0.10566000000E+00 0.  1.
        994   -1    0    0    0    0 -0.00000000000E+00 -0.00000000000E+00  0.11368683772E-12  0.17120000000E+03  0.17120000000E+03 0.  0.
         13    1    1    2    0    0  0.71679804294E+01 -0.16460876550E+02  0.10781853252E+03  0.10930319080E+03  0.10566000000E+00 0.  1.
        994    1    1    2    0    0 -0.59013643082E+01  0.17588538127E+02  0.25427139169E+01  0.17222104450E+03  0.17120000000E+03 0.  0.
        998    1    1    2    0    0 -0.12666161212E+01 -0.11276615764E+01  0.13896387498E+04  0.13896757647E+04  0.10000000000E+02 0.  1.
</event>
<event>
 5    1  0.1145138E-008  0.3815747E+03  0.7957747E-01  0.3444330E+00
         13   -1    0    0    0    0  0.00000000000E+00  0.00000000000E+00  0.14999999963E+04  0.15000000000E+04  0.10566000000E+00 0. -1.
        994   -1    0    0    0    0 -0.00000000000E+00 -0.00000000000E+00  0.11368683772E-12  0.17120000000E+03  0.17120000000E+03 0.  0.
         13    1    1    2    0    0  0.67510170099E+01  0.13948988488E+02  0.34506432460E+02  0.37826651394E+02  0.10566000000E+00 0. -1.
        994    1    1    2    0    0 -0.58983401858E+01 -0.10661505232E+02  0.38342236933E+01  0.17167585556E+03  0.17120000000E+03 0.  0.
        998    1    1    2    0    0 -0.85267682415E+00 -0.32874832554E+01  0.14616593401E+04  0.14616974930E+04  0.10000000000E+02 0. -1.
</event>
<event>
 5    1  0.1145138E-008  0.3855354E+03  0.7957747E-01  0.3427405E+00
         13   -1    0    0    0    0  0.00000000000E+00  0.00000000000E+00  0.14999999963E+04  0.15000000000E+04  0.10566000000E+00 0.  1.
        994   -1    0    0    0    0 -0.00000000000E+00 -0.00000000000E+00  0.11368683772E-12  0.17120000000E+03  0.17120000000E+03 0.  0.
         13    1    1    2    0    0  0.67057180940E+01 -0.80650386703E+01  0.41696477992E+02  0.42995568898E+02  0.10566000000E+00 0.  1.
        994    1    1    2    0    0  0.28465261254E+02  0.27850318323E+02  0.65884499132E+01  0.17589416989E+03  0.17120000000E+03 0.  0.
        998    1    1    2    0    0 -0.35170979348E+02 -0.19785279652E+02  0.14517150684E+04  0.14523102612E+04  0.10000000000E+02 0.  1.
</event>
<event>
 5    1  0.1145138E-008  0.3841001E+03  0.7957747E-01  0.3433498E+00
         13   -1    0    0    0    0  0.00000000000E+00  0.00000000000E+00  0.14999999963E+04  0.15000000000E+04  0.10566000000E+00 0. -1.
        994   -1    0    0    0    0 -0.00000000000E+00 -0.00000000000E+00  0.11368683772E-12  0.17120000000E+03  0.17120000000E+03 0.  0.
         13    1    1    2    0    0 -0.55857774471E+01  0.12393004461E+02  0.44453163270E+02  0.46485291845E+02  0.10566000000E+00 0. -1.
        994    1    1    2    0    0 -0.16483892383E+01 -0.84308310485E+01  0.23210408937E+01  0.17143110374E+03  0.17120000000E+03 0.  0.
        998    1    1    2    0    0  0.72341666853E+01 -0.39621734122E+01  0.14532257921E+04  0.14532836044E+04  0.10000000000E+02 0. -1.
</event>
<event>
 5    1  0.1145138E-008  0.3850257E+03  0.7957747E-01  0.3429563E+00
         13   -1    0    0    0    0  0.00000000000E+00  0.00000000000E+00  0.14999999963E+04  0.15000000000E+04  0.10566000000E+00 0.  1.
        994   -1    0    0    0    0 -0.00000000000E+00 -0.00000000000E+00  0.11368683772E-12  0.17120000000E+03  0.17120000000E+03 0.  0.
         13    1    1    2    0    0 -0.12504108132E+01 -0.20864227323E+02  0.12462762185E+03  0.12636825077E+03  0.10566000000E+00 0.  1.
        994    1    1    2    0    0 -0.92447075598E+00  0.22429861910E+02  0.32763167522E+01  0.17269663460E+03  0.17120000000E+03 0.  0.
        998    1    1    2    0    0  0.21748815692E+01 -0.15656345874E+01  0.13720960577E+04  0.13721351146E+04  0.10000000000E+02 0.  1.
</event>
<event>
 5    1  0.1145138E-008  0.3850488E+03  0.7957747E-01  0.3429465E+00
         13   -1    0    0    0    0  0.00000000000E+00  0.00000000000E+00  0.14999999963E+04  0.15000000000E+04  0.10566000000E+00 0.  1.
        994   -1    0    0    0    0 -0.00000000000E+00 -0.00000000000E+00  0.11368683772E-12  0.17120000000E+03  0.17120000000E+03 0.  0.
         13    1    1    2    0    0 -0.21129766723E+02 -0.99043487562E+01  0.59005179434E+01  0.24070530573E+02  0.10566000000E+00 0.  1.
        994    1    1    2    0    0  0.28992608952E+02 -0.21005418908E+02  0.23875487847E+02  0.17652557298E+03  0.17120000000E+03 0.  0.
        998    1    1    2    0    0 -0.78628422289E+01  0.30909767664E+02  0.14702239905E+04  0.14706038964E+04  0.10000000000E+02 0.  1.
</event>
<event>
 5    1  0.1145138E-008  0.3791880E+03  0.7957747E-01  0.3454702E+00
         13   -1    0    0    0    0  0.00000000000E+00  0.00000000000E+00  0.14999999963E+04  0.15000000000E+04  0.10566000000E+00 0.  1.
        994   -1    0    0    0    0 -0.00000000000E+00 -0.00000000000E+00  0.11368683772E-12  0.17120000000E+03  0.17120000000E+03 0.  0.
         13    1    1    2    0    0 -0.75297672986E+01  0.69589144194E+01  0.98298776863E+01  0.14204279103E+02  0.10566000000E+00 0.  1.
        994    1    1    2    0    0 -0.38440302975E+01  0.44027602968E+01  0.46581030833E+01  0.17136306134E+03  0.17120000000E+03 0.  0.
        998    1    1    2    0    0  0.11373797596E+02 -0.11361674716E+02  0.14855120155E+04  0.14856326596E+04  0.10000000000E+02 0.  1.
</event>
<event>
 5    1  0.1145138E-008  0.3729106E+03  0.7957747E-01  0.3482620E+00
         13   -1    0    0    0    0  0.00000000000E+00  0.00000000000E+00  0.14999999963E+04  0.15000000000E+04  0.10566000000E+00 0. -1.
        994   -1    0    0    0    0 -0.00000000000E+00 -0.00000000000E+00  0.11368683772E-12  0.17120000000E+03  0.17120000000E+03 0.  0.
         13    1    1    2    0    0  0.73869340274E+01  0.11913759776E+02  0.93213500592E+01  0.16834583372E+02  0.10566000000E+00 0. -1.
        994    1    1    2    0    0 -0.83789052775E+01  0.11851163053E+01  0.80007812713E+01  0.17159563822E+03  0.17120000000E+03 0.  0.
        998    1    1    2    0    0  0.99197125014E+00 -0.13098876082E+02  0.14826778649E+04  0.14827697784E+04  0.10000000000E+02 0. -1.
</event>
<event>
 5    1  0.1145138E-008  0.3851552E+03  0.7957747E-01  0.3429014E+00
         13   -1    0    0    0    0  0.00000000000E+00  0.00000000000E+00  0.14999999963E+04  0.15000000000E+04  0.10566000000E+00 0.  1.
        994   -1    0    0    0    0 -0.00000000000E+00 -0.00000000000E+00  0.11368683772E-12  0.17120000000E+03  0.17120000000E+03 0.  0.
         13    1    1    2    0    0 -0.37755398746E+01  0.16065500312E+02  0.90609406097E+02  0.92100112046E+02  0.10566000000E+00 0.  1.
        994    1    1    2    0    0  0.83531797571E+01 -0.49263135956E+01  0.18622986320E+01  0.17148455421E+03  0.17120000000E+03 0.  0.
        998    1    1    2    0    0 -0.45776398825E+01 -0.11139186717E+02  0.14075282915E+04  0.14076153337E+04  0.10000000000E+02 0.  1.
</event>
<event>
 5    1  0.1145138E-008  0.4186434E+03  0.7957747E-01  0.3298424E+00
         13   -1    0    0    0    0  0.00000000000E+00  0.00000000000E+00  0.14999999963E+04  0.15000000000E+04  0.10566000000E+00 0.  1.
        994   -1    0    0    0    0 -0.00000000000E+00 -0.00000000000E+00  0.11368683772E-12  0.17120000000E+03  0.17120000000E+03 0.  0.
         13    1    1    2    0    0 -0.56553933543E+01 -0.32243867529E+02 -0.22720455583E+01  0.32814993864E+02  0.10566000000E+00 0.  1.
        994    1    1    2    0    0 -0.11149303484E+02  0.23285042389E+02  0.42265257007E+02  0.17821978599E+03  0.17120000000E+03 0.  0.
        998    1    1    2    0    0  0.16804696838E+02  0.89588251402E+01  0.14600067848E+04  0.14601652201E+04  0.10000000000E+02 0.  1.
</event>
<event>
 5    1  0.1145138E-008  0.3834881E+03  0.7957747E-01  0.3436110E+00
         13   -1    0    0    0    0  0.00000000000E+00  0.00000000000E+00  0.14999999963E+04  0.15000000000E+04  0.10566000000E+00 0. -1.
        994   -1    0    0    0    0 -0.00000000000E+00 -0.00000000000E+00  0.11368683772E-12  0.17120000000E+03  0.17120000000E+03 0.  0.
         13    1    1    2    0    0 -0.78841825582E+01 -0.87376959636E+01  0.27621791052E+02  0.30024692676E+02  0.10566000000E+00 0. -1.
        994    1    1    2    0    0  0.14827099153E+02  0.65367522788E+01  0.32508573841E+01  0.17199587226E+03  0.17120000000E+03 0.  0.
        998    1    1    2    0    0 -0.69429165945E+01  0.22009436848E+01  0.14691273478E+04  0.14691794351E+04  0.10000000000E+02 0. -1.
</event>
<event>
 5    1  0.1145138E-008  0.3890916E+03  0.7957747E-01  0.3412502E+00
         13   -1    0    0    0    0  0.00000000000E+00  0.00000000000E+00  0.14999999963E+04  0.15000000000E+04  0.10566000000E+00 0.  1.
        994   -1    0    0    0    0 -0.00000000000E+00 -0.00000000000E+00  0.11368683772E-12  0.17120000000E+03  0.17120000000E+03 0.  0.
         13    1    1    2    0    0 -0.41522522762E+01  0.30464262987E+02  0.13190145843E+02  0.33455995422E+02  0.10566000000E+00 0.  1.
        994    1    1    2    0    0  0.13140355448E+02 -0.22850832701E+02  0.24022723562E+02  0.17487527196E+03  0.17120000000E+03 0.  0.
        998    1    1    2    0    0 -0.89881031714E+01 -0.76134302857E+01  0.14627871269E+04  0.14628687326E+04  0.10000000000E+02 0.  1.
</event>
<event>
 5    1  0.1145138E-008  0.3836765E+03  0.7957747E-01  0.3435305E+00
         13   -1    0    0    0    0  0.00000000000E+00  0.00000000000E+00  0.14999999963E+04  0.15000000000E+04  0.10566000000E+00 0. -1.
        994   -1    0    0    0    0 -0.00000000000E+00 -0.00000000000E+00  0.11368683772E-12  0.17120000000E+03  0.17120000000E+03 0.  0.
         13    1    1    2    0    0 -0.15904024403E+02 -0.10927691683E+02  0.77476444677E+02  0.79843365921E+02  0.10566000000E+00 0. -1.
        994    1    1    2    0    0  0.90035022374E+01  0.21634355010E+02  0.41043592335E+01  0.17284500032E+03  0.17120000000E+03 0.  0.
        998    1    1    2    0    0  0.69005221660E+01 -0.10706663327E+02  0.14184191924E+04  0.14185116338E+04  0.10000000000E+02 0. -1.
</event>
<event>
 5    1  0.2032499E-008  0.3851750E+03  0.7957747E-01  0.3428930E+00
         13   -1    0    0    0    0  0.00000000000E+00  0.00000000000E+00  0.14999999963E+04  0.15000000000E+04  0.10566000000E+00 0.  1.
        994   -1    0    0    0    0 -0.00000000000E+00 -0.00000000000E+00  0.11368683772E-12  0.17120000000E+03  0.17120000000E+03 0.  0.
         13    1    1    2    0    0 -0.69757842832E+01 -0.78802024342E+01  0.35471133538E+02  0.36999616691E+02  0.10566000000E+00 0.  1.
        994    1    1    2    0    0  0.46317594913E+01  0.78937718765E+01  0.18186517716E+01  0.17145411143E+03  0.17120000000E+03 0.  0.
        998    1    1    2    0    0  0.23440247919E+01 -0.13569442311E-01  0.14627102110E+04  0.14627462719E+04  0.10000000000E+02 0.  1.
</event>
<event>
 5    1  0.1145138E-008  0.3804200E+03  0.7957747E-01  0.3449332E+00
         13   -1    0    0    0    0  0.00000000000E+00  0.00000000000E+00  0.14999999963E+04  0.15000000000E+04  0.10566000000E+00 0.  1.
        994   -1    0    0    0    0 -0.00000000000E+00 -0.00000000000E+00  0.11368683772E-12  0.17120000000E+03  0.17120000000E+03 0.  0.
         13    1    1    2    0    0 -0.47749007279E+01  0.18059829304E+02  0.44316443057E+02  0.48092779091E+02  0.10566000000E+00 0.  1.
        994    1    1    2    0    0  0.11502307737E+02 -0.13748964573E+01  0.43693710210E+01  0.17164709385E+03  0.17120000000E+03 0.  0.
        998    1    1    2    0    0 -0.67274070089E+01 -0.16684932847E+02  0.14513141822E+04  0.14514601271E+04  0.10000000000E+02 0.  1.
</event>
<event>
 5    1  0.1145138E-008  0.3801989E+03  0.7957747E-01  0.3450293E+00
         13   -1    0    0    0    0  0.00000000000E+00  0.00000000000E+00  0.14999999963E+04  0.15000000000E+04  0.10566000000E+00 0. -1.
        994   -1    0    0    0    0 -0.00000000000E+00 -0.00000000000E+00  0.11368683772E-12  0.17120000000E+03  0.17120000000E+03 0.  0.
         13    1    1    2    0    0  0.17533740016E+02 -0.27238654113E+02  0.13391787187E+03  0.13778020136E+03  0.10566000000E+00 0. -1.
        994    1    1    2    0    0  0.24335473030E+01  0.16882316465E+02  0.50052929779E+01  0.17212038729E+03  0.17120000000E+03 0.  0.
        998    1    1    2    0    0 -0.19967287319E+02  0.10356337648E+02  0.13610768314E+04  0.13612994114E+04  0.10000000000E+02 0. -1.
</event>
<event>
 5    1  0.1145138E-008  0.3748014E+03  0.7957747E-01  0.3474112E+00
         13   -1    0    0    0    0  0.00000000000E+00  0.00000000000E+00  0.14999999963E+04  0.15000000000E+04  0.10566000000E+00 0.  1.
        994   -1    0    0    0    0 -0.00000000000E+00 -0.00000000000E+00  0.11368683772E-12  0.17120000000E+03  0.17120000000E+03 0.  0.
         13    1    1    2    0    0  0.32355459799E+01 -0.27392596560E+02  0.51784533863E+02  0.58672584872E+02  0.10566000000E+00 0.  1.
        994    1    1    2    0    0 -0.62581736500E+01  0.27593499744E+02  0.95086721317E+01  0.17378268271E+03  0.17120000000E+03 0.  0.
        998    1    1    2    0    0  0.30226276700E+01 -0.20090318377E+00  0.14387067903E+04  0.14387447324E+04  0.10000000000E+02 0.  1.
</event>
<event>
 5    1  0.1145138E-008  0.3770919E+03  0.7957747E-01  0.3463919E+00
         13   -1    0    0    0    0  0.00000000000E+00  0.00000000000E+00  0.14999999963E+04  0.15000000000E+04  0.10566000000E+00 0. -1.
        994   -1    0    0    0    0 -0.00000000000E+00 -0.00000000000E+00  0.11368683772E-12  0.17120000000E+03  0.17120000000E+03 0.  0.
         13    1    1    2    0    0 -0.62120459791E+02 -0.14105542817E+02  0.36506353098E+03  0.37057969545E+03  0.10566000000E+00 0. -1.
        994    1    1    2    0    0  0.28335456515E+02  0.43877420608E+02  0.14872872950E+02  0.17960726178E+03  0.17120000000E+03 0.  0.
        998    1    1    2    0    0  0.33785003276E+02 -0.29771877792E+02  0.11200635924E+04  0.11210130428E+04  0.10000000000E+02 0. -1.
</event>
<event>
 5    1  0.1145138E-008  0.3820663E+03  0.7957747E-01  0.3442210E+00
         13   -1    0    0    0    0  0.00000000000E+00  0.00000000000E+00  0.14999999963E+04  0.15000000000E+04  0.10566000000E+00 0.  1.
        994   -1    0    0    0    0 -0.00000000000E+00 -0.00000000000E+00  0.11368683772E-12  0.17120000000E+03  0.17120000000E+03 0.  0.
         13    1    1    2    0    0 -0.10381482336E+02 -0.23300170762E+02  0.10238218111E+03  0.10551206237E+03  0.10566000000E+00 0.  1.
        994    1    1    2    0    0  0.10933003874E+02  0.15468726879E+02  0.42859392854E+01  0.17229805965E+03  0.17120000000E+03 0.  0.
        998    1    1    2    0    0 -0.55152153794E+00  0.78314438826E+01  0.13933318759E+04  0.13933898780E+04  0.10000000000E+02 0.  1.
</event>
<event>
 5    1  0.1145138E-008  0.3843276E+03  0.7957747E-01  0.3432529E+00
         13   -1    0    0    0    0  0.00000000000E+00  0.00000000000E+00  0.14999999963E+04  0.15000000000E+04  0.10566000000E+00 0. -1.
        994   -1    0    0    0    0 -0.00000000000E+00 -0.00000000000E+00  0.11368683772E-12  0.17120000000E+03  0.17120000000E+03 0.  0.
         13    1    1    2    0    0  0.14507521340E+02 -0.60344495538E+01  0.60262206084E+02  0.62277021469E+02  0.10566000000E+00 0. -1.
        994    1    1    2    0    0 -0.17222653546E+02  0.27765703424E+01  0.29679793719E+01  0.17211210893E+03  0.17120000000E+03 0.  0.
        998    1    1    2    0    0  0.27151322067E+01  0.32578792114E+01  0.14367698108E+04  0.14368108696E+04  0.10000000000E+02 0. -1.
</event>
<event>
 5    1  0.1145138E-008  0.3787743E+03  0.7957747E-01  0.3456513E+00
         13   -1    0    0    0    0  0.00000000000E+00  0.00000000000E+00  0.14999999963E+04  0.15000000000E+04  0.10566000000E+00 0. -1.
        994   -1    0    0    0    0 -0.00000000000E+00 -0.00000000000E+00  0.11368683772E-12  0.17120000000E+03  0.17120000000E+03 0.  0.
         13    1    1    2    0    0  0.17695917776E+01 -0.31912657872E+02  0.11378787882E+03  0.11819154672E+03  0.10566000000E+00 0. -1.
        994    1    1    2    0    0  0.38187506010E+01  0.55455035935E+01  0.49053502691E+01  0.17140256103E+03  0.17120000000E+03 0.  0.
        998    1    1    2    0    0 -0.55883423785E+01  0.26367154278E+02  0.13813067672E+04  0.13816058922E+04  0.10000000000E+02 0. -1.
</event>
<event>
 5    1  0.1145138E-008  0.3803336E+03  0.7957747E-01  0.3449707E+00
         13   -1    0    0    0    0  0.00000000000E+00  0.00000000000E+00  0.14999999963E+04  0.15000000000E+04  0.10566000000E+00 0. -1.
        994   -1    0    0    0    0 -0.00000000000E+00 -0.00000000000E+00  0.11368683772E-12  0.17120000000E+03  0.17120000000E+03 0.  0.
         13    1    1    2    0    0  0.21058939207E+01  0.27817107885E+02  0.99830125405E+02  0.10365467371E+03  0.10566000000E+00 0. -1.
        994    1    1    2    0    0 -0.16054241357E+01 -0.11026831644E+02  0.43795859277E+01  0.17161814932E+03  0.17120000000E+03 0.  0.
        998    1    1    2    0    0 -0.50046978507E+00 -0.16790276242E+02  0.13957902849E+04  0.13959271770E+04  0.10000000000E+02 0. -1.
</event>
<event>
 5    1  0.1145138E-008  0.3858713E+03  0.7957747E-01  0.3425985E+00
         13   -1    0    0    0    0  0.00000000000E+00  0.00000000000E+00  0.14999999963E+04  0.15000000000E+04  0.10566000000E+00 0. -1.
        994   -1    0    0    0    0 -0.00000000000E+00 -0.00000000000E+00  0.11368683772E-12  0.17120000000E+03  0.17120000000E+03 0.  0.
         13    1    1    2    0    0  0.79706633526E+01 -0.81174047132E+01  0.53681299364E+02  0.54873643938E+02  0.10566000000E+00 0. -1.
        994    1    1    2    0    0  0.14518131452E+02  0.30096048731E+02  0.48683621052E+01  0.17449839323E+03  0.17120000000E+03 0.  0.
        998    1    1    2    0    0 -0.22488794805E+02 -0.21978644017E+02  0.14414503348E+04  0.14418279628E+04  0.10000000000E+02 0. -1.
</event>
<event>
 5    1  0.1145138E-008  0.3792534E+03  0.7957747E-01  0.3454416E+00
         13   -1    0    0    0    0  0.00000000000E+00  0.00000000000E+00  0.14999999963E+04  0.15000000000E+04  0.10566000000E+00 0. -1.
        994   -1    0    0    0    0 -0.00000000000E+00 -0.00000000000E+00  0.11368683772E-12  0.17120000000E+03  0.17120000000E+03 0.  0.
         13    1    1    2    0    0 -0.21385972666E+02  0.25453554577E+01  0.54316167468E+02  0.58430265049E+02  0.10566000000E+00 0. -1.
        994    1    1    2    0    0 -0.87254878743E+01  0.64762645653E+01  0.49062988828E+01  0.17161464946E+03  0.17120000000E+03 0.  0.
        998    1    1    2    0    0  0.30111460541E+02 -0.90216200229E+01  0.14407775299E+04  0.14411550855E+04  0.10000000000E+02 0. -1.
</event>
<event>
 5    1  0.1145138E-008  0.3218529E+03  0.7957747E-01  0.3751389E+00
         13   -1    0    0    0    0  0.00000000000E+00  0.00000000000E+00  0.14999999963E+04  0.15000000000E+04  0.10566000000E+00 0.  1.
        994   -1    0    0    0    0 -0.00000000000E+00 -0.00000000000E+00  0.11368683772E-12  0.17120000000E+03  0.17120000000E+03 0.  0.
         13    1    1    2    0    0 -0.44568978506E+01  0.23994465835E+03  0.71928672655E+03  0.75826559276E+03  0.10566000000E+00 0.  1.
        994    1    1    2    0    0  0.22663677130E+02 -0.22119098771E+03  0.23365802573E+03  0.36516381022E+03  0.17120000000E+03 0.  0.
        998    1    1    2    0    0 -0.18206779279E+02 -0.18753670640E+02  0.54705524399E+03  0.54777059702E+03  0.10000000000E+02 0.  1.
</event>
<event>
 5    1  0.1145138E-008  0.3849116E+03  0.7957747E-01  0.3430047E+00
         13   -1    0    0    0    0  0.00000000000E+00  0.00000000000E+00  0.14999999963E+04  0.15000000000E+04  0.10566000000E+00 0. -1.
        994   -1    0    0    0    0 -0.00000000000E+00 -0.00000000000E+00  0.11368683772E-12  0.17120000000E+03  0.17120000000E+03 0.  0.
         13    1    1    2    0    0 -0.96191513133E+01  0.14947691610E+02  0.89233735931E+02  0.90986989996E+02  0.10566000000E+00 0. -1.
        994    1    1    2    0    0  0.11903313758E+02 -0.15110794207E+02  0.28921931045E+01  0.17230156633E+03  0.17120000000E+03 0.  0.
        998    1    1    2    0    0 -0.22841624450E+01  0.16310259714E+00  0.14078740672E+04  0.14079114437E+04  0.10000000000E+02 0. -1.
</event>
<event>
 5    1  0.1145138E-008  0.3727687E+03  0.7957747E-01  0.3483263E+00
         13   -1    0    0    0    0  0.00000000000E+00  0.00000000000E+00  0.14999999963E+04  0.15000000000E+04  0.10566000000E+00 0. -1.
        994   -1    0    0    0    0 -0.00000000000E+00 -0.00000000000E+00  0.11368683772E-12  0.17120000000E+03  0.17120000000E+03 0.  0.
         13    1    1    2    0    0  0.18096376618E+02 -0.25017104311E+01  0.18110724167E+02  0.25724441600E+02  0.10566000000E+00 0. -1.
        994    1    1    2    0    0 -0.13632104070E+02 -0.56905685026E+02  0.19648925579E+02  0.18198794335E+03  0.17120000000E+03 0.  0.
        998    1    1    2    0    0 -0.44642725476E+01  0.59407395458E+02  0.14622403465E+04  0.14634876150E+04  0.10000000000E+02 0. -1.
</event>
<event>
 5    1  0.1145138E-008  0.3845377E+03  0.7957747E-01  0.3431635E+00
         13   -1    0    0    0    0  0.00000000000E+00  0.00000000000E+00  0.14999999963E+04  0.15000000000E+04  0.10566000000E+00 0.  1.
        994   -1    0    0    0    0 -0.00000000000E+00 -0.00000000000E+00  0.11368683772E-12  0.17120000000E+03  0.17120000000E+03 0.  0.
         13    1    1    2    0    0  0.74570451301E+01  0.10101051953E+02  0.41251116554E+02  0.43119653914E+02  0.10566000000E+00 0.  1.
        994    1    1    2    0    0 -0.69780065461E+01 -0.10440475607E+02  0.23794167568E+01  0.17167643324E+03  0.17120000000E+03 0.  0.
        998    1    1    2    0    0 -0.47903858400E+00  0.33942365390E+00  0.14563694630E+04  0.14564039128E+04  0.10000000000E+02 0.  1.
</event>
<event>
 5    1  0.1145138E-008  0.3792628E+03  0.7957747E-01  0.3454375E+00
         13   -1    0    0    0    0  0.00000000000E+00  0.00000000000E+00  0.14999999963E+04  0.15000000000E+04  0.10566000000E+00 0. -1.
        994   -1    0    0    0    0 -0.00000000000E+00 -0.00000000000E+00  0.11368683772E-12  0.17120000000E+03  0.17120000000E+03 0.  0.
         13    1    1    2    0    0 -0.61909411646E+01 -0.32479608083E+02  0.11189937447E+03  0.11668219172E+03  0.10566000000E+00 0. -1.
        994    1    1    2    0    0  0.39587305382E+01  0.32747071814E+02  0.81604888957E+01  0.17453961109E+03  0.17120000000E+03 0.  0.
        998    1    1    2    0    0  0.22322106263E+01 -0.26746373115E+00  0.13799401329E+04  0.13799781972E+04  0.10000000000E+02 0. -1.
</event>
<event>
 5    1  0.1145138E-008  0.3753774E+03  0.7957747E-01  0.3471536E+00
         13   -1    0    0    0    0  0.00000000000E+00  0.00000000000E+00  0.14999999963E+04  0.15000000000E+04  0.10566000000E+00 0.  1.
        994   -1    0    0    0    0 -0.00000000000E+00 -0.00000000000E+00  0.11368683772E-12  0.17120000000E+03  0.17120000000E+03 0.  0.
         13    1    1    2    0    0 -0.32090283313E+02 -0.49340929779E+02  0.27363962383E+03  0.27989813956E+03  0.10566000000E+00 0.  1.
        994    1    1    2    0    0  0.12542535013E+02  0.26745060422E+02  0.94531420927E+01  0.17398682518E+03  0.17120000000E+03 0.  0.
        998    1    1    2    0    0  0.19547748300E+02  0.22595869356E+02  0.12169072304E+04  0.12173150353E+04  0.10000000000E+02 0.  1.
</event>
<event>
 5    1  0.1145138E-008  0.3819753E+03  0.7957747E-01  0.3442603E+00
         13   -1    0    0    0    0  0.00000000000E+00  0.00000000000E+00  0.14999999963E+04  0.15000000000E+04  0.10566000000E+00 0.  1.
        994   -1    0    0    0    0 -0.00000000000E+00 -0.00000000000E+00  0.11368683772E-12  0.17120000000E+03  0.17120000000E+03 0.  0.
         13    1    1    2    0    0 -0.14428065529E+02  0.15643006455E+02  0.78164280504E+02  0.81009497200E+02  0.10566000000E+00 0.  1.
        994    1    1    2    0    0 -0.22260397922E+02 -0.14968505382E+02  0.55329269074E+01  0.17337714598E+03  0.17120000000E+03 0.  0.
        998    1    1    2    0    0  0.36688463451E+02 -0.67450107228E+00  0.14163027889E+04  0.14168133568E+04  0.10000000000E+02 0.  1.
</event>
<event>
 5    1  0.1145138E-008  0.3788505E+03  0.7957747E-01  0.3456179E+00
         13   -1    0    0    0    0  0.00000000000E+00  0.00000000000E+00  0.14999999963E+04  0.15000000000E+04  0.10566000000E+00 0.  1.
        994   -1    0    0    0    0 -0.00000000000E+00 -0.00000000000E+00  0.11368683772E-12  0.17120000000E+03  0.17120000000E+03 0.  0.
         13    1    1    2    0    0 -0.12578012331E+02 -0.26206412231E+02  0.20491064037E+02  0.35565113603E+02  0.10566000000E+00 0.  1.
        994    1    1    2    0    0  0.77338077063E+01  0.18945760067E+02  0.17209695067E+02  0.17327540856E+03  0.17120000000E+03 0.  0.
        998    1    1    2    0    0  0.48442046246E+01  0.72606521641E+01  0.14622992372E+04  0.14623594778E+04  0.10000000000E+02 0.  1.
</event>
<event>
 5    1  0.1145138E-008  0.3944553E+03  0.7957747E-01  0.3390535E+00
         13   -1    0    0    0    0  0.00000000000E+00  0.00000000000E+00  0.14999999963E+04  0.15000000000E+04  0.10566000000E+00 0.  1.
        994   -1    0    0    0    0 -0.00000000000E+00 -0.00000000000E+00  0.11368683772E-12  0.17120000000E+03  0.17120000000E+03 0.  0.
         13    1    1    2    0    0 -0.12866399919E+03 -0.54566412620E+02  0.33417373322E+03  0.36222094530E+03  0.10566000000E+00 0.  1.
        994    1    1    2    0    0  0.10075381329E+03  0.61872507283E+02  0.80291653705E+02  0.22301508403E+03  0.17120000000E+03 0.  0.
        998    1    1    2    0    0  0.27910185902E+02 -0.73060946633E+01  0.10855346094E+04  0.10859639707E+04  0.10000000000E+02 0. -1.
</event>
<event>
 5    1  0.1145138E-008  0.3787716E+03  0.7957747E-01  0.3456525E+00
         13   -1    0    0    0    0  0.00000000000E+00  0.00000000000E+00  0.14999999963E+04  0.15000000000E+04  0.10566000000E+00 0. -1.
        994   -1    0    0    0    0 -0.00000000000E+00 -0.00000000000E+00  0.11368683772E-12  0.17120000000E+03  0.17120000000E+03 0.  0.
         13    1    1    2    0    0  0.10305109042E+02 -0.22701062045E+02  0.69005543276E+02  0.73371040999E+02  0.10566000000E+00 0. -1.
        994    1    1    2    0    0 -0.18489944795E+01 -0.52294444350E+01  0.48577900752E+01  0.17135869979E+03  0.17120000000E+03 0.  0.
        998    1    1    2    0    0 -0.84561145625E+01  0.27930506480E+02  0.14261366629E+04  0.14264702592E+04  0.10000000000E+02 0. -1.
</event>
<event>
 5    1  0.1145138E-008  0.4125965E+03  0.7957747E-01  0.3320450E+00
         13   -1    0    0    0    0  0.00000000000E+00  0.00000000000E+00  0.14999999963E+04  0.15000000000E+04  0.10566000000E+00 0.  1.
        994   -1    0    0    0    0 -0.00000000000E+00 -0.00000000000E+00  0.11368683772E-12  0.17120000000E+03  0.17120000000E+03 0.  0.
         13    1    1    2    0    0  0.11666132219E+02 -0.94757419564E+02  0.94466454186E+02  0.13430930472E+03  0.10566000000E+00 0.  1.
        994    1    1    2    0    0  0.19690896951E+02  0.14094546691E+03  0.12542688617E+03  0.25552827601E+03  0.17120000000E+03 0.  0.
        998    1    1    2    0    0 -0.31357029170E+02 -0.46188047344E+02  0.12801066559E+04  0.12813624193E+04  0.10000000000E+02 0.  1.
</event>
<event>
 5    1  0.1145138E-008  0.3709129E+03  0.7957747E-01  0.3491706E+00
         13   -1    0    0    0    0  0.00000000000E+00  0.00000000000E+00  0.14999999963E+04  0.15000000000E+04  0.10566000000E+00 0.  1.
        994   -1    0    0    0    0 -0.00000000000E+00 -0.00000000000E+00  0.11368683772E-12  0.17120000000E+03  0.17120000000E+03 0.  0.
         13    1    1    2    0    0  0.35987638594E+01 -0.20900926947E+02  0.21678746579E+02  0.30327859566E+02  0.10566000000E+00 0.  1.
        994    1    1    2    0    0  0.24118473444E+02  0.22093150802E+02  0.12489034328E+02  0.17474330903E+03  0.17120000000E+03 0.  0.
        998    1    1    2    0    0 -0.27717237304E+02 -0.11922238544E+01  0.14658322154E+04  0.14661288314E+04  0.10000000000E+02 0.  1.
</event>
<event>
 5    1  0.1145138E-008  0.3843826E+03  0.7957747E-01  0.3432295E+00
         13   -1    0    0    0    0  0.00000000000E+00  0.00000000000E+00  0.14999999963E+04  0.15000000000E+04  0.10566000000E+00 0. -1.
        994   -1    0    0    0    0 -0.00000000000E+00 -0.00000000000E+00  0.11368683772E-12  0.17120000000E+03  0.17120000000E+03 0.  0.
         13    1    1    2    0    0  0.11940405852E+02 -0.32133455059E+01  0.37722832975E+02  0.39697886253E+02  0.10566000000E+00 0. -1.
        994    1    1    2    0    0 -0.18290823841E+02 -0.55571795871E+01  0.31421196478E+01  0.17229262723E+03  0.17120000000E+03 0.  0.
        998    1    1    2    0    0  0.63504179890E+01  0.87705250930E+01  0.14591350437E+04  0.14592094865E+04  0.10000000000E+02 0. -1.
</event>
<event>
 5    1  0.1145138E-008  0.3784495E+03  0.7957747E-01  0.3457938E+00
         13   -1    0    0    0    0  0.00000000000E+00  0.00000000000E+00  0.14999999963E+04  0.15000000000E+04  0.10566000000E+00 0.  1.
        994   -1    0    0    0    0 -0.00000000000E+00 -0.00000000000E+00  0.11368683772E-12  0.17120000000E+03  0.17120000000E+03 0.  0.
         13    1    1    2    0    0  0.17123109173E+02  0.37670615296E+01  0.32464675696E+02  0.36896584563E+02  0.10566000000E+00 0.  1.
        994    1    1    2    0    0  0.21798099285E+02  0.84529523633E+01  0.67567211571E+01  0.17292108841E+03  0.17120000000E+03 0.  0.
        998    1    1    2    0    0 -0.38921208458E+02 -0.12220013893E+02  0.14607785994E+04  0.14613823270E+04  0.10000000000E+02 0.  1.
</event>
<event>
 5    1  0.1145138E-008  0.3799471E+03  0.7957747E-01  0.3451389E+00
         13   -1    0    0    0    0  0.00000000000E+00  0.00000000000E+00  0.14999999963E+04  0.15000000000E+04  0.10566000000E+00 0.  1.
        994   -1    0    0    0    0 -0.00000000000E+00 -0.00000000000E+00  0.11368683772E-12  0.17120000000E+03  0.17120000000E+03 0.  0.
         13    1    1    2    0    0  0.22905852561E+02  0.91963995522E+01  0.72540763405E+02  0.76625226692E+02  0.10566000000E+00 0.  1.
        994    1    1    2    0    0 -0.14280848180E+02  0.57560189946E+00  0.48431224918E+01  0.17186381172E+03  0.17120000000E+03 0.  0.
        998    1    1    2    0    0 -0.86250043809E+01 -0.97720014517E+01  0.14226161104E+04  0.14227109616E+04  0.10000000000E+02 0.  1.
</event>
<event>
 5    1  0.1145138E-008  0.3824016E+03  0.7957747E-01  0.3440768E+00
         13   -1    0    0    0    0  0.00000000000E+00  0.00000000000E+00  0.14999999963E+04  0.15000000000E+04  0.10566000000E+00 0. -1.
        994   -1    0    0    0    0 -0.00000000000E+00 -0.00000000000E+00  0.11368683772E-12  0.17120000000E+03  0.17120000000E+03 0.  0.
         13    1    1    2    0    0  0.27518909608E+01 -0.11713161236E+02  0.23175036695E+02  0.26112536066E+02  0.10566000000E+00 0. -1.
        994    1    1    2    0    0 -0.57720841258E+01  0.13702275407E+02  0.36592637539E+01  0.17188338930E+03  0.17120000000E+03 0.  0.
        998    1    1    2    0    0  0.30201931650E+01 -0.19891141710E+01  0.14731656958E+04  0.14732040746E+04  0.10000000000E+02 0. -1.
</event>
<event>
 5    1  0.1145138E-008  0.3753588E+03  0.7957747E-01  0.3471620E+00
         13   -1    0    0    0    0  0.00000000000E+00  0.00000000000E+00  0.14999999963E+04  0.15000000000E+04  0.10566000000E+00 0.  1.
        994   -1    0    0    0    0 -0.00000000000E+00 -0.00000000000E+00  0.11368683772E-12  0.17120000000E+03  0.17120000000E+03 0.  0.
         13    1    1    2    0    0  0.23093729214E+02  0.32627489860E+02  0.54840382423E+02  0.67862744801E+02  0.10566000000E+00 0.  1.
        994    1    1    2    0    0 -0.32779063973E+02  0.77291118412E+01  0.17852672163E+02  0.17539202977E+03  0.17120000000E+03 0.  0.
        998    1    1    2    0    0  0.96853347590E+01 -0.40356601702E+02  0.14273069417E+04  0.14279452254E+04  0.10000000000E+02 0.  1.
</event>
<event>
 5    1  0.1145138E-008  0.3813917E+03  0.7957747E-01  0.3445121E+00
         13   -1    0    0    0    0  0.00000000000E+00  0.00000000000E+00  0.14999999963E+04  0.15000000000E+04  0.10566000000E+00 0.  1.
        994   -1    0    0    0    0 -0.00000000000E+00 -0.00000000000E+00  0.11368683772E-12  0.17120000000E+03  0.17120000000E+03 0.  0.
         13    1    1    2    0    0  0.96600076381E+01 -0.27933130324E+01  0.13753779220E+02  0.17038073604E+02  0.10566000000E+00 0.  1.
        994    1    1    2    0    0  0.60969188055E+01 -0.33107127210E+01  0.35924775637E+01  0.17137817578E+03  0.17120000000E+03 0.  0.
        998    1    1    2    0    0 -0.15756926444E+02  0.61040257534E+01  0.14826537395E+04  0.14827837506E+04  0.10000000000E+02 0.  1.
</event>
<event>
 5    1  0.1145138E-008  0.3790113E+03  0.7957747E-01  0.3455475E+00
         13   -1    0    0    0    0  0.00000000000E+00  0.00000000000E+00  0.14999999963E+04  0.15000000000E+04  0.10566000000E+00 0. -1.
        994   -1    0    0    0    0 -0.00000000000E+00 -0.00000000000E+00  0.11368683772E-12  0.17120000000E+03  0.17120000000E+03 0.  0.
         13    1    1    2    0    0  0.49937786734E+02  0.15419174667E+02  0.24022929035E+03  0.24584884908E+03  0.10566000000E+00 0. -1.
        994    1    1    2    0    0 -0.52906075167E+02 -0.19456359536E+02  0.15365183697E+02  0.18089536087E+03  0.17120000000E+03 0.  0.
        998    1    1    2    0    0  0.29682884326E+01  0.40371848690E+01  0.12444055222E+04  0.12444557900E+04  0.10000000000E+02 0. -1.
</event>
<event>
 5    1  0.1145138E-008  0.3828415E+03  0.7957747E-01  0.3438878E+00
         13   -1    0    0    0    0  0.00000000000E+00  0.00000000000E+00  0.14999999963E+04  0.15000000000E+04  0.10566000000E+00 0.  1.
        994   -1    0    0    0    0 -0.00000000000E+00 -0.00000000000E+00  0.11368683772E-12  0.17120000000E+03  0.17120000000E+03 0.  0.
         13    1    1    2    0    0  0.12822290100E+02  0.41039983386E+01  0.32335182568E+02  0.35026120560E+02  0.10566000000E+00 0.  1.
        994    1    1    2    0    0 -0.10672236153E+02 -0.34109676479E+01  0.31214395504E+01  0.17159462320E+03  0.17120000000E+03 0.  0.
        998    1    1    2    0    0 -0.21500539473E+01 -0.69303069062E+00  0.14645433742E+04  0.14645792562E+04  0.10000000000E+02 0.  1.
</event>
<event>
 5    1  0.1145138E-008  0.3848772E+03  0.7957747E-01  0.3430193E+00
         13   -1    0    0    0    0  0.00000000000E+00  0.00000000000E+00  0.14999999963E+04  0.15000000000E+04  0.10566000000E+00 0.  1.
        994   -1    0    0    0    0 -0.00000000000E+00 -0.00000000000E+00  0.11368683772E-12  0.17120000000E+03  0.17120000000E+03 0.  0.
         13    1    1    2    0    0 -0.78375137752E+01  0.89431614198E+01  0.40378248358E+02  0.42093002540E+02  0.10566000000E+00 0.  1.
        994    1    1    2    0    0  0.90369480128E+01 -0.10981371251E+02  0.23568342642E+01  0.17180585442E+03  0.17120000000E+03 0.  0.
        998    1    1    2    0    0 -0.11994342375E+01  0.20382098313E+01  0.14572649137E+04  0.14573011430E+04  0.10000000000E+02 0.  1.
</event>
<event>
 5    1  0.1145138E-008  0.3855079E+03  0.7957747E-01  0.3427521E+00
         13   -1    0    0    0    0  0.00000000000E+00  0.00000000000E+00  0.14999999963E+04  0.15000000000E+04  0.10566000000E+00 0. -1.
        994   -1    0    0    0    0 -0.00000000000E+00 -0.00000000000E+00  0.11368683772E-12  0.17120000000E+03  0.17120000000E+03 0.  0.
         13    1    1    2    0    0  0.16904679452E+02  0.44513357150E+01  0.10434571085E+03  0.10579991075E+03  0.10566000000E+00 0. -1.
        994    1    1    2    0    0 -0.19257622735E+02 -0.53262565799E+00  0.25976961844E+01  0.17230010954E+03  0.17120000000E+03 0.  0.
        998    1    1    2    0    0  0.23529432835E+01 -0.39187100570E+01  0.13930565892E+04  0.13930999797E+04  0.10000000000E+02 0. -1.
</event>
<event>
 5    1  0.1145138E-008  0.3829949E+03  0.7957747E-01  0.3438221E+00
         13   -1    0    0    0    0  0.00000000000E+00  0.00000000000E+00  0.14999999963E+04  0.15000000000E+04  0.10566000000E+00 0. -1.
        994   -1    0    0    0    0 -0.00000000000E+00 -0.00000000000E+00  0.11368683772E-12  0.17120000000E+03  0.17120000000E+03 0.  0.
         13    1    1    2    0    0  0.20685712746E+02  0.10674443554E+02  0.99084706453E+02  0.10178228075E+03  0.10566000000E+00 0. -1.
        994    1    1    2    0    0 -0.16542251857E+02 -0.10566288475E+02  0.39053539682E+01  0.17236584447E+03  0.17120000000E+03 0.  0.
        998    1    1    2    0    0 -0.41434608890E+01 -0.10815507968E+00  0.13970099359E+04  0.13970518748E+04  0.10000000000E+02 0. -1.
</event>
<event>
 5    1  0.1145138E-008  0.3802952E+03  0.7957747E-01  0.3449874E+00
         13   -1    0    0    0    0  0.00000000000E+00  0.00000000000E+00  0.14999999963E+04  0.15000000000E+04  0.10566000000E+00 0.  1.
        994   -1    0    0    0    0 -0.00000000000E+00 -0.00000000000E+00  0.11368683772E-12  0.17120000000E+03  0.17120000000E+03 0.  0.
         13    1    1    2    0    0 -0.31014922156E+02 -0.29547087105E+02  0.23872766249E+03  0.24254043736E+03  0.10566000000E+00 0.  1.
        994    1    1    2    0    0 -0.23461953681E+02  0.62856244616E+02  0.19166525345E+02  0.18487337951E+03  0.17120000000E+03 0.  0.
        998    1    1    2    0    0  0.54476875838E+02 -0.33309157511E+02  0.12421058084E+04  0.12437861831E+04  0.10000000000E+02 0.  1.
</event>
<event>
 5    1  0.1145138E-008  0.3773970E+03  0.7957747E-01  0.3462572E+00
         13   -1    0    0    0    0  0.00000000000E+00  0.00000000000E+00  0.14999999963E+04  0.15000000000E+04  0.10566000000E+00 0. -1.
        994   -1    0    0    0    0 -0.00000000000E+00 -0.00000000000E+00  0.11368683772E-12  0.17120000000E+03  0.17120000000E+03 0.  0.
         13    1    1    2    0    0 -0.15470734183E+02 -0.78564927429E+02  0.37373491847E+03  0.38221668185E+03  0.10566000000E+00 0. -1.
        994    1    1    2    0    0  0.60734963943E+02  0.89752094600E+02  0.46137338819E+02  0.20780343684E+03  0.17120000000E+03 0.  0.
        998    1    1    2    0    0 -0.45264229760E+02 -0.11187167171E+02  0.10801277390E+04  0.10811798813E+04  0.10000000000E+02 0. -1.
</event>
<event>
 5    1  0.1145138E-008  0.3820752E+03  0.7957747E-01  0.3442172E+00
         13   -1    0    0    0    0  0.00000000000E+00  0.00000000000E+00  0.14999999963E+04  0.15000000000E+04  0.10566000000E+00 0.  1.
        994   -1    0    0    0    0 -0.00000000000E+00 -0.00000000000E+00  0.11368683772E-12  0.17120000000E+03  0.17120000000E+03 0.  0.
         13    1    1    2    0    0 -0.22258499586E+02 -0.97572267237E+01  0.96791875222E+02  0.99796405497E+02  0.10566000000E+00 0.  1.
        994    1    1    2    0    0  0.51114148794E+01  0.16292306097E+02  0.40578624556E+01  0.17209727496E+03  0.17120000000E+03 0.  0.
        998    1    1    2    0    0  0.17147084706E+02 -0.65350793733E+01  0.13991502586E+04  0.13993063195E+04  0.10000000000E+02 0.  1.
</event>
<event>
 5    1  0.1145138E-008  0.3691710E+03  0.7957747E-01  0.3499709E+00
         13   -1    0    0    0    0  0.00000000000E+00  0.00000000000E+00  0.14999999963E+04  0.15000000000E+04  0.10566000000E+00 0. -1.
        994   -1    0    0    0    0 -0.00000000000E+00 -0.00000000000E+00  0.11368683772E-12  0.17120000000E+03  0.17120000000E+03 0.  0.
         13    1    1    2    0    0  0.10973569980E+02 -0.16307904211E+02  0.13646501322E+02  0.23929169234E+02  0.10566000000E+00 0. -1.
        994    1    1    2    0    0 -0.12888950443E+02  0.14932424198E+02  0.11858638891E+02  0.17274017961E+03  0.17120000000E+03 0.  0.
        998    1    1    2    0    0  0.19153804632E+01  0.13754800134E+01  0.14744948561E+04  0.14745306512E+04  0.10000000000E+02 0. -1.
</event>
<event>
 5    1  0.1145138E-008  0.3739423E+03  0.7957747E-01  0.3477967E+00
         13   -1    0    0    0    0  0.00000000000E+00  0.00000000000E+00  0.14999999963E+04  0.15000000000E+04  0.10566000000E+00 0. -1.
        994   -1    0    0    0    0 -0.00000000000E+00 -0.00000000000E+00  0.11368683772E-12  0.17120000000E+03  0.17120000000E+03 0.  0.
         13    1    1    2    0    0 -0.12894106788E+02 -0.11831631447E+02  0.17709503019E+02  0.24897452757E+02  0.10566000000E+00 0. -1.
        994    1    1    2    0    0  0.14887683924E+02  0.14974985486E+02  0.87454733605E+01  0.17271889482E+03  0.17120000000E+03 0.  0.
        998    1    1    2    0    0 -0.19935771365E+01 -0.31433540381E+01  0.14735450199E+04  0.14735836524E+04  0.10000000000E+02 0. -1.
</event>
<event>
 5    1  0.1145138E-008  0.3696843E+03  0.7957747E-01  0.3497343E+00
         13   -1    0    0    0    0  0.00000000000E+00  0.00000000000E+00  0.14999999963E+04  0.15000000000E+04  0.10566000000E+00 0. -1.
        994   -1    0    0    0    0 -0.00000000000E+00 -0.00000000000E+00  0.11368683772E-12  0.17120000000E+03  0.17120000000E+03 0.  0.
         13    1    1    2    0    0 -0.18733562489E+02  0.12664995969E+03  0.51170525423E+03  0.52747837588E+03  0.10566000000E+00 0. -1.
        994    1    1    2    0    0  0.25227484787E+02 -0.11855311183E+03  0.63993074330E+02  0.21930759192E+03  0.17120000000E+03 0.  0.
        998    1    1    2    0    0 -0.64939222974E+01 -0.80968478562E+01  0.92430166772E+03  0.92441403220E+03  0.10000000000E+02 0.  0.
</event>
<event>
 5    1  0.1145138E-008  0.3726628E+03  0.7957747E-01  0.3483742E+00
         13   -1    0    0    0    0  0.00000000000E+00  0.00000000000E+00  0.14999999963E+04  0.15000000000E+04  0.10566000000E+00 0.  1.
        994   -1    0    0    0    0 -0.00000000000E+00 -0.00000000000E+00  0.11368683772E-12  0.17120000000E+03  0.17120000000E+03 0.  0.
         13    1    1    2    0    0  0.23835389441E+02 -0.35662717466E+02  0.10654078886E+03  0.11485166983E+03  0.10566000000E+00 0.  1.
        994    1    1    2    0    0 -0.21501841317E+02  0.37073467540E+02  0.14203335070E+02  0.17705351141E+03  0.17120000000E+03 0.  0.
        998    1    1    2    0    0 -0.23335481240E+01 -0.14107500732E+01  0.13792558723E+04  0.13792948188E+04  0.10000000000E+02 0.  1.
</event>
<event>
 5    1  0.1145138E-008  0.3814350E+03  0.7957747E-01  0.3444934E+00
         13   -1    0    0    0    0  0.00000000000E+00  0.00000000000E+00  0.14999999963E+04  0.15000000000E+04  0.10566000000E+00 0.  1.
        994   -1    0    0    0    0 -0.00000000000E+00 -0.00000000000E+00  0.11368683772E-12  0.17120000000E+03  0.17120000000E+03 0.  0.
         13    1    1    2    0    0  0.46294602431E+02 -0.66558764336E+01  0.27543212726E+03  0.27937494303E+03  0.10566000000E+00 0.  1.
        994    1    1    2    0    0 -0.43686077462E+02 -0.42782898655E+01  0.98478380314E+01  0.17701185565E+03  0.17120000000E+03 0.  0.
        998    1    1    2    0    0 -0.26085249696E+01  0.10934166299E+02  0.12147200310E+04  0.12148132013E+04  0.10000000000E+02 0.  1.
</event>
<event>
 5    1  0.1145138E-008  0.3849497E+03  0.7957747E-01  0.3429886E+00
         13   -1    0    0    0    0  0.00000000000E+00  0.00000000000E+00  0.14999999963E+04  0.15000000000E+04  0.10566000000E+00 0.  1.
        994   -1    0    0    0    0 -0.00000000000E+00 -0.00000000000E+00  0.11368683772E-12  0.17120000000E+03  0.17120000000E+03 0.  0.
         13    1    1    2    0    0  0.79086735080E+01  0.13971220363E+03  0.33806871497E+03  0.36588593054E+03  0.10566000000E+00 0.  1.
        994    1    1    2    0    0 -0.25842839819E+02 -0.15565775658E+03  0.11792575554E+03  0.26098489108E+03  0.17120000000E+03 0.  0.
        998    1    1    2    0    0  0.17934166311E+02  0.15945552945E+02  0.10440055258E+04  0.10443291784E+04  0.10000000000E+02 0.  1.
</event>
<event>
 5    1  0.1145138E-008  0.3702589E+03  0.7957747E-01  0.3494702E+00
         13   -1    0    0    0    0  0.00000000000E+00  0.00000000000E+00  0.14999999963E+04  0.15000000000E+04  0.10566000000E+00 0. -1.
        994   -1    0    0    0    0 -0.00000000000E+00 -0.00000000000E+00  0.11368683772E-12  0.17120000000E+03  0.17120000000E+03 0.  0.
         13    1    1    2    0    0  0.57681756915E+02  0.98880798508E+02  0.68552906216E+03  0.69502136919E+03  0.10566000000E+00 0. -1.
        994    1    1    2    0    0 -0.41333793216E+02 -0.58843192203E+02  0.27215602489E+02  0.18767294091E+03  0.17120000000E+03 0.  0.
        998    1    1    2    0    0 -0.16347963699E+02 -0.40037606305E+02  0.78725533163E+03  0.78850568991E+03  0.10000000000E+02 0.  1.
</event>
<event>
 5    1  0.1145138E-008  0.3831024E+03  0.7957747E-01  0.3437760E+00
         13   -1    0    0    0    0  0.00000000000E+00  0.00000000000E+00  0.14999999963E+04  0.15000000000E+04  0.10566000000E+00 0.  1.
        994   -1    0    0    0    0 -0.00000000000E+00 -0.00000000000E+00  0.11368683772E-12  0.17120000000E+03  0.17120000000E+03 0.  0.
         13    1    1    2    0    0  0.12620007544E+02  0.19111977981E+02  0.10838950217E+03  0.11078279486E+03  0.10566000000E+00 0.  1.
        994    1    1    2    0    0 -0.22730279911E+02  0.95406801482E+01  0.45886313836E+01  0.17302654635E+03  0.17120000000E+03 0.  0.
        998    1    1    2    0    0  0.10110272368E+02 -0.28652658129E+02  0.13870218627E+04  0.13873906588E+04  0.10000000000E+02 0.  1.
</event>
<event>
 5    1  0.1145138E-008  0.3798000E+03  0.7957747E-01  0.3452030E+00
         13   -1    0    0    0    0  0.00000000000E+00  0.00000000000E+00  0.14999999963E+04  0.15000000000E+04  0.10566000000E+00 0. -1.
        994   -1    0    0    0    0 -0.00000000000E+00 -0.00000000000E+00  0.11368683772E-12  0.17120000000E+03  0.17120000000E+03 0.  0.
         13    1    1    2    0    0 -0.31145689663E+02  0.33455672135E+02  0.19081808819E+03  0.19621643644E+03  0.10566000000E+00 0. -1.
        994    1    1    2    0    0  0.34058239565E+02 -0.54584239972E+02  0.18207580201E+02  0.18379433863E+03  0.17120000000E+03 0.  0.
        998    1    1    2    0    0 -0.29125499015E+01  0.21128567836E+02  0.12909743279E+04  0.12911892249E+04  0.10000000000E+02 0. -1.
</event>
<event>
 5    1  0.1145138E-008  0.3778506E+03  0.7957747E-01  0.3460571E+00
         13   -1    0    0    0    0  0.00000000000E+00  0.00000000000E+00  0.14999999963E+04  0.15000000000E+04  0.10566000000E+00 0. -1.
        994   -1    0    0    0    0 -0.00000000000E+00 -0.00000000000E+00  0.11368683772E-12  0.17120000000E+03  0.17120000000E+03 0.  0.
         13    1    1    2    0    0  0.25726171352E+02 -0.10331922405E+02  0.66107818172E+02  0.71685698019E+02  0.10566000000E+00 0. -1.
        994    1    1    2    0    0 -0.48302385297E+02 -0.16531481558E+02  0.14048196105E+02  0.17920156841E+03  0.17120000000E+03 0.  0.
        998    1    1    2    0    0  0.22576213945E+02  0.26863403963E+02  0.14198439820E+04  0.14203127336E+04  0.10000000000E+02 0. -1.
</event>
<event>
 5    1  0.1145138E-008  0.3856051E+03  0.7957747E-01  0.3427110E+00
         13   -1    0    0    0    0  0.00000000000E+00  0.00000000000E+00  0.14999999963E+04  0.15000000000E+04  0.10566000000E+00 0.  1.
        994   -1    0    0    0    0 -0.00000000000E+00 -0.00000000000E+00  0.11368683772E-12  0.17120000000E+03  0.17120000000E+03 0.  0.
         13    1    1    2    0    0  0.16618811404E+02 -0.15453779336E+03  0.45029825849E+03  0.47636818453E+03  0.10566000000E+00 0.  1.
        994    1    1    2    0    0 -0.35663157644E+02  0.13764608365E+03  0.98727380279E+02  0.24346424948E+03  0.17120000000E+03 0.  0.
        998    1    1    2    0    0  0.19044346241E+02  0.16891709704E+02  0.95097435751E+03  0.95136756599E+03  0.10000000000E+02 0.  0.
</event>
<event>
 5    1  0.1145138E-008  0.3839152E+03  0.7957747E-01  0.3434286E+00
         13   -1    0    0    0    0  0.00000000000E+00  0.00000000000E+00  0.14999999963E+04  0.15000000000E+04  0.10566000000E+00 0.  1.
        994   -1    0    0    0    0 -0.00000000000E+00 -0.00000000000E+00  0.11368683772E-12  0.17120000000E+03  0.17120000000E+03 0.  0.
         13    1    1    2    0    0  0.18721945050E+01 -0.25807906408E+02  0.14312736918E+03  0.14544761297E+03  0.10566000000E+00 0.  1.
        994    1    1    2    0    0 -0.77787760520E+01  0.23993053525E+02  0.42720598097E+01  0.17310074081E+03  0.17120000000E+03 0.  0.
        998    1    1    2    0    0  0.59065815470E+01  0.18148528831E+01  0.13526005673E+04  0.13526516462E+04  0.10000000000E+02 0.  1.
</event>
<event>
 5    1  0.1145138E-008  0.3752036E+03  0.7957747E-01  0.3472313E+00
         13   -1    0    0    0    0  0.00000000000E+00  0.00000000000E+00  0.14999999963E+04  0.15000000000E+04  0.10566000000E+00 0.  1.
        994   -1    0    0    0    0 -0.00000000000E+00 -0.00000000000E+00  0.11368683772E-12  0.17120000000E+03  0.17120000000E+03 0.  0.
         13    1    1    2    0    0 -0.15058301166E+02 -0.40982285657E+02  0.15555712017E+03  0.16156834149E+03  0.10566000000E+00 0.  1.
        994    1    1    2    0    0 -0.72562701300E+02  0.43211593793E+02  0.31202050273E+02  0.19343111280E+03  0.17120000000E+03 0.  0.
        998    1    1    2    0    0  0.87621002465E+02 -0.22293081364E+01  0.13132408258E+04  0.13162005457E+04  0.10000000000E+02 0.  1.
</event>
<event>
 5    1  0.1145138E-008  0.3782162E+03  0.7957747E-01  0.3458962E+00
         13   -1    0    0    0    0  0.00000000000E+00  0.00000000000E+00  0.14999999963E+04  0.15000000000E+04  0.10566000000E+00 0. -1.
        994   -1    0    0    0    0 -0.00000000000E+00 -0.00000000000E+00  0.11368683772E-12  0.17120000000E+03  0.17120000000E+03 0.  0.
         13    1    1    2    0    0 -0.35683149575E+02  0.13227801423E+02  0.13462715124E+03  0.13990261938E+03  0.10566000000E+00 0. -1.
        994    1    1    2    0    0  0.28051265856E+02 -0.17590281801E+02  0.87316746445E+01  0.17459087511E+03  0.17120000000E+03 0.  0.
        998    1    1    2    0    0  0.76318837191E+01  0.43624803781E+01  0.13566411704E+04  0.13567065055E+04  0.10000000000E+02 0. -1.
</event>
<event>
 5    1  0.1145138E-008  0.3857845E+03  0.7957747E-01  0.3426352E+00
         13   -1    0    0    0    0  0.00000000000E+00  0.00000000000E+00  0.14999999963E+04  0.15000000000E+04  0.10566000000E+00 0. -1.
        994   -1    0    0    0    0 -0.00000000000E+00 -0.00000000000E+00  0.11368683772E-12  0.17120000000E+03  0.17120000000E+03 0.  0.
         13    1    1    2    0    0 -0.87925989201E+01 -0.12837668647E+02  0.90550988746E+02  0.91878225162E+02  0.10566000000E+00 0. -1.
        994    1    1    2    0    0  0.21758846838E+02  0.95273806088E+01  0.30941227173E+01  0.17286767191E+03  0.17120000000E+03 0.  0.
        998    1    1    2    0    0 -0.12966247918E+02  0.33102880378E+01  0.14063548848E+04  0.14064541029E+04  0.10000000000E+02 0. -1.
</event>
<event>
 5    1  0.1145138E-008  0.3845915E+03  0.7957747E-01  0.3431406E+00
         13   -1    0    0    0    0  0.00000000000E+00  0.00000000000E+00  0.14999999963E+04  0.15000000000E+04  0.10566000000E+00 0. -1.
        994   -1    0    0    0    0 -0.00000000000E+00 -0.00000000000E+00  0.11368683772E-12  0.17120000000E+03  0.17120000000E+03 0.  0.
         13    1    1    2    0    0  0.12229768404E+02  0.96269886629E+01  0.71974045350E+02  0.73637765542E+02  0.10566000000E+00 0. -1.
        994    1    1    2    0    0 -0.62833711814E+01  0.13402889845E+02  0.25549607905E+01  0.17185774942E+03  0.17120000000E+03 0.  0.
        998    1    1    2    0    0 -0.59463972231E+01 -0.23029878508E+02  0.14254709901E+04  0.14257044850E+04  0.10000000000E+02 0. -1.
</event>
<event>
 5    1  0.1145138E-008  0.3779119E+03  0.7957747E-01  0.3460301E+00
         13   -1    0    0    0    0  0.00000000000E+00  0.00000000000E+00  0.14999999963E+04  0.15000000000E+04  0.10566000000E+00 0. -1.
        994   -1    0    0    0    0 -0.00000000000E+00 -0.00000000000E+00  0.11368683772E-12  0.17120000000E+03  0.17120000000E+03 0.  0.
         13    1    1    2    0    0  0.21492705039E+02 -0.59266567205E+02  0.31404495055E+03  0.32031032529E+03  0.10566000000E+00 0. -1.
        994    1    1    2    0    0 -0.22086910262E+02  0.54597335473E+02  0.16957362301E+02  0.18183974478E+03  0.17120000000E+03 0.  0.
        998    1    1    2    0    0  0.59420522308E+00  0.46692317322E+01  0.11689976834E+04  0.11690499299E+04  0.10000000000E+02 0.  0.
</event>
<event>
 5    1  0.1145138E-008  0.3811448E+03  0.7957747E-01  0.3446189E+00
         13   -1    0    0    0    0  0.00000000000E+00  0.00000000000E+00  0.14999999963E+04  0.15000000000E+04  0.10566000000E+00 0.  1.
        994   -1    0    0    0    0 -0.00000000000E+00 -0.00000000000E+00  0.11368683772E-12  0.17120000000E+03  0.17120000000E+03 0.  0.
         13    1    1    2    0    0  0.17137524329E+02  0.10752541044E+02  0.48969808974E+02  0.52984575435E+02  0.10566000000E+00 0.  1.
        994    1    1    2    0    0 -0.25165463932E+02 -0.51695438096E+02  0.14644873941E+02  0.18118948984E+03  0.17120000000E+03 0.  0.
        998    1    1    2    0    0  0.80279396025E+01  0.40942897052E+02  0.14363853134E+04  0.14370259347E+04  0.10000000000E+02 0.  1.
</event>
<event>
 5    1  0.1145138E-008  0.3722580E+03  0.7957747E-01  0.3485578E+00
         13   -1    0    0    0    0  0.00000000000E+00  0.00000000000E+00  0.14999999963E+04  0.15000000000E+04  0.10566000000E+00 0. -1.
        994   -1    0    0    0    0 -0.00000000000E+00 -0.00000000000E+00  0.11368683772E-12  0.17120000000E+03  0.17120000000E+03 0.  0.
         13    1    1    2    0    0  0.28224608648E+02  0.15582440805E+02  0.67225937805E+02  0.74557218783E+02  0.10566000000E+00 0. -1.
        994    1    1    2    0    0  0.13450331386E+02 -0.87134986864E+01  0.89752827769E+01  0.17218255479E+03  0.17120000000E+03 0.  0.
        998    1    1    2    0    0 -0.41674940034E+02 -0.68689421191E+01  0.14237987757E+04  0.14244602264E+04  0.10000000000E+02 0. -1.
</event>
<event>
 5    1  0.1145138E-008  0.3858147E+03  0.7957747E-01  0.3426224E+00
         13   -1    0    0    0    0  0.00000000000E+00  0.00000000000E+00  0.14999999963E+04  0.15000000000E+04  0.10566000000E+00 0.  1.
        994   -1    0    0    0    0 -0.00000000000E+00 -0.00000000000E+00  0.11368683772E-12  0.17120000000E+03  0.17120000000E+03 0.  0.
         13    1    1    2    0    0 -0.67428075759E+01 -0.11194715815E+02  0.63376909724E+02  0.64710362125E+02  0.10566000000E+00 0.  1.
        994    1    1    2    0    0  0.17942197476E+02  0.16528693374E+02  0.31805984177E+01  0.17295859725E+03  0.17120000000E+03 0.  0.
        998    1    1    2    0    0 -0.11199389900E+02 -0.53339775594E+01  0.14334424881E+04  0.14335310406E+04  0.10000000000E+02 0.  1.
</event>
<event>
 5    1  0.1145138E-008  0.3816867E+03  0.7957747E-01  0.3443847E+00
         13   -1    0    0    0    0  0.00000000000E+00  0.00000000000E+00  0.14999999963E+04  0.15000000000E+04  0.10566000000E+00 0. -1.
        994   -1    0    0    0    0 -0.00000000000E+00 -0.00000000000E+00  0.11368683772E-12  0.17120000000E+03  0.17120000000E+03 0.  0.
         13    1    1    2    0    0  0.16777724190E+02  0.45705729138E+01  0.45120552487E+02  0.48355533153E+02  0.10566000000E+00 0. -1.
        994    1    1    2    0    0 -0.10530592508E+02  0.10122061724E+00  0.36528829989E+01  0.17156248768E+03  0.17120000000E+03 0.  0.
        998    1    1    2    0    0 -0.62471316815E+01 -0.46717935310E+01  0.14512265608E+04  0.14512819792E+04  0.10000000000E+02 0. -1.
</event>
<event>
 5    1  0.1145138E-008  0.3770220E+03  0.7957747E-01  0.3464229E+00
         13   -1    0    0    0    0  0.00000000000E+00  0.00000000000E+00  0.14999999963E+04  0.15000000000E+04  0.10566000000E+00 0. -1.
        994   -1    0    0    0    0 -0.00000000000E+00 -0.00000000000E+00  0.11368683772E-12  0.17120000000E+03  0.17120000000E+03 0.  0.
         13    1    1    2    0    0  0.19997162884E+02 -0.19930402991E+02  0.75695385686E+02  0.80789294247E+02  0.10566000000E+00 0. -1.
        994    1    1    2    0    0  0.63251308275E+01 -0.36625351325E+01  0.58244140286E+01  0.17145490731E+03  0.17120000000E+03 0.  0.
        998    1    1    2    0    0 -0.26322293711E+02  0.23592938124E+02  0.14184801966E+04  0.14189557984E+04  0.10000000000E+02 0. -1.
</event>
<event>
 5    1  0.1145138E-008  0.3711388E+03  0.7957747E-01  0.3490673E+00
         13   -1    0    0    0    0  0.00000000000E+00  0.00000000000E+00  0.14999999963E+04  0.15000000000E+04  0.10566000000E+00 0.  1.
        994   -1    0    0    0    0 -0.00000000000E+00 -0.00000000000E+00  0.11368683772E-12  0.17120000000E+03  0.17120000000E+03 0.  0.
         13    1    1    2    0    0 -0.32873561969E+02 -0.85803709250E+01  0.61984593649E+02  0.70685181301E+02  0.10566000000E+00 0.  1.
        994    1    1    2    0    0  0.28581406478E+02  0.39389151620E+01  0.11547322948E+02  0.17399767963E+03  0.17120000000E+03 0.  0.
        998    1    1    2    0    0  0.42921554915E+01  0.46414557630E+01  0.14264680797E+04  0.14265171391E+04  0.10000000000E+02 0.  1.
</event>
<event>
 5    1  0.1145138E-008  0.3774813E+03  0.7957747E-01  0.3462199E+00
         13   -1    0    0    0    0  0.00000000000E+00  0.00000000000E+00  0.14999999963E+04  0.15000000000E+04  0.10566000000E+00 0. -1.
        994   -1    0    0    0    0 -0.00000000000E+00 -0.00000000000E+00  0.11368683772E-12  0.17120000000E+03  0.17120000000E+03 0.  0.
         13    1    1    2    0    0 -0.15605650651E+02  0.26035378981E+02  0.88088439321E+02  0.93171678084E+02  0.10566000000E+00 0. -1.
        994    1    1    2    0    0 -0.10195340582E+02 -0.12844185080E+02  0.63170392773E+01  0.17209957305E+03  0.17120000000E+03 0.  0.
        998    1    1    2    0    0  0.25800991233E+02 -0.13191193901E+02  0.14055945177E+04  0.14059287489E+04  0.10000000000E+02 0. -1.
</event>
<event>
 5    1  0.1145138E-008  0.3832780E+03  0.7957747E-01  0.3437008E+00
         13   -1    0    0    0    0  0.00000000000E+00  0.00000000000E+00  0.14999999963E+04  0.15000000000E+04  0.10566000000E+00 0. -1.
        994   -1    0    0    0    0 -0.00000000000E+00 -0.00000000000E+00  0.11368683772E-12  0.17120000000E+03  0.17120000000E+03 0.  0.
         13    1    1    2    0    0  0.90666412372E+01  0.23599839712E+02  0.12312177150E+03  0.12569064484E+03  0.10566000000E+00 0. -1.
        994    1    1    2    0    0 -0.51526568488E+01 -0.20094908623E+02  0.39120026563E+01  0.17249666371E+03  0.17120000000E+03 0.  0.
        998    1    1    2    0    0 -0.39139843884E+01 -0.35049310887E+01  0.13729662221E+04  0.13730126915E+04  0.10000000000E+02 0.  0.
</event>
<event>
 5    1  0.1145138E-008  0.3841924E+03  0.7957747E-01  0.3433105E+00
         13   -1    0    0    0    0  0.00000000000E+00  0.00000000000E+00  0.14999999963E+04  0.15000000000E+04  0.10566000000E+00 0. -1.
        994   -1    0    0    0    0 -0.00000000000E+00 -0.00000000000E+00  0.11368683772E-12  0.17120000000E+03  0.17120000000E+03 0.  0.
         13    1    1    2    0    0 -0.24561846360E+02 -0.50240772893E+01  0.15108457543E+03  0.15315053296E+03  0.10566000000E+00 0. -1.
        994    1    1    2    0    0  0.20118979793E+02 -0.90691048613E+01  0.36391462245E+01  0.17265487365E+03  0.17120000000E+03 0.  0.
        998    1    1    2    0    0  0.44428665670E+01  0.14093182151E+02  0.13452762746E+04  0.13453945934E+04  0.10000000000E+02 0. -1.
</event>
<event>
 5    1  0.1145138E-008  0.3847895E+03  0.7957747E-01  0.3430565E+00
         13   -1    0    0    0    0  0.00000000000E+00  0.00000000000E+00  0.14999999963E+04  0.15000000000E+04  0.10566000000E+00 0.  1.
        994   -1    0    0    0    0 -0.00000000000E+00 -0.00000000000E+00  0.11368683772E-12  0.17120000000E+03  0.17120000000E+03 0.  0.
         13    1    1    2    0    0 -0.11598848229E+02 -0.11117587456E+02  0.72029067891E+02  0.73799267045E+02  0.10566000000E+00 0.  1.
        994    1    1    2    0    0  0.99835674957E+01  0.11782570538E+02  0.25199561563E+01  0.17191361426E+03  0.17120000000E+03 0.  0.
        998    1    1    2    0    0  0.16152807333E+01 -0.66498308185E+00  0.14254509722E+04  0.14254871187E+04  0.10000000000E+02 0.  1.
</event>
<event>
 5    1  0.1145138E-008  0.3729256E+03  0.7957747E-01  0.3482552E+00
         13   -1    0    0    0    0  0.00000000000E+00  0.00000000000E+00  0.14999999963E+04  0.15000000000E+04  0.10566000000E+00 0.  1.
        994   -1    0    0    0    0 -0.00000000000E+00 -0.00000000000E+00  0.11368683772E-12  0.17120000000E+03  0.17120000000E+03 0.  0.
         13    1    1    2    0    0 -0.25708120118E+02  0.62046352912E+02  0.30472422432E+03  0.31203769228E+03  0.10566000000E+00 0.  1.
        994    1    1    2    0    0  0.11993986254E+02 -0.28530376758E+02  0.11033691010E+02  0.17432446885E+03  0.17120000000E+03 0.  0.
        998    1    1    2    0    0  0.13714133864E+02 -0.33515976154E+02  0.11842420809E+04  0.11848378389E+04  0.10000000000E+02 0.  1.
</event>
<event>
 5    1  0.1145138E-008  0.3806264E+03  0.7957747E-01  0.3448436E+00
         13   -1    0    0    0    0  0.00000000000E+00  0.00000000000E+00  0.14999999963E+04  0.15000000000E+04  0.10566000000E+00 0.  1.
        994   -1    0    0    0    0 -0.00000000000E+00 -0.00000000000E+00  0.11368683772E-12  0.17120000000E+03  0.17120000000E+03 0.  0.
         13    1    1    2    0    0 -0.20262699951E+02  0.16645176684E+00  0.51361512121E+02  0.55214317047E+02  0.10566000000E+00 0.  1.
        994    1    1    2    0    0  0.18269271596E+02  0.50412348067E+00  0.49323652523E+01  0.17224339944E+03  0.17120000000E+03 0.  0.
        998    1    1    2    0    0  0.19934283550E+01 -0.67057524751E+00  0.14437061189E+04  0.14437422835E+04  0.10000000000E+02 0.  1.
</event>
<event>
 5    1  0.1145138E-008  0.3831164E+03  0.7957747E-01  0.3437700E+00
         13   -1    0    0    0    0  0.00000000000E+00  0.00000000000E+00  0.14999999963E+04  0.15000000000E+04  0.10566000000E+00 0. -1.
        994   -1    0    0    0    0 -0.00000000000E+00 -0.00000000000E+00  0.11368683772E-12  0.17120000000E+03  0.17120000000E+03 0.  0.
         13    1    1    2    0    0  0.20408669092E+02  0.28748545070E+01  0.77376261672E+02  0.80074188081E+02  0.10566000000E+00 0. -1.
        994    1    1    2    0    0 -0.22904115509E+02 -0.57966091561E+01  0.44173943725E+01  0.17287901133E+03  0.17120000000E+03 0.  0.
        998    1    1    2    0    0  0.24954464168E+01  0.29217546490E+01  0.14182063402E+04  0.14182468006E+04  0.10000000000E+02 0. -1.
</event>
<event>
 5    1  0.1145138E-008  0.3694680E+03  0.7957747E-01  0.3498340E+00
         13   -1    0    0    0    0  0.00000000000E+00  0.00000000000E+00  0.14999999963E+04  0.15000000000E+04  0.10566000000E+00 0.  1.
        994   -1    0    0    0    0 -0.00000000000E+00 -0.00000000000E+00  0.11368683772E-12  0.17120000000E+03  0.17120000000E+03 0.  0.
         13    1    1    2    0    0  0.14722225563E+02  0.24030886284E+02  0.38092215930E+02  0.47384127086E+02  0.10566000000E+00 0.  1.
        994    1    1    2    0    0 -0.23193553732E+01 -0.17616077542E+02  0.10641764819E+02  0.17244823210E+03  0.17120000000E+03 0.  0.
        998    1    1    2    0    0 -0.12402870190E+02 -0.64148087426E+01  0.14512660155E+04  0.14513676408E+04  0.10000000000E+02 0.  1.
</event>
<event>
 5    1  0.1145138E-008  0.3796127E+03  0.7957747E-01  0.3452847E+00
         13   -1    0    0    0    0  0.00000000000E+00  0.00000000000E+00  0.14999999963E+04  0.15000000000E+04  0.10566000000E+00 0. -1.
        994   -1    0    0    0    0 -0.00000000000E+00 -0.00000000000E+00  0.11368683772E-12  0.17120000000E+03  0.17120000000E+03 0.  0.
         13    1    1    2    0    0  0.48985483419E+02  0.52842056166E+02  0.43092744010E+03  0.43690997961E+03  0.10566000000E+00 0. -1.
        994    1    1    2    0    0 -0.39736626352E+02 -0.60717627989E+02  0.22160346676E+02  0.18725958130E+03  0.17120000000E+03 0.  0.
        998    1    1    2    0    0 -0.92488570670E+01  0.78755718225E+01  0.10469122095E+04  0.10470304391E+04  0.10000000000E+02 0. -1.
</event>
<event>
 5    1  0.1145138E-008  0.3846208E+03  0.7957747E-01  0.3431282E+00
         13   -1    0    0    0    0  0.00000000000E+00  0.00000000000E+00  0.14999999963E+04  0.15000000000E+04  0.10566000000E+00 0.  1.
        994   -1    0    0    0    0 -0.00000000000E+00 -0.00000000000E+00  0.11368683772E-12  0.17120000000E+03  0.17120000000E+03 0.  0.
         13    1    1    2    0    0  0.11238184338E+02 -0.55858714890E+01  0.42814126861E+02  0.44615685251E+02  0.10566000000E+00 0.  1.
        994    1    1    2    0    0 -0.64331425006E+01  0.83845833414E+01  0.21863549515E+01  0.17153981086E+03  0.17120000000E+03 0.  0.
        998    1    1    2    0    0 -0.48050418373E+01 -0.27987118524E+01  0.14549995145E+04  0.14550445039E+04  0.10000000000E+02 0.  1.
</event>
<event>
 5    1  0.1145138E-008  0.3703226E+03  0.7957747E-01  0.3494410E+00
         13   -1    0    0    0    0  0.00000000000E+00  0.00000000000E+00  0.14999999963E+04  0.15000000000E+04  0.10566000000E+00 0. -1.
        994   -1    0    0    0    0 -0.00000000000E+00 -0.00000000000E+00  0.11368683772E-12  0.17120000000E+03  0.17120000000E+03 0.  0.
         13    1    1    2    0    0 -0.37613995921E+02 -0.40945126561E+02  0.16654769861E+03  0.17558320864E+03  0.10566000000E+00 0. -1.
        994    1    1    2    0    0  0.24322908038E+02  0.23194454763E+02  0.13011941816E+02  0.17495238557E+03  0.17120000000E+03 0.  0.
        998    1    1    2    0    0  0.13291087883E+02  0.17750671798E+02  0.13204403558E+04  0.13206644058E+04  0.10000000000E+02 0. -1.
</event>
<event>
 5    1  0.1145138E-008  0.3772934E+03  0.7957747E-01  0.3463029E+00
         13   -1    0    0    0    0  0.00000000000E+00  0.00000000000E+00  0.14999999963E+04  0.15000000000E+04  0.10566000000E+00 0. -1.
        994   -1    0    0    0    0 -0.00000000000E+00 -0.00000000000E+00  0.11368683772E-12  0.17120000000E+03  0.17120000000E+03 0.  0.
         13    1    1    2    0    0  0.31206170625E+02 -0.19995674545E+02  0.11634185369E+03  0.12210278526E+03  0.10566000000E+00 0. -1.
        994    1    1    2    0    0 -0.21718904723E+02  0.28081229355E+02  0.97684851941E+01  0.17511461837E+03  0.17120000000E+03 0.  0.
        998    1    1    2    0    0 -0.94872659024E+01 -0.80855548101E+01  0.13738896574E+04  0.13739825964E+04  0.10000000000E+02 0. -1.
</event>
<event>
 5    1  0.1145138E-008  0.3791696E+03  0.7957747E-01  0.3454782E+00
         13   -1    0    0    0    0  0.00000000000E+00  0.00000000000E+00  0.14999999963E+04  0.15000000000E+04  0.10566000000E+00 0. -1.
        994   -1    0    0    0    0 -0.00000000000E+00 -0.00000000000E+00  0.11368683772E-12  0.17120000000E+03  0.17120000000E+03 0.  0.
         13    1    1    2    0    0 -0.11540837914E+02 -0.21004666144E+02  0.64725058359E+02  0.69019789069E+02  0.10566000000E+00 0. -1.
        994    1    1    2    0    0 -0.39558273975E+01  0.47792368680E+01  0.46819480984E+01  0.17137634117E+03  0.17120000000E+03 0.  0.
        998    1    1    2    0    0  0.15496665311E+02  0.16225429276E+02  0.14305929898E+04  0.14308038698E+04  0.10000000000E+02 0. -1.
</event>
<event>
 5    1  0.1145138E-008  0.3748168E+03  0.7957747E-01  0.3474043E+00
         13   -1    0    0    0    0  0.00000000000E+00  0.00000000000E+00  0.14999999963E+04  0.15000000000E+04  0.10566000000E+00 0.  1.
        994   -1    0    0    0    0 -0.00000000000E+00 -0.00000000000E+00  0.11368683772E-12  0.17120000000E+03  0.17120000000E+03 0.  0.
         13    1    1    2    0    0 -0.28905034438E+02 -0.47142698111E+01  0.59805371185E+02  0.66591432950E+02  0.10566000000E+00 0.  1.
        994    1    1    2    0    0  0.23063009005E+02  0.49147454297E+01  0.86664555284E+01  0.17303353594E+03  0.17120000000E+03 0.  0.
        998    1    1    2    0    0  0.58420254327E+01 -0.20047561861E+00  0.14315281696E+04  0.14315750311E+04  0.10000000000E+02 0.  1.
</event>
<event>
 5    1  0.1145138E-008  0.3848689E+03  0.7957747E-01  0.3430229E+00
         13   -1    0    0    0    0  0.00000000000E+00  0.00000000000E+00  0.14999999963E+04  0.15000000000E+04  0.10566000000E+00 0. -1.
        994   -1    0    0    0    0 -0.00000000000E+00 -0.00000000000E+00  0.11368683772E-12  0.17120000000E+03  0.17120000000E+03 0.  0.
         13    1    1    2    0    0 -0.13929273321E+02  0.11257705178E+02  0.10650919303E+03  0.10800453669E+03  0.10566000000E+00 0. -1.
        994    1    1    2    0    0 -0.70915800067E+01 -0.39658316691E+01  0.19124988158E+01  0.17140337214E+03  0.17120000000E+03 0.  0.
        998    1    1    2    0    0  0.21020853327E+02 -0.72918735091E+01  0.13915783044E+04  0.13917920912E+04  0.10000000000E+02 0. -1.
</event>
<event>
 5    1  0.1145138E-008  0.3686466E+03  0.7957747E-01  0.3502134E+00
         13   -1    0    0    0    0  0.00000000000E+00  0.00000000000E+00  0.14999999963E+04  0.15000000000E+04  0.10566000000E+00 0.  1.
        994   -1    0    0    0    0 -0.00000000000E+00 -0.00000000000E+00  0.11368683772E-12  0.17120000000E+03  0.17120000000E+03 0.  0.
         13    1    1    2    0    0  0.10367057452E+03  0.18511447433E+02  0.41141066183E+03  0.42467517650E+03  0.10566000000E+00 0.  1.
        994    1    1    2    0    0 -0.99120625650E+02 -0.13370412136E+02  0.45582507004E+02  0.20344746569E+03  0.17120000000E+03 0.  0.
        998    1    1    2    0    0 -0.45499488656E+01 -0.51410352970E+01  0.10430068274E+04  0.10430773578E+04  0.10000000000E+02 0.  1.
</event>
<event>
 5    1  0.1145138E-008  0.3770708E+03  0.7957747E-01  0.3464013E+00
         13   -1    0    0    0    0  0.00000000000E+00  0.00000000000E+00  0.14999999963E+04  0.15000000000E+04  0.10566000000E+00 0.  1.
        994   -1    0    0    0    0 -0.00000000000E+00 -0.00000000000E+00  0.11368683772E-12  0.17120000000E+03  0.17120000000E+03 0.  0.
         13    1    1    2    0    0  0.15135050871E+02 -0.99777242784E+01  0.27260986010E+02  0.32738314998E+02  0.10566000000E+00 0.  1.
        994    1    1    2    0    0 -0.80083569464E+01  0.19862836182E+01  0.58489721511E+01  0.17149848273E+03  0.17120000000E+03 0.  0.
        998    1    1    2    0    0 -0.71266939247E+01  0.79914406603E+01  0.14668900381E+04  0.14669632023E+04  0.10000000000E+02 0.  1.
</event>
<event>
 5    1  0.1145138E-008  0.3831128E+03  0.7957747E-01  0.3437716E+00
         13   -1    0    0    0    0  0.00000000000E+00  0.00000000000E+00  0.14999999963E+04  0.15000000000E+04  0.10566000000E+00 0. -1.
        994   -1    0    0    0    0 -0.00000000000E+00 -0.00000000000E+00  0.11368683772E-12  0.17120000000E+03  0.17120000000E+03 0.  0.
         13    1    1    2    0    0  0.76225627451E+01 -0.16181381174E+02  0.62351766736E+02  0.64866744474E+02  0.10566000000E+00 0. -1.
        994    1    1    2    0    0 -0.24887652993E+01  0.87009500851E+01  0.28410726101E+01  0.17146256786E+03  0.17120000000E+03 0.  0.
        998    1    1    2    0    0 -0.51337974457E+01  0.74804310892E+01  0.14348071569E+04  0.14348706877E+04  0.10000000000E+02 0. -1.
</event>
<event>
 5    1  0.1145138E-008  0.3854949E+03  0.7957747E-01  0.3427576E+00
         13   -1    0    0    0    0  0.00000000000E+00  0.00000000000E+00  0.14999999963E+04  0.15000000000E+04  0.10566000000E+00 0.  1.
        994   -1    0    0    0    0 -0.00000000000E+00 -0.00000000000E+00  0.11368683772E-12  0.17120000000E+03  0.17120000000E+03 0.  0.
         13    1    1    2    0    0  0.15944716355E+01 -0.12623737600E+02  0.51933265961E+02  0.53469396558E+02  0.10566000000E+00 0.  1.
        994    1    1    2    0    0 -0.55793605872E+01  0.28540684230E+02  0.41663051346E+01  0.17370232589E+03  0.17120000000E+03 0.  0.
        998    1    1    2    0    0  0.39848889517E+01 -0.15916946630E+02  0.14439004252E+04  0.14440282776E+04  0.10000000000E+02 0.  1.
</event>
<event>
 5    1  0.1145138E-008  0.3738750E+03  0.7957747E-01  0.3478270E+00
         13   -1    0    0    0    0  0.00000000000E+00  0.00000000000E+00  0.14999999963E+04  0.15000000000E+04  0.10566000000E+00 0. -1.
        994   -1    0    0    0    0 -0.00000000000E+00 -0.00000000000E+00  0.11368683772E-12  0.17120000000E+03  0.17120000000E+03 0.  0.
         13    1    1    2    0    0 -0.24525013581E+02  0.60113484178E+02  0.32296879545E+03  0.32942975165E+03  0.10566000000E+00 0. -1.
        994    1    1    2    0    0  0.12272532565E+02 -0.19174337314E+02  0.90280136822E+01  0.17294280933E+03  0.17120000000E+03 0.  0.
        998    1    1    2    0    0  0.12252481015E+02 -0.40939146864E+02  0.11680031871E+04  0.11688274390E+04  0.10000000000E+02 0. -1.
</event>
<event>
 5    1  0.1145138E-008  0.3762713E+03  0.7957747E-01  0.3467556E+00
         13   -1    0    0    0    0  0.00000000000E+00  0.00000000000E+00  0.14999999963E+04  0.15000000000E+04  0.10566000000E+00 0.  1.
        994   -1    0    0    0    0 -0.00000000000E+00 -0.00000000000E+00  0.11368683772E-12  0.17120000000E+03  0.17120000000E+03 0.  0.
         13    1    1    2    0    0  0.23808018338E+02  0.26979897122E+02  0.39525124786E+02  0.53450755273E+02  0.10566000000E+00 0.  1.
        994    1    1    2    0    0 -0.24828454743E+02 -0.15164987065E+02  0.17325600293E+02  0.17451660501E+03  0.17120000000E+03 0.  0.
        998    1    1    2    0    0  0.10204364051E+01 -0.11814910057E+02  0.14431492712E+04  0.14432326397E+04  0.10000000000E+02 0.  1.
</event>
<event>
 5    1  0.1145138E-008  0.3816411E+03  0.7957747E-01  0.3444044E+00
         13   -1    0    0    0    0  0.00000000000E+00  0.00000000000E+00  0.14999999963E+04  0.15000000000E+04  0.10566000000E+00 0.  1.
        994   -1    0    0    0    0 -0.00000000000E+00 -0.00000000000E+00  0.11368683772E-12  0.17120000000E+03  0.17120000000E+03 0.  0.
         13    1    1    2    0    0 -0.47277690292E+02 -0.44132349847E+02  0.11612318520E+03  0.13291895880E+03  0.10566000000E+00 0.  1.
        994    1    1    2    0    0  0.82670522855E+01  0.52206349798E+02  0.27487627156E+02  0.18127012098E+03  0.17120000000E+03 0.  0.
        998    1    1    2    0    0  0.39010638006E+02 -0.80739999514E+01  0.13563891839E+04  0.13570109202E+04  0.10000000000E+02 0.  1.
</event>
<event>
 5    1  0.1145138E-008  0.3848204E+03  0.7957747E-01  0.3430434E+00
         13   -1    0    0    0    0  0.00000000000E+00  0.00000000000E+00  0.14999999963E+04  0.15000000000E+04  0.10566000000E+00 0. -1.
        994   -1    0    0    0    0 -0.00000000000E+00 -0.00000000000E+00  0.11368683772E-12  0.17120000000E+03  0.17120000000E+03 0.  0.
         13    1    1    2    0    0 -0.14984210319E+02 -0.43264274218E+00  0.64729666320E+02  0.66442867221E+02  0.10566000000E+00 0. -1.
        994    1    1    2    0    0  0.11043680981E+02  0.85803610748E+01  0.23631977537E+01  0.17178652505E+03  0.17120000000E+03 0.  0.
        998    1    1    2    0    0  0.39405293380E+01 -0.81477183326E+01  0.14329071322E+04  0.14329706077E+04  0.10000000000E+02 0. -1.
</event>
<event>
 5    1  0.1145138E-008  0.3803178E+03  0.7957747E-01  0.3449776E+00
         13   -1    0    0    0    0  0.00000000000E+00  0.00000000000E+00  0.14999999963E+04  0.15000000000E+04  0.10566000000E+00 0. -1.
        994   -1    0    0    0    0 -0.00000000000E+00 -0.00000000000E+00  0.11368683772E-12  0.17120000000E+03  0.17120000000E+03 0.  0.
         13    1    1    2    0    0  0.10769631082E+02 -0.82145365922E+00  0.12892251941E+02  0.16819068462E+02  0.10566000000E+00 0. -1.
        994    1    1    2    0    0 -0.10085338898E+02 -0.11298635628E+01  0.43168216280E+01  0.17155484721E+03  0.17120000000E+03 0.  0.
        998    1    1    2    0    0 -0.68429218406E+00  0.19513172220E+01  0.14827909227E+04  0.14828260843E+04  0.10000000000E+02 0. -1.
</event>
<event>
 5    1  0.1145138E-008  0.4603339E+03  0.7957747E-01  0.3161956E+00
         13   -1    0    0    0    0  0.00000000000E+00  0.00000000000E+00  0.14999999963E+04  0.15000000000E+04  0.10566000000E+00 0.  1.
        994   -1    0    0    0    0 -0.00000000000E+00 -0.00000000000E+00  0.11368683772E-12  0.17120000000E+03  0.17120000000E+03 0.  0.
         13    1    1    2    0    0 -0.58705159473E+02  0.24214790761E+02  0.60037973958E+01  0.63786429493E+02  0.10566000000E+00 0.  1.
        994    1    1    2    0    0  0.44964125920E+02 -0.22587371642E+02  0.83843688337E+02  0.19715771872E+03  0.17120000000E+03 0.  0.
        998    1    1    2    0    0  0.13741033552E+02 -0.16274191183E+01  0.14101525105E+04  0.14102558518E+04  0.10000000000E+02 0.  1.
</event>
<event>
 5    1  0.1145138E-008  0.3179852E+03  0.7957747E-01  0.3775438E+00
         13   -1    0    0    0    0  0.00000000000E+00  0.00000000000E+00  0.14999999963E+04  0.15000000000E+04  0.10566000000E+00 0. -1.
        994   -1    0    0    0    0 -0.00000000000E+00 -0.00000000000E+00  0.11368683772E-12  0.17120000000E+03  0.17120000000E+03 0.  0.
         13    1    1    2    0    0  0.66118110135E+02  0.20963688822E+03  0.76055054821E+03  0.79167946603E+03  0.10566000000E+00 0. -1.
        994    1    1    2    0    0 -0.70013273128E+02 -0.17710218770E+03  0.16628087823E+03  0.30532902542E+03  0.17120000000E+03 0.  0.
        998    1    1    2    0    0  0.38951629930E+01 -0.32534700527E+02  0.57316856984E+03  0.57419150855E+03  0.10000000000E+02 0.  1.
</event>
<event>
 5    1  0.1145138E-008  0.3810931E+03  0.7957747E-01  0.3446413E+00
         13   -1    0    0    0    0  0.00000000000E+00  0.00000000000E+00  0.14999999963E+04  0.15000000000E+04  0.10566000000E+00 0. -1.
        994   -1    0    0    0    0 -0.00000000000E+00 -0.00000000000E+00  0.11368683772E-12  0.17120000000E+03  0.17120000000E+03 0.  0.
         13    1    1    2    0    0 -0.29794958612E+02 -0.13517261555E+02  0.13728319494E+03  0.14112810739E+03  0.10566000000E+00 0. -1.
        994    1    1    2    0    0  0.25376831011E+02  0.20285605136E+02  0.71060755545E+01  0.17440018818E+03  0.17120000000E+03 0.  0.
        998    1    1    2    0    0  0.44181276009E+01 -0.67683435807E+01  0.13556107258E+04  0.13556717044E+04  0.10000000000E+02 0. -1.
</event>
<event>
 5    1  0.1145138E-008  0.3792697E+03  0.7957747E-01  0.3454344E+00
         13   -1    0    0    0    0  0.00000000000E+00  0.00000000000E+00  0.14999999963E+04  0.15000000000E+04  0.10566000000E+00 0.  1.
        994   -1    0    0    0    0 -0.00000000000E+00 -0.00000000000E+00  0.11368683772E-12  0.17120000000E+03  0.17120000000E+03 0.  0.
         13    1    1    2    0    0 -0.12664393090E+02  0.42706997681E+01  0.17701163502E+02  0.22180353518E+02  0.10566000000E+00 0.  1.
        994    1    1    2    0    0  0.13038486670E+02 -0.61045507571E+01  0.51970810173E+01  0.17188285931E+03  0.17120000000E+03 0.  0.
        998    1    1    2    0    0 -0.37409357998E+00  0.18338509891E+01  0.14771017518E+04  0.14771367872E+04  0.10000000000E+02 0.  1.
</event>
<event>
 5    1  0.1145138E-008  0.3907070E+03  0.7957747E-01  0.3405823E+00
         13   -1    0    0    0    0  0.00000000000E+00  0.00000000000E+00  0.14999999963E+04  0.15000000000E+04  0.10566000000E+00 0.  1.
        994   -1    0    0    0    0 -0.00000000000E+00 -0.00000000000E+00  0.11368683772E-12  0.17120000000E+03  0.17120000000E+03 0.  0.
         13    1    1    2    0    0  0.41135011382E+02 -0.73467522717E+01  0.31276863054E+02  0.52194992642E+02  0.10566000000E+00 0.  1.
        994    1    1    2    0    0 -0.23475416369E+02 -0.42533674000E+01  0.24487544677E+02  0.17458025705E+03  0.17120000000E+03 0.  0.
        998    1    1    2    0    0 -0.17659595013E+02  0.11600119672E+02  0.14442355885E+04  0.14444247503E+04  0.10000000000E+02 0.  1.
</event>
<event>
 5    1  0.1145138E-008  0.3794529E+03  0.7957747E-01  0.3453544E+00
         13   -1    0    0    0    0  0.00000000000E+00  0.00000000000E+00  0.14999999963E+04  0.15000000000E+04  0.10566000000E+00 0. -1.
        994   -1    0    0    0    0 -0.00000000000E+00 -0.00000000000E+00  0.11368683772E-12  0.17120000000E+03  0.17120000000E+03 0.  0.
         13    1    1    2    0    0 -0.41893541251E+02 -0.10686081685E+02  0.17518340162E+03  0.18043973096E+03  0.10566000000E+00 0. -1.
        994    1    1    2    0    0  0.54507905177E+02  0.24766904596E+01  0.14445606755E+02  0.18026469781E+03  0.17120000000E+03 0.  0.
        998    1    1    2    0    0 -0.12614363926E+02  0.82093912255E+01  0.13103709879E+04  0.13104955712E+04  0.10000000000E+02 0. -1.
</event>
<event>
 5    1  0.1145138E-008  0.3825504E+03  0.7957747E-01  0.3440128E+00
         13   -1    0    0    0    0  0.00000000000E+00  0.00000000000E+00  0.14999999963E+04  0.15000000000E+04  0.10566000000E+00 0. -1.
        994   -1    0    0    0    0 -0.00000000000E+00 -0.00000000000E+00  0.11368683772E-12  0.17120000000E+03  0.17120000000E+03 0.  0.
         13    1    1    2    0    0  0.13437549461E+02  0.11384452632E+02  0.51656861339E+02  0.54576698184E+02  0.10566000000E+00 0. -1.
        994    1    1    2    0    0 -0.13957039526E+02 -0.13562352140E+02  0.41077180473E+01  0.17235152943E+03  0.17120000000E+03 0.  0.
        998    1    1    2    0    0  0.51949006468E+00  0.21778995089E+01  0.14442354169E+04  0.14442717724E+04  0.10000000000E+02 0. -1.
</event>
<event>
 5    1  0.1145138E-008  0.3838373E+03  0.7957747E-01  0.3434618E+00
         13   -1    0    0    0    0  0.00000000000E+00  0.00000000000E+00  0.14999999963E+04  0.15000000000E+04  0.10566000000E+00 0. -1.
        994   -1    0    0    0    0 -0.00000000000E+00 -0.00000000000E+00  0.11368683772E-12  0.17120000000E+03  0.17120000000E+03 0.  0.
         13    1    1    2    0    0 -0.20588729627E+02  0.19669305666E+01  0.90535440173E+02  0.92867872242E+02  0.10566000000E+00 0. -1.
        994    1    1    2    0    0  0.22523463571E+02 -0.35332623527E+01  0.39262350951E+01  0.17275602935E+03  0.17120000000E+03 0.  0.
        998    1    1    2    0    0 -0.19347339447E+01  0.15663317861E+01  0.14055383210E+04  0.14055760984E+04  0.10000000000E+02 0. -1.
</event>
<event>
 5    1  0.1145138E-008  0.3840756E+03  0.7957747E-01  0.3433602E+00
         13   -1    0    0    0    0  0.00000000000E+00  0.00000000000E+00  0.14999999963E+04  0.15000000000E+04  0.10566000000E+00 0. -1.
        994   -1    0    0    0    0 -0.00000000000E+00 -0.00000000000E+00  0.11368683772E-12  0.17120000000E+03  0.17120000000E+03 0.  0.
         13    1    1    2    0    0  0.13275401374E+01  0.16617643205E+02  0.64629894241E+02  0.66745358057E+02  0.10566000000E+00 0. -1.
        994    1    1    2    0    0 -0.68235593517E+01 -0.14376364394E+02  0.29255639071E+01  0.17196290222E+03  0.17120000000E+03 0.  0.
        998    1    1    2    0    0  0.54960192143E+01 -0.22412788108E+01  0.14324445381E+04  0.14324917397E+04  0.10000000000E+02 0. -1.
</event>
<event>
 5    1  0.1145138E-008  0.3819846E+03  0.7957747E-01  0.3442562E+00
         13   -1    0    0    0    0  0.00000000000E+00  0.00000000000E+00  0.14999999963E+04  0.15000000000E+04  0.10566000000E+00 0. -1.
        994   -1    0    0    0    0 -0.00000000000E+00 -0.00000000000E+00  0.11368683772E-12  0.17120000000E+03  0.17120000000E+03 0.  0.
         13    1    1    2    0    0 -0.29609786036E+02  0.74933857595E+01  0.13779648435E+03  0.14114096685E+03  0.10566000000E+00 0. -1.
        994    1    1    2    0    0  0.31260591975E+02  0.63310588676E+01  0.65206469908E+01  0.17426779896E+03  0.17120000000E+03 0.  0.
        998    1    1    2    0    0 -0.16508059392E+01 -0.13824444627E+02  0.13556828649E+04  0.13557912342E+04  0.10000000000E+02 0. -1.
</event>
<event>
 5    1  0.1145138E-008  0.3800157E+03  0.7957747E-01  0.3451090E+00
         13   -1    0    0    0    0  0.00000000000E+00  0.00000000000E+00  0.14999999963E+04  0.15000000000E+04  0.10566000000E+00 0.  1.
        994   -1    0    0    0    0 -0.00000000000E+00 -0.00000000000E+00  0.11368683772E-12  0.17120000000E+03  0.17120000000E+03 0.  0.
         13    1    1    2    0    0  0.29917566762E+02  0.51399652058E+00  0.10852221467E+03  0.11257178703E+03  0.10566000000E+00 0.  1.
        994    1    1    2    0    0 -0.15617210667E+02 -0.10989038150E+01  0.49449509246E+01  0.17198545694E+03  0.17120000000E+03 0.  0.
        998    1    1    2    0    0 -0.14300356095E+02  0.58490729437E+00  0.13865328307E+04  0.13866427560E+04  0.10000000000E+02 0.  1.
</event>
<event>
 5    1  0.1145138E-008  0.3836837E+03  0.7957747E-01  0.3435274E+00
         13   -1    0    0    0    0  0.00000000000E+00  0.00000000000E+00  0.14999999963E+04  0.15000000000E+04  0.10566000000E+00 0.  1.
        994   -1    0    0    0    0 -0.00000000000E+00 -0.00000000000E+00  0.11368683772E-12  0.17120000000E+03  0.17120000000E+03 0.  0.
         13    1    1    2    0    0 -0.18368626269E+02  0.79374143352E+01  0.90536700006E+02  0.92721702904E+02  0.10566000000E+00 0.  1.
        994    1    1    2    0    0  0.73376805517E+01  0.33079539228E+00  0.24632660588E+01  0.17137519850E+03  0.17120000000E+03 0.  0.
        998    1    1    2    0    0  0.11030945718E+02 -0.82682097274E+01  0.14070000302E+04  0.14071030986E+04  0.10000000000E+02 0.  1.
</event>
<event>
 5    1  0.1145138E-008  0.3854002E+03  0.7957747E-01  0.3427977E+00
         13   -1    0    0    0    0  0.00000000000E+00  0.00000000000E+00  0.14999999963E+04  0.15000000000E+04  0.10566000000E+00 0.  1.
        994   -1    0    0    0    0 -0.00000000000E+00 -0.00000000000E+00  0.11368683772E-12  0.17120000000E+03  0.17120000000E+03 0.  0.
         13    1    1    2    0    0 -0.94830378279E+01 -0.13098799926E+02  0.92863072839E+02  0.94260638800E+02  0.10566000000E+00 0.  1.
        994    1    1    2    0    0  0.12427203503E+02  0.21222113091E+01  0.19537805332E+01  0.17167468196E+03  0.17120000000E+03 0.  0.
        998    1    1    2    0    0 -0.29441656754E+01  0.10976588617E+02  0.14051831429E+04  0.14052646792E+04  0.10000000000E+02 0.  1.
</event>
<event>
 5    1  0.1145138E-008  0.3859063E+03  0.7957747E-01  0.3425838E+00
         13   -1    0    0    0    0  0.00000000000E+00  0.00000000000E+00  0.14999999963E+04  0.15000000000E+04  0.10566000000E+00 0. -1.
        994   -1    0    0    0    0 -0.00000000000E+00 -0.00000000000E+00  0.11368683772E-12  0.17120000000E+03  0.17120000000E+03 0.  0.
         13    1    1    2    0    0  0.98734090479E+01 -0.75378146553E+01  0.61944981624E+02  0.63178277663E+02  0.10566000000E+00 0. -1.
        994    1    1    2    0    0 -0.16842323896E+02  0.63150927331E+01  0.22424908151E+01  0.17215694304E+03  0.17120000000E+03 0.  0.
        998    1    1    2    0    0  0.69689148482E+01  0.12227219222E+01  0.14358125238E+04  0.14358647793E+04  0.10000000000E+02 0. -1.
</event>
<event>
 5    1  0.1145138E-008  0.2322840E+03  0.7957747E-01  0.4541448E+00
         13   -1    0    0    0    0  0.00000000000E+00  0.00000000000E+00  0.14999999963E+04  0.15000000000E+04  0.10566000000E+00 0.  1.
        994   -1    0    0    0    0 -0.00000000000E+00 -0.00000000000E+00  0.11368683772E-12  0.17120000000E+03  0.17120000000E+03 0.  0.
         13    1    1    2    0    0  0.79880746533E+02  0.13278510078E+03  0.19463286284E+03  0.24878661362E+03  0.10566000000E+00 0.  1.
        994    1    1    2    0    0 -0.63290075375E+02 -0.13642348308E+03  0.16370500079E+03  0.28058112492E+03  0.17120000000E+03 0.  0.
        998    1    1    2    0    0 -0.16590671158E+02  0.36383822973E+01  0.11416621326E+04  0.11418322615E+04  0.10000000000E+02 0.  1.
</event>
<event>
 5    1  0.1145138E-008  0.3836870E+03  0.7957747E-01  0.3435260E+00
         13   -1    0    0    0    0  0.00000000000E+00  0.00000000000E+00  0.14999999963E+04  0.15000000000E+04  0.10566000000E+00 0. -1.
        994   -1    0    0    0    0 -0.00000000000E+00 -0.00000000000E+00  0.11368683772E-12  0.17120000000E+03  0.17120000000E+03 0.  0.
         13    1    1    2    0    0  0.20983763357E+01 -0.26286564565E+02  0.15236404219E+03  0.15462923131E+03  0.10566000000E+00 0. -1.
        994    1    1    2    0    0  0.11674173900E+01  0.15479719221E+02  0.30797202639E+01  0.17192995448E+03  0.17120000000E+03 0.  0.
        998    1    1    2    0    0 -0.32657937257E+01  0.10806845344E+02  0.13445562338E+04  0.13446408142E+04  0.10000000000E+02 0. -1.
</event>
<event>
 5    1  0.1145138E-008  0.3891115E+03  0.7957747E-01  0.3412420E+00
         13   -1    0    0    0    0  0.00000000000E+00  0.00000000000E+00  0.14999999963E+04  0.15000000000E+04  0.10566000000E+00 0. -1.
        994   -1    0    0    0    0 -0.00000000000E+00 -0.00000000000E+00  0.11368683772E-12  0.17120000000E+03  0.17120000000E+03 0.  0.
         13    1    1    2    0    0  0.28551678766E+01 -0.23512027840E+02  0.51260705442E+01  0.24233348922E+02  0.10566000000E+00 0. -1.
        994    1    1    2    0    0  0.50019262873E+02 -0.56959703206E+02  0.43306777577E+02  0.19217505414E+03  0.17120000000E+03 0.  0.
        998    1    1    2    0    0 -0.52874430750E+02  0.80471731046E+02  0.14515671482E+04  0.14547915969E+04  0.10000000000E+02 0. -1.
</event>
<event>
 5    1  0.1145138E-008  0.3746823E+03  0.7957747E-01  0.3474645E+00
         13   -1    0    0    0    0  0.00000000000E+00  0.00000000000E+00  0.14999999963E+04  0.15000000000E+04  0.10566000000E+00 0.  1.
        994   -1    0    0    0    0 -0.00000000000E+00 -0.00000000000E+00  0.11368683772E-12  0.17120000000E+03  0.17120000000E+03 0.  0.
         13    1    1    2    0    0  0.53780118367E+02  0.59652172972E+02  0.19366371129E+03  0.20965764261E+03  0.10566000000E+00 0.  1.
        994    1    1    2    0    0 -0.67271220143E+02 -0.63894141092E+02  0.44701579226E+02  0.19978876222E+03  0.17120000000E+03 0.  0.
        998    1    1    2    0    0  0.13491101776E+02  0.42419681206E+01  0.12616347058E+04  0.12617535952E+04  0.10000000000E+02 0.  1.
</event>
<event>
 5    1  0.1145138E-008  0.3848479E+03  0.7957747E-01  0.3430318E+00
         13   -1    0    0    0    0  0.00000000000E+00  0.00000000000E+00  0.14999999963E+04  0.15000000000E+04  0.10566000000E+00 0.  1.
        994   -1    0    0    0    0 -0.00000000000E+00 -0.00000000000E+00  0.11368683772E-12  0.17120000000E+03  0.17120000000E+03 0.  0.
         13    1    1    2    0    0  0.53254166303E+01 -0.13457752853E+02  0.68024149869E+02  0.69546871271E+02  0.10566000000E+00 0.  1.
        994    1    1    2    0    0  0.53378864312E+01 -0.48609025016E+01  0.18771854020E+01  0.17136243821E+03  0.17120000000E+03 0.  0.
        998    1    1    2    0    0 -0.10663303061E+02  0.18318655354E+02  0.14300986610E+04  0.14302906905E+04  0.10000000000E+02 0.  1.
</event>
<event>
 5    1  0.1145138E-008  0.3807794E+03  0.7957747E-01  0.3447772E+00
         13   -1    0    0    0    0  0.00000000000E+00  0.00000000000E+00  0.14999999963E+04  0.15000000000E+04  0.10566000000E+00 0. -1.
        994   -1    0    0    0    0 -0.00000000000E+00 -0.00000000000E+00  0.11368683772E-12  0.17120000000E+03  0.17120000000E+03 0.  0.
         13    1    1    2    0    0  0.20465358504E+02 -0.11649932847E+02  0.65392407641E+02  0.69503452973E+02  0.10566000000E+00 0. -1.
        994    1    1    2    0    0 -0.39085035632E+02  0.11420791736E+02  0.92886143408E+01  0.17622086383E+03  0.17120000000E+03 0.  0.
        998    1    1    2    0    0  0.18619677128E+02  0.22914111060E+00  0.14253189743E+04  0.14254756832E+04  0.10000000000E+02 0. -1.
</event>
<event>
 5    1  0.1145138E-008  0.3841894E+03  0.7957747E-01  0.3433117E+00
         13   -1    0    0    0    0  0.00000000000E+00  0.00000000000E+00  0.14999999963E+04  0.15000000000E+04  0.10566000000E+00 0. -1.
        994   -1    0    0    0    0 -0.00000000000E+00 -0.00000000000E+00  0.11368683772E-12  0.17120000000E+03  0.17120000000E+03 0.  0.
         13    1    1    2    0    0 -0.70839945267E+01 -0.11243235143E+02  0.42660626765E+02  0.44682586708E+02  0.10566000000E+00 0. -1.
        994    1    1    2    0    0  0.48671574560E+01  0.94333791314E+01  0.24047589733E+01  0.17154562288E+03  0.17120000000E+03 0.  0.
        998    1    1    2    0    0  0.22168370707E+01  0.18098560118E+01  0.14549346105E+04  0.14549717904E+04  0.10000000000E+02 0.  0.
</event>
<event>
 5    1  0.1145138E-008  0.3799236E+03  0.7957747E-01  0.3451491E+00
         13   -1    0    0    0    0  0.00000000000E+00  0.00000000000E+00  0.14999999963E+04  0.15000000000E+04  0.10566000000E+00 0.  1.
        994   -1    0    0    0    0 -0.00000000000E+00 -0.00000000000E+00  0.11368683772E-12  0.17120000000E+03  0.17120000000E+03 0.  0.
         13    1    1    2    0    0 -0.97690381435E+00  0.25709635642E+02  0.74576506092E+02  0.78889835409E+02  0.10566000000E+00 0.  1.
        994    1    1    2    0    0  0.30889176541E+01 -0.25665389274E+02  0.64094015522E+01  0.17325926829E+03  0.17120000000E+03 0.  0.
        998    1    1    2    0    0 -0.21120138398E+01 -0.44246368357E-01  0.14190140886E+04  0.14190508963E+04  0.10000000000E+02 0.  1.
</event>
<event>
 5    1  0.1145138E-008  0.3804323E+03  0.7957747E-01  0.3449278E+00
         13   -1    0    0    0    0  0.00000000000E+00  0.00000000000E+00  0.14999999963E+04  0.15000000000E+04  0.10566000000E+00 0.  1.
        994   -1    0    0    0    0 -0.00000000000E+00 -0.00000000000E+00  0.11368683772E-12  0.17120000000E+03  0.17120000000E+03 0.  0.
         13    1    1    2    0    0 -0.15012693688E+02  0.34744982949E+01  0.28190732601E+02  0.32127584391E+02  0.10566000000E+00 0.  1.
        994    1    1    2    0    0  0.17013301399E+02 -0.29593110217E+01  0.49111975971E+01  0.17213880971E+03  0.17120000000E+03 0.  0.
        998    1    1    2    0    0 -0.20006077109E+01 -0.51518727319E+00  0.14668980661E+04  0.14669336059E+04  0.10000000000E+02 0.  1.
</event>
<event>
 5    1  0.1145138E-008  0.3701220E+03  0.7957747E-01  0.3495330E+00
         13   -1    0    0    0    0  0.00000000000E+00  0.00000000000E+00  0.14999999963E+04  0.15000000000E+04  0.10566000000E+00 0. -1.
        994   -1    0    0    0    0 -0.00000000000E+00 -0.00000000000E+00  0.11368683772E-12  0.17120000000E+03  0.17120000000E+03 0.  0.
         13    1    1    2    0    0 -0.35824357388E+02 -0.17878529442E+02  0.80954148811E+02  0.90313962215E+02  0.10566000000E+00 0. -1.
        994    1    1    2    0    0  0.32020244527E+02  0.15118754438E+02  0.13551327289E+02  0.17534808601E+03  0.17120000000E+03 0.  0.
        998    1    1    2    0    0  0.38041128613E+01  0.27597750044E+01  0.14054945202E+04  0.14055379518E+04  0.10000000000E+02 0. -1.
</event>
<event>
 5    1  0.1145138E-008  0.3794034E+03  0.7957747E-01  0.3453761E+00
         13   -1    0    0    0    0  0.00000000000E+00  0.00000000000E+00  0.14999999963E+04  0.15000000000E+04  0.10566000000E+00 0.  1.
        994   -1    0    0    0    0 -0.00000000000E+00 -0.00000000000E+00  0.11368683772E-12  0.17120000000E+03  0.17120000000E+03 0.  0.
         13    1    1    2    0    0  0.22569603721E+02 -0.28120515131E+02  0.14921668344E+03  0.15351149848E+03  0.10566000000E+00 0.  1.
        994    1    1    2    0    0 -0.53850397659E+01  0.17064763806E+02  0.55078870190E+01  0.17222073521E+03  0.17120000000E+03 0.  0.
        998    1    1    2    0    0 -0.17184563956E+02  0.11055751326E+02  0.13452754258E+04  0.13454677663E+04  0.10000000000E+02 0.  1.
</event>
<event>
 5    1  0.1145138E-008  0.3848619E+03  0.7957747E-01  0.3430258E+00
         13   -1    0    0    0    0  0.00000000000E+00  0.00000000000E+00  0.14999999963E+04  0.15000000000E+04  0.10566000000E+00 0. -1.
        994   -1    0    0    0    0 -0.00000000000E+00 -0.00000000000E+00  0.11368683772E-12  0.17120000000E+03  0.17120000000E+03 0.  0.
         13    1    1    2    0    0 -0.27782848419E+01  0.21331920761E+02  0.12464426671E+03  0.12648705111E+03  0.10566000000E+00 0. -1.
        994    1    1    2    0    0  0.32767972618E+02 -0.21375389630E+02  0.67510172131E+01  0.17574317496E+03  0.17120000000E+03 0.  0.
        998    1    1    2    0    0 -0.29989687777E+02  0.43468869258E-01  0.13686047124E+04  0.13689697739E+04  0.10000000000E+02 0. -1.
</event>
<event>
 5    1  0.1145138E-008  0.3758288E+03  0.7957747E-01  0.3469525E+00
         13   -1    0    0    0    0  0.00000000000E+00  0.00000000000E+00  0.14999999963E+04  0.15000000000E+04  0.10566000000E+00 0. -1.
        994   -1    0    0    0    0 -0.00000000000E+00 -0.00000000000E+00  0.11368683772E-12  0.17120000000E+03  0.17120000000E+03 0.  0.
         13    1    1    2    0    0  0.13161278161E+02  0.21142321783E+01  0.11336692973E+02  0.17499171184E+02  0.10566000000E+00 0. -1.
        994    1    1    2    0    0 -0.12874948885E+02 -0.40795864492E+00  0.68164164064E+01  0.17181919064E+03  0.17120000000E+03 0.  0.
        998    1    1    2    0    0 -0.28632927562E+00 -0.17062735334E+01  0.14818468869E+04  0.14818816382E+04  0.10000000000E+02 0. -1.
</event>
<event>
 5    1  0.1145138E-008  0.3852067E+03  0.7957747E-01  0.3428796E+00
         13   -1    0    0    0    0  0.00000000000E+00  0.00000000000E+00  0.14999999963E+04  0.15000000000E+04  0.10566000000E+00 0.  1.
        994   -1    0    0    0    0 -0.00000000000E+00 -0.00000000000E+00  0.11368683772E-12  0.17120000000E+03  0.17120000000E+03 0.  0.
         13    1    1    2    0    0 -0.13146129017E+02  0.24757151840E+01  0.59634050505E+02  0.61116127311E+02  0.10566000000E+00 0.  1.
        994    1    1    2    0    0  0.69657065192E+01  0.27731488198E+01  0.17123222918E+01  0.17137264504E+03  0.17120000000E+03 0.  0.
        998    1    1    2    0    0  0.61804224975E+01 -0.52488640038E+01  0.14386536235E+04  0.14387112276E+04  0.10000000000E+02 0.  1.
</event>
<event>
 5    1  0.1145138E-008  0.3805366E+03  0.7957747E-01  0.3448825E+00
         13   -1    0    0    0    0  0.00000000000E+00  0.00000000000E+00  0.14999999963E+04  0.15000000000E+04  0.10566000000E+00 0. -1.
        994   -1    0    0    0    0 -0.00000000000E+00 -0.00000000000E+00  0.11368683772E-12  0.17120000000E+03  0.17120000000E+03 0.  0.
         13    1    1    2    0    0  0.23083734697E+02 -0.20402708548E+02  0.11899095121E+03  0.12291455145E+03  0.10566000000E+00 0. -1.
        994    1    1    2    0    0 -0.51542265278E+01  0.28101556960E+02  0.65911531391E+01  0.17369267933E+03  0.17120000000E+03 0.  0.
        998    1    1    2    0    0 -0.17929508170E+02 -0.76988484118E+01  0.13744178919E+04  0.13745927692E+04  0.10000000000E+02 0. -1.
</event>
<event>
 5    1  0.1145138E-008  0.4121876E+03  0.7957747E-01  0.3321962E+00
         13   -1    0    0    0    0  0.00000000000E+00  0.00000000000E+00  0.14999999963E+04  0.15000000000E+04  0.10566000000E+00 0. -1.
        994   -1    0    0    0    0 -0.00000000000E+00 -0.00000000000E+00  0.11368683772E-12  0.17120000000E+03  0.17120000000E+03 0.  0.
         13    1    1    2    0    0  0.54615130437E+02 -0.76726964936E+02  0.10320626254E+03  0.13971894436E+03  0.10566000000E+00 0. -1.
        994    1    1    2    0    0 -0.61260961234E+02  0.86487681210E+02  0.83309694516E+02  0.21790587319E+03  0.17120000000E+03 0.  0.
        998    1    1    2    0    0  0.66458307970E+01 -0.97607162740E+01  0.13134840392E+04  0.13135751824E+04  0.10000000000E+02 0. -1.
</event>
<event>
 5    1  0.1145138E-008  0.3046354E+03  0.7957747E-01  0.3863472E+00
         13   -1    0    0    0    0  0.00000000000E+00  0.00000000000E+00  0.14999999963E+04  0.15000000000E+04  0.10566000000E+00 0.  1.
        994   -1    0    0    0    0 -0.00000000000E+00 -0.00000000000E+00  0.11368683772E-12  0.17120000000E+03  0.17120000000E+03 0.  0.
         13    1    1    2    0    0 -0.15312150244E+03 -0.53388347658E+02  0.81268485359E+03  0.82870573342E+03  0.10566000000E+00 0.  1.
        994    1    1    2    0    0  0.78724307047E+02  0.46577891289E+02  0.49601495190E+02  0.20034162024E+03  0.17120000000E+03 0.  0.
        998    1    1    2    0    0  0.74397195390E+02  0.68104563690E+01  0.63771364749E+03  0.64215264634E+03  0.10000000000E+02 0.  1.
</event>
<event>
 5    1  0.1160255E-008  0.3836612E+03  0.7957747E-01  0.3435370E+00
         13   -1    0    0    0    0  0.00000000000E+00  0.00000000000E+00  0.14999999963E+04  0.15000000000E+04  0.10566000000E+00 0.  1.
        994   -1    0    0    0    0 -0.00000000000E+00 -0.00000000000E+00  0.11368683772E-12  0.17120000000E+03  0.17120000000E+03 0.  0.
         13    1    1    2    0    0  0.87737970401E+01 -0.13674393478E+02  0.54926589536E+02  0.57279227942E+02  0.10566000000E+00 0.  1.
        994    1    1    2    0    0 -0.98601048820E+01  0.14818643291E+02  0.33434348451E+01  0.17215525671E+03  0.17120000000E+03 0.  0.
        998    1    1    2    0    0  0.10863078419E+01 -0.11442498137E+01  0.14417299719E+04  0.14417655153E+04  0.10000000000E+02 0.  1.
</event>
<event>
 5    1  0.1145138E-008  0.3821633E+03  0.7957747E-01  0.3441793E+00
         13   -1    0    0    0    0  0.00000000000E+00  0.00000000000E+00  0.14999999963E+04  0.15000000000E+04  0.10566000000E+00 0. -1.
        994   -1    0    0    0    0 -0.00000000000E+00 -0.00000000000E+00  0.11368683772E-12  0.17120000000E+03  0.17120000000E+03 0.  0.
         13    1    1    2    0    0 -0.42564587101E+02 -0.25644415405E+02  0.26042331934E+03  0.26512204084E+03  0.10566000000E+00 0. -1.
        994    1    1    2    0    0  0.68816674039E+02  0.34263566372E+02  0.22915056158E+02  0.18906154132E+03  0.17120000000E+03 0.  0.
        998    1    1    2    0    0 -0.26252086939E+02 -0.86191509674E+01  0.12166616208E+04  0.12170164178E+04  0.10000000000E+02 0. -1.
</event>
<event>
 5    1  0.1145138E-008  0.3697901E+03  0.7957747E-01  0.3496856E+00
         13   -1    0    0    0    0  0.00000000000E+00  0.00000000000E+00  0.14999999963E+04  0.15000000000E+04  0.10566000000E+00 0. -1.
        994   -1    0    0    0    0 -0.00000000000E+00 -0.00000000000E+00  0.11368683772E-12  0.17120000000E+03  0.17120000000E+03 0.  0.
         13    1    1    2    0    0  0.86089704872E+01  0.18643793756E+02  0.16357730094E+02  0.26254369471E+02  0.10566000000E+00 0. -1.
        994    1    1    2    0    0  0.28339490639E+02  0.21170880033E+02  0.15211921752E+02  0.17547699409E+03  0.17120000000E+03 0.  0.
        998    1    1    2    0    0 -0.36948461126E+02 -0.39814673789E+02  0.14684303444E+04  0.14694686364E+04  0.10000000000E+02 0. -1.
</event>
<event>
 5    1  0.1145138E-008  0.3803482E+03  0.7957747E-01  0.3449644E+00
         13   -1    0    0    0    0  0.00000000000E+00  0.00000000000E+00  0.14999999963E+04  0.15000000000E+04  0.10566000000E+00 0.  1.
        994   -1    0    0    0    0 -0.00000000000E+00 -0.00000000000E+00  0.11368683772E-12  0.17120000000E+03  0.17120000000E+03 0.  0.
         13    1    1    2    0    0 -0.35093566947E+02  0.56836894528E+02  0.37580601031E+03  0.38169642331E+03  0.10566000000E+00 0.  1.
        994    1    1    2    0    0  0.40355855128E+02 -0.66014386397E+02  0.24212676250E+02  0.18942594317E+03  0.17120000000E+03 0.  0.
        998    1    1    2    0    0 -0.52622881811E+01  0.91774918697E+01  0.10999813097E+04  0.11000776335E+04  0.10000000000E+02 0.  1.
</event>
<event>
 5    1  0.1145138E-008  0.3759419E+03  0.7957747E-01  0.3469021E+00
         13   -1    0    0    0    0  0.00000000000E+00  0.00000000000E+00  0.14999999963E+04  0.15000000000E+04  0.10566000000E+00 0. -1.
        994   -1    0    0    0    0 -0.00000000000E+00 -0.00000000000E+00  0.11368683772E-12  0.17120000000E+03  0.17120000000E+03 0.  0.
         13    1    1    2    0    0 -0.18669419159E+02 -0.31886772540E+01  0.25831664858E+02  0.32031249550E+02  0.10566000000E+00 0. -1.
        994    1    1    2    0    0  0.20309277172E+02  0.49735471138E+01  0.76786772821E+01  0.17264299868E+03  0.17120000000E+03 0.  0.
        998    1    1    2    0    0 -0.16398580126E+01 -0.17848698598E+01  0.14664896541E+04  0.14665257518E+04  0.10000000000E+02 0. -1.
</event>
<event>
 5    1  0.1145138E-008  0.3814628E+03  0.7957747E-01  0.3444814E+00
         13   -1    0    0    0    0  0.00000000000E+00  0.00000000000E+00  0.14999999963E+04  0.15000000000E+04  0.10566000000E+00 0. -1.
        994   -1    0    0    0    0 -0.00000000000E+00 -0.00000000000E+00  0.11368683772E-12  0.17120000000E+03  0.17120000000E+03 0.  0.
         13    1    1    2    0    0  0.12207400117E+02 -0.28399496086E+02  0.12121256441E+03  0.12509216174E+03  0.10566000000E+00 0. -1.
        994    1    1    2    0    0 -0.44488986806E+02  0.27353389893E+02  0.12524123954E+02  0.17942622876E+03  0.17120000000E+03 0.  0.
        998    1    1    2    0    0  0.32281586689E+02  0.10461061924E+01  0.13662633079E+04  0.13666816095E+04  0.10000000000E+02 0. -1.
</event>
<event>
 5    1  0.1145138E-008  0.4079937E+03  0.7957747E-01  0.3337647E+00
         13   -1    0    0    0    0  0.00000000000E+00  0.00000000000E+00  0.14999999963E+04  0.15000000000E+04  0.10566000000E+00 0. -1.
        994   -1    0    0    0    0 -0.00000000000E+00 -0.00000000000E+00  0.11368683772E-12  0.17120000000E+03  0.17120000000E+03 0.  0.
         13    1    1    2    0    0 -0.45243253812E+02  0.25644809355E+02  0.28833642082E+02  0.59464261049E+02  0.10566000000E+00 0. -1.
        994    1    1    2    0    0  0.45414328598E+02 -0.24014781056E+02  0.43402370371E+02  0.18393579506E+03  0.17120000000E+03 0.  0.
        998    1    1    2    0    0 -0.17107478637E+00 -0.16300282990E+01  0.14277639838E+04  0.14277999439E+04  0.10000000000E+02 0. -1.
</event>
<event>
 5    1  0.1145138E-008  0.3819406E+03  0.7957747E-01  0.3442752E+00
         13   -1    0    0    0    0  0.00000000000E+00  0.00000000000E+00  0.14999999963E+04  0.15000000000E+04  0.10566000000E+00 0. -1.
        994   -1    0    0    0    0 -0.00000000000E+00 -0.00000000000E+00  0.11368683772E-12  0.17120000000E+03  0.17120000000E+03 0.  0.
         13    1    1    2    0    0 -0.10275172023E+02 -0.52428603388E+01  0.19169227585E+02  0.22372688593E+02  0.10566000000E+00 0. -1.
        994    1    1    2    0    0  0.13628356087E+02  0.16624912060E+02  0.46932037608E+01  0.17260818623E+03  0.17120000000E+03 0.  0.
        998    1    1    2    0    0 -0.33531840633E+01 -0.11382051721E+02  0.14761375649E+04  0.14762191252E+04  0.10000000000E+02 0. -1.
</event>
<event>
 5    1  0.1145138E-008  0.3734193E+03  0.7957747E-01  0.3480322E+00
         13   -1    0    0    0    0  0.00000000000E+00  0.00000000000E+00  0.14999999963E+04  0.15000000000E+04  0.10566000000E+00 0.  1.
        994   -1    0    0    0    0 -0.00000000000E+00 -0.00000000000E+00  0.11368683772E-12  0.17120000000E+03  0.17120000000E+03 0.  0.
         13    1    1    2    0    0 -0.70423885861E+02  0.11876072837E+03  0.51318595683E+03  0.53143529404E+03  0.10566000000E+00 0.  1.
        994    1    1    2    0    0  0.78620076426E+02 -0.10135254181E+03  0.73505719475E+02  0.22619899413E+03  0.17120000000E+03 0.  0.
        998    1    1    2    0    0 -0.81961905644E+01 -0.17408186565E+02  0.91330831998E+03  0.91356571184E+03  0.10000000000E+02 0.  1.
</event>
<event>
 5    1  0.1145138E-008  0.3753153E+03  0.7957747E-01  0.3471814E+00
         13   -1    0    0    0    0  0.00000000000E+00  0.00000000000E+00  0.14999999963E+04  0.15000000000E+04  0.10566000000E+00 0.  1.
        994   -1    0    0    0    0 -0.00000000000E+00 -0.00000000000E+00  0.11368683772E-12  0.17120000000E+03  0.17120000000E+03 0.  0.
         13    1    1    2    0    0 -0.13919551293E+02 -0.13740545619E+02  0.27192987405E+02  0.33496659986E+02  0.10566000000E+00 0.  1.
        994    1    1    2    0    0  0.11483467201E+02 -0.37017294632E+01  0.70113601711E+01  0.17176778508E+03  0.17120000000E+03 0.  0.
        998    1    1    2    0    0  0.24360840928E+01  0.17442275082E+02  0.14657956487E+04  0.14659355549E+04  0.10000000000E+02 0.  1.
</event>
<event>
 5    1  0.1145138E-008  0.3830748E+03  0.7957747E-01  0.3437878E+00
         13   -1    0    0    0    0  0.00000000000E+00  0.00000000000E+00  0.14999999963E+04  0.15000000000E+04  0.10566000000E+00 0. -1.
        994   -1    0    0    0    0 -0.00000000000E+00 -0.00000000000E+00  0.11368683772E-12  0.17120000000E+03  0.17120000000E+03 0.  0.
         13    1    1    2    0    0 -0.80085859294E+01 -0.19445145267E+02  0.81619512216E+02  0.84285271913E+02  0.10566000000E+00 0. -1.
        994    1    1    2    0    0  0.10216960034E+02  0.17155541905E+02  0.39095047309E+01  0.17240482336E+03  0.17120000000E+03 0.  0.
        998    1    1    2    0    0 -0.22083741050E+01  0.22896033618E+01  0.14144709793E+04  0.14145099047E+04  0.10000000000E+02 0. -1.
</event>
<event>
 5    1  0.1145138E-008  0.3700454E+03  0.7957747E-01  0.3495682E+00
         13   -1    0    0    0    0  0.00000000000E+00  0.00000000000E+00  0.14999999963E+04  0.15000000000E+04  0.10566000000E+00 0. -1.
        994   -1    0    0    0    0 -0.00000000000E+00 -0.00000000000E+00  0.11368683772E-12  0.17120000000E+03  0.17120000000E+03 0.  0.
         13    1    1    2    0    0 -0.39595886927E+02 -0.39814124095E+02  0.14975667750E+03  0.15993771400E+03  0.10566000000E+00 0. -1.
        994    1    1    2    0    0  0.49968186203E+02  0.33005312085E+02  0.21747214877E+02  0.18267060960E+03  0.17120000000E+03 0.  0.
        998    1    1    2    0    0 -0.10372299275E+02  0.68088120099E+01  0.13284961039E+04  0.13285916764E+04  0.10000000000E+02 0. -1.
</event>
<event>
 5    1  0.1145138E-008  0.3847792E+03  0.7957747E-01  0.3430609E+00
         13   -1    0    0    0    0  0.00000000000E+00  0.00000000000E+00  0.14999999963E+04  0.15000000000E+04  0.10566000000E+00 0. -1.
        994   -1    0    0    0    0 -0.00000000000E+00 -0.00000000000E+00  0.11368683772E-12  0.17120000000E+03  0.17120000000E+03 0.  0.
         13    1    1    2    0    0  0.16703832439E+02  0.14789361668E+02  0.12175913184E+03  0.12378626979E+03  0.10566000000E+00 0. -1.
        994    1    1    2    0    0 -0.24045511665E+02 -0.23274459381E+02  0.54340651319E+01  0.17452465773E+03  0.17120000000E+03 0.  0.
        998    1    1    2    0    0  0.73416792261E+01  0.84850977133E+01  0.13728067993E+04  0.13728890725E+04  0.10000000000E+02 0. -1.
</event>
<event>
 5    1  0.1145138E-008  0.3783643E+03  0.7957747E-01  0.3458312E+00
         13   -1    0    0    0    0  0.00000000000E+00  0.00000000000E+00  0.14999999963E+04  0.15000000000E+04  0.10566000000E+00 0. -1.
        994   -1    0    0    0    0 -0.00000000000E+00 -0.00000000000E+00  0.11368683772E-12  0.17120000000E+03  0.17120000000E+03 0.  0.
         13    1    1    2    0    0  0.13472971463E+02  0.26626929258E+02  0.85351379048E+02  0.90417826733E+02  0.10566000000E+00 0. -1.
        994    1    1    2    0    0 -0.13162773628E+02 -0.21661665168E+02  0.71235506927E+01  0.17321279203E+03  0.17120000000E+03 0.  0.
        998    1    1    2    0    0 -0.31019783485E+00 -0.49652640900E+01  0.14075250665E+04  0.14075693812E+04  0.10000000000E+02 0. -1.
</event>
<event>
 5    1  0.1145138E-008  0.3702202E+03  0.7957747E-01  0.3494880E+00
         13   -1    0    0    0    0  0.00000000000E+00  0.00000000000E+00  0.14999999963E+04  0.15000000000E+04  0.10566000000E+00 0.  1.
        994   -1    0    0    0    0 -0.00000000000E+00 -0.00000000000E+00  0.11368683772E-12  0.17120000000E+03  0.17120000000E+03 0.  0.
         13    1    1    2    0    0 -0.53725664745E+02  0.13313815070E+02  0.19079137649E+03  0.19865816175E+03  0.10566000000E+00 0.  1.
        994    1    1    2    0    0  0.51098439236E+01  0.35395674540E+01  0.92875434998E+01  0.17156438298E+03  0.17120000000E+03 0.  0.
        998    1    1    2    0    0  0.48615820821E+02 -0.16853382524E+02  0.12999210763E+04  0.13009774553E+04  0.10000000000E+02 0.  1.
</event>
<event>
 5    1  0.1145138E-008  0.3834258E+03  0.7957747E-01  0.3436376E+00
         13   -1    0    0    0    0  0.00000000000E+00  0.00000000000E+00  0.14999999963E+04  0.15000000000E+04  0.10566000000E+00 0.  1.
        994   -1    0    0    0    0 -0.00000000000E+00 -0.00000000000E+00  0.11368683772E-12  0.17120000000E+03  0.17120000000E+03 0.  0.
         13    1    1    2    0    0  0.32383170337E+02  0.24287344933E+01  0.19268436889E+03  0.19540175447E+03  0.10566000000E+00 0.  1.
        994    1    1    2    0    0 -0.32427732036E+02 -0.25550496014E+01  0.59191130284E+01  0.17436330458E+03  0.17120000000E+03 0.  0.
        998    1    1    2    0    0  0.44561698953E-01  0.12631510808E+00  0.13013965144E+04  0.13014349410E+04  0.10000000000E+02 0.  1.
</event>
<event>
 5    1  0.1145138E-008  0.3794064E+03  0.7957747E-01  0.3453747E+00
         13   -1    0    0    0    0  0.00000000000E+00  0.00000000000E+00  0.14999999963E+04  0.15000000000E+04  0.10566000000E+00 0.  1.
        994   -1    0    0    0    0 -0.00000000000E+00 -0.00000000000E+00  0.11368683772E-12  0.17120000000E+03  0.17120000000E+03 0.  0.
         13    1    1    2    0    0 -0.27213614481E+02 -0.46555455789E+01  0.78499905768E+02  0.83213588358E+02  0.10566000000E+00 0.  1.
        994    1    1    2    0    0  0.33080441185E+02  0.51821584039E+01  0.81975539394E+01  0.17463622260E+03  0.17120000000E+03 0.  0.
        998    1    1    2    0    0 -0.58668267037E+01 -0.52661282499E+00  0.14133025366E+04  0.14133501890E+04  0.10000000000E+02 0.  1.
</event>
<event>
 5    1  0.1145138E-008  0.4418523E+03  0.7957747E-01  0.3219370E+00
         13   -1    0    0    0    0  0.00000000000E+00  0.00000000000E+00  0.14999999963E+04  0.15000000000E+04  0.10566000000E+00 0. -1.
        994   -1    0    0    0    0 -0.00000000000E+00 -0.00000000000E+00  0.11368683772E-12  0.17120000000E+03  0.17120000000E+03 0.  0.
         13    1    1    2    0    0  0.49035197880E+02  0.81576473179E+02  0.63538000804E+02  0.11443889338E+03  0.10566000000E+00 0. -1.
        994    1    1    2    0    0 -0.40544832998E+02 -0.80912406557E+02  0.95828113102E+02  0.21606288038E+03  0.17120000000E+03 0.  0.
        998    1    1    2    0    0 -0.84903648822E+01 -0.66406662234E+00  0.13406338824E+04  0.13406982262E+04  0.10000000000E+02 0. -1.
</event>
<event>
 5    1  0.1145138E-008  0.3831903E+03  0.7957747E-01  0.3437384E+00
         13   -1    0    0    0    0  0.00000000000E+00  0.00000000000E+00  0.14999999963E+04  0.15000000000E+04  0.10566000000E+00 0.  1.
        994   -1    0    0    0    0 -0.00000000000E+00 -0.00000000000E+00  0.11368683772E-12  0.17120000000E+03  0.17120000000E+03 0.  0.
         13    1    1    2    0    0 -0.29240487683E+01 -0.23520618373E+02  0.10381431848E+03  0.10648564896E+03  0.10566000000E+00 0.  1.
        994    1    1    2    0    0  0.15029683224E+02  0.22451834290E+02  0.49498368500E+01  0.17338949543E+03  0.17120000000E+03 0.  0.
        998    1    1    2    0    0 -0.12105634455E+02  0.10687840834E+01  0.13912358409E+04  0.13913248556E+04  0.10000000000E+02 0.  1.
</event>
<event>
 5    1  0.1145138E-008  0.3827596E+03  0.7957747E-01  0.3439230E+00
         13   -1    0    0    0    0  0.00000000000E+00  0.00000000000E+00  0.14999999963E+04  0.15000000000E+04  0.10566000000E+00 0.  1.
        994   -1    0    0    0    0 -0.00000000000E+00 -0.00000000000E+00  0.11368683772E-12  0.17120000000E+03  0.17120000000E+03 0.  0.
         13    1    1    2    0    0  0.92867390582E+01 -0.15219423885E+02  0.65635724458E+02  0.68014218182E+02  0.10566000000E+00 0.  1.
        994    1    1    2    0    0  0.10149065573E+02 -0.12378891445E+02  0.35958877757E+01  0.17198433328E+03  0.17120000000E+03 0.  0.
        998    1    1    2    0    0 -0.19435804631E+02  0.27598315330E+02  0.14307683840E+04  0.14312014485E+04  0.10000000000E+02 0.  1.
</event>
<event>
 5    1  0.1145138E-008  0.3689554E+03  0.7957747E-01  0.3500706E+00
         13   -1    0    0    0    0  0.00000000000E+00  0.00000000000E+00  0.14999999963E+04  0.15000000000E+04  0.10566000000E+00 0.  1.
        994   -1    0    0    0    0 -0.00000000000E+00 -0.00000000000E+00  0.11368683772E-12  0.17120000000E+03  0.17120000000E+03 0.  0.
         13    1    1    2    0    0  0.43568774300E+02  0.37397684840E+02  0.20648911564E+03  0.21432356605E+03  0.10566000000E+00 0.  1.
        994    1    1    2    0    0  0.31387322272E+02 -0.64741216583E+01  0.13973478182E+02  0.17473344369E+03  0.17120000000E+03 0.  0.
        998    1    1    2    0    0 -0.74956096572E+02 -0.30923563182E+02  0.12795374025E+04  0.12821429903E+04  0.10000000000E+02 0.  1.
</event>
<event>
 5    1  0.1145138E-008  0.3819412E+03  0.7957747E-01  0.3442750E+00
         13   -1    0    0    0    0  0.00000000000E+00  0.00000000000E+00  0.14999999963E+04  0.15000000000E+04  0.10566000000E+00 0.  1.
        994   -1    0    0    0    0 -0.00000000000E+00 -0.00000000000E+00  0.11368683772E-12  0.17120000000E+03  0.17120000000E+03 0.  0.
         13    1    1    2    0    0  0.21634031637E+02 -0.76520794895E+01  0.80197543935E+02  0.83416082757E+02  0.10566000000E+00 0.  1.
        994    1    1    2    0    0 -0.16380481470E+02  0.12491318727E+02  0.45672596644E+01  0.17249537118E+03  0.17120000000E+03 0.  0.
        998    1    1    2    0    0 -0.52535501665E+01 -0.48392392373E+01  0.14152351927E+04  0.14152885461E+04  0.10000000000E+02 0.  1.
</event>
<event>
 5    1  0.1154107E-008  0.3836845E+03  0.7957747E-01  0.3435271E+00
         13   -1    0    0    0    0  0.00000000000E+00  0.00000000000E+00  0.14999999963E+04  0.15000000000E+04  0.10566000000E+00 0.  1.
        994   -1    0    0    0    0 -0.00000000000E+00 -0.00000000000E+00  0.11368683772E-12  0.17120000000E+03  0.17120000000E+03 0.  0.
         13    1    1    2    0    0 -0.15508148270E+02  0.37588330239E+01  0.53061120727E+02  0.55408710374E+02  0.10566000000E+00 0.  1.
        994    1    1    2    0    0  0.17997132237E+02 -0.39452907445E+01  0.34066418777E+01  0.17222226133E+03  0.17120000000E+03 0.  0.
        998    1    1    2    0    0 -0.24889839669E+01  0.18645772066E+00  0.14435322337E+04  0.14435690283E+04  0.10000000000E+02 0.  1.
</event>
<event>
 5    1  0.1145138E-008  0.3731909E+03  0.7957747E-01  0.3481353E+00
         13   -1    0    0    0    0  0.00000000000E+00  0.00000000000E+00  0.14999999963E+04  0.15000000000E+04  0.10566000000E+00 0.  1.
        994   -1    0    0    0    0 -0.00000000000E+00 -0.00000000000E+00  0.11368683772E-12  0.17120000000E+03  0.17120000000E+03 0.  0.
         13    1    1    2    0    0 -0.21598454698E+02 -0.78554736612E+01  0.31101666424E+02  0.38672038092E+02  0.10566000000E+00 0.  1.
        994    1    1    2    0    0  0.19669555567E+02  0.91154228036E+01  0.92197071497E+01  0.17281326728E+03  0.17120000000E+03 0.  0.
        998    1    1    2    0    0  0.19288991304E+01 -0.12599491424E+01  0.14596786227E+04  0.14597146946E+04  0.10000000000E+02 0.  1.
</event>
<event>
 5    1  0.1145138E-008  0.3836184E+03  0.7957747E-01  0.3435553E+00
         13   -1    0    0    0    0  0.00000000000E+00  0.00000000000E+00  0.14999999963E+04  0.15000000000E+04  0.10566000000E+00 0. -1.
        994   -1    0    0    0    0 -0.00000000000E+00 -0.00000000000E+00  0.11368683772E-12  0.17120000000E+03  0.17120000000E+03 0.  0.
         13    1    1    2    0    0  0.11739372089E+02  0.60691681801E+01  0.40529041827E+02  0.42629356726E+02  0.10566000000E+00 0. -1.
        994    1    1    2    0    0  0.79963790992E+01  0.10118583273E+02  0.28672909590E+01  0.17170902470E+03  0.17120000000E+03 0.  0.
        998    1    1    2    0    0 -0.19735751188E+02 -0.16187751453E+02  0.14566036635E+04  0.14568616186E+04  0.10000000000E+02 0. -1.
</event>
<event>
 5    1  0.1145138E-008  0.3803089E+03  0.7957747E-01  0.3449815E+00
         13   -1    0    0    0    0  0.00000000000E+00  0.00000000000E+00  0.14999999963E+04  0.15000000000E+04  0.10566000000E+00 0.  1.
        994   -1    0    0    0    0 -0.00000000000E+00 -0.00000000000E+00  0.11368683772E-12  0.17120000000E+03  0.17120000000E+03 0.  0.
         13    1    1    2    0    0 -0.28191756438E+01  0.28024375062E+02  0.11953431803E+03  0.12280788941E+03  0.10566000000E+00 0.  1.
        994    1    1    2    0    0  0.15729963105E+02  0.17340172039E+02  0.58098685461E+01  0.17289102891E+03  0.17120000000E+03 0.  0.
        998    1    1    2    0    0 -0.12910787461E+02 -0.45364547100E+02  0.13746558097E+04  0.13755010817E+04  0.10000000000E+02 0.  1.
</event>
<event>
 5    1  0.1145138E-008  0.3775601E+03  0.7957747E-01  0.3461852E+00
         13   -1    0    0    0    0  0.00000000000E+00  0.00000000000E+00  0.14999999963E+04  0.15000000000E+04  0.10566000000E+00 0. -1.
        994   -1    0    0    0    0 -0.00000000000E+00 -0.00000000000E+00  0.11368683772E-12  0.17120000000E+03  0.17120000000E+03 0.  0.
         13    1    1    2    0    0 -0.31487745856E+01 -0.40916752562E+02  0.14606791037E+03  0.15172323825E+03  0.10566000000E+00 0. -1.
        994    1    1    2    0    0  0.84215832400E+01  0.34356431881E+02  0.95984382980E+01  0.17507957475E+03  0.17120000000E+03 0.  0.
        998    1    1    2    0    0 -0.52728086544E+01  0.65603206810E+01  0.13443336476E+04  0.13443971870E+04  0.10000000000E+02 0. -1.
</event>
<event>
 5    1  0.1145138E-008  0.3717804E+03  0.7957747E-01  0.3487748E+00
         13   -1    0    0    0    0  0.00000000000E+00  0.00000000000E+00  0.14999999963E+04  0.15000000000E+04  0.10566000000E+00 0.  1.
        994   -1    0    0    0    0 -0.00000000000E+00 -0.00000000000E+00  0.11368683772E-12  0.17120000000E+03  0.17120000000E+03 0.  0.
         13    1    1    2    0    0 -0.23847435957E+02 -0.18154823539E+02  0.31663629313E+02  0.43599247755E+02  0.10566000000E+00 0.  1.
        994    1    1    2    0    0  0.25523709785E+02  0.29028706023E+02  0.17157910673E+02  0.17634613529E+03  0.17120000000E+03 0.  0.
        998    1    1    2    0    0 -0.16762738274E+01 -0.10873882484E+02  0.14511784563E+04  0.14512546170E+04  0.10000000000E+02 0.  1.
</event>
<event>
 5    1  0.1145138E-008  0.3712963E+03  0.7957747E-01  0.3489954E+00
         13   -1    0    0    0    0  0.00000000000E+00  0.00000000000E+00  0.14999999963E+04  0.15000000000E+04  0.10566000000E+00 0.  1.
        994   -1    0    0    0    0 -0.00000000000E+00 -0.00000000000E+00  0.11368683772E-12  0.17120000000E+03  0.17120000000E+03 0.  0.
         13    1    1    2    0    0 -0.62485027116E+02 -0.35162334056E+02  0.27519236652E+03  0.28437935598E+03  0.10566000000E+00 0.  1.
        994    1    1    2    0    0  0.69943075536E+01 -0.82785322826E+01  0.12038525194E+02  0.17196459090E+03  0.17120000000E+03 0.  0.
        998    1    1    2    0    0  0.55490719563E+02  0.43440866339E+02  0.12127691046E+04  0.12148560531E+04  0.10000000000E+02 0.  1.
</event>
<event>
 5    1  0.1145138E-008  0.3793199E+03  0.7957747E-01  0.3454125E+00
         13   -1    0    0    0    0  0.00000000000E+00  0.00000000000E+00  0.14999999963E+04  0.15000000000E+04  0.10566000000E+00 0.  1.
        994   -1    0    0    0    0 -0.00000000000E+00 -0.00000000000E+00  0.11368683772E-12  0.17120000000E+03  0.17120000000E+03 0.  0.
         13    1    1    2    0    0  0.69709746759E+01  0.25446809686E+02  0.72141326331E+02  0.76814821095E+02  0.10566000000E+00 0.  1.
        994    1    1    2    0    0 -0.54989682594E+01 -0.28770634460E+02  0.73568066804E+01  0.17384346598E+03  0.17120000000E+03 0.  0.
        998    1    1    2    0    0 -0.14720064165E+01  0.33238247738E+01  0.14205018633E+04  0.14205417129E+04  0.10000000000E+02 0.  1.
</event>
<event>
 5    1  0.1145138E-008  0.3820924E+03  0.7957747E-01  0.3442098E+00
         13   -1    0    0    0    0  0.00000000000E+00  0.00000000000E+00  0.14999999963E+04  0.15000000000E+04  0.10566000000E+00 0. -1.
        994   -1    0    0    0    0 -0.00000000000E+00 -0.00000000000E+00  0.11368683772E-12  0.17120000000E+03  0.17120000000E+03 0.  0.
         13    1    1    2    0    0  0.24851815383E+02 -0.40238051104E+02  0.28501689470E+03  0.28891409608E+03  0.10566000000E+00 0. -1.
        994    1    1    2    0    0 -0.38398058198E+02  0.36769264878E+02  0.12521549799E+02  0.17970147168E+03  0.17120000000E+03 0.  0.
        998    1    1    2    0    0  0.13546242815E+02  0.34687862252E+01  0.12024615518E+04  0.12025844322E+04  0.10000000000E+02 0. -1.
</event>
<event>
 5    1  0.1145138E-008  0.3747785E+03  0.7957747E-01  0.3474214E+00
         13   -1    0    0    0    0  0.00000000000E+00  0.00000000000E+00  0.14999999963E+04  0.15000000000E+04  0.10566000000E+00 0.  1.
        994   -1    0    0    0    0 -0.00000000000E+00 -0.00000000000E+00  0.11368683772E-12  0.17120000000E+03  0.17120000000E+03 0.  0.
         13    1    1    2    0    0 -0.61088728561E+02 -0.28752719605E+02  0.34009483702E+03  0.34673197282E+03  0.10566000000E+00 0.  1.
        994    1    1    2    0    0  0.19625865516E+02  0.47594605076E+02  0.15862530207E+02  0.17947557186E+03  0.17120000000E+03 0.  0.
        998    1    1    2    0    0  0.41462863045E+02 -0.18841885472E+02  0.11440426291E+04  0.11449924553E+04  0.10000000000E+02 0.  1.
</event>
<event>
 5    1  0.1145138E-008  0.3852454E+03  0.7957747E-01  0.3428632E+00
         13   -1    0    0    0    0  0.00000000000E+00  0.00000000000E+00  0.14999999963E+04  0.15000000000E+04  0.10566000000E+00 0. -1.
        994   -1    0    0    0    0 -0.00000000000E+00 -0.00000000000E+00  0.11368683772E-12  0.17120000000E+03  0.17120000000E+03 0.  0.
         13    1    1    2    0    0  0.14560364985E+02  0.52070345059E+01  0.72533635875E+02  0.74163717100E+02  0.10566000000E+00 0. -1.
        994    1    1    2    0    0 -0.22240160591E+02 -0.76126085636E+01  0.33262308761E+01  0.17283830699E+03  0.17120000000E+03 0.  0.
        998    1    1    2    0    0  0.76797956064E+01  0.24055740577E+01  0.14241401295E+04  0.14241979759E+04  0.10000000000E+02 0. -1.
</event>
<event>
 5    1  0.1145138E-008  0.3848647E+03  0.7957747E-01  0.3430246E+00
         13   -1    0    0    0    0  0.00000000000E+00  0.00000000000E+00  0.14999999963E+04  0.15000000000E+04  0.10566000000E+00 0. -1.
        994   -1    0    0    0    0 -0.00000000000E+00 -0.00000000000E+00  0.11368683772E-12  0.17120000000E+03  0.17120000000E+03 0.  0.
         13    1    1    2    0    0 -0.55221675453E+01  0.11198536412E+02  0.49836292979E+02  0.51376734171E+02  0.10566000000E+00 0. -1.
        994    1    1    2    0    0 -0.25712382053E+01  0.64620116108E+01  0.18565039587E+01  0.17135126339E+03  0.17120000000E+03 0.  0.
        998    1    1    2    0    0  0.80934057506E+01 -0.17660548023E+02  0.14483071993E+04  0.14484720024E+04  0.10000000000E+02 0. -1.
</event>
<event>
 5    1  0.1145138E-008  0.3817718E+03  0.7957747E-01  0.3443480E+00
         13   -1    0    0    0    0  0.00000000000E+00  0.00000000000E+00  0.14999999963E+04  0.15000000000E+04  0.10566000000E+00 0.  1.
        994   -1    0    0    0    0 -0.00000000000E+00 -0.00000000000E+00  0.11368683772E-12  0.17120000000E+03  0.17120000000E+03 0.  0.
         13    1    1    2    0    0 -0.16904082402E+02  0.35339248706E+02  0.19848454821E+03  0.20231346357E+03  0.10566000000E+00 0.  1.
        994    1    1    2    0    0  0.21777383797E+02 -0.38541685698E+02  0.97820048588E+01  0.17710122416E+03  0.17120000000E+03 0.  0.
        998    1    1    2    0    0 -0.48733013952E+01  0.32024369921E+01  0.12917334432E+04  0.12917853123E+04  0.10000000000E+02 0.  1.
</event>
<event>
 5    1  0.1145138E-008  0.3796593E+03  0.7957747E-01  0.3452644E+00
         13   -1    0    0    0    0  0.00000000000E+00  0.00000000000E+00  0.14999999963E+04  0.15000000000E+04  0.10566000000E+00 0.  1.
        994   -1    0    0    0    0 -0.00000000000E+00 -0.00000000000E+00  0.11368683772E-12  0.17120000000E+03  0.17120000000E+03 0.  0.
         13    1    1    2    0    0  0.15716293373E+02 -0.69707602298E+01  0.35830872096E+02  0.39742369516E+02  0.10566000000E+00 0.  1.
        994    1    1    2    0    0  0.16520583263E+02 -0.54916078418E+01  0.53202382611E+01  0.17216513109E+03  0.17120000000E+03 0.  0.
        998    1    1    2    0    0 -0.32236876636E+02  0.12462368072E+02  0.14588488859E+04  0.14592924994E+04  0.10000000000E+02 0.  1.
</event>
<event>
 5    1  0.1145138E-008  0.3804488E+03  0.7957747E-01  0.3449207E+00
         13   -1    0    0    0    0  0.00000000000E+00  0.00000000000E+00  0.14999999963E+04  0.15000000000E+04  0.10566000000E+00 0. -1.
        994   -1    0    0    0    0 -0.00000000000E+00 -0.00000000000E+00  0.11368683772E-12  0.17120000000E+03  0.17120000000E+03 0.  0.
         13    1    1    2    0    0  0.15283113865E+01  0.14931082103E+02  0.27112966296E+02  0.30990273536E+02  0.10566000000E+00 0. -1.
        994    1    1    2    0    0  0.48745703557E+01 -0.12847296917E+02  0.45372741497E+01  0.17181048085E+03  0.17120000000E+03 0.  0.
        998    1    1    2    0    0 -0.64028817422E+01 -0.20837851858E+01  0.14683497558E+04  0.14683992456E+04  0.10000000000E+02 0. -1.
</event>
<event>
 5    1  0.1145138E-008  0.3829996E+03  0.7957747E-01  0.3438201E+00
         13   -1    0    0    0    0  0.00000000000E+00  0.00000000000E+00  0.14999999963E+04  0.15000000000E+04  0.10566000000E+00 0. -1.
        994   -1    0    0    0    0 -0.00000000000E+00 -0.00000000000E+00  0.11368683772E-12  0.17120000000E+03  0.17120000000E+03 0.  0.
         13    1    1    2    0    0  0.12092335266E+02  0.60407215716E+01  0.33180431249E+02  0.35828299865E+02  0.10566000000E+00 0. -1.
        994    1    1    2    0    0 -0.21727834157E+02  0.97272945526E+01  0.45047106825E+01  0.17290590347E+03  0.17120000000E+03 0.  0.
        998    1    1    2    0    0  0.96354988912E+01 -0.15768016124E+02  0.14623148543E+04  0.14624657967E+04  0.10000000000E+02 0. -1.
</event>
<event>
 5    1  0.1145138E-008  0.3720502E+03  0.7957747E-01  0.3486521E+00
         13   -1    0    0    0    0  0.00000000000E+00  0.00000000000E+00  0.14999999963E+04  0.15000000000E+04  0.10566000000E+00 0. -1.
        994   -1    0    0    0    0 -0.00000000000E+00 -0.00000000000E+00  0.11368683772E-12  0.17120000000E+03  0.17120000000E+03 0.  0.
         13    1    1    2    0    0  0.28461814971E+02 -0.17825766339E+02  0.66896979833E+02  0.74853523176E+02  0.10566000000E+00 0. -1.
        994    1    1    2    0    0 -0.81255014638E+01  0.17566817653E+02  0.94886308160E+01  0.17255170521E+03  0.17120000000E+03 0.  0.
        998    1    1    2    0    0 -0.20336313507E+02  0.25894868591E+00  0.14236143856E+04  0.14237947716E+04  0.10000000000E+02 0. -1.
</event>
<event>
 5    1  0.1145138E-008  0.4075561E+03  0.7957747E-01  0.3339302E+00
         13   -1    0    0    0    0  0.00000000000E+00  0.00000000000E+00  0.14999999963E+04  0.15000000000E+04  0.10566000000E+00 0.  1.
        994   -1    0    0    0    0 -0.00000000000E+00 -0.00000000000E+00  0.11368683772E-12  0.17120000000E+03  0.17120000000E+03 0.  0.
         13    1    1    2    0    0  0.37377513040E+02 -0.51719525565E+02  0.49752853472E+02  0.80915668435E+02  0.10566000000E+00 0.  1.
        994    1    1    2    0    0 -0.38983573550E+02  0.53960435520E+02  0.50504866548E+02  0.19050361979E+03  0.17120000000E+03 0.  0.
        998    1    1    2    0    0  0.16060605098E+01 -0.22409099558E+01  0.13997422763E+04  0.13997807118E+04  0.10000000000E+02 0.  1.
</event>
<event>
 5    1  0.1145138E-008  0.3840142E+03  0.7957747E-01  0.3433864E+00
         13   -1    0    0    0    0  0.00000000000E+00  0.00000000000E+00  0.14999999963E+04  0.15000000000E+04  0.10566000000E+00 0.  1.
        994   -1    0    0    0    0 -0.00000000000E+00 -0.00000000000E+00  0.11368683772E-12  0.17120000000E+03  0.17120000000E+03 0.  0.
         13    1    1    2    0    0 -0.53227608920E+01 -0.84785499581E+01  0.23461381591E+02  0.25508139546E+02  0.10566000000E+00 0.  1.
        994    1    1    2    0    0 -0.14912720374E+02  0.10729798238E+02  0.32346664655E+01  0.17221330049E+03  0.17120000000E+03 0.  0.
        998    1    1    2    0    0  0.20235481266E+02 -0.22512482800E+01  0.14733039482E+04  0.14734785600E+04  0.10000000000E+02 0.  1.
</event>
<event>
 5    1  0.1145138E-008  0.3822542E+03  0.7957747E-01  0.3441402E+00
         13   -1    0    0    0    0  0.00000000000E+00  0.00000000000E+00  0.14999999963E+04  0.15000000000E+04  0.10566000000E+00 0. -1.
        994   -1    0    0    0    0 -0.00000000000E+00 -0.00000000000E+00  0.11368683772E-12  0.17120000000E+03  0.17120000000E+03 0.  0.
         13    1    1    2    0    0 -0.34333832749E+02  0.38582188342E+02  0.63387557959E+02  0.81764240329E+02  0.10566000000E+00 0. -1.
        994    1    1    2    0    0  0.40989211802E+02 -0.57288353280E+02  0.35934008592E+02  0.18858092130E+03  0.17120000000E+03 0.  0.
        998    1    1    2    0    0 -0.66553790524E+01  0.18706164939E+02  0.14006784297E+04  0.14008548384E+04  0.10000000000E+02 0. -1.
</event>
<event>
 5    1  0.1145138E-008  0.3814854E+03  0.7957747E-01  0.3444716E+00
         13   -1    0    0    0    0  0.00000000000E+00  0.00000000000E+00  0.14999999963E+04  0.15000000000E+04  0.10566000000E+00 0. -1.
        994   -1    0    0    0    0 -0.00000000000E+00 -0.00000000000E+00  0.11368683772E-12  0.17120000000E+03  0.17120000000E+03 0.  0.
         13    1    1    2    0    0 -0.66790154480E+01  0.89548938605E+01  0.16913709127E+02  0.20270276068E+02  0.10566000000E+00 0. -1.
        994    1    1    2    0    0  0.41431117211E+01 -0.10204211791E+02  0.37887690635E+01  0.17159570532E+03  0.17120000000E+03 0.  0.
        998    1    1    2    0    0  0.25359037269E+01  0.12493179304E+01  0.14792975181E+04  0.14793340186E+04  0.10000000000E+02 0. -1.
</event>
<event>
 5    1  0.1145138E-008  0.3826834E+03  0.7957747E-01  0.3439557E+00
         13   -1    0    0    0    0  0.00000000000E+00  0.00000000000E+00  0.14999999963E+04  0.15000000000E+04  0.10566000000E+00 0. -1.
        994   -1    0    0    0    0 -0.00000000000E+00 -0.00000000000E+00  0.11368683772E-12  0.17120000000E+03  0.17120000000E+03 0.  0.
         13    1    1    2    0    0  0.21771636435E+02  0.85154621254E+01  0.95488553706E+02  0.98308658322E+02  0.10566000000E+00 0. -1.
        994    1    1    2    0    0 -0.15757773773E+02 -0.81197696970E+01  0.38266004344E+01  0.17215783736E+03  0.17120000000E+03 0.  0.
        998    1    1    2    0    0 -0.60138626622E+01 -0.39569242840E+00  0.14006848421E+04  0.14007335043E+04  0.10000000000E+02 0. -1.
</event>
<event>
 5    1  0.1145138E-008  0.3811525E+03  0.7957747E-01  0.3446155E+00
         13   -1    0    0    0    0  0.00000000000E+00  0.00000000000E+00  0.14999999963E+04  0.15000000000E+04  0.10566000000E+00 0. -1.
        994   -1    0    0    0    0 -0.00000000000E+00 -0.00000000000E+00  0.11368683772E-12  0.17120000000E+03  0.17120000000E+03 0.  0.
         13    1    1    2    0    0 -0.19447824800E+01  0.11200962918E+02  0.16468988240E+02  0.20012058536E+02  0.10566000000E+00 0. -1.
        994    1    1    2    0    0  0.13005460168E+01 -0.13550404219E+02  0.41698257132E+01  0.17179095529E+03  0.17120000000E+03 0.  0.
        998    1    1    2    0    0  0.64423646315E+00  0.23494413015E+01  0.14793611823E+04  0.14793969862E+04  0.10000000000E+02 0. -1.
</event>
<event>
 5    1  0.1145138E-008  0.3855348E+03  0.7957747E-01  0.3427407E+00
         13   -1    0    0    0    0  0.00000000000E+00  0.00000000000E+00  0.14999999963E+04  0.15000000000E+04  0.10566000000E+00 0. -1.
        994   -1    0    0    0    0 -0.00000000000E+00 -0.00000000000E+00  0.11368683772E-12  0.17120000000E+03  0.17120000000E+03 0.  0.
         13    1    1    2    0    0  0.13631834444E+02  0.43658996333E+01  0.73947709056E+02  0.75320401144E+02  0.10566000000E+00 0. -1.
        994    1    1    2    0    0 -0.10698373455E+02 -0.66014401417E+01  0.18838361983E+01  0.17167126447E+03  0.17120000000E+03 0.  0.
        998    1    1    2    0    0 -0.29334609893E+01  0.22355405084E+01  0.14241684510E+04  0.14242083344E+04  0.10000000000E+02 0.  0.
</event>
<event>
 5    1  0.1145138E-008  0.3821285E+03  0.7957747E-01  0.3441942E+00
         13   -1    0    0    0    0  0.00000000000E+00  0.00000000000E+00  0.14999999963E+04  0.15000000000E+04  0.10566000000E+00 0. -1.
        994   -1    0    0    0    0 -0.00000000000E+00 -0.00000000000E+00  0.11368683772E-12  0.17120000000E+03  0.17120000000E+03 0.  0.
         13    1    1    2    0    0 -0.10548307607E+01  0.13055897664E+02  0.26493605158E+02  0.29554888091E+02  0.10566000000E+00 0. -1.
        994    1    1    2    0    0 -0.31260093977E+01 -0.13596920479E+02  0.37089219704E+01  0.17180757924E+03  0.17120000000E+03 0.  0.
        998    1    1    2    0    0  0.41808401584E+01  0.54102281446E+00  0.14697974692E+04  0.14698375327E+04  0.10000000000E+02 0. -1.
</event>
<event>
 5    1  0.1145138E-008  0.3807601E+03  0.7957747E-01  0.3447855E+00
         13   -1    0    0    0    0  0.00000000000E+00  0.00000000000E+00  0.14999999963E+04  0.15000000000E+04  0.10566000000E+00 0.  1.
        994   -1    0    0    0    0 -0.00000000000E+00 -0.00000000000E+00  0.11368683772E-12  0.17120000000E+03  0.17120000000E+03 0.  0.
         13    1    1    2    0    0 -0.37337967800E+01 -0.32012339880E+02  0.12307121044E+03  0.12722132347E+03  0.10566000000E+00 0.  1.
        994    1    1    2    0    0 -0.96092020322E+00  0.38174900407E+02  0.86278457709E+01  0.17561926464E+03  0.17120000000E+03 0.  0.
        998    1    1    2    0    0  0.46947169832E+01 -0.61625605277E+01  0.13683009401E+04  0.13683594119E+04  0.10000000000E+02 0.  1.
</event>
<event>
 5    1  0.1145138E-008  0.3811718E+03  0.7957747E-01  0.3446072E+00
         13   -1    0    0    0    0  0.00000000000E+00  0.00000000000E+00  0.14999999963E+04  0.15000000000E+04  0.10566000000E+00 0. -1.
        994   -1    0    0    0    0 -0.00000000000E+00 -0.00000000000E+00  0.11368683772E-12  0.17120000000E+03  0.17120000000E+03 0.  0.
         13    1    1    2    0    0  0.13671298854E+01 -0.12590549582E+02  0.21271499030E+02  0.24756389437E+02  0.10566000000E+00 0. -1.
        994    1    1    2    0    0 -0.21830551974E+01  0.75943647621E+01  0.37507741775E+01  0.17142330184E+03  0.17120000000E+03 0.  0.
        998    1    1    2    0    0  0.81592531199E+00  0.49961848202E+01  0.14749777231E+04  0.14750203087E+04  0.10000000000E+02 0. -1.
</event>
<event>
 5    1  0.1145138E-008  0.3771296E+03  0.7957747E-01  0.3463753E+00
         13   -1    0    0    0    0  0.00000000000E+00  0.00000000000E+00  0.14999999963E+04  0.15000000000E+04  0.10566000000E+00 0. -1.
        994   -1    0    0    0    0 -0.00000000000E+00 -0.00000000000E+00  0.11368683772E-12  0.17120000000E+03  0.17120000000E+03 0.  0.
         13    1    1    2    0    0 -0.29210115500E+02  0.26059236391E+01  0.78277559610E+02  0.83590724295E+02  0.10566000000E+00 0. -1.
        994    1    1    2    0    0  0.74631961193E+01 -0.33874548823E+00  0.57775742730E+01  0.17146029981E+03  0.17120000000E+03 0.  0.
        998    1    1    2    0    0  0.21746919380E+02 -0.22671781509E+01  0.14159448624E+04  0.14161489759E+04  0.10000000000E+02 0. -1.
</event>
<event>
 5    1  0.1363325E-008  0.3861153E+03  0.7957747E-01  0.3424956E+00
         13   -1    0    0    0    0  0.00000000000E+00  0.00000000000E+00  0.14999999963E+04  0.15000000000E+04  0.10566000000E+00 0.  1.
        994   -1    0    0    0    0 -0.00000000000E+00 -0.00000000000E+00  0.11368683772E-12  0.17120000000E+03  0.17120000000E+03 0.  0.
         13    1    1    2    0    0 -0.77496848282E+01 -0.85614408324E+01  0.52286571862E+02  0.53546733282E+02  0.10566000000E+00 0.  1.
        994    1    1    2    0    0  0.26620103380E+02  0.22990747455E+02  0.51419940682E+01  0.17485160701E+03  0.17120000000E+03 0.  0.
        998    1    1    2    0    0 -0.18870418552E+02 -0.14429306622E+02  0.14425714303E+04  0.14428016597E+04  0.10000000000E+02 0.  1.
</event>
<event>
 5    1  0.1145138E-008  0.3804807E+03  0.7957747E-01  0.3449068E+00
         13   -1    0    0    0    0  0.00000000000E+00  0.00000000000E+00  0.14999999963E+04  0.15000000000E+04  0.10566000000E+00 0.  1.
        994   -1    0    0    0    0 -0.00000000000E+00 -0.00000000000E+00  0.11368683772E-12  0.17120000000E+03  0.17120000000E+03 0.  0.
         13    1    1    2    0    0  0.32643046182E+02 -0.20827212007E+01  0.13568167874E+03  0.13956874758E+03  0.10566000000E+00 0.  1.
        994    1    1    2    0    0 -0.19604196370E+02  0.74499274267E+01  0.53600244111E+01  0.17256301978E+03  0.17120000000E+03 0.  0.
        998    1    1    2    0    0 -0.13038849812E+02 -0.53672062260E+01  0.13589582931E+04  0.13590682326E+04  0.10000000000E+02 0.  1.
</event>
<event>
 5    1  0.1145138E-008  0.3691293E+03  0.7957747E-01  0.3499902E+00
         13   -1    0    0    0    0  0.00000000000E+00  0.00000000000E+00  0.14999999963E+04  0.15000000000E+04  0.10566000000E+00 0. -1.
        994   -1    0    0    0    0 -0.00000000000E+00 -0.00000000000E+00  0.11368683772E-12  0.17120000000E+03  0.17120000000E+03 0.  0.
         13    1    1    2    0    0 -0.35556844942E+01 -0.25151733871E+02  0.28168692910E+02  0.37930713588E+02  0.10566000000E+00 0. -1.
        994    1    1    2    0    0  0.56501901393E+01 -0.91322106933E+01  0.10881190206E+02  0.17188124453E+03  0.17120000000E+03 0.  0.
        998    1    1    2    0    0 -0.20945056450E+01  0.34283944565E+02  0.14609501132E+04  0.14613880419E+04  0.10000000000E+02 0. -1.
</event>
<event>
 5    1  0.1145138E-008  0.3828917E+03  0.7957747E-01  0.3438663E+00
         13   -1    0    0    0    0  0.00000000000E+00  0.00000000000E+00  0.14999999963E+04  0.15000000000E+04  0.10566000000E+00 0. -1.
        994   -1    0    0    0    0 -0.00000000000E+00 -0.00000000000E+00  0.11368683772E-12  0.17120000000E+03  0.17120000000E+03 0.  0.
         13    1    1    2    0    0 -0.17339234104E+02 -0.19399528862E+02  0.11795983468E+03  0.12079538286E+03  0.10566000000E+00 0. -1.
        994    1    1    2    0    0  0.17450741295E+02  0.17965265693E+02  0.47603809920E+01  0.17308778227E+03  0.17120000000E+03 0.  0.
        998    1    1    2    0    0 -0.11150719154E+00  0.14342631691E+01  0.13772797806E+04  0.13773168349E+04  0.10000000000E+02 0. -1.
</event>
<event>
 5    1  0.1145138E-008  0.3845700E+03  0.7957747E-01  0.3431498E+00
         13   -1    0    0    0    0  0.00000000000E+00  0.00000000000E+00  0.14999999963E+04  0.15000000000E+04  0.10566000000E+00 0. -1.
        994   -1    0    0    0    0 -0.00000000000E+00 -0.00000000000E+00  0.11368683772E-12  0.17120000000E+03  0.17120000000E+03 0.  0.
         13    1    1    2    0    0 -0.71364352532E+02 -0.28058659370E+02  0.15867417786E+03  0.17623185031E+03  0.10566000000E+00 0. -1.
        994    1    1    2    0    0  0.26571438375E+02  0.26468780732E+02  0.24062016816E+02  0.17690409363E+03  0.17120000000E+03 0.  0.
        998    1    1    2    0    0  0.44792914158E+02  0.15898786379E+01  0.13172638016E+04  0.13180640561E+04  0.10000000000E+02 0. -1.
</event>
<event>
 5    1  0.1145138E-008  0.3737100E+03  0.7957747E-01  0.3479012E+00
         13   -1    0    0    0    0  0.00000000000E+00  0.00000000000E+00  0.14999999963E+04  0.15000000000E+04  0.10566000000E+00 0.  1.
        994   -1    0    0    0    0 -0.00000000000E+00 -0.00000000000E+00  0.11368683772E-12  0.17120000000E+03  0.17120000000E+03 0.  0.
         13    1    1    2    0    0  0.31430405897E+02 -0.39560293135E+02  0.20269521270E+03  0.20889769655E+03  0.10566000000E+00 0.  1.
        994    1    1    2    0    0  0.41846320278E+02  0.39045420730E+02  0.18609652234E+02  0.18147015886E+03  0.17120000000E+03 0.  0.
        998    1    1    2    0    0 -0.73276726174E+02  0.51487240489E+00  0.12786951313E+04  0.12808321446E+04  0.10000000000E+02 0.  1.
</event>
<event>
 5    1  0.1145138E-008  0.3717638E+03  0.7957747E-01  0.3487824E+00
         13   -1    0    0    0    0  0.00000000000E+00  0.00000000000E+00  0.14999999963E+04  0.15000000000E+04  0.10566000000E+00 0. -1.
        994   -1    0    0    0    0 -0.00000000000E+00 -0.00000000000E+00  0.11368683772E-12  0.17120000000E+03  0.17120000000E+03 0.  0.
         13    1    1    2    0    0  0.88351240325E+01  0.69933058764E+01  0.36825692889E+01  0.11854881879E+02  0.10566000000E+00 0. -1.
        994    1    1    2    0    0 -0.14872589339E+02 -0.21470209034E+01  0.91264444661E+01  0.17210036491E+03  0.17120000000E+03 0.  0.
        998    1    1    2    0    0  0.60374653064E+01 -0.48462849730E+01  0.14871909825E+04  0.14872447532E+04  0.10000000000E+02 0. -1.
</event>
<event>
 5    1  0.1145138E-008  0.3856053E+03  0.7957747E-01  0.3427109E+00
         13   -1    0    0    0    0  0.00000000000E+00  0.00000000000E+00  0.14999999963E+04  0.15000000000E+04  0.10566000000E+00 0. -1.
        994   -1    0    0    0    0 -0.00000000000E+00 -0.00000000000E+00  0.11368683772E-12  0.17120000000E+03  0.17120000000E+03 0.  0.
         13    1    1    2    0    0 -0.12912046831E+02  0.45705357092E+01  0.74234184073E+02  0.75487323433E+02  0.10566000000E+00 0. -1.
        994    1    1    2    0    0 -0.12912133328E+00 -0.99742430449E+01  0.16565620311E+01  0.17149835683E+03  0.17120000000E+03 0.  0.
        998    1    1    2    0    0  0.13041168164E+02  0.54037073357E+01  0.14241092502E+04  0.14242143197E+04  0.10000000000E+02 0. -1.
</event>
<event>
 5    1  0.1145138E-008  0.3839912E+03  0.7957747E-01  0.3433962E+00
         13   -1    0    0    0    0  0.00000000000E+00  0.00000000000E+00  0.14999999963E+04  0.15000000000E+04  0.10566000000E+00 0.  1.
        994   -1    0    0    0    0 -0.00000000000E+00 -0.00000000000E+00  0.11368683772E-12  0.17120000000E+03  0.17120000000E+03 0.  0.
         13    1    1    2    0    0 -0.96507016338E+01  0.38299578291E+01  0.24171939947E+02  0.26307764326E+02  0.10566000000E+00 0.  1.
        994    1    1    2    0    0  0.11389232247E+02 -0.51585852575E+01  0.26477559796E+01  0.17167637061E+03  0.17120000000E+03 0.  0.
        998    1    1    2    0    0 -0.17385306135E+01  0.13286274284E+01  0.14731803004E+04  0.14732158651E+04  0.10000000000E+02 0.  1.
</event>
<event>
 5    1  0.1145138E-008  0.3693609E+03  0.7957747E-01  0.3498833E+00
         13   -1    0    0    0    0  0.00000000000E+00  0.00000000000E+00  0.14999999963E+04  0.15000000000E+04  0.10566000000E+00 0. -1.
        994   -1    0    0    0    0 -0.00000000000E+00 -0.00000000000E+00  0.11368683772E-12  0.17120000000E+03  0.17120000000E+03 0.  0.
         13    1    1    2    0    0  0.74990114509E+02  0.25258103944E+02  0.34101518232E+03  0.35007549875E+03  0.10566000000E+00 0. -1.
        994    1    1    2    0    0 -0.45092930297E+02  0.47198371993E+02  0.25616038060E+02  0.18500454072E+03  0.17120000000E+03 0.  0.
        998    1    1    2    0    0 -0.29897184213E+02 -0.72456475937E+02  0.11333687759E+04  0.11361199605E+04  0.10000000000E+02 0. -1.
</event>
<event>
 5    1  0.1145138E-008  0.3784648E+03  0.7957747E-01  0.3457870E+00
         13   -1    0    0    0    0  0.00000000000E+00  0.00000000000E+00  0.14999999963E+04  0.15000000000E+04  0.10566000000E+00 0. -1.
        994   -1    0    0    0    0 -0.00000000000E+00 -0.00000000000E+00  0.11368683772E-12  0.17120000000E+03  0.17120000000E+03 0.  0.
         13    1    1    2    0    0 -0.43739880904E+02 -0.17396288423E+02  0.26709608671E+03  0.27121234989E+03  0.10566000000E+00 0. -1.
        994    1    1    2    0    0  0.55227964262E+01  0.17439905433E+01  0.50228253253E+01  0.17137155994E+03  0.17120000000E+03 0.  0.
        998    1    1    2    0    0  0.38217084478E+02  0.15652297879E+02  0.12278810842E+04  0.12286160902E+04  0.10000000000E+02 0. -1.
</event>
<event>
 5    1  0.1145138E-008  0.3822835E+03  0.7957747E-01  0.3441276E+00
         13   -1    0    0    0    0  0.00000000000E+00  0.00000000000E+00  0.14999999963E+04  0.15000000000E+04  0.10566000000E+00 0. -1.
        994   -1    0    0    0    0 -0.00000000000E+00 -0.00000000000E+00  0.11368683772E-12  0.17120000000E+03  0.17120000000E+03 0.  0.
         13    1    1    2    0    0  0.10444413098E+02  0.42299445383E+01  0.20348860626E+02  0.23260814444E+02  0.10566000000E+00 0. -1.
        994    1    1    2    0    0 -0.94269745881E+00 -0.80985546984E+01  0.32054634327E+01  0.17142400725E+03  0.17120000000E+03 0.  0.
        998    1    1    2    0    0 -0.95017156397E+01  0.38686101601E+01  0.14764456722E+04  0.14765151783E+04  0.10000000000E+02 0. -1.
</event>
<event>
 5    1  0.1145138E-008  0.3736426E+03  0.7957747E-01  0.3479316E+00
         13   -1    0    0    0    0  0.00000000000E+00  0.00000000000E+00  0.14999999963E+04  0.15000000000E+04  0.10566000000E+00 0. -1.
        994   -1    0    0    0    0 -0.00000000000E+00 -0.00000000000E+00  0.11368683772E-12  0.17120000000E+03  0.17120000000E+03 0.  0.
         13    1    1    2    0    0 -0.48801713340E+02  0.18772982321E+01  0.83334782577E+02  0.96591038015E+02  0.10566000000E+00 0. -1.
        994    1    1    2    0    0  0.49187259285E+02 -0.11247886517E+02  0.21948800336E+02  0.17982516860E+03  0.17120000000E+03 0.  0.
        998    1    1    2    0    0 -0.38554594472E+00  0.93705882851E+01  0.13947164134E+04  0.13947837934E+04  0.10000000000E+02 0. -1.
</event>
<event>
 5    1  0.1913803E-008  0.3863939E+03  0.7957747E-01  0.3423782E+00
         13   -1    0    0    0    0  0.00000000000E+00  0.00000000000E+00  0.14999999963E+04  0.15000000000E+04  0.10566000000E+00 0.  1.
        994   -1    0    0    0    0 -0.00000000000E+00 -0.00000000000E+00  0.11368683772E-12  0.17120000000E+03  0.17120000000E+03 0.  0.
         13    1    1    2    0    0  0.10975225860E+02  0.21393300523E+01  0.65891106447E+02  0.66833235658E+02  0.10566000000E+00 0.  1.
        994    1    1    2    0    0 -0.10186578244E+02 -0.48474942974E+01  0.13564426388E+01  0.17157664326E+03  0.17120000000E+03 0.  0.
        998    1    1    2    0    0 -0.78864761592E+00  0.27081642451E+01  0.14327524472E+04  0.14327901211E+04  0.10000000000E+02 0.  1.
</event>
<event>
 5    1  0.1145138E-008  0.3818320E+03  0.7957747E-01  0.3443220E+00
         13   -1    0    0    0    0  0.00000000000E+00  0.00000000000E+00  0.14999999963E+04  0.15000000000E+04  0.10566000000E+00 0. -1.
        994   -1    0    0    0    0 -0.00000000000E+00 -0.00000000000E+00  0.11368683772E-12  0.17120000000E+03  0.17120000000E+03 0.  0.
         13    1    1    2    0    0 -0.17233135381E+02 -0.90747085712E+00  0.45224317767E+02  0.48405108614E+02  0.10566000000E+00 0. -1.
        994    1    1    2    0    0  0.13574465619E+02 -0.31451884288E+02  0.71202924899E+01  0.17473873557E+03  0.17120000000E+03 0.  0.
        998    1    1    2    0    0  0.36586697628E+01  0.32359355145E+02  0.14476553860E+04  0.14480561558E+04  0.10000000000E+02 0. -1.
</event>
<event>
 5    1  0.1145138E-008  0.3888274E+03  0.7957747E-01  0.3413600E+00
         13   -1    0    0    0    0  0.00000000000E+00  0.00000000000E+00  0.14999999963E+04  0.15000000000E+04  0.10566000000E+00 0. -1.
        994   -1    0    0    0    0 -0.00000000000E+00 -0.00000000000E+00  0.11368683772E-12  0.17120000000E+03  0.17120000000E+03 0.  0.
         13    1    1    2    0    0 -0.81299836929E+02  0.62874678959E+02  0.25729624714E+03  0.27706363655E+03  0.10566000000E+00 0. -1.
        994    1    1    2    0    0  0.38876859567E+02 -0.32330536083E+02  0.30901277047E+02  0.18116567748E+03  0.17120000000E+03 0.  0.
        998    1    1    2    0    0  0.42422977362E+02 -0.30544142876E+02  0.12118024721E+04  0.12129706860E+04  0.10000000000E+02 0. -1.
</event>
<event>
 5    1  0.1384154E-008  0.3863435E+03  0.7957747E-01  0.3423994E+00
         13   -1    0    0    0    0  0.00000000000E+00  0.00000000000E+00  0.14999999963E+04  0.15000000000E+04  0.10566000000E+00 0.  1.
        994   -1    0    0    0    0 -0.00000000000E+00 -0.00000000000E+00  0.11368683772E-12  0.17120000000E+03  0.17120000000E+03 0.  0.
         13    1    1    2    0    0  0.25396891501E+01 -0.10182952716E+02  0.57537442275E+02  0.58486844457E+02  0.10566000000E+00 0.  1.
        994    1    1    2    0    0 -0.65078848194E+01  0.70793584434E+01  0.12674313542E+01  0.17147453532E+03  0.17120000000E+03 0.  0.
        998    1    1    2    0    0  0.39681956693E+01  0.31035942726E+01  0.14411951226E+04  0.14412386202E+04  0.10000000000E+02 0.  1.
</event>
<event>
 5    1  0.1145138E-008  0.3758899E+03  0.7957747E-01  0.3469252E+00
         13   -1    0    0    0    0  0.00000000000E+00  0.00000000000E+00  0.14999999963E+04  0.15000000000E+04  0.10566000000E+00 0. -1.
        994   -1    0    0    0    0 -0.00000000000E+00 -0.00000000000E+00  0.11368683772E-12  0.17120000000E+03  0.17120000000E+03 0.  0.
         13    1    1    2    0    0 -0.27385309832E+02  0.18630721619E+01  0.56503106743E+02  0.62817501289E+02  0.10566000000E+00 0. -1.
        994    1    1    2    0    0  0.26596499106E+02  0.36341880468E+01  0.86683763846E+01  0.17350839126E+03  0.17120000000E+03 0.  0.
        998    1    1    2    0    0  0.78881072630E+00 -0.54972602087E+01  0.14348285132E+04  0.14348741075E+04  0.10000000000E+02 0. -1.
</event>
<event>
 5    1  0.1145138E-008  0.3797204E+03  0.7957747E-01  0.3452377E+00
         13   -1    0    0    0    0  0.00000000000E+00  0.00000000000E+00  0.14999999963E+04  0.15000000000E+04  0.10566000000E+00 0.  1.
        994   -1    0    0    0    0 -0.00000000000E+00 -0.00000000000E+00  0.11368683772E-12  0.17120000000E+03  0.17120000000E+03 0.  0.
         13    1    1    2    0    0 -0.11038041344E+01 -0.65486965251E+02  0.31267295032E+03  0.31945914610E+03  0.10566000000E+00 0.  1.
        994    1    1    2    0    0  0.23343277556E+00  0.90978352234E+02  0.32486636585E+02  0.19657552397E+03  0.17120000000E+03 0.  0.
        998    1    1    2    0    0  0.87037135880E+00 -0.25491386983E+02  0.11548404094E+04  0.11551653299E+04  0.10000000000E+02 0.  1.
</event>
<event>
 5    1  0.1145138E-008  0.3851438E+03  0.7957747E-01  0.3429062E+00
         13   -1    0    0    0    0  0.00000000000E+00  0.00000000000E+00  0.14999999963E+04  0.15000000000E+04  0.10566000000E+00 0.  1.
        994   -1    0    0    0    0 -0.00000000000E+00 -0.00000000000E+00  0.11368683772E-12  0.17120000000E+03  0.17120000000E+03 0.  0.
         13    1    1    2    0    0  0.15467087933E+02 -0.11331749474E+02  0.11125257499E+03  0.11289280739E+03  0.10566000000E+00 0.  1.
        994    1    1    2    0    0 -0.16487180921E+02  0.10048022839E+02  0.27850994732E+01  0.17230782535E+03  0.17120000000E+03 0.  0.
        998    1    1    2    0    0  0.10200929883E+01  0.12837266349E+01  0.13859623218E+04  0.13859993673E+04  0.10000000000E+02 0.  0.
</event>
<event>
 5    1  0.1145138E-008  0.3856173E+03  0.7957747E-01  0.3427059E+00
         13   -1    0    0    0    0  0.00000000000E+00  0.00000000000E+00  0.14999999963E+04  0.15000000000E+04  0.10566000000E+00 0.  1.
        994   -1    0    0    0    0 -0.00000000000E+00 -0.00000000000E+00  0.11368683772E-12  0.17120000000E+03  0.17120000000E+03 0.  0.
         13    1    1    2    0    0  0.98401096606E+00  0.10299488604E+02  0.39443147064E+02  0.40777699266E+02  0.10566000000E+00 0.  1.
        994    1    1    2    0    0 -0.64259379298E+01 -0.11822781223E+02  0.19185034879E+01  0.17173873031E+03  0.17120000000E+03 0.  0.
        998    1    1    2    0    0  0.54419269637E+01  0.15232926189E+01  0.14586383457E+04  0.14586835704E+04  0.10000000000E+02 0.  1.
</event>
<event>
 5    1  0.1145138E-008  0.3841420E+03  0.7957747E-01  0.3433319E+00
         13   -1    0    0    0    0  0.00000000000E+00  0.00000000000E+00  0.14999999963E+04  0.15000000000E+04  0.10566000000E+00 0. -1.
        994   -1    0    0    0    0 -0.00000000000E+00 -0.00000000000E+00  0.11368683772E-12  0.17120000000E+03  0.17120000000E+03 0.  0.
         13    1    1    2    0    0  0.81902729615E+01 -0.19356592585E+02  0.10694702719E+03  0.10899282562E+03  0.10566000000E+00 0. -1.
        994    1    1    2    0    0 -0.48202720163E+01  0.12328932720E+02  0.26348415287E+01  0.17173124350E+03  0.17120000000E+03 0.  0.
        998    1    1    2    0    0 -0.33700009452E+01  0.70276598652E+01  0.13904181276E+04  0.13904759309E+04  0.10000000000E+02 0. -1.
</event>
<event>
 5    1  0.1145138E-008  0.3772704E+03  0.7957747E-01  0.3463131E+00
         13   -1    0    0    0    0  0.00000000000E+00  0.00000000000E+00  0.14999999963E+04  0.15000000000E+04  0.10566000000E+00 0. -1.
        994   -1    0    0    0    0 -0.00000000000E+00 -0.00000000000E+00  0.11368683772E-12  0.17120000000E+03  0.17120000000E+03 0.  0.
         13    1    1    2    0    0  0.15243983936E+02 -0.32925963918E+02  0.13136189684E+03  0.13628080294E+03  0.10566000000E+00 0. -1.
        994    1    1    2    0    0 -0.39564432063E+02 -0.16209460668E+02  0.11709196407E+02  0.17684636321E+03  0.17120000000E+03 0.  0.
        998    1    1    2    0    0  0.24320448128E+02  0.49135424586E+02  0.13569289030E+04  0.13580728338E+04  0.10000000000E+02 0. -1.
</event>
<event>
 5    1  0.1145138E-008  0.3834168E+03  0.7957747E-01  0.3436414E+00
         13   -1    0    0    0    0  0.00000000000E+00  0.00000000000E+00  0.14999999963E+04  0.15000000000E+04  0.10566000000E+00 0. -1.
        994   -1    0    0    0    0 -0.00000000000E+00 -0.00000000000E+00  0.11368683772E-12  0.17120000000E+03  0.17120000000E+03 0.  0.
         13    1    1    2    0    0 -0.98764299900E+01  0.11741853206E+02  0.50981997183E+02  0.53240869516E+02  0.10566000000E+00 0. -1.
        994    1    1    2    0    0  0.33975431469E+01  0.60569129372E+01  0.25776334942E+01  0.17136018700E+03  0.17120000000E+03 0.  0.
        998    1    1    2    0    0  0.64788868431E+01 -0.17798766143E+02  0.14464403656E+04  0.14465989435E+04  0.10000000000E+02 0. -1.
</event>
<event>
 5    1  0.1145138E-008  0.3775060E+03  0.7957747E-01  0.3462090E+00
         13   -1    0    0    0    0  0.00000000000E+00  0.00000000000E+00  0.14999999963E+04  0.15000000000E+04  0.10566000000E+00 0. -1.
        994   -1    0    0    0    0 -0.00000000000E+00 -0.00000000000E+00  0.11368683772E-12  0.17120000000E+03  0.17120000000E+03 0.  0.
         13    1    1    2    0    0 -0.59830437221E+02  0.62936044044E+01  0.28659520901E+03  0.29284145142E+03  0.10566000000E+00 0. -1.
        994    1    1    2    0    0  0.52542715731E+02 -0.12512720246E+02  0.15294734000E+02  0.18016846015E+03  0.17120000000E+03 0.  0.
        998    1    1    2    0    0  0.72877214902E+01  0.62191158418E+01  0.11981100533E+04  0.11981900884E+04  0.10000000000E+02 0. -1.
</event>
<event>
 5    1  0.1154664E-008  0.3858044E+03  0.7957747E-01  0.3426268E+00
         13   -1    0    0    0    0  0.00000000000E+00  0.00000000000E+00  0.14999999963E+04  0.15000000000E+04  0.10566000000E+00 0.  1.
        994   -1    0    0    0    0 -0.00000000000E+00 -0.00000000000E+00  0.11368683772E-12  0.17120000000E+03  0.17120000000E+03 0.  0.
         13    1    1    2    0    0  0.11141056072E+02 -0.38260364510E+01  0.56189484043E+02  0.57411070068E+02  0.10566000000E+00 0.  1.
        994    1    1    2    0    0 -0.86809157412E+01  0.43152283533E+01  0.15395952284E+01  0.17148116470E+03  0.17120000000E+03 0.  0.
        998    1    1    2    0    0 -0.24601403307E+01 -0.48919190228E+00  0.14422709170E+04  0.14423077652E+04  0.10000000000E+02 0.  1.
</event>
<event>
 5    1  0.1145138E-008  0.4038811E+03  0.7957747E-01  0.3353341E+00
         13   -1    0    0    0    0  0.00000000000E+00  0.00000000000E+00  0.14999999963E+04  0.15000000000E+04  0.10566000000E+00 0. -1.
        994   -1    0    0    0    0 -0.00000000000E+00 -0.00000000000E+00  0.11368683772E-12  0.17120000000E+03  0.17120000000E+03 0.  0.
         13    1    1    2    0    0 -0.41996690430E+01 -0.55718332353E+02  0.38763661819E+02  0.68005899906E+02  0.10566000000E+00 0. -1.
        994    1    1    2    0    0  0.14036331609E+02  0.65527252421E+02  0.48210427756E+02  0.19006452788E+03  0.17120000000E+03 0.  0.
        998    1    1    2    0    0 -0.98366625660E+01 -0.98089200675E+01  0.14130259067E+04  0.14131295722E+04  0.10000000000E+02 0. -1.
</event>
<event>
 5    1  0.1145138E-008  0.3840972E+03  0.7957747E-01  0.3433510E+00
         13   -1    0    0    0    0  0.00000000000E+00  0.00000000000E+00  0.14999999963E+04  0.15000000000E+04  0.10566000000E+00 0. -1.
        994   -1    0    0    0    0 -0.00000000000E+00 -0.00000000000E+00  0.11368683772E-12  0.17120000000E+03  0.17120000000E+03 0.  0.
         13    1    1    2    0    0 -0.68427834399E+01  0.12925422744E+02  0.56853457562E+02  0.58704489088E+02  0.10566000000E+00 0. -1.
        994    1    1    2    0    0 -0.31662808881E+01  0.10076000414E+02  0.24470298759E+01  0.17154293653E+03  0.17120000000E+03 0.  0.
        998    1    1    2    0    0  0.10009064328E+02 -0.23001423158E+02  0.14406995088E+04  0.14409525744E+04  0.10000000000E+02 0. -1.
</event>
<event>
 5    1  0.1145138E-008  0.3735696E+03  0.7957747E-01  0.3479645E+00
         13   -1    0    0    0    0  0.00000000000E+00  0.00000000000E+00  0.14999999963E+04  0.15000000000E+04  0.10566000000E+00 0.  1.
        994   -1    0    0    0    0 -0.00000000000E+00 -0.00000000000E+00  0.11368683772E-12  0.17120000000E+03  0.17120000000E+03 0.  0.
         13    1    1    2    0    0 -0.26551148087E+02  0.86914973833E+02  0.44435878022E+03  0.45355695658E+03  0.10566000000E+00 0.  1.
        994    1    1    2    0    0 -0.10355451150E+01 -0.81768544503E+02  0.30612512438E+02  0.19218151093E+03  0.17120000000E+03 0.  0.
        998    1    1    2    0    0  0.27586693202E+02 -0.51464293307E+01  0.10250287036E+04  0.10254615325E+04  0.10000000000E+02 0.  1.
</event>
<event>
 5    1  0.1145138E-008  0.3841278E+03  0.7957747E-01  0.3433380E+00
         13   -1    0    0    0    0  0.00000000000E+00  0.00000000000E+00  0.14999999963E+04  0.15000000000E+04  0.10566000000E+00 0.  1.
        994   -1    0    0    0    0 -0.00000000000E+00 -0.00000000000E+00  0.11368683772E-12  0.17120000000E+03  0.17120000000E+03 0.  0.
         13    1    1    2    0    0 -0.46079213397E+01 -0.19390954079E+02  0.10043533676E+03  0.10239389666E+03  0.10566000000E+00 0.  1.
        994    1    1    2    0    0  0.62185016462E+01  0.47456524775E+01  0.22656065830E+01  0.17139359368E+03  0.17120000000E+03 0.  0.
        998    1    1    2    0    0 -0.16105803065E+01  0.14645301602E+02  0.13972990529E+04  0.13974125097E+04  0.10000000000E+02 0.  1.
</event>
<event>
 5    1  0.1145138E-008  0.3862021E+03  0.7957747E-01  0.3424590E+00
         13   -1    0    0    0    0  0.00000000000E+00  0.00000000000E+00  0.14999999963E+04  0.15000000000E+04  0.10566000000E+00 0.  1.
        994   -1    0    0    0    0 -0.00000000000E+00 -0.00000000000E+00  0.11368683772E-12  0.17120000000E+03  0.17120000000E+03 0.  0.
         13    1    1    2    0    0 -0.13328512734E+00 -0.11277001934E+02  0.62668692263E+02  0.63675463811E+02  0.10566000000E+00 0.  1.
        994    1    1    2    0    0 -0.14082213208E+02  0.75186050104E+01  0.18697294979E+01  0.17195282504E+03  0.17120000000E+03 0.  0.
        998    1    1    2    0    0  0.14215498335E+02  0.37583969241E+01  0.14354615745E+04  0.14355717112E+04  0.10000000000E+02 0.  1.
</event>
<event>
 5    1  0.1145138E-008  0.3736842E+03  0.7957747E-01  0.3479128E+00
         13   -1    0    0    0    0  0.00000000000E+00  0.00000000000E+00  0.14999999963E+04  0.15000000000E+04  0.10566000000E+00 0. -1.
        994   -1    0    0    0    0 -0.00000000000E+00 -0.00000000000E+00  0.11368683772E-12  0.17120000000E+03  0.17120000000E+03 0.  0.
         13    1    1    2    0    0  0.27555235165E+02  0.11116552418E+03  0.58731014288E+03  0.59837302733E+03  0.10566000000E+00 0. -1.
        994    1    1    2    0    0 -0.29920778461E+02 -0.10101913609E+03  0.46258238434E+02  0.20627501900E+03  0.17120000000E+03 0.  0.
        998    1    1    2    0    0  0.23655432957E+01 -0.10146388086E+02  0.86643161497E+03  0.86655195367E+03  0.10000000000E+02 0.  0.
</event>
<event>
 5    1  0.1145138E-008  0.3816071E+03  0.7957747E-01  0.3444191E+00
         13   -1    0    0    0    0  0.00000000000E+00  0.00000000000E+00  0.14999999963E+04  0.15000000000E+04  0.10566000000E+00 0.  1.
        994   -1    0    0    0    0 -0.00000000000E+00 -0.00000000000E+00  0.11368683772E-12  0.17120000000E+03  0.17120000000E+03 0.  0.
         13    1    1    2    0    0  0.56430621930E+02  0.10050341704E+02  0.34121722960E+03  0.34599802514E+03  0.10566000000E+00 0.  1.
        994    1    1    2    0    0 -0.72876191012E+02  0.13333421266E+02  0.21795735625E+02  0.18781164349E+03  0.17120000000E+03 0.  0.
        998    1    1    2    0    0  0.16445569081E+02 -0.23383762970E+02  0.11369870311E+04  0.11373903314E+04  0.10000000000E+02 0.  1.
</event>
<event>
 5    1  0.1145138E-008  0.3837239E+03  0.7957747E-01  0.3435102E+00
         13   -1    0    0    0    0  0.00000000000E+00  0.00000000000E+00  0.14999999963E+04  0.15000000000E+04  0.10566000000E+00 0. -1.
        994   -1    0    0    0    0 -0.00000000000E+00 -0.00000000000E+00  0.11368683772E-12  0.17120000000E+03  0.17120000000E+03 0.  0.
         13    1    1    2    0    0  0.23528794074E+02 -0.11807711787E+02  0.15002122323E+03  0.15231350824E+03  0.10566000000E+00 0. -1.
        994    1    1    2    0    0 -0.13109824334E+02  0.13607334145E+02  0.34449332056E+01  0.17227401023E+03  0.17120000000E+03 0.  0.
        998    1    1    2    0    0 -0.10418969740E+02 -0.17996223580E+01  0.13465338398E+04  0.13466124815E+04  0.10000000000E+02 0. -1.
</event>
<event>
 5    1  0.1145138E-008  0.3830441E+03  0.7957747E-01  0.3438010E+00
         13   -1    0    0    0    0  0.00000000000E+00  0.00000000000E+00  0.14999999963E+04  0.15000000000E+04  0.10566000000E+00 0. -1.
        994   -1    0    0    0    0 -0.00000000000E+00 -0.00000000000E+00  0.11368683772E-12  0.17120000000E+03  0.17120000000E+03 0.  0.
         13    1    1    2    0    0 -0.13333836606E+02 -0.20848112961E+00  0.29335160245E+02  0.32224174988E+02  0.10566000000E+00 0. -1.
        994    1    1    2    0    0  0.43684573362E+02  0.38462950788E+02  0.13898495934E+02  0.18135696491E+03  0.17120000000E+03 0.  0.
        998    1    1    2    0    0 -0.30350736756E+02 -0.38254469659E+02  0.14567663401E+04  0.14576188601E+04  0.10000000000E+02 0. -1.
</event>
<event>
 5    1  0.1145138E-008  0.3759922E+03  0.7957747E-01  0.3468797E+00
         13   -1    0    0    0    0  0.00000000000E+00  0.00000000000E+00  0.14999999963E+04  0.15000000000E+04  0.10566000000E+00 0. -1.
        994   -1    0    0    0    0 -0.00000000000E+00 -0.00000000000E+00  0.11368683772E-12  0.17120000000E+03  0.17120000000E+03 0.  0.
         13    1    1    2    0    0  0.24804281862E+02 -0.14769367070E+02  0.71658854468E+02  0.77255350559E+02  0.10566000000E+00 0. -1.
        994    1    1    2    0    0  0.57041034651E+01 -0.33385974860E+01  0.63181229560E+01  0.17144399000E+03  0.17120000000E+03 0.  0.
        998    1    1    2    0    0 -0.30508385327E+02  0.18107964556E+02  0.14220230189E+04  0.14225006594E+04  0.10000000000E+02 0. -1.
</event>
<event>
 5    1  0.1145138E-008  0.3731164E+03  0.7957747E-01  0.3481690E+00
         13   -1    0    0    0    0  0.00000000000E+00  0.00000000000E+00  0.14999999963E+04  0.15000000000E+04  0.10566000000E+00 0. -1.
        994   -1    0    0    0    0 -0.00000000000E+00 -0.00000000000E+00  0.11368683772E-12  0.17120000000E+03  0.17120000000E+03 0.  0.
         13    1    1    2    0    0  0.13124171836E+02  0.57638318942E+02  0.16546803316E+03  0.17571027534E+03  0.10566000000E+00 0. -1.
        994    1    1    2    0    0 -0.66863833200E+02  0.24996904614E+02  0.30832870633E+02  0.18803117652E+03  0.17120000000E+03 0.  0.
        998    1    1    2    0    0  0.53739661365E+02 -0.82635223556E+02  0.13036990925E+04  0.13074585481E+04  0.10000000000E+02 0. -1.
</event>
<event>
 5    1  0.1145138E-008  0.3732803E+03  0.7957747E-01  0.3480950E+00
         13   -1    0    0    0    0  0.00000000000E+00  0.00000000000E+00  0.14999999963E+04  0.15000000000E+04  0.10566000000E+00 0.  1.
        994   -1    0    0    0    0 -0.00000000000E+00 -0.00000000000E+00  0.11368683772E-12  0.17120000000E+03  0.17120000000E+03 0.  0.
         13    1    1    2    0    0  0.25094212633E+02  0.15451983744E+02  0.28586833017E+02  0.41057295274E+02  0.10566000000E+00 0.  1.
        994    1    1    2    0    0 -0.22286882974E+02 -0.17742152968E+02  0.15559180232E+02  0.17424987011E+03  0.17120000000E+03 0.  0.
        998    1    1    2    0    0 -0.28073296591E+01  0.22901692241E+01  0.14558539830E+04  0.14558928346E+04  0.10000000000E+02 0.  1.
</event>
<event>
 5    1  0.1286810E-008  0.3842707E+03  0.7957747E-01  0.3432771E+00
         13   -1    0    0    0    0  0.00000000000E+00  0.00000000000E+00  0.14999999963E+04  0.15000000000E+04  0.10566000000E+00 0. -1.
        994   -1    0    0    0    0 -0.00000000000E+00 -0.00000000000E+00  0.11368683772E-12  0.17120000000E+03  0.17120000000E+03 0.  0.
         13    1    1    2    0    0  0.48950208702E+01  0.10360853692E+02  0.32107222504E+02  0.34090958031E+02  0.10566000000E+00 0. -1.
        994    1    1    2    0    0 -0.28715659642E+01 -0.10239261144E+02  0.23655245609E+01  0.17154627383E+03  0.17120000000E+03 0.  0.
        998    1    1    2    0    0 -0.20234549059E+01 -0.12159254773E+00  0.14655272492E+04  0.14655627681E+04  0.10000000000E+02 0. -1.
</event>
<event>
 5    1  0.1145138E-008  0.3883517E+03  0.7957747E-01  0.3415580E+00
         13   -1    0    0    0    0  0.00000000000E+00  0.00000000000E+00  0.14999999963E+04  0.15000000000E+04  0.10566000000E+00 0.  1.
        994   -1    0    0    0    0 -0.00000000000E+00 -0.00000000000E+00  0.11368683772E-12  0.17120000000E+03  0.17120000000E+03 0.  0.
         13    1    1    2    0    0 -0.75008831546E+02  0.69881163970E+01  0.16804454439E+03  0.18415791768E+03  0.10566000000E+00 0.  1.
        994    1    1    2    0    0 -0.23663599743E+02  0.76958552844E+01  0.23310681484E+02  0.17456236711E+03  0.17120000000E+03 0.  0.
        998    1    1    2    0    0  0.98672431289E+02 -0.14683971681E+02  0.13086447704E+04  0.13124797152E+04  0.10000000000E+02 0.  1.
</event>
<event>
 5    1  0.1145138E-008  0.3817149E+03  0.7957747E-01  0.3443725E+00
         13   -1    0    0    0    0  0.00000000000E+00  0.00000000000E+00  0.14999999963E+04  0.15000000000E+04  0.10566000000E+00 0.  1.
        994   -1    0    0    0    0 -0.00000000000E+00 -0.00000000000E+00  0.11368683772E-12  0.17120000000E+03  0.17120000000E+03 0.  0.
         13    1    1    2    0    0 -0.32773983333E+01 -0.36552133384E+02  0.17586520261E+03  0.17965350108E+03  0.10566000000E+00 0.  1.
        994    1    1    2    0    0  0.43020634289E+01  0.41591516657E+02  0.91035837357E+01  0.17646721294E+03  0.17120000000E+03 0.  0.
        998    1    1    2    0    0 -0.10246650956E+01 -0.50393832727E+01  0.13150312099E+04  0.13150792860E+04  0.10000000000E+02 0.  1.
</event>
<event>
 5    1  0.1145138E-008  0.3740028E+03  0.7957747E-01  0.3477694E+00
         13   -1    0    0    0    0  0.00000000000E+00  0.00000000000E+00  0.14999999963E+04  0.15000000000E+04  0.10566000000E+00 0. -1.
        994   -1    0    0    0    0 -0.00000000000E+00 -0.00000000000E+00  0.11368683772E-12  0.17120000000E+03  0.17120000000E+03 0.  0.
         13    1    1    2    0    0  0.19666996768E+02  0.38054744728E+02  0.13723914506E+03  0.14376908034E+03  0.10566000000E+00 0. -1.
        994    1    1    2    0    0 -0.55167831847E+01 -0.44107616598E+01  0.73618624886E+01  0.17150372222E+03  0.17120000000E+03 0.  0.
        998    1    1    2    0    0 -0.14150213583E+02 -0.33643983068E+02  0.13553989887E+04  0.13559271974E+04  0.10000000000E+02 0. -1.
</event>
<event>
 5    1  0.1145138E-008  0.3718252E+03  0.7957747E-01  0.3487544E+00
         13   -1    0    0    0    0  0.00000000000E+00  0.00000000000E+00  0.14999999963E+04  0.15000000000E+04  0.10566000000E+00 0. -1.
        994   -1    0    0    0    0 -0.00000000000E+00 -0.00000000000E+00  0.11368683772E-12  0.17120000000E+03  0.17120000000E+03 0.  0.
         13    1    1    2    0    0  0.11060774719E+02 -0.68568959151E+01  0.62873374332E+01  0.14453357223E+02  0.10566000000E+00 0. -1.
        994    1    1    2    0    0 -0.11809841541E+02  0.10540213289E+02  0.91795779298E+01  0.17217512336E+03  0.17120000000E+03 0.  0.
        998    1    1    2    0    0  0.74906682155E+00 -0.36833173734E+01  0.14845330809E+04  0.14845715194E+04  0.10000000000E+02 0. -1.
</event>
<event>
 5    1  0.1145138E-008  0.2732512E+03  0.7957747E-01  0.4107663E+00
         13   -1    0    0    0    0  0.00000000000E+00  0.00000000000E+00  0.14999999963E+04  0.15000000000E+04  0.10566000000E+00 0.  1.
        994   -1    0    0    0    0 -0.00000000000E+00 -0.00000000000E+00  0.11368683772E-12  0.17120000000E+03  0.17120000000E+03 0.  0.
         13    1    1    2    0    0 -0.51677740537E+02  0.15861204211E+03  0.48661819217E+03  0.51441777272E+03  0.10566000000E+00 0.  1.
        994    1    1    2    0    0  0.57037037457E+02 -0.14871566169E+03  0.11918329176E+03  0.26245698449E+03  0.17120000000E+03 0.  0.
        998    1    1    2    0    0 -0.53592969194E+01 -0.98963804163E+01  0.89419851235E+03  0.89432524279E+03  0.10000000000E+02 0.  0.
</event>
<event>
 5    1  0.1145138E-008  0.3853317E+03  0.7957747E-01  0.3428267E+00
         13   -1    0    0    0    0  0.00000000000E+00  0.00000000000E+00  0.14999999963E+04  0.15000000000E+04  0.10566000000E+00 0.  1.
        994   -1    0    0    0    0 -0.00000000000E+00 -0.00000000000E+00  0.11368683772E-12  0.17120000000E+03  0.17120000000E+03 0.  0.
         13    1    1    2    0    0 -0.12942950572E+02  0.39828067900E+01  0.62676159627E+02  0.64122498930E+02  0.10566000000E+00 0.  1.
        994    1    1    2    0    0  0.72027123226E+01 -0.79986261540E+01  0.18462295587E+01  0.17154796894E+03  0.17120000000E+03 0.  0.
        998    1    1    2    0    0  0.57402382495E+01  0.40158193640E+01  0.14354776071E+04  0.14355295321E+04  0.10000000000E+02 0.  1.
</event>
<event>
 5    1  0.1145138E-008  0.3766449E+03  0.7957747E-01  0.3465899E+00
         13   -1    0    0    0    0  0.00000000000E+00  0.00000000000E+00  0.14999999963E+04  0.15000000000E+04  0.10566000000E+00 0. -1.
        994   -1    0    0    0    0 -0.00000000000E+00 -0.00000000000E+00  0.11368683772E-12  0.17120000000E+03  0.17120000000E+03 0.  0.
         13    1    1    2    0    0  0.59409258894E+02  0.21586584082E+02  0.26256280218E+03  0.27006420886E+03  0.10566000000E+00 0. -1.
        994    1    1    2    0    0 -0.66178427264E+02 -0.30240188372E+02  0.23947614033E+02  0.18755527571E+03  0.17120000000E+03 0.  0.
        998    1    1    2    0    0  0.67691683705E+01  0.86536042897E+01  0.12134895801E+04  0.12135805154E+04  0.10000000000E+02 0. -1.
</event>
<event>
 5    1  0.1145138E-008  0.3860561E+03  0.7957747E-01  0.3425205E+00
         13   -1    0    0    0    0  0.00000000000E+00  0.00000000000E+00  0.14999999963E+04  0.15000000000E+04  0.10566000000E+00 0. -1.
        994   -1    0    0    0    0 -0.00000000000E+00 -0.00000000000E+00  0.11368683772E-12  0.17120000000E+03  0.17120000000E+03 0.  0.
         13    1    1    2    0    0  0.88758259243E+01 -0.65238401102E+01  0.60357036312E+02  0.61354085211E+02  0.10566000000E+00 0. -1.
        994    1    1    2    0    0 -0.17234767761E+01 -0.85660033569E+01  0.13569453061E+01  0.17142820097E+03  0.17120000000E+03 0.  0.
        998    1    1    2    0    0 -0.71523491482E+01  0.15089843467E+02  0.14382860147E+04  0.14384177138E+04  0.10000000000E+02 0. -1.
</event>
<event>
 5    1  0.1145138E-008  0.3705049E+03  0.7957747E-01  0.3493574E+00
         13   -1    0    0    0    0  0.00000000000E+00  0.00000000000E+00  0.14999999963E+04  0.15000000000E+04  0.10566000000E+00 0.  1.
        994   -1    0    0    0    0 -0.00000000000E+00 -0.00000000000E+00  0.11368683772E-12  0.17120000000E+03  0.17120000000E+03 0.  0.
         13    1    1    2    0    0  0.84051405324E+01 -0.10245100126E+02  0.56396810919E+01  0.14402278667E+02  0.10566000000E+00 0.  1.
        994    1    1    2    0    0 -0.86344298943E+01  0.52242501799E+01  0.93570328843E+01  0.17175226413E+03  0.17120000000E+03 0.  0.
        998    1    1    2    0    0  0.22928936190E+00  0.50208499460E+01  0.14850032823E+04  0.14850454572E+04  0.10000000000E+02 0.  1.
</event>
<event>
 5    1  0.1145138E-008  0.3763515E+03  0.7957747E-01  0.3467200E+00
         13   -1    0    0    0    0  0.00000000000E+00  0.00000000000E+00  0.14999999963E+04  0.15000000000E+04  0.10566000000E+00 0.  1.
        994   -1    0    0    0    0 -0.00000000000E+00 -0.00000000000E+00  0.11368683772E-12  0.17120000000E+03  0.17120000000E+03 0.  0.
         13    1    1    2    0    0 -0.24272433984E+01 -0.30831935430E+02  0.80846809459E+02  0.86560484729E+02  0.10566000000E+00 0.  1.
        994    1    1    2    0    0 -0.24902392584E+02  0.11652284641E+02  0.85483948260E+01  0.17360420487E+03  0.17120000000E+03 0.  0.
        998    1    1    2    0    0  0.27329635982E+02  0.19179650789E+02  0.14106047920E+04  0.14110353104E+04  0.10000000000E+02 0.  1.
</event>
<event>
 5    1  0.1145138E-008  0.3697569E+03  0.7957747E-01  0.3497009E+00
         13   -1    0    0    0    0  0.00000000000E+00  0.00000000000E+00  0.14999999963E+04  0.15000000000E+04  0.10566000000E+00 0.  1.
        994   -1    0    0    0    0 -0.00000000000E+00 -0.00000000000E+00  0.11368683772E-12  0.17120000000E+03  0.17120000000E+03 0.  0.
         13    1    1    2    0    0  0.60151405517E+02 -0.15324582875E+03  0.75191756223E+03  0.76972885302E+03  0.10566000000E+00 0.  1.
        994    1    1    2    0    0 -0.52045028167E+02  0.13363620088E+03  0.86538276793E+02  0.23951123667E+03  0.17120000000E+03 0.  0.
        998    1    1    2    0    0 -0.81063773505E+01  0.19609627872E+02  0.66154415725E+03  0.66195991031E+03  0.10000000000E+02 0.  1.
</event>
<event>
 5    1  0.1145138E-008  0.3840121E+03  0.7957747E-01  0.3433873E+00
         13   -1    0    0    0    0  0.00000000000E+00  0.00000000000E+00  0.14999999963E+04  0.15000000000E+04  0.10566000000E+00 0.  1.
        994   -1    0    0    0    0 -0.00000000000E+00 -0.00000000000E+00  0.11368683772E-12  0.17120000000E+03  0.17120000000E+03 0.  0.
         13    1    1    2    0    0  0.11793270501E+01 -0.21965307775E+02  0.10998004324E+03  0.11215831058E+03  0.10566000000E+00 0.  1.
        994    1    1    2    0    0  0.16169715459E+01  0.18271774700E+02  0.32322755472E+01  0.17221022023E+03  0.17120000000E+03 0.  0.
        998    1    1    2    0    0 -0.27962985960E+01  0.36935330751E+01  0.13867876775E+04  0.13868314692E+04  0.10000000000E+02 0.  1.
</event>
<event>
 5    1  0.1145138E-008  0.3697173E+03  0.7957747E-01  0.3497191E+00
         13   -1    0    0    0    0  0.00000000000E+00  0.00000000000E+00  0.14999999963E+04  0.15000000000E+04  0.10566000000E+00 0.  1.
        994   -1    0    0    0    0 -0.00000000000E+00 -0.00000000000E+00  0.11368683772E-12  0.17120000000E+03  0.17120000000E+03 0.  0.
         13    1    1    2    0    0  0.24989397258E+02 -0.14350711643E+02  0.36312240318E+02  0.46357338803E+02  0.10566000000E+00 0.  1.
        994    1    1    2    0    0  0.20957757282E+02  0.26460112717E+02  0.14779113996E+02  0.17512060806E+03  0.17120000000E+03 0.  0.
        998    1    1    2    0    0 -0.45947154540E+02 -0.12109401075E+02  0.14489086420E+04  0.14497220531E+04  0.10000000000E+02 0.  1.
</event>
<event>
 5    1  0.1145138E-008  0.3714280E+03  0.7957747E-01  0.3489354E+00
         13   -1    0    0    0    0  0.00000000000E+00  0.00000000000E+00  0.14999999963E+04  0.15000000000E+04  0.10566000000E+00 0. -1.
        994   -1    0    0    0    0 -0.00000000000E+00 -0.00000000000E+00  0.11368683772E-12  0.17120000000E+03  0.17120000000E+03 0.  0.
         13    1    1    2    0    0 -0.30319248009E+02  0.47953931156E+02  0.12740278252E+03  0.13946439141E+03  0.10566000000E+00 0. -1.
        994    1    1    2    0    0  0.17998722181E+02 -0.45310250092E+02  0.20094671987E+02  0.17913740147E+03  0.17120000000E+03 0.  0.
        998    1    1    2    0    0  0.12320525828E+02 -0.26436810634E+01  0.13525025418E+04  0.13525982071E+04  0.10000000000E+02 0. -1.
</event>
<event>
 5    1  0.1145138E-008  0.3853200E+03  0.7957747E-01  0.3428316E+00
         13   -1    0    0    0    0  0.00000000000E+00  0.00000000000E+00  0.14999999963E+04  0.15000000000E+04  0.10566000000E+00 0. -1.
        994   -1    0    0    0    0 -0.00000000000E+00 -0.00000000000E+00  0.11368683772E-12  0.17120000000E+03  0.17120000000E+03 0.  0.
         13    1    1    2    0    0 -0.11706894464E+02  0.12635020093E+02  0.94826217725E+02  0.96377994598E+02  0.10566000000E+00 0. -1.
        994    1    1    2    0    0  0.86352669182E+01 -0.18211859372E+02  0.28070977481E+01  0.17240521876E+03  0.17120000000E+03 0.  0.
        998    1    1    2    0    0  0.30716275454E+01  0.55768392797E+01  0.14023666808E+04  0.14024167866E+04  0.10000000000E+02 0. -1.
</event>
<event>
 5    1  0.1145138E-008  0.3845771E+03  0.7957747E-01  0.3431468E+00
         13   -1    0    0    0    0  0.00000000000E+00  0.00000000000E+00  0.14999999963E+04  0.15000000000E+04  0.10566000000E+00 0. -1.
        994   -1    0    0    0    0 -0.00000000000E+00 -0.00000000000E+00  0.11368683772E-12  0.17120000000E+03  0.17120000000E+03 0.  0.
         13    1    1    2    0    0 -0.15732637494E+03 -0.87019771103E+02  0.10791497548E+04  0.10940238723E+04  0.10566000000E+00 0. -1.
        994    1    1    2    0    0  0.16786402709E+03  0.91192816643E+02  0.13304097315E+03  0.28897024403E+03  0.17120000000E+03 0.  0.
        998    1    1    2    0    0 -0.10537652145E+02 -0.41730455404E+01  0.28780926832E+03  0.28820588362E+03  0.10000000000E+02 0. -1.
</event>
<event>
 5    1  0.1145138E-008  0.3774291E+03  0.7957747E-01  0.3462430E+00
         13   -1    0    0    0    0  0.00000000000E+00  0.00000000000E+00  0.14999999963E+04  0.15000000000E+04  0.10566000000E+00 0. -1.
        994   -1    0    0    0    0 -0.00000000000E+00 -0.00000000000E+00  0.11368683772E-12  0.17120000000E+03  0.17120000000E+03 0.  0.
         13    1    1    2    0    0  0.24258853023E+02 -0.14497229443E+02  0.71951177355E+02  0.77302294263E+02  0.10566000000E+00 0. -1.
        994    1    1    2    0    0 -0.12961885653E+02  0.95403977159E+01  0.63104000710E+01  0.17207059835E+03  0.17120000000E+03 0.  0.
        998    1    1    2    0    0 -0.11296967370E+02  0.49568317274E+01  0.14217384189E+04  0.14218271074E+04  0.10000000000E+02 0. -1.
</event>
<event>
 5    1  0.1145138E-008  0.3808345E+03  0.7957747E-01  0.3447533E+00
         13   -1    0    0    0    0  0.00000000000E+00  0.00000000000E+00  0.14999999963E+04  0.15000000000E+04  0.10566000000E+00 0.  1.
        994   -1    0    0    0    0 -0.00000000000E+00 -0.00000000000E+00  0.11368683772E-12  0.17120000000E+03  0.17120000000E+03 0.  0.
         13    1    1    2    0    0 -0.18091961125E+02 -0.24227079935E+02  0.12641707440E+03  0.12998291551E+03  0.10566000000E+00 0.  1.
        994    1    1    2    0    0  0.41825372127E+01  0.12007899508E+02  0.42517036822E+01  0.17172419821E+03  0.17120000000E+03 0.  0.
        998    1    1    2    0    0  0.13909423912E+02  0.12219180427E+02  0.13693312182E+04  0.13694928863E+04  0.10000000000E+02 0.  1.
</event>
<event>
 5    1  0.1145138E-008  0.3855034E+03  0.7957747E-01  0.3427540E+00
         13   -1    0    0    0    0  0.00000000000E+00  0.00000000000E+00  0.14999999963E+04  0.15000000000E+04  0.10566000000E+00 0.  1.
        994   -1    0    0    0    0 -0.00000000000E+00 -0.00000000000E+00  0.11368683772E-12  0.17120000000E+03  0.17120000000E+03 0.  0.
         13    1    1    2    0    0 -0.15426813564E+02 -0.37781089303E+01  0.87493915159E+02  0.88923883393E+02  0.10566000000E+00 0.  1.
        994    1    1    2    0    0  0.16105973513E+02  0.32462450792E+01  0.22671964482E+01  0.17200151357E+03  0.17120000000E+03 0.  0.
        998    1    1    2    0    0 -0.67915994864E+00  0.53186385114E+00  0.14102388847E+04  0.14102746030E+04  0.10000000000E+02 0.  1.
</event>
<event>
 5    1  0.1145138E-008  0.3847857E+03  0.7957747E-01  0.3430582E+00
         13   -1    0    0    0    0  0.00000000000E+00  0.00000000000E+00  0.14999999963E+04  0.15000000000E+04  0.10566000000E+00 0.  1.
        994   -1    0    0    0    0 -0.00000000000E+00 -0.00000000000E+00  0.11368683772E-12  0.17120000000E+03  0.17120000000E+03 0.  0.
         13    1    1    2    0    0 -0.16811888018E+02 -0.10315831719E+02  0.11071818176E+03  0.11246147296E+03  0.10566000000E+00 0.  1.
        994    1    1    2    0    0  0.22792418870E+01  0.23871464985E+02  0.36312971430E+01  0.17290942167E+03  0.17120000000E+03 0.  0.
        998    1    1    2    0    0  0.14532646131E+02 -0.13555633266E+02  0.13856505174E+04  0.13858291054E+04  0.10000000000E+02 0.  1.
</event>
<event>
 5    1  0.1145138E-008  0.3746677E+03  0.7957747E-01  0.3474710E+00
         13   -1    0    0    0    0  0.00000000000E+00  0.00000000000E+00  0.14999999963E+04  0.15000000000E+04  0.10566000000E+00 0.  1.
        994   -1    0    0    0    0 -0.00000000000E+00 -0.00000000000E+00  0.11368683772E-12  0.17120000000E+03  0.17120000000E+03 0.  0.
         13    1    1    2    0    0 -0.25296751630E+02  0.23878488471E+02  0.99003236756E+02  0.10493693300E+03  0.10566000000E+00 0.  1.
        994    1    1    2    0    0  0.53107148416E+01  0.23284865843E+02  0.87929126308E+01  0.17308132187E+03  0.17120000000E+03 0.  0.
        998    1    1    2    0    0  0.19986036789E+02 -0.47163354313E+02  0.13922038469E+04  0.13931817451E+04  0.10000000000E+02 0.  1.
</event>
<event>
 5    1  0.1145138E-008  0.3786405E+03  0.7957747E-01  0.3457100E+00
         13   -1    0    0    0    0  0.00000000000E+00  0.00000000000E+00  0.14999999963E+04  0.15000000000E+04  0.10566000000E+00 0.  1.
        994   -1    0    0    0    0 -0.00000000000E+00 -0.00000000000E+00  0.11368683772E-12  0.17120000000E+03  0.17120000000E+03 0.  0.
         13    1    1    2    0    0  0.11034978503E+02  0.11043985262E+02  0.23173272908E+02  0.27941941635E+02  0.10566000000E+00 0.  1.
        994    1    1    2    0    0 -0.12139654166E+02 -0.54007938041E+01  0.54140312908E+01  0.17180014992E+03  0.17120000000E+03 0.  0.
        998    1    1    2    0    0  0.11046756631E+01 -0.56431914574E+01  0.14714126921E+04  0.14714579084E+04  0.10000000000E+02 0.  1.
</event>
<event>
 5    1  0.1145138E-008  0.3815470E+03  0.7957747E-01  0.3444450E+00
         13   -1    0    0    0    0  0.00000000000E+00  0.00000000000E+00  0.14999999963E+04  0.15000000000E+04  0.10566000000E+00 0.  1.
        994   -1    0    0    0    0 -0.00000000000E+00 -0.00000000000E+00  0.11368683772E-12  0.17120000000E+03  0.17120000000E+03 0.  0.
         13    1    1    2    0    0 -0.10715683939E+02  0.96216913610E+01  0.30094637931E+02  0.33363171660E+02  0.10566000000E+00 0.  1.
        994    1    1    2    0    0  0.11763976888E+02  0.51761821141E+01  0.39038226084E+01  0.17172613035E+03  0.17120000000E+03 0.  0.
        998    1    1    2    0    0 -0.10482929485E+01 -0.14797873475E+02  0.14660015357E+04  0.14661106980E+04  0.10000000000E+02 0.  1.
</event>
<event>
 5    1  0.1145138E-008  0.3756497E+03  0.7957747E-01  0.3470322E+00
         13   -1    0    0    0    0  0.00000000000E+00  0.00000000000E+00  0.14999999963E+04  0.15000000000E+04  0.10566000000E+00 0.  1.
        994   -1    0    0    0    0 -0.00000000000E+00 -0.00000000000E+00  0.11368683772E-12  0.17120000000E+03  0.17120000000E+03 0.  0.
         13    1    1    2    0    0 -0.63830540911E+01 -0.58697642608E+02  0.28527886703E+03  0.29132490413E+03  0.10566000000E+00 0.  1.
        994    1    1    2    0    0  0.41164530642E+02  0.25573137153E+02  0.14352985172E+02  0.17850476775E+03  0.17120000000E+03 0.  0.
        998    1    1    2    0    0 -0.34781476551E+02  0.33124505456E+02  0.12003681441E+04  0.12013703281E+04  0.10000000000E+02 0.  1.
</event>
<event>
 5    1  0.1145138E-008  0.3858157E+03  0.7957747E-01  0.3426220E+00
         13   -1    0    0    0    0  0.00000000000E+00  0.00000000000E+00  0.14999999963E+04  0.15000000000E+04  0.10566000000E+00 0. -1.
        994   -1    0    0    0    0 -0.00000000000E+00 -0.00000000000E+00  0.11368683772E-12  0.17120000000E+03  0.17120000000E+03 0.  0.
         13    1    1    2    0    0 -0.15231766167E+01 -0.14783231184E+02  0.89583216944E+02  0.90807642373E+02  0.10566000000E+00 0. -1.
        994    1    1    2    0    0 -0.21112665065E+00  0.11402172044E+02  0.16524051413E+01  0.17158736709E+03  0.17120000000E+03 0.  0.
        998    1    1    2    0    0  0.17343032674E+01  0.33810591398E+01  0.14087643742E+04  0.14088049905E+04  0.10000000000E+02 0. -1.
</event>
<event>
 5    1  0.1145138E-008  0.3829460E+03  0.7957747E-01  0.3438430E+00
         13   -1    0    0    0    0  0.00000000000E+00  0.00000000000E+00  0.14999999963E+04  0.15000000000E+04  0.10566000000E+00 0.  1.
        994   -1    0    0    0    0 -0.00000000000E+00 -0.00000000000E+00  0.11368683772E-12  0.17120000000E+03  0.17120000000E+03 0.  0.
         13    1    1    2    0    0  0.12803899728E+02 -0.81916821607E+01  0.42380064037E+02  0.45023599331E+02  0.10566000000E+00 0.  1.
        994    1    1    2    0    0 -0.40020819995E+01  0.16078271469E+02  0.35627437443E+01  0.17203680018E+03  0.17120000000E+03 0.  0.
        998    1    1    2    0    0 -0.88018177281E+01 -0.78865893083E+01  0.14540571885E+04  0.14541396005E+04  0.10000000000E+02 0.  1.
</event>
<event>
 5    1  0.1145138E-008  0.3840029E+03  0.7957747E-01  0.3433912E+00
         13   -1    0    0    0    0  0.00000000000E+00  0.00000000000E+00  0.14999999963E+04  0.15000000000E+04  0.10566000000E+00 0. -1.
        994   -1    0    0    0    0 -0.00000000000E+00 -0.00000000000E+00  0.11368683772E-12  0.17120000000E+03  0.17120000000E+03 0.  0.
         13    1    1    2    0    0  0.12592688868E+02 -0.11891770070E+02  0.67583743734E+02  0.69767926653E+02  0.10566000000E+00 0. -1.
        994    1    1    2    0    0 -0.14021128671E+02  0.10995406195E+02  0.31741766470E+01  0.17215401942E+03  0.17120000000E+03 0.  0.
        998    1    1    2    0    0  0.14284398029E+01  0.89636387525E+00  0.14292420759E+04  0.14292780539E+04  0.10000000000E+02 0. -1.
</event>
<event>
 5    1  0.1145138E-008  0.3725043E+03  0.7957747E-01  0.3484460E+00
         13   -1    0    0    0    0  0.00000000000E+00  0.00000000000E+00  0.14999999963E+04  0.15000000000E+04  0.10566000000E+00 0.  1.
        994   -1    0    0    0    0 -0.00000000000E+00 -0.00000000000E+00  0.11368683772E-12  0.17120000000E+03  0.17120000000E+03 0.  0.
         13    1    1    2    0    0  0.86097827626E+00 -0.60468213504E+02  0.16468465075E+03  0.17543714397E+03  0.10566000000E+00 0.  1.
        994    1    1    2    0    0 -0.26659952751E+01  0.74669220967E+01  0.12490936971E+02  0.17183808065E+03  0.17120000000E+03 0.  0.
        998    1    1    2    0    0  0.18050169989E+01  0.53001291407E+02  0.13228244086E+04  0.13239247754E+04  0.10000000000E+02 0.  1.
</event>
<event>
 5    1  0.1145138E-008  0.3753876E+03  0.7957747E-01  0.3471491E+00
         13   -1    0    0    0    0  0.00000000000E+00  0.00000000000E+00  0.14999999963E+04  0.15000000000E+04  0.10566000000E+00 0. -1.
        994   -1    0    0    0    0 -0.00000000000E+00 -0.00000000000E+00  0.11368683772E-12  0.17120000000E+03  0.17120000000E+03 0.  0.
         13    1    1    2    0    0  0.24038694645E+02 -0.87594254552E+01  0.49563154630E+02  0.55777269882E+02  0.10566000000E+00 0. -1.
        994    1    1    2    0    0 -0.49538875552E+01  0.58665211051E+01  0.66800160128E+01  0.17150224397E+03  0.17120000000E+03 0.  0.
        998    1    1    2    0    0 -0.19084807090E+02  0.28929043501E+01  0.14437568256E+04  0.14439204862E+04  0.10000000000E+02 0. -1.
</event>
<event>
 5    1  0.1145138E-008  0.3847013E+03  0.7957747E-01  0.3430940E+00
         13   -1    0    0    0    0  0.00000000000E+00  0.00000000000E+00  0.14999999963E+04  0.15000000000E+04  0.10566000000E+00 0.  1.
        994   -1    0    0    0    0 -0.00000000000E+00 -0.00000000000E+00  0.11368683772E-12  0.17120000000E+03  0.17120000000E+03 0.  0.
         13    1    1    2    0    0 -0.13356573956E+02 -0.36334233166E+01  0.52645469951E+02  0.54434883147E+02  0.10566000000E+00 0.  1.
        994    1    1    2    0    0  0.11848966018E+02  0.51510823145E+01  0.23282212979E+01  0.17170262741E+03  0.17120000000E+03 0.  0.
        998    1    1    2    0    0  0.15076079376E+01 -0.15176589979E+01  0.14450263050E+04  0.14450624894E+04  0.10000000000E+02 0.  1.
</event>
<event>
 5    1  0.1145138E-008  0.3698332E+03  0.7957747E-01  0.3496658E+00
         13   -1    0    0    0    0  0.00000000000E+00  0.00000000000E+00  0.14999999963E+04  0.15000000000E+04  0.10566000000E+00 0.  1.
        994   -1    0    0    0    0 -0.00000000000E+00 -0.00000000000E+00  0.11368683772E-12  0.17120000000E+03  0.17120000000E+03 0.  0.
         13    1    1    2    0    0  0.29283965343E+01  0.97017599763E+01 -0.36854496308E+00  0.10141333360E+02  0.10566000000E+00 0.  1.
        994    1    1    2    0    0 -0.37760619877E+01 -0.93784675022E+01  0.11207829026E+02  0.17186410250E+03  0.17120000000E+03 0.  0.
        998    1    1    2    0    0  0.84766545345E+00 -0.32329247408E+00  0.14891607122E+04  0.14891945641E+04  0.10000000000E+02 0.  1.
</event>
<event>
 5    1  0.1145138E-008  0.3700879E+03  0.7957747E-01  0.3495487E+00
         13   -1    0    0    0    0  0.00000000000E+00  0.00000000000E+00  0.14999999963E+04  0.15000000000E+04  0.10566000000E+00 0. -1.
        994   -1    0    0    0    0 -0.00000000000E+00 -0.00000000000E+00  0.11368683772E-12  0.17120000000E+03  0.17120000000E+03 0.  0.
         13    1    1    2    0    0 -0.31762629322E+02  0.32505972439E+02  0.11596721433E+03  0.12455484266E+03  0.10566000000E+00 0. -1.
        994    1    1    2    0    0  0.12489406676E+02 -0.48046305541E+01  0.98423106089E+01  0.17200401400E+03  0.17120000000E+03 0.  0.
        998    1    1    2    0    0  0.19273222646E+02 -0.27701341885E+02  0.13741904713E+04  0.13746411433E+04  0.10000000000E+02 0. -1.
</event>
<event>
 5    1  0.1145138E-008  0.3810211E+03  0.7957747E-01  0.3446724E+00
         13   -1    0    0    0    0  0.00000000000E+00  0.00000000000E+00  0.14999999963E+04  0.15000000000E+04  0.10566000000E+00 0. -1.
        994   -1    0    0    0    0 -0.00000000000E+00 -0.00000000000E+00  0.11368683772E-12  0.17120000000E+03  0.17120000000E+03 0.  0.
         13    1    1    2    0    0 -0.12272727666E+02  0.10377706704E+02  0.33453378807E+02  0.37114099187E+02  0.10566000000E+00 0. -1.
        994    1    1    2    0    0  0.14627572410E+02 -0.11311745272E+02  0.47585608293E+01  0.17226144478E+03  0.17120000000E+03 0.  0.
        998    1    1    2    0    0 -0.23548447434E+01  0.93403856793E+00  0.14617880566E+04  0.14618244560E+04  0.10000000000E+02 0. -1.
</event>
<event>
 5    1  0.1145138E-008  0.3833461E+03  0.7957747E-01  0.3436717E+00
         13   -1    0    0    0    0  0.00000000000E+00  0.00000000000E+00  0.14999999963E+04  0.15000000000E+04  0.10566000000E+00 0. -1.
        994   -1    0    0    0    0 -0.00000000000E+00 -0.00000000000E+00  0.11368683772E-12  0.17120000000E+03  0.17120000000E+03 0.  0.
         13    1    1    2    0    0  0.96611502242E+01 -0.71807416704E+01  0.28095679784E+02  0.30565982091E+02  0.10566000000E+00 0. -1.
        994    1    1    2    0    0 -0.14110117444E+02  0.51688174620E+01  0.32004890445E+01  0.17188803105E+03  0.17120000000E+03 0.  0.
        998    1    1    2    0    0  0.44489672196E+01  0.20119242084E+01  0.14687038274E+04  0.14687459869E+04  0.10000000000E+02 0. -1.
</event>
<event>
 5    1  0.1145138E-008  0.3715365E+03  0.7957747E-01  0.3488859E+00
         13   -1    0    0    0    0  0.00000000000E+00  0.00000000000E+00  0.14999999963E+04  0.15000000000E+04  0.10566000000E+00 0.  1.
        994   -1    0    0    0    0 -0.00000000000E+00 -0.00000000000E+00  0.11368683772E-12  0.17120000000E+03  0.17120000000E+03 0.  0.
         13    1    1    2    0    0  0.27448411120E+02 -0.96636913923E+02  0.38144527470E+03  0.39445230023E+03  0.10566000000E+00 0.  1.
        994    1    1    2    0    0 -0.29580742061E+02  0.11235870774E+03  0.56434116914E+02  0.21446153282E+03  0.17120000000E+03 0.  0.
        998    1    1    2    0    0  0.21323309401E+01 -0.15721793820E+02  0.10621206047E+04  0.10622861669E+04  0.10000000000E+02 0.  1.
</event>
<event>
 5    1  0.1145138E-008  0.3770409E+03  0.7957747E-01  0.3464145E+00
         13   -1    0    0    0    0  0.00000000000E+00  0.00000000000E+00  0.14999999963E+04  0.15000000000E+04  0.10566000000E+00 0.  1.
        994   -1    0    0    0    0 -0.00000000000E+00 -0.00000000000E+00  0.11368683772E-12  0.17120000000E+03  0.17120000000E+03 0.  0.
         13    1    1    2    0    0  0.42802765074E+02  0.73630238807E+01  0.17516911406E+03  0.18047304647E+03  0.10566000000E+00 0.  1.
        994    1    1    2    0    0 -0.12846145125E+02 -0.21361533218E+02  0.77348380023E+01  0.17317796126E+03  0.17120000000E+03 0.  0.
        998    1    1    2    0    0 -0.29956619949E+02  0.13998509337E+02  0.13170960442E+04  0.13175489923E+04  0.10000000000E+02 0.  1.
</event>
<event>
 5    1  0.1145138E-008  0.3843454E+03  0.7957747E-01  0.3432453E+00
         13   -1    0    0    0    0  0.00000000000E+00  0.00000000000E+00  0.14999999963E+04  0.15000000000E+04  0.10566000000E+00 0.  1.
        994   -1    0    0    0    0 -0.00000000000E+00 -0.00000000000E+00  0.11368683772E-12  0.17120000000E+03  0.17120000000E+03 0.  0.
         13    1    1    2    0    0 -0.44702885843E+01 -0.10701802701E+02  0.34051489882E+02  0.35972589402E+02  0.10566000000E+00 0.  1.
        994    1    1    2    0    0  0.69771467629E+01  0.49050490203E+01  0.21952452363E+01  0.17142636665E+03  0.17120000000E+03 0.  0.
        998    1    1    2    0    0 -0.25068581785E+01  0.57967536804E+01  0.14637532612E+04  0.14638010439E+04  0.10000000000E+02 0.  1.
</event>
<event>
 5    1  0.1145138E-008  0.3792734E+03  0.7957747E-01  0.3454329E+00
         13   -1    0    0    0    0  0.00000000000E+00  0.00000000000E+00  0.14999999963E+04  0.15000000000E+04  0.10566000000E+00 0. -1.
        994   -1    0    0    0    0 -0.00000000000E+00 -0.00000000000E+00  0.11368683772E-12  0.17120000000E+03  0.17120000000E+03 0.  0.
         13    1    1    2    0    0  0.45747793072E+02 -0.21284049037E+02  0.23715330534E+03  0.24246148707E+03  0.10566000000E+00 0. -1.
        994    1    1    2    0    0 -0.45074202728E+02  0.24676690984E+02  0.13400390615E+02  0.17924740807E+03  0.17120000000E+03 0.  0.
        998    1    1    2    0    0 -0.67359034429E+00 -0.33926419473E+01  0.12494463003E+04  0.12494911049E+04  0.10000000000E+02 0.  0.
</event>
<event>
 5    1  0.1145138E-008  0.3767901E+03  0.7957747E-01  0.3465255E+00
         13   -1    0    0    0    0  0.00000000000E+00  0.00000000000E+00  0.14999999963E+04  0.15000000000E+04  0.10566000000E+00 0. -1.
        994   -1    0    0    0    0 -0.00000000000E+00 -0.00000000000E+00  0.11368683772E-12  0.17120000000E+03  0.17120000000E+03 0.  0.
         13    1    1    2    0    0 -0.41068040346E+01  0.29317029214E+02  0.76790456764E+02  0.82299085386E+02  0.10566000000E+00 0. -1.
        994    1    1    2    0    0  0.52664993928E+01 -0.83661352912E+01  0.60926208614E+01  0.17159338060E+03  0.17120000000E+03 0.  0.
        998    1    1    2    0    0 -0.11596953582E+01 -0.20950893923E+02  0.14171169187E+04  0.14173075340E+04  0.10000000000E+02 0. -1.
</event>
<event>
 5    1  0.1145138E-008  0.3800089E+03  0.7957747E-01  0.3451120E+00
         13   -1    0    0    0    0  0.00000000000E+00  0.00000000000E+00  0.14999999963E+04  0.15000000000E+04  0.10566000000E+00 0. -1.
        994   -1    0    0    0    0 -0.00000000000E+00 -0.00000000000E+00  0.11368683772E-12  0.17120000000E+03  0.17120000000E+03 0.  0.
         13    1    1    2    0    0 -0.22959270125E+02 -0.16394941138E+02  0.10727402614E+03  0.11092181944E+03  0.10566000000E+00 0. -1.
        994    1    1    2    0    0 -0.10201002896E+01 -0.76709691935E+01  0.43288506245E+01  0.17142947040E+03  0.17120000000E+03 0.  0.
        998    1    1    2    0    0  0.23979370414E+02  0.24065910331E+02  0.13883971195E+04  0.13888487102E+04  0.10000000000E+02 0. -1.
</event>
<event>
 5    1  0.1145138E-008  0.3820044E+03  0.7957747E-01  0.3442477E+00
         13   -1    0    0    0    0  0.00000000000E+00  0.00000000000E+00  0.14999999963E+04  0.15000000000E+04  0.10566000000E+00 0. -1.
        994   -1    0    0    0    0 -0.00000000000E+00 -0.00000000000E+00  0.11368683772E-12  0.17120000000E+03  0.17120000000E+03 0.  0.
         13    1    1    2    0    0  0.39726046401E+01 -0.96909497766E+01  0.15640756405E+02  0.18823934768E+02  0.10566000000E+00 0. -1.
        994    1    1    2    0    0 -0.74979804538E+01  0.20824843224E+02  0.47533215840E+01  0.17269026571E+03  0.17120000000E+03 0.  0.
        998    1    1    2    0    0  0.35253758138E+01 -0.11133893448E+02  0.14796059183E+04  0.14796857995E+04  0.10000000000E+02 0. -1.
</event>
<event>
 5    1  0.1145138E-008  0.3797899E+03  0.7957747E-01  0.3452074E+00
         13   -1    0    0    0    0  0.00000000000E+00  0.00000000000E+00  0.14999999963E+04  0.15000000000E+04  0.10566000000E+00 0. -1.
        994   -1    0    0    0    0 -0.00000000000E+00 -0.00000000000E+00  0.11368683772E-12  0.17120000000E+03  0.17120000000E+03 0.  0.
         13    1    1    2    0    0 -0.48202234317E+02 -0.15134176944E+02  0.73698430541E+02  0.89353055533E+02  0.10566000000E+00 0. -1.
        994    1    1    2    0    0  0.35683053670E+02 -0.87094515878E+01  0.21112365150E+02  0.17636413135E+03  0.17120000000E+03 0.  0.
        998    1    1    2    0    0  0.12519180646E+02  0.23843628532E+02  0.14051892006E+04  0.14054828131E+04  0.10000000000E+02 0. -1.
</event>
<event>
 5    1  0.1145138E-008  0.3812975E+03  0.7957747E-01  0.3445528E+00
         13   -1    0    0    0    0  0.00000000000E+00  0.00000000000E+00  0.14999999963E+04  0.15000000000E+04  0.10566000000E+00 0. -1.
        994   -1    0    0    0    0 -0.00000000000E+00 -0.00000000000E+00  0.11368683772E-12  0.17120000000E+03  0.17120000000E+03 0.  0.
         13    1    1    2    0    0 -0.18507704399E+01 -0.32588508640E+02  0.14654449498E+03  0.15013572666E+03  0.10566000000E+00 0. -1.
        994    1    1    2    0    0  0.40311706739E+01  0.24481658019E+02  0.55314360080E+01  0.17307697334E+03  0.17120000000E+03 0.  0.
        998    1    1    2    0    0 -0.21804002340E+01  0.81068506205E+01  0.13479240653E+04  0.13479873000E+04  0.10000000000E+02 0. -1.
</event>
<event>
 5    1  0.1145138E-008  0.3811999E+03  0.7957747E-01  0.3445951E+00
         13   -1    0    0    0    0  0.00000000000E+00  0.00000000000E+00  0.14999999963E+04  0.15000000000E+04  0.10566000000E+00 0. -1.
        994   -1    0    0    0    0 -0.00000000000E+00 -0.00000000000E+00  0.11368683772E-12  0.17120000000E+03  0.17120000000E+03 0.  0.
         13    1    1    2    0    0 -0.21663971127E+02 -0.32777629321E+02  0.17172092256E+03  0.17615841461E+03  0.10566000000E+00 0. -1.
        994    1    1    2    0    0  0.29429638132E+02  0.48256022985E+02  0.14240335489E+02  0.18085069674E+03  0.17120000000E+03 0.  0.
        998    1    1    2    0    0 -0.77656670054E+01 -0.15478393664E+02  0.13140387382E+04  0.13141908887E+04  0.10000000000E+02 0. -1.
</event>
<event>
 5    1  0.1145138E-008  0.3704425E+03  0.7957747E-01  0.3493860E+00
         13   -1    0    0    0    0  0.00000000000E+00  0.00000000000E+00  0.14999999963E+04  0.15000000000E+04  0.10566000000E+00 0. -1.
        994   -1    0    0    0    0 -0.00000000000E+00 -0.00000000000E+00  0.11368683772E-12  0.17120000000E+03  0.17120000000E+03 0.  0.
         13    1    1    2    0    0  0.21060755993E+01 -0.21468895916E+02  0.21777010874E+02  0.30652869571E+02  0.10566000000E+00 0. -1.
        994    1    1    2    0    0 -0.83772677245E+01  0.17226461546E+02  0.10305737865E+02  0.17257629566E+03  0.17120000000E+03 0.  0.
        998    1    1    2    0    0  0.62711921252E+01  0.42424343693E+01  0.14679172475E+04  0.14679708348E+04  0.10000000000E+02 0. -1.
</event>
<event>
 5    1  0.1145138E-008  0.3813115E+03  0.7957747E-01  0.3445468E+00
         13   -1    0    0    0    0  0.00000000000E+00  0.00000000000E+00  0.14999999963E+04  0.15000000000E+04  0.10566000000E+00 0.  1.
        994   -1    0    0    0    0 -0.00000000000E+00 -0.00000000000E+00  0.11368683772E-12  0.17120000000E+03  0.17120000000E+03 0.  0.
         13    1    1    2    0    0  0.17689629525E+01  0.11011743660E+02  0.16420579657E+02  0.19850297949E+02  0.10566000000E+00 0.  1.
        994    1    1    2    0    0 -0.17983335696E+01 -0.88356656996E+01  0.37432489262E+01  0.17147814702E+03  0.17120000000E+03 0.  0.
        998    1    1    2    0    0  0.29370617097E-01 -0.21760779604E+01  0.14798361677E+04  0.14798715550E+04  0.10000000000E+02 0.  1.
</event>
<event>
 5    1  0.1145138E-008  0.3855917E+03  0.7957747E-01  0.3427167E+00
         13   -1    0    0    0    0  0.00000000000E+00  0.00000000000E+00  0.14999999963E+04  0.15000000000E+04  0.10566000000E+00 0. -1.
        994   -1    0    0    0    0 -0.00000000000E+00 -0.00000000000E+00  0.11368683772E-12  0.17120000000E+03  0.17120000000E+03 0.  0.
         13    1    1    2    0    0  0.82471668460E+01 -0.13454043341E+02  0.94481972177E+02  0.95790820404E+02  0.10566000000E+00 0. -1.
        994    1    1    2    0    0 -0.76455132184E+01  0.61267408397E+01  0.16517833477E+01  0.17148807310E+03  0.17120000000E+03 0.  0.
        998    1    1    2    0    0 -0.60165362755E+00  0.73273025017E+01  0.14038662408E+04  0.14039211065E+04  0.10000000000E+02 0. -1.
</event>
<event>
 5    1  0.1145138E-008  0.3713476E+03  0.7957747E-01  0.3489721E+00
         13   -1    0    0    0    0  0.00000000000E+00  0.00000000000E+00  0.14999999963E+04  0.15000000000E+04  0.10566000000E+00 0. -1.
        994   -1    0    0    0    0 -0.00000000000E+00 -0.00000000000E+00  0.11368683772E-12  0.17120000000E+03  0.17120000000E+03 0.  0.
         13    1    1    2    0    0 -0.16432164010E+02  0.52072005399E+02  0.11306081888E+03  0.12555584292E+03  0.10566000000E+00 0. -1.
        994    1    1    2    0    0  0.27748186161E+02 -0.53605262152E+02  0.24563316753E+02  0.18318373971E+03  0.17120000000E+03 0.  0.
        998    1    1    2    0    0 -0.11316022151E+02  0.15332567527E+01  0.13623758606E+04  0.13624604174E+04  0.10000000000E+02 0. -1.
</event>
<event>
 5    1  0.1145138E-008  0.3819007E+03  0.7957747E-01  0.3442924E+00
         13   -1    0    0    0    0  0.00000000000E+00  0.00000000000E+00  0.14999999963E+04  0.15000000000E+04  0.10566000000E+00 0. -1.
        994   -1    0    0    0    0 -0.00000000000E+00 -0.00000000000E+00  0.11368683772E-12  0.17120000000E+03  0.17120000000E+03 0.  0.
         13    1    1    2    0    0 -0.27497358997E+02 -0.55757146928E+01  0.11870709460E+03  0.12197778002E+03  0.10566000000E+00 0. -1.
        994    1    1    2    0    0  0.22366761971E+02  0.25419538343E+01  0.48619513297E+01  0.17274203930E+03  0.17120000000E+03 0.  0.
        998    1    1    2    0    0  0.51305970266E+01  0.30337608585E+01  0.13764309503E+04  0.13764801807E+04  0.10000000000E+02 0. -1.
</event>
<event>
 5    1  0.1145138E-008  0.3777039E+03  0.7957747E-01  0.3461218E+00
         13   -1    0    0    0    0  0.00000000000E+00  0.00000000000E+00  0.14999999963E+04  0.15000000000E+04  0.10566000000E+00 0. -1.
        994   -1    0    0    0    0 -0.00000000000E+00 -0.00000000000E+00  0.11368683772E-12  0.17120000000E+03  0.17120000000E+03 0.  0.
         13    1    1    2    0    0  0.30396652701E+02 -0.80472513852E+01  0.91061098920E+02  0.96337166508E+02  0.10566000000E+00 0. -1.
        994    1    1    2    0    0 -0.19897830965E+02  0.39630391645E+01  0.66845090037E+01  0.17252753988E+03  0.17120000000E+03 0.  0.
        998    1    1    2    0    0 -0.10498821736E+02  0.40842122207E+01  0.14022543884E+04  0.14023352936E+04  0.10000000000E+02 0. -1.
</event>
<event>
 5    1  0.1145138E-008  0.3856024E+03  0.7957747E-01  0.3427121E+00
         13   -1    0    0    0    0  0.00000000000E+00  0.00000000000E+00  0.14999999963E+04  0.15000000000E+04  0.10566000000E+00 0.  1.
        994   -1    0    0    0    0 -0.00000000000E+00 -0.00000000000E+00  0.11368683772E-12  0.17120000000E+03  0.17120000000E+03 0.  0.
         13    1    1    2    0    0 -0.34855709751E+01 -0.15966447538E+02  0.96645009400E+02  0.98017068198E+02  0.10566000000E+00 0.  1.
        994    1    1    2    0    0  0.11876801490E+02  0.13509568512E+02  0.23940778424E+01  0.17215904990E+03  0.17120000000E+03 0.  0.
        998    1    1    2    0    0 -0.83912305149E+01  0.24568790257E+01  0.14009609090E+04  0.14010238819E+04  0.10000000000E+02 0.  1.
</event>
<event>
 5    1  0.1145138E-008  0.3774656E+03  0.7957747E-01  0.3462269E+00
         13   -1    0    0    0    0  0.00000000000E+00  0.00000000000E+00  0.14999999963E+04  0.15000000000E+04  0.10566000000E+00 0.  1.
        994   -1    0    0    0    0 -0.00000000000E+00 -0.00000000000E+00  0.11368683772E-12  0.17120000000E+03  0.17120000000E+03 0.  0.
         13    1    1    2    0    0  0.26782463574E+02 -0.27283406154E+01  0.64270053962E+02  0.69680665884E+02  0.10566000000E+00 0.  1.
        994    1    1    2    0    0 -0.20436660148E+02 -0.74045598253E+01  0.70124449610E+01  0.17271681727E+03  0.17120000000E+03 0.  0.
        998    1    1    2    0    0 -0.63458034255E+01  0.10132900441E+02  0.14287174974E+04  0.14288025168E+04  0.10000000000E+02 0.  1.
</event>
<event>
 5    1  0.1145138E-008  0.3836974E+03  0.7957747E-01  0.3435216E+00
         13   -1    0    0    0    0  0.00000000000E+00  0.00000000000E+00  0.14999999963E+04  0.15000000000E+04  0.10566000000E+00 0. -1.
        994   -1    0    0    0    0 -0.00000000000E+00 -0.00000000000E+00  0.11368683772E-12  0.17120000000E+03  0.17120000000E+03 0.  0.
         13    1    1    2    0    0 -0.12928873064E+02 -0.14177453775E+02  0.77581395144E+02  0.79918958894E+02  0.10566000000E+00 0. -1.
        994    1    1    2    0    0  0.16182067932E+02  0.96969044802E+01  0.34544989985E+01  0.17227089958E+03  0.17120000000E+03 0.  0.
        998    1    1    2    0    0 -0.32531948677E+01  0.44805492952E+01  0.14189641021E+04  0.14190101415E+04  0.10000000000E+02 0. -1.
</event>
<event>
 5    1  0.1145138E-008  0.2377602E+03  0.7957747E-01  0.4473239E+00
         13   -1    0    0    0    0  0.00000000000E+00  0.00000000000E+00  0.14999999963E+04  0.15000000000E+04  0.10566000000E+00 0.  1.
        994   -1    0    0    0    0 -0.00000000000E+00 -0.00000000000E+00  0.11368683772E-12  0.17120000000E+03  0.17120000000E+03 0.  0.
         13    1    1    2    0    0  0.75683859627E+02 -0.16084609980E+03  0.29639423320E+03  0.34561404350E+03  0.10566000000E+00 0.  1.
        994    1    1    2    0    0 -0.77948235875E+02  0.84035106192E+02  0.11841695216E+03  0.23763383831E+03  0.17120000000E+03 0.  0.
        998    1    1    2    0    0  0.22643762481E+01  0.76810993606E+02  0.10851888109E+04  0.10879521182E+04  0.10000000000E+02 0.  1.
</event>
<event>
 5    1  0.1145138E-008  0.3792894E+03  0.7957747E-01  0.3454258E+00
         13   -1    0    0    0    0  0.00000000000E+00  0.00000000000E+00  0.14999999963E+04  0.15000000000E+04  0.10566000000E+00 0.  1.
        994   -1    0    0    0    0 -0.00000000000E+00 -0.00000000000E+00  0.11368683772E-12  0.17120000000E+03  0.17120000000E+03 0.  0.
         13    1    1    2    0    0  0.10927652478E+02 -0.11589727845E+01  0.11299006306E+02  0.15761837270E+02  0.10566000000E+00 0.  1.
        994    1    1    2    0    0 -0.13283326621E+02  0.59981508202E+01  0.52043743263E+01  0.17189808053E+03  0.17120000000E+03 0.  0.
        998    1    1    2    0    0  0.23556741434E+01 -0.48391780357E+01  0.14834966156E+04  0.14835400822E+04  0.10000000000E+02 0.  1.
</event>
<event>
 5    1  0.1145138E-008  0.3796615E+03  0.7957747E-01  0.3452634E+00
         13   -1    0    0    0    0  0.00000000000E+00  0.00000000000E+00  0.14999999963E+04  0.15000000000E+04  0.10566000000E+00 0.  1.
        994   -1    0    0    0    0 -0.00000000000E+00 -0.00000000000E+00  0.11368683772E-12  0.17120000000E+03  0.17120000000E+03 0.  0.
         13    1    1    2    0    0 -0.16652633464E+03 -0.71468373088E+02  0.10184088471E+04  0.10344057905E+04  0.10566000000E+00 0.  1.
        994    1    1    2    0    0  0.16622975078E+03  0.66997004702E+02  0.12059708134E+03  0.27563385988E+03  0.17120000000E+03 0.  0.
        998    1    1    2    0    0  0.29658386110E+00  0.44713683864E+01  0.36099406784E+03  0.36116034958E+03  0.10000000000E+02 0. -1.
</event>
<event>
 5    1  0.1145138E-008  0.3800741E+03  0.7957747E-01  0.3450836E+00
         13   -1    0    0    0    0  0.00000000000E+00  0.00000000000E+00  0.14999999963E+04  0.15000000000E+04  0.10566000000E+00 0.  1.
        994   -1    0    0    0    0 -0.00000000000E+00 -0.00000000000E+00  0.11368683772E-12  0.17120000000E+03  0.17120000000E+03 0.  0.
         13    1    1    2    0    0  0.32656263186E+02 -0.31786263444E+02  0.23803892487E+03  0.24236199988E+03  0.10566000000E+00 0.  1.
        994    1    1    2    0    0 -0.30461424897E+02  0.16470559504E+02  0.81139245043E+01  0.17485552181E+03  0.17120000000E+03 0.  0.
        998    1    1    2    0    0 -0.21948382892E+01  0.15315703940E+02  0.12538471469E+04  0.12539824783E+04  0.10000000000E+02 0.  1.
</event>
<event>
 5    1  0.1145138E-008  0.3755756E+03  0.7957747E-01  0.3470653E+00
         13   -1    0    0    0    0  0.00000000000E+00  0.00000000000E+00  0.14999999963E+04  0.15000000000E+04  0.10566000000E+00 0. -1.
        994   -1    0    0    0    0 -0.00000000000E+00 -0.00000000000E+00  0.11368683772E-12  0.17120000000E+03  0.17120000000E+03 0.  0.
         13    1    1    2    0    0  0.13910948644E+03 -0.44543308446E+02  0.70979959154E+03  0.72467304825E+03  0.10566000000E+00 0. -1.
        994    1    1    2    0    0 -0.14527363246E+03  0.51286156895E+02  0.91703142903E+02  0.24789837554E+03  0.17120000000E+03 0.  0.
        998    1    1    2    0    0  0.61641460216E+01 -0.67428484494E+01  0.69849726183E+03  0.69862857620E+03  0.10000000000E+02 0. -1.
</event>
<event>
 5    1  0.1145138E-008  0.4026531E+03  0.7957747E-01  0.3358088E+00
         13   -1    0    0    0    0  0.00000000000E+00  0.00000000000E+00  0.14999999963E+04  0.15000000000E+04  0.10566000000E+00 0.  1.
        994   -1    0    0    0    0 -0.00000000000E+00 -0.00000000000E+00  0.11368683772E-12  0.17120000000E+03  0.17120000000E+03 0.  0.
         13    1    1    2    0    0 -0.48414174452E+02 -0.10911199985E+02  0.31613863568E+02  0.58842451570E+02  0.10566000000E+00 0.  1.
        994    1    1    2    0    0  0.27582278916E+02  0.29208886382E+02  0.35786687416E+02  0.17945491955E+03  0.17120000000E+03 0.  0.
        998    1    1    2    0    0  0.20831895536E+02 -0.18297686397E+02  0.14325994453E+04  0.14329026289E+04  0.10000000000E+02 0.  1.
</event>
<event>
 5    1  0.1145138E-008  0.3757649E+03  0.7957747E-01  0.3469809E+00
         13   -1    0    0    0    0  0.00000000000E+00  0.00000000000E+00  0.14999999963E+04  0.15000000000E+04  0.10566000000E+00 0.  1.
        994   -1    0    0    0    0 -0.00000000000E+00 -0.00000000000E+00  0.11368683772E-12  0.17120000000E+03  0.17120000000E+03 0.  0.
         13    1    1    2    0    0  0.15294887360E+02  0.40896795721E+02  0.15382852773E+03  0.15990531132E+03  0.10566000000E+00 0.  1.
        994    1    1    2    0    0 -0.59310790385E+02 -0.22935597467E+01  0.18326149189E+02  0.18212171210E+03  0.17120000000E+03 0.  0.
        998    1    1    2    0    0  0.44015903025E+02 -0.38603235974E+02  0.13278453194E+04  0.13291729766E+04  0.10000000000E+02 0.  1.
</event>
<event>
 5    1  0.1145138E-008  0.3813816E+03  0.7957747E-01  0.3445165E+00
         13   -1    0    0    0    0  0.00000000000E+00  0.00000000000E+00  0.14999999963E+04  0.15000000000E+04  0.10566000000E+00 0. -1.
        994   -1    0    0    0    0 -0.00000000000E+00 -0.00000000000E+00  0.11368683772E-12  0.17120000000E+03  0.17120000000E+03 0.  0.
         13    1    1    2    0    0  0.20181617040E+02  0.86136195398E+02  0.33212215743E+03  0.34370318655E+03  0.10566000000E+00 0. -1.
        994    1    1    2    0    0  0.27760466124E+02  0.89717452666E+01  0.20194063013E+02  0.17483814193E+03  0.17120000000E+03 0.  0.
        998    1    1    2    0    0 -0.47942083164E+02 -0.95107940664E+02  0.11476837758E+04  0.11526586715E+04  0.10000000000E+02 0. -1.
</event>
<event>
 5    1  0.1145138E-008  0.3792376E+03  0.7957747E-01  0.3454485E+00
         13   -1    0    0    0    0  0.00000000000E+00  0.00000000000E+00  0.14999999963E+04  0.15000000000E+04  0.10566000000E+00 0. -1.
        994   -1    0    0    0    0 -0.00000000000E+00 -0.00000000000E+00  0.11368683772E-12  0.17120000000E+03  0.17120000000E+03 0.  0.
         13    1    1    2    0    0  0.24814413654E+02 -0.79806465689E+01  0.83653312170E+02  0.87620395147E+02  0.10566000000E+00 0. -1.
        994    1    1    2    0    0  0.68583549625E+01 -0.16211078328E+02  0.55575681638E+01  0.17219222589E+03  0.17120000000E+03 0.  0.
        998    1    1    2    0    0 -0.31672768617E+02  0.24191724896E+02  0.14107891159E+04  0.14113873790E+04  0.10000000000E+02 0. -1.
</event>
<event>
 5    1  0.1145138E-008  0.3835539E+03  0.7957747E-01  0.3435829E+00
         13   -1    0    0    0    0  0.00000000000E+00  0.00000000000E+00  0.14999999963E+04  0.15000000000E+04  0.10566000000E+00 0. -1.
        994   -1    0    0    0    0 -0.00000000000E+00 -0.00000000000E+00  0.11368683772E-12  0.17120000000E+03  0.17120000000E+03 0.  0.
         13    1    1    2    0    0  0.22073235038E+02 -0.25048796464E+01  0.10005058975E+03  0.10248723726E+03  0.10566000000E+00 0. -1.
        994    1    1    2    0    0 -0.19459176168E+02  0.94122771977E+01  0.38951886936E+01  0.17260319520E+03  0.17120000000E+03 0.  0.
        998    1    1    2    0    0 -0.26140588698E+01 -0.69073975514E+01  0.13960542178E+04  0.13961095675E+04  0.10000000000E+02 0. -1.
</event>
<event>
 5    1  0.1145138E-008  0.3806685E+03  0.7957747E-01  0.3448253E+00
         13   -1    0    0    0    0  0.00000000000E+00  0.00000000000E+00  0.14999999963E+04  0.15000000000E+04  0.10566000000E+00 0.  1.
        994   -1    0    0    0    0 -0.00000000000E+00 -0.00000000000E+00  0.11368683772E-12  0.17120000000E+03  0.17120000000E+03 0.  0.
         13    1    1    2    0    0  0.19062473520E+02  0.98189050121E+00  0.47287180864E+02  0.50994417770E+02  0.10566000000E+00 0.  1.
        994    1    1    2    0    0 -0.85995957759E+01 -0.85171818619E+00  0.40452237466E+01  0.17146568842E+03  0.17120000000E+03 0.  0.
        998    1    1    2    0    0 -0.10462877744E+02 -0.13017231501E+00  0.14486675917E+04  0.14487398938E+04  0.10000000000E+02 0.  1.
</event>
<event>
 5    1  0.1145138E-008  0.3783072E+03  0.7957747E-01  0.3458563E+00
         13   -1    0    0    0    0  0.00000000000E+00  0.00000000000E+00  0.14999999963E+04  0.15000000000E+04  0.10566000000E+00 0.  1.
        994   -1    0    0    0    0 -0.00000000000E+00 -0.00000000000E+00  0.11368683772E-12  0.17120000000E+03  0.17120000000E+03 0.  0.
         13    1    1    2    0    0  0.17804511181E+02 -0.59344809063E+02  0.26975503203E+03  0.27677896497E+03  0.10566000000E+00 0.  1.
        994    1    1    2    0    0 -0.24087249332E+02  0.77487858363E+02  0.27454800945E+02  0.19143607254E+03  0.17120000000E+03 0.  0.
        998    1    1    2    0    0  0.62827381511E+01 -0.18143049300E+02  0.12027901633E+04  0.12029849625E+04  0.10000000000E+02 0.  1.
</event>
<event>
 5    1  0.1145138E-008  0.3748994E+03  0.7957747E-01  0.3473673E+00
         13   -1    0    0    0    0  0.00000000000E+00  0.00000000000E+00  0.14999999963E+04  0.15000000000E+04  0.10566000000E+00 0. -1.
        994   -1    0    0    0    0 -0.00000000000E+00 -0.00000000000E+00  0.11368683772E-12  0.17120000000E+03  0.17120000000E+03 0.  0.
         13    1    1    2    0    0 -0.35274697979E+02  0.30320964707E+02  0.15672274163E+03  0.16347995023E+03  0.10566000000E+00 0. -1.
        994    1    1    2    0    0  0.20983914347E+02 -0.20911817298E+02  0.97204193382E+01  0.17401596282E+03  0.17120000000E+03 0.  0.
        998    1    1    2    0    0  0.14290783632E+02 -0.94091474092E+01  0.13335568353E+04  0.13337040870E+04  0.10000000000E+02 0. -1.
</event>
<event>
 5    1  0.1145138E-008  0.3690271E+03  0.7957747E-01  0.3500374E+00
         13   -1    0    0    0    0  0.00000000000E+00  0.00000000000E+00  0.14999999963E+04  0.15000000000E+04  0.10566000000E+00 0. -1.
        994   -1    0    0    0    0 -0.00000000000E+00 -0.00000000000E+00  0.11368683772E-12  0.17120000000E+03  0.17120000000E+03 0.  0.
         13    1    1    2    0    0 -0.10090470684E+03  0.99124378104E+02  0.73034216574E+03  0.74391336352E+03  0.10566000000E+00 0. -1.
        994    1    1    2    0    0  0.65024526796E+02 -0.89439411786E+02  0.54329211990E+02  0.21092344759E+03  0.17120000000E+03 0.  0.
        998    1    1    2    0    0  0.35880180048E+02 -0.96849663174E+01  0.71532861855E+03  0.71636318890E+03  0.10000000000E+02 0. -1.
</event>
<event>
 5    1  0.1145138E-008  0.3842688E+03  0.7957747E-01  0.3432779E+00
         13   -1    0    0    0    0  0.00000000000E+00  0.00000000000E+00  0.14999999963E+04  0.15000000000E+04  0.10566000000E+00 0.  1.
        994   -1    0    0    0    0 -0.00000000000E+00 -0.00000000000E+00  0.11368683772E-12  0.17120000000E+03  0.17120000000E+03 0.  0.
         13    1    1    2    0    0 -0.20719409399E+01  0.20994530870E+02  0.10044835902E+03  0.10263989117E+03  0.10566000000E+00 0.  1.
        994    1    1    2    0    0  0.16919833351E+01 -0.27773456580E+02  0.45500023674E+01  0.17350611004E+03  0.17120000000E+03 0.  0.
        998    1    1    2    0    0  0.37995760481E+00  0.67789257097E+01  0.13950016349E+04  0.13950539988E+04  0.10000000000E+02 0.  1.
</event>
<event>
 5    1  0.1145138E-008  0.3715171E+03  0.7957747E-01  0.3488948E+00
         13   -1    0    0    0    0  0.00000000000E+00  0.00000000000E+00  0.14999999963E+04  0.15000000000E+04  0.10566000000E+00 0.  1.
        994   -1    0    0    0    0 -0.00000000000E+00 -0.00000000000E+00  0.11368683772E-12  0.17120000000E+03  0.17120000000E+03 0.  0.
         13    1    1    2    0    0  0.38423671009E+02  0.12673176218E+02  0.11408071003E+03  0.12104299837E+03  0.10566000000E+00 0.  1.
        994    1    1    2    0    0  0.31582303380E+02 -0.24625200380E+02  0.14015093457E+02  0.17637943538E+03  0.17120000000E+03 0.  0.
        998    1    1    2    0    0 -0.70005974390E+02  0.11952024162E+02  0.13719041928E+04  0.13737775662E+04  0.10000000000E+02 0.  1.
</event>
<event>
 5    1  0.1145138E-008  0.3847588E+03  0.7957747E-01  0.3430696E+00
         13   -1    0    0    0    0  0.00000000000E+00  0.00000000000E+00  0.14999999963E+04  0.15000000000E+04  0.10566000000E+00 0. -1.
        994   -1    0    0    0    0 -0.00000000000E+00 -0.00000000000E+00  0.11368683772E-12  0.17120000000E+03  0.17120000000E+03 0.  0.
         13    1    1    2    0    0 -0.10597585363E+02  0.26190355546E+01  0.34575812863E+02  0.36258325416E+02  0.10566000000E+00 0. -1.
        994    1    1    2    0    0 -0.40791746027E+01 -0.27657405148E+02  0.43265014491E+01  0.17352155584E+03  0.17120000000E+03 0.  0.
        998    1    1    2    0    0  0.14676759966E+02  0.25038369593E+02  0.14610976820E+04  0.14614201187E+04  0.10000000000E+02 0. -1.
</event>
<event>
 5    1  0.1145138E-008  0.3884509E+03  0.7957747E-01  0.3415167E+00
         13   -1    0    0    0    0  0.00000000000E+00  0.00000000000E+00  0.14999999963E+04  0.15000000000E+04  0.10566000000E+00 0. -1.
        994   -1    0    0    0    0 -0.00000000000E+00 -0.00000000000E+00  0.11368683772E-12  0.17120000000E+03  0.17120000000E+03 0.  0.
         13    1    1    2    0    0 -0.50445356509E+02  0.72003009870E+02  0.16867466175E+03  0.19021125125E+03  0.10566000000E+00 0. -1.
        994    1    1    2    0    0  0.38015978996E+02 -0.59494613160E+02  0.39941069839E+02  0.18944538188E+03  0.17120000000E+03 0.  0.
        998    1    1    2    0    0  0.12429377513E+02 -0.12508396709E+02  0.12913842647E+04  0.12915433669E+04  0.10000000000E+02 0. -1.
</event>
<event>
 5    1  0.1145138E-008  0.3817312E+03  0.7957747E-01  0.3443655E+00
         13   -1    0    0    0    0  0.00000000000E+00  0.00000000000E+00  0.14999999963E+04  0.15000000000E+04  0.10566000000E+00 0. -1.
        994   -1    0    0    0    0 -0.00000000000E+00 -0.00000000000E+00  0.11368683772E-12  0.17120000000E+03  0.17120000000E+03 0.  0.
         13    1    1    2    0    0  0.16217722307E+02 -0.42760619609E-01  0.36275759101E+02  0.39736107103E+02  0.10566000000E+00 0. -1.
        994    1    1    2    0    0 -0.32144648628E+02 -0.25480096305E+02  0.88745915525E+01  0.17626886316E+03  0.17120000000E+03 0.  0.
        998    1    1    2    0    0  0.15926926321E+02  0.25522856925E+02  0.14548496456E+04  0.14551950297E+04  0.10000000000E+02 0. -1.
</event>
<event>
 5    1  0.1145138E-008  0.3853757E+03  0.7957747E-01  0.3428080E+00
         13   -1    0    0    0    0  0.00000000000E+00  0.00000000000E+00  0.14999999963E+04  0.15000000000E+04  0.10566000000E+00 0.  1.
        994   -1    0    0    0    0 -0.00000000000E+00 -0.00000000000E+00  0.11368683772E-12  0.17120000000E+03  0.17120000000E+03 0.  0.
         13    1    1    2    0    0  0.13407483511E+02  0.10300319041E+02  0.10067540472E+03  0.10208528525E+03  0.10566000000E+00 0.  1.
        994    1    1    2    0    0 -0.65835198018E+01 -0.66439079888E+01  0.17311458914E+01  0.17146405195E+03  0.17120000000E+03 0.  0.
        998    1    1    2    0    0 -0.68239637095E+01 -0.36564110521E+01  0.13975934457E+04  0.13976506628E+04  0.10000000000E+02 0.  1.
</event>
<event>
 5    1  0.1145138E-008  0.3805392E+03  0.7957747E-01  0.3448814E+00
         13   -1    0    0    0    0  0.00000000000E+00  0.00000000000E+00  0.14999999963E+04  0.15000000000E+04  0.10566000000E+00 0.  1.
        994   -1    0    0    0    0 -0.00000000000E+00 -0.00000000000E+00  0.11368683772E-12  0.17120000000E+03  0.17120000000E+03 0.  0.
         13    1    1    2    0    0 -0.16296780459E+02 -0.17486805968E+01  0.33082389261E+02  0.36920164956E+02  0.10566000000E+00 0.  1.
        994    1    1    2    0    0  0.13083714083E+02  0.25079574338E+00  0.44328775236E+01  0.17175662105E+03  0.17120000000E+03 0.  0.
        998    1    1    2    0    0  0.32130663761E+01  0.14978848534E+01  0.14624847295E+04  0.14625232140E+04  0.10000000000E+02 0.  1.
</event>
<event>
 5    1  0.1145138E-008  0.3807921E+03  0.7957747E-01  0.3447717E+00
         13   -1    0    0    0    0  0.00000000000E+00  0.00000000000E+00  0.14999999963E+04  0.15000000000E+04  0.10566000000E+00 0.  1.
        994   -1    0    0    0    0 -0.00000000000E+00 -0.00000000000E+00  0.11368683772E-12  0.17120000000E+03  0.17120000000E+03 0.  0.
         13    1    1    2    0    0  0.13530116315E+03 -0.39252136966E+02  0.84712066499E+03  0.85875524291E+03  0.10566000000E+00 0.  1.
        994    1    1    2    0    0 -0.14496493358E+03  0.38916643168E+02  0.82912482035E+02  0.24230818550E+03  0.17120000000E+03 0.  0.
        998    1    1    2    0    0  0.96637704380E+01  0.33549379813E+00  0.56996684925E+03  0.57013657159E+03  0.10000000000E+02 0.  0.
</event>
<event>
 5    1  0.1145138E-008  0.3801598E+03  0.7957747E-01  0.3450463E+00
         13   -1    0    0    0    0  0.00000000000E+00  0.00000000000E+00  0.14999999963E+04  0.15000000000E+04  0.10566000000E+00 0.  1.
        994   -1    0    0    0    0 -0.00000000000E+00 -0.00000000000E+00  0.11368683772E-12  0.17120000000E+03  0.17120000000E+03 0.  0.
         13    1    1    2    0    0  0.11820831103E+02  0.18745191375E+02  0.64064934980E+02  0.67789684361E+02  0.10566000000E+00 0.  1.
        994    1    1    2    0    0 -0.40956810444E+01  0.81451115572E+01  0.43302819452E+01  0.17149725592E+03  0.17120000000E+03 0.  0.
        998    1    1    2    0    0 -0.77251500590E+01 -0.26890302932E+02  0.14316047794E+04  0.14319130597E+04  0.10000000000E+02 0.  1.
</event>
<event>
 5    1  0.1145138E-008  0.3722515E+03  0.7957747E-01  0.3485607E+00
         13   -1    0    0    0    0  0.00000000000E+00  0.00000000000E+00  0.14999999963E+04  0.15000000000E+04  0.10566000000E+00 0.  1.
        994   -1    0    0    0    0 -0.00000000000E+00 -0.00000000000E+00  0.11368683772E-12  0.17120000000E+03  0.17120000000E+03 0.  0.
         13    1    1    2    0    0 -0.12800138950E+02  0.99684428323E+01  0.51421662265E+01  0.17019590100E+02  0.10566000000E+00 0.  1.
        994    1    1    2    0    0  0.17904113439E+02 -0.18512548515E+02  0.14475007439E+02  0.17373035881E+03  0.17120000000E+03 0.  0.
        998    1    1    2    0    0 -0.51039744890E+01  0.85441056824E+01  0.14803828226E+04  0.14804500511E+04  0.10000000000E+02 0.  1.
</event>
<event>
 5    1  0.1145138E-008  0.3810038E+03  0.7957747E-01  0.3446799E+00
         13   -1    0    0    0    0  0.00000000000E+00  0.00000000000E+00  0.14999999963E+04  0.15000000000E+04  0.10566000000E+00 0.  1.
        994   -1    0    0    0    0 -0.00000000000E+00 -0.00000000000E+00  0.11368683772E-12  0.17120000000E+03  0.17120000000E+03 0.  0.
         13    1    1    2    0    0  0.10603158446E+02 -0.10501670136E+02  0.28816249502E+02  0.32451493711E+02  0.10566000000E+00 0.  1.
        994    1    1    2    0    0 -0.10863640721E+02  0.10854796480E+02  0.44134664805E+01  0.17194407225E+03  0.17120000000E+03 0.  0.
        998    1    1    2    0    0  0.26048227538E+00 -0.35312634367E+00  0.14667702803E+04  0.14668044340E+04  0.10000000000E+02 0.  1.
</event>
<event>
 5    1  0.1145138E-008  0.3847061E+03  0.7957747E-01  0.3430920E+00
         13   -1    0    0    0    0  0.00000000000E+00  0.00000000000E+00  0.14999999963E+04  0.15000000000E+04  0.10566000000E+00 0.  1.
        994   -1    0    0    0    0 -0.00000000000E+00 -0.00000000000E+00  0.11368683772E-12  0.17120000000E+03  0.17120000000E+03 0.  0.
         13    1    1    2    0    0 -0.71217939452E+01  0.10136019115E+02  0.43884552581E+02  0.45599604732E+02  0.10566000000E+00 0.  1.
        994    1    1    2    0    0  0.93514320044E+01  0.14246407761E+01  0.20707330460E+01  0.17147363301E+03  0.17120000000E+03 0.  0.
        998    1    1    2    0    0 -0.22296380592E+01 -0.11560659891E+02  0.14540447107E+04  0.14541267623E+04  0.10000000000E+02 0.  1.
</event>
<event>
 5    1  0.1224373E-008  0.3859380E+03  0.7957747E-01  0.3425704E+00
         13   -1    0    0    0    0  0.00000000000E+00  0.00000000000E+00  0.14999999963E+04  0.15000000000E+04  0.10566000000E+00 0.  1.
        994   -1    0    0    0    0 -0.00000000000E+00 -0.00000000000E+00  0.11368683772E-12  0.17120000000E+03  0.17120000000E+03 0.  0.
         13    1    1    2    0    0 -0.86530469175E+01  0.65508364710E+01  0.51468133803E+02  0.52600082135E+02  0.10566000000E+00 0.  1.
        994    1    1    2    0    0  0.77566803352E+01 -0.39988069323E-01  0.13624669427E+01  0.17138104914E+03  0.17120000000E+03 0.  0.
        998    1    1    2    0    0  0.89636658225E+00 -0.65108484017E+01  0.14471693955E+04  0.14472188687E+04  0.10000000000E+02 0.  1.
</event>
<event>
 5    1  0.1145138E-008  0.3799120E+03  0.7957747E-01  0.3451542E+00
         13   -1    0    0    0    0  0.00000000000E+00  0.00000000000E+00  0.14999999963E+04  0.15000000000E+04  0.10566000000E+00 0.  1.
        994   -1    0    0    0    0 -0.00000000000E+00 -0.00000000000E+00  0.11368683772E-12  0.17120000000E+03  0.17120000000E+03 0.  0.
         13    1    1    2    0    0 -0.57895536189E+01  0.12045361002E+02  0.19515925427E+02  0.23653586664E+02  0.10566000000E+00 0.  1.
        994    1    1    2    0    0 -0.42242853363E+01 -0.14833549015E+02  0.49734261405E+01  0.17196526897E+03  0.17120000000E+03 0.  0.
        998    1    1    2    0    0  0.10013838955E+02  0.27881880132E+01  0.14755106447E+04  0.14755811444E+04  0.10000000000E+02 0.  1.
</event>
<event>
 5    1  0.1145138E-008  0.3276908E+03  0.7957747E-01  0.3716228E+00
         13   -1    0    0    0    0  0.00000000000E+00  0.00000000000E+00  0.14999999963E+04  0.15000000000E+04  0.10566000000E+00 0. -1.
        994   -1    0    0    0    0 -0.00000000000E+00 -0.00000000000E+00  0.11368683772E-12  0.17120000000E+03  0.17120000000E+03 0.  0.
         13    1    1    2    0    0  0.13108314835E+03  0.12814412343E+03  0.91603945173E+03  0.93420126121E+03  0.10566000000E+00 0. -1.
        994    1    1    2    0    0 -0.11276811070E+03 -0.92414781773E+02  0.91451894790E+02  0.24275507768E+03  0.17120000000E+03 0.  0.
        998    1    1    2    0    0 -0.18315037648E+02 -0.35729341657E+02  0.49250864975E+03  0.49424366111E+03  0.10000000000E+02 0. -1.
</event>
<event>
 5    1  0.1145138E-008  0.3855105E+03  0.7957747E-01  0.3427510E+00
         13   -1    0    0    0    0  0.00000000000E+00  0.00000000000E+00  0.14999999963E+04  0.15000000000E+04  0.10566000000E+00 0. -1.
        994   -1    0    0    0    0 -0.00000000000E+00 -0.00000000000E+00  0.11368683772E-12  0.17120000000E+03  0.17120000000E+03 0.  0.
         13    1    1    2    0    0 -0.75161585465E+01 -0.13438858586E+02  0.78909960350E+02  0.80398311959E+02  0.10566000000E+00 0. -1.
        994    1    1    2    0    0  0.93355159801E+01  0.20520246704E+02  0.30472853558E+01  0.17270483008E+03  0.17120000000E+03 0.  0.
        998    1    1    2    0    0 -0.18193574336E+01 -0.70813881185E+01  0.14180427506E+04  0.14180968580E+04  0.10000000000E+02 0. -1.
</event>
<event>
 5    1  0.1145138E-008  0.3798971E+03  0.7957747E-01  0.3451607E+00
         13   -1    0    0    0    0  0.00000000000E+00  0.00000000000E+00  0.14999999963E+04  0.15000000000E+04  0.10566000000E+00 0. -1.
        994   -1    0    0    0    0 -0.00000000000E+00 -0.00000000000E+00  0.11368683772E-12  0.17120000000E+03  0.17120000000E+03 0.  0.
         13    1    1    2    0    0  0.46309589051E+02  0.52434546146E+02  0.31278717832E+03  0.32051488226E+03  0.10566000000E+00 0. -1.
        994    1    1    2    0    0 -0.67103746452E+02 -0.90113424506E+02  0.47623738273E+02  0.21023986899E+03  0.17120000000E+03 0.  0.
        998    1    1    2    0    0  0.20794157401E+02  0.37678878360E+02  0.11395890797E+04  0.11404452488E+04  0.10000000000E+02 0. -1.
</event>
<event>
 5    1  0.1145138E-008  0.3821840E+03  0.7957747E-01  0.3441704E+00
         13   -1    0    0    0    0  0.00000000000E+00  0.00000000000E+00  0.14999999963E+04  0.15000000000E+04  0.10566000000E+00 0.  1.
        994   -1    0    0    0    0 -0.00000000000E+00 -0.00000000000E+00  0.11368683772E-12  0.17120000000E+03  0.17120000000E+03 0.  0.
         13    1    1    2    0    0  0.78034137256E+00 -0.11076687902E+02  0.19123686059E+02  0.22113988334E+02  0.10566000000E+00 0.  1.
        994    1    1    2    0    0  0.52410897832E+01  0.80920080123E+01  0.33432618229E+01  0.17150383965E+03  0.17120000000E+03 0.  0.
        998    1    1    2    0    0 -0.60214311557E+01  0.29846798898E+01  0.14775330484E+04  0.14775821720E+04  0.10000000000E+02 0.  1.
</event>
<event>
 5    1  0.1145138E-008  0.3833036E+03  0.7957747E-01  0.3436899E+00
         13   -1    0    0    0    0  0.00000000000E+00  0.00000000000E+00  0.14999999963E+04  0.15000000000E+04  0.10566000000E+00 0.  1.
        994   -1    0    0    0    0 -0.00000000000E+00 -0.00000000000E+00  0.11368683772E-12  0.17120000000E+03  0.17120000000E+03 0.  0.
         13    1    1    2    0    0  0.16801099742E+02  0.83632576054E+01  0.71472691685E+02  0.73895722819E+02  0.10566000000E+00 0.  1.
        994    1    1    2    0    0 -0.11751757644E+02  0.20480875352E+01  0.29454212286E+01  0.17164036232E+03  0.17120000000E+03 0.  0.
        998    1    1    2    0    0 -0.50493420982E+01 -0.10411345141E+02  0.14255818834E+04  0.14256639149E+04  0.10000000000E+02 0.  1.
</event>
<event>
 5    1  0.1145138E-008  0.3854062E+03  0.7957747E-01  0.3427951E+00
         13   -1    0    0    0    0  0.00000000000E+00  0.00000000000E+00  0.14999999963E+04  0.15000000000E+04  0.10566000000E+00 0.  1.
        994   -1    0    0    0    0 -0.00000000000E+00 -0.00000000000E+00  0.11368683772E-12  0.17120000000E+03  0.17120000000E+03 0.  0.
         13    1    1    2    0    0  0.10882526005E+02  0.10224186452E+02  0.77350823904E+02  0.78778959650E+02  0.10566000000E+00 0.  1.
        994    1    1    2    0    0 -0.82956373416E+01 -0.80101697611E+01  0.18654816163E+01  0.17159807819E+03  0.17120000000E+03 0.  0.
        998    1    1    2    0    0 -0.25868886633E+01 -0.22140166905E+01  0.14207836908E+04  0.14208229622E+04  0.10000000000E+02 0.  1.
</event>
<event>
 5    1  0.1145138E-008  0.3819273E+03  0.7957747E-01  0.3442809E+00
         13   -1    0    0    0    0  0.00000000000E+00  0.00000000000E+00  0.14999999963E+04  0.15000000000E+04  0.10566000000E+00 0. -1.
        994   -1    0    0    0    0 -0.00000000000E+00 -0.00000000000E+00  0.11368683772E-12  0.17120000000E+03  0.17120000000E+03 0.  0.
         13    1    1    2    0    0  0.59584212706E+02 -0.12068939086E+02  0.36028469799E+03  0.36537790363E+03  0.10566000000E+00 0. -1.
        994    1    1    2    0    0 -0.79185793626E+02  0.77769237760E+01  0.24486308494E+02  0.19036777500E+03  0.17120000000E+03 0.  0.
        998    1    1    2    0    0  0.19601580920E+02  0.42920153098E+01  0.11152289898E+04  0.11154543214E+04  0.10000000000E+02 0.  1.
</event>
<event>
 5    1  0.1145138E-008  0.3819794E+03  0.7957747E-01  0.3442585E+00
         13   -1    0    0    0    0  0.00000000000E+00  0.00000000000E+00  0.14999999963E+04  0.15000000000E+04  0.10566000000E+00 0. -1.
        994   -1    0    0    0    0 -0.00000000000E+00 -0.00000000000E+00  0.11368683772E-12  0.17120000000E+03  0.17120000000E+03 0.  0.
         13    1    1    2    0    0 -0.78300208804E+01  0.11840299834E+02  0.31124740502E+02  0.34209100580E+02  0.10566000000E+00 0. -1.
        994    1    1    2    0    0  0.44816764323E+01 -0.67836022367E+01  0.33568401878E+01  0.17142581795E+03  0.17120000000E+03 0.  0.
        998    1    1    2    0    0  0.33483444481E+01 -0.50566975970E+01  0.14655184156E+04  0.14655650815E+04  0.10000000000E+02 0. -1.
</event>
<event>
 5    1  0.1145138E-008  0.3860859E+03  0.7957747E-01  0.3425080E+00
         13   -1    0    0    0    0  0.00000000000E+00  0.00000000000E+00  0.14999999963E+04  0.15000000000E+04  0.10566000000E+00 0.  1.
        994   -1    0    0    0    0 -0.00000000000E+00 -0.00000000000E+00  0.11368683772E-12  0.17120000000E+03  0.17120000000E+03 0.  0.
         13    1    1    2    0    0  0.17084586911E+01 -0.12432843400E+02  0.70110432746E+02  0.71224843770E+02  0.10566000000E+00 0.  1.
        994    1    1    2    0    0 -0.10557912663E+02  0.12315469597E+02  0.19547576729E+01  0.17197790960E+03  0.17120000000E+03 0.  0.
        998    1    1    2    0    0  0.88494539723E+01  0.11737380355E+00  0.14279348059E+04  0.14279972466E+04  0.10000000000E+02 0.  1.
</event>
<event>
 5    1  0.1145138E-008  0.3798589E+03  0.7957747E-01  0.3451773E+00
         13   -1    0    0    0    0  0.00000000000E+00  0.00000000000E+00  0.14999999963E+04  0.15000000000E+04  0.10566000000E+00 0.  1.
        994   -1    0    0    0    0 -0.00000000000E+00 -0.00000000000E+00  0.11368683772E-12  0.17120000000E+03  0.17120000000E+03 0.  0.
         13    1    1    2    0    0 -0.40342860755E+02 -0.11359126068E+01  0.17832358326E+03  0.18283366272E+03  0.10566000000E+00 0.  1.
        994    1    1    2    0    0  0.35346617150E+02 -0.16343431285E+02  0.92929909241E+01  0.17581891471E+03  0.17120000000E+03 0.  0.
        998    1    1    2    0    0  0.49962436054E+01  0.17479343892E+02  0.13123834221E+04  0.13125474226E+04  0.10000000000E+02 0. -1.
</event>
<event>
 5    1  0.1145138E-008  0.3856439E+03  0.7957747E-01  0.3426946E+00
         13   -1    0    0    0    0  0.00000000000E+00  0.00000000000E+00  0.14999999963E+04  0.15000000000E+04  0.10566000000E+00 0.  1.
        994   -1    0    0    0    0 -0.00000000000E+00 -0.00000000000E+00  0.11368683772E-12  0.17120000000E+03  0.17120000000E+03 0.  0.
         13    1    1    2    0    0  0.24631954364E+02 -0.14025203642E+03  0.40439143639E+03  0.42873046531E+03  0.10566000000E+00 0.  1.
        994    1    1    2    0    0 -0.28676762954E+02  0.12181043479E+03  0.80019016334E+02  0.22665529275E+03  0.17120000000E+03 0.  0.
        998    1    1    2    0    0  0.40448085897E+01  0.18441601632E+02  0.10155895436E+04  0.10158142419E+04  0.10000000000E+02 0.  1.
</event>
<event>
 5    1  0.1145138E-008  0.3822613E+03  0.7957747E-01  0.3441371E+00
         13   -1    0    0    0    0  0.00000000000E+00  0.00000000000E+00  0.14999999963E+04  0.15000000000E+04  0.10566000000E+00 0. -1.
        994   -1    0    0    0    0 -0.00000000000E+00 -0.00000000000E+00  0.11368683772E-12  0.17120000000E+03  0.17120000000E+03 0.  0.
         13    1    1    2    0    0  0.94474896656E+01  0.24919921985E+02  0.13489148455E+03  0.13749902305E+03  0.10566000000E+00 0. -1.
        994    1    1    2    0    0 -0.73836959536E+01  0.62035608352E+01  0.33046626072E+01  0.17150324757E+03  0.17120000000E+03 0.  0.
        998    1    1    2    0    0 -0.20637937120E+01 -0.31123482821E+02  0.13618038491E+04  0.13621977294E+04  0.10000000000E+02 0. -1.
</event>
<event>
 5    1  0.1145138E-008  0.3837475E+03  0.7957747E-01  0.3435001E+00
         13   -1    0    0    0    0  0.00000000000E+00  0.00000000000E+00  0.14999999963E+04  0.15000000000E+04  0.10566000000E+00 0.  1.
        994   -1    0    0    0    0 -0.00000000000E+00 -0.00000000000E+00  0.11368683772E-12  0.17120000000E+03  0.17120000000E+03 0.  0.
         13    1    1    2    0    0  0.12747034456E+02  0.13972561427E+02  0.78542809084E+02  0.80788015096E+02  0.10566000000E+00 0.  1.
        994    1    1    2    0    0 -0.13469994178E+02 -0.50753273097E+01  0.29377239151E+01  0.17182918818E+03  0.17120000000E+03 0.  0.
        998    1    1    2    0    0  0.72295972217E+00 -0.88972341174E+01  0.14185194633E+04  0.14185827967E+04  0.10000000000E+02 0.  1.
</event>
<event>
 5    1  0.1145138E-008  0.3858972E+03  0.7957747E-01  0.3425876E+00
         13   -1    0    0    0    0  0.00000000000E+00  0.00000000000E+00  0.14999999963E+04  0.15000000000E+04  0.10566000000E+00 0. -1.
        994   -1    0    0    0    0 -0.00000000000E+00 -0.00000000000E+00  0.11368683772E-12  0.17120000000E+03  0.17120000000E+03 0.  0.
         13    1    1    2    0    0  0.90070509597E+01 -0.85560764314E+01  0.63593399632E+02  0.64795563519E+02  0.10566000000E+00 0. -1.
        994    1    1    2    0    0 -0.11473071672E+02  0.66621332698E+01  0.17627226265E+01  0.17172234154E+03  0.17120000000E+03 0.  0.
        998    1    1    2    0    0  0.24660207127E+01  0.18939431617E+01  0.14346438740E+04  0.14346820949E+04  0.10000000000E+02 0. -1.
</event>
<event>
 5    1  0.1145138E-008  0.3692456E+03  0.7957747E-01  0.3499365E+00
         13   -1    0    0    0    0  0.00000000000E+00  0.00000000000E+00  0.14999999963E+04  0.15000000000E+04  0.10566000000E+00 0. -1.
        994   -1    0    0    0    0 -0.00000000000E+00 -0.00000000000E+00  0.11368683772E-12  0.17120000000E+03  0.17120000000E+03 0.  0.
         13    1    1    2    0    0  0.40128722897E+01 -0.44407029875E+02  0.10532307481E+03  0.11437241231E+03  0.10566000000E+00 0. -1.
        994    1    1    2    0    0 -0.14798534737E+02  0.11576126376E+02  0.10888623705E+02  0.17257174003E+03  0.17120000000E+03 0.  0.
        998    1    1    2    0    0  0.10785662448E+02  0.32830903499E+02  0.13837882978E+04  0.13842558477E+04  0.10000000000E+02 0. -1.
</event>
<event>
 5    1  0.1145138E-008  0.3779404E+03  0.7957747E-01  0.3460176E+00
         13   -1    0    0    0    0  0.00000000000E+00  0.00000000000E+00  0.14999999963E+04  0.15000000000E+04  0.10566000000E+00 0.  1.
        994   -1    0    0    0    0 -0.00000000000E+00 -0.00000000000E+00  0.11368683772E-12  0.17120000000E+03  0.17120000000E+03 0.  0.
         13    1    1    2    0    0 -0.59608543635E+02 -0.46454769533E+01  0.35869103011E+03  0.36363996641E+03  0.10566000000E+00 0.  1.
        994    1    1    2    0    0  0.31372761107E+02 -0.15099418951E+02  0.92674742348E+01  0.17495018911E+03  0.17120000000E+03 0.  0.
        998    1    1    2    0    0  0.28235782528E+02  0.19744895904E+02  0.11320414919E+04  0.11326098445E+04  0.10000000000E+02 0.  1.
</event>
<event>
 5    1  0.1145138E-008  0.3862764E+03  0.7957747E-01  0.3424277E+00
         13   -1    0    0    0    0  0.00000000000E+00  0.00000000000E+00  0.14999999963E+04  0.15000000000E+04  0.10566000000E+00 0. -1.
        994   -1    0    0    0    0 -0.00000000000E+00 -0.00000000000E+00  0.11368683772E-12  0.17120000000E+03  0.17120000000E+03 0.  0.
         13    1    1    2    0    0 -0.43121209273E+02 -0.10623088120E+02  0.45410658740E+02  0.63517145571E+02  0.10566000000E+00 0. -1.
        994    1    1    2    0    0 -0.82713845607E+01  0.45514509301E+02  0.27798424366E+02  0.17950537250E+03  0.17120000000E+03 0.  0.
        998    1    1    2    0    0  0.51392593833E+02 -0.34891421181E+02  0.14267909132E+04  0.14281774819E+04  0.10000000000E+02 0. -1.
</event>
<event>
 5    1  0.1145138E-008  0.3834074E+03  0.7957747E-01  0.3436455E+00
         13   -1    0    0    0    0  0.00000000000E+00  0.00000000000E+00  0.14999999963E+04  0.15000000000E+04  0.10566000000E+00 0.  1.
        994   -1    0    0    0    0 -0.00000000000E+00 -0.00000000000E+00  0.11368683772E-12  0.17120000000E+03  0.17120000000E+03 0.  0.
         13    1    1    2    0    0 -0.17306819265E+02  0.51334017962E+01  0.63670427917E+02  0.66180150818E+02  0.10566000000E+00 0.  1.
        994    1    1    2    0    0  0.17720620675E+02 -0.12034744921E+02  0.39412302990E+01  0.17257991998E+03  0.17120000000E+03 0.  0.
        998    1    1    2    0    0 -0.41380140985E+00  0.69013431252E+01  0.14323883381E+04  0.14324399292E+04  0.10000000000E+02 0.  1.
</event>
<event>
 5    1  0.1145138E-008  0.3852465E+03  0.7957747E-01  0.3428627E+00
         13   -1    0    0    0    0  0.00000000000E+00  0.00000000000E+00  0.14999999963E+04  0.15000000000E+04  0.10566000000E+00 0. -1.
        994   -1    0    0    0    0 -0.00000000000E+00 -0.00000000000E+00  0.11368683772E-12  0.17120000000E+03  0.17120000000E+03 0.  0.
         13    1    1    2    0    0 -0.17686049691E+02 -0.41453627139E+01  0.10642649437E+03  0.10796569017E+03  0.10566000000E+00 0. -1.
        994    1    1    2    0    0  0.14510494120E+02  0.44613911008E+01  0.22654689047E+01  0.17188668011E+03  0.17120000000E+03 0.  0.
        998    1    1    2    0    0  0.31755555706E+01 -0.31602838690E+00  0.13913080330E+04  0.13913476297E+04  0.10000000000E+02 0. -1.
</event>
<event>
 5    1  0.1145138E-008  0.3840652E+03  0.7957747E-01  0.3433646E+00
         13   -1    0    0    0    0  0.00000000000E+00  0.00000000000E+00  0.14999999963E+04  0.15000000000E+04  0.10566000000E+00 0. -1.
        994   -1    0    0    0    0 -0.00000000000E+00 -0.00000000000E+00  0.11368683772E-12  0.17120000000E+03  0.17120000000E+03 0.  0.
         13    1    1    2    0    0 -0.77977322791E+01 -0.14181681555E+02  0.69181623725E+02  0.71049510524E+02  0.10566000000E+00 0. -1.
        994    1    1    2    0    0 -0.63151123184E+01 -0.52688312688E+01  0.23181100976E+01  0.17141311169E+03  0.17120000000E+03 0.  0.
        998    1    1    2    0    0  0.14112844597E+02  0.19450512824E+02  0.14285002625E+04  0.14287373778E+04  0.10000000000E+02 0. -1.
</event>
<event>
 5    1  0.1145138E-008  0.3831451E+03  0.7957747E-01  0.3437577E+00
         13   -1    0    0    0    0  0.00000000000E+00  0.00000000000E+00  0.14999999963E+04  0.15000000000E+04  0.10566000000E+00 0. -1.
        994   -1    0    0    0    0 -0.00000000000E+00 -0.00000000000E+00  0.11368683772E-12  0.17120000000E+03  0.17120000000E+03 0.  0.
         13    1    1    2    0    0  0.59491859236E-01 -0.27982625000E+02  0.13405499479E+03  0.13694445456E+03  0.10566000000E+00 0. -1.
        994    1    1    2    0    0  0.53252723690E+01  0.34692025350E+02  0.66403674182E+01  0.17488690525E+03  0.17120000000E+03 0.  0.
        998    1    1    2    0    0 -0.53847642283E+01 -0.67094003502E+01  0.13593046341E+04  0.13593686402E+04  0.10000000000E+02 0. -1.
</event>
<event>
 5    1  0.1145138E-008  0.3799619E+03  0.7957747E-01  0.3451325E+00
         13   -1    0    0    0    0  0.00000000000E+00  0.00000000000E+00  0.14999999963E+04  0.15000000000E+04  0.10566000000E+00 0.  1.
        994   -1    0    0    0    0 -0.00000000000E+00 -0.00000000000E+00  0.11368683772E-12  0.17120000000E+03  0.17120000000E+03 0.  0.
         13    1    1    2    0    0 -0.26432200956E+01 -0.11312061669E+02  0.14258539775E+02  0.18392021972E+02  0.10566000000E+00 0.  1.
        994    1    1    2    0    0  0.97600046342E+01  0.12059825465E+02  0.49575387429E+01  0.17197300448E+03  0.17120000000E+03 0.  0.
        998    1    1    2    0    0 -0.71167845386E+01 -0.74776379624E+00  0.14807839178E+04  0.14808349735E+04  0.10000000000E+02 0.  1.
</event>
<event>
 5    1  0.1145138E-008  0.3783372E+03  0.7957747E-01  0.3458431E+00
         13   -1    0    0    0    0  0.00000000000E+00  0.00000000000E+00  0.14999999963E+04  0.15000000000E+04  0.10566000000E+00 0.  1.
        994   -1    0    0    0    0 -0.00000000000E+00 -0.00000000000E+00  0.11368683772E-12  0.17120000000E+03  0.17120000000E+03 0.  0.
         13    1    1    2    0    0 -0.24931545544E+01 -0.18119635266E+02  0.39008533739E+01  0.18702000505E+02  0.10566000000E+00 0.  1.
        994    1    1    2    0    0 -0.37756480524E+01  0.17928134238E+02  0.16626732790E+02  0.17297850086E+03  0.17120000000E+03 0.  0.
        998    1    1    2    0    0  0.62688026068E+01  0.19150102806E+00  0.14794724101E+04  0.14795194986E+04  0.10000000000E+02 0.  1.
</event>
<event>
 5    1  0.1145138E-008  0.3852059E+03  0.7957747E-01  0.3428799E+00
         13   -1    0    0    0    0  0.00000000000E+00  0.00000000000E+00  0.14999999963E+04  0.15000000000E+04  0.10566000000E+00 0.  1.
        994   -1    0    0    0    0 -0.00000000000E+00 -0.00000000000E+00  0.11368683772E-12  0.17120000000E+03  0.17120000000E+03 0.  0.
         13    1    1    2    0    0 -0.15744006194E+03  0.95347627340E+02  0.92479132532E+03  0.94293029949E+03  0.10566000000E+00 0.  1.
        994    1    1    2    0    0  0.18872708404E+03 -0.11252573992E+03  0.18070762113E+03  0.33203108097E+03  0.17120000000E+03 0.  0.
        998    1    1    2    0    0 -0.31287022105E+02  0.17178112575E+02  0.39450104983E+03  0.39623861954E+03  0.10000000000E+02 0. -1.
</event>
<event>
 5    1  0.1145138E-008  0.3857743E+03  0.7957747E-01  0.3426395E+00
         13   -1    0    0    0    0  0.00000000000E+00  0.00000000000E+00  0.14999999963E+04  0.15000000000E+04  0.10566000000E+00 0. -1.
        994   -1    0    0    0    0 -0.00000000000E+00 -0.00000000000E+00  0.11368683772E-12  0.17120000000E+03  0.17120000000E+03 0.  0.
         13    1    1    2    0    0 -0.95452376596E+01  0.81309734860E+01  0.63828193962E+02  0.65048242100E+02  0.10566000000E+00 0. -1.
        994    1    1    2    0    0  0.52463298074E+00 -0.11690825919E+02  0.16955618203E+01  0.17160788321E+03  0.17120000000E+03 0.  0.
        998    1    1    2    0    0  0.90206046789E+01  0.35598524327E+01  0.14344762405E+04  0.14345438747E+04  0.10000000000E+02 0. -1.
</event>
<event>
 5    1  0.1145138E-008  0.3993952E+03  0.7957747E-01  0.3370824E+00
         13   -1    0    0    0    0  0.00000000000E+00  0.00000000000E+00  0.14999999963E+04  0.15000000000E+04  0.10566000000E+00 0.  1.
        994   -1    0    0    0    0 -0.00000000000E+00 -0.00000000000E+00  0.11368683772E-12  0.17120000000E+03  0.17120000000E+03 0.  0.
         13    1    1    2    0    0  0.90948380355E+01  0.16564729957E+02 -0.53683469527E+01  0.19645270944E+02  0.10566000000E+00 0.  1.
        994    1    1    2    0    0 -0.64306863390E+01  0.10616920667E+02  0.28021468562E+02  0.17392157840E+03  0.17120000000E+03 0.  0.
        998    1    1    2    0    0 -0.26641516965E+01 -0.27181650623E+02  0.14773468747E+04  0.14776331507E+04  0.10000000000E+02 0.  1.
</event>
<event>
 5    1  0.1145138E-008  0.3797755E+03  0.7957747E-01  0.3452137E+00
         13   -1    0    0    0    0  0.00000000000E+00  0.00000000000E+00  0.14999999963E+04  0.15000000000E+04  0.10566000000E+00 0. -1.
        994   -1    0    0    0    0 -0.00000000000E+00 -0.00000000000E+00  0.11368683772E-12  0.17120000000E+03  0.17120000000E+03 0.  0.
         13    1    1    2    0    0  0.11457518345E+01 -0.22028230415E+02  0.54612142692E+02  0.58898667013E+02  0.10566000000E+00 0. -1.
        994    1    1    2    0    0 -0.23037862213E+01  0.19356285445E+02  0.55187068809E+01  0.17239451657E+03  0.17120000000E+03 0.  0.
        998    1    1    2    0    0  0.11580343869E+01  0.26719449702E+01  0.14398691467E+04  0.14399068164E+04  0.10000000000E+02 0. -1.
</event>
<event>
 5    1  0.1145138E-008  0.3712063E+03  0.7957747E-01  0.3490365E+00
         13   -1    0    0    0    0  0.00000000000E+00  0.00000000000E+00  0.14999999963E+04  0.15000000000E+04  0.10566000000E+00 0. -1.
        994   -1    0    0    0    0 -0.00000000000E+00 -0.00000000000E+00  0.11368683772E-12  0.17120000000E+03  0.17120000000E+03 0.  0.
         13    1    1    2    0    0 -0.99192460828E+02  0.31610408334E+02  0.47131930088E+03  0.48268028419E+03  0.10566000000E+00 0. -1.
        994    1    1    2    0    0  0.86603121558E+02 -0.32063495432E+02  0.38604236350E+02  0.19831262054E+03  0.17120000000E+03 0.  0.
        998    1    1    2    0    0  0.12589339270E+02  0.45308709781E+00  0.99007645905E+03  0.99020709527E+03  0.10000000000E+02 0. -1.
</event>
<event>
 5    1  0.1145138E-008  0.3845071E+03  0.7957747E-01  0.3431765E+00
         13   -1    0    0    0    0  0.00000000000E+00  0.00000000000E+00  0.14999999963E+04  0.15000000000E+04  0.10566000000E+00 0. -1.
        994   -1    0    0    0    0 -0.00000000000E+00 -0.00000000000E+00  0.11368683772E-12  0.17120000000E+03  0.17120000000E+03 0.  0.
         13    1    1    2    0    0 -0.40324682656E+01 -0.12184448443E+02  0.44352284867E+02  0.46172046967E+02  0.10566000000E+00 0. -1.
        994    1    1    2    0    0 -0.30835380217E+01  0.65551687664E+01  0.20479076443E+01  0.17136543517E+03  0.17120000000E+03 0.  0.
        998    1    1    2    0    0  0.71160062873E+01  0.56292796771E+01  0.14535998038E+04  0.14536625179E+04  0.10000000000E+02 0. -1.
</event>
<event>
 5    1  0.1145138E-008  0.3751355E+03  0.7957747E-01  0.3472617E+00
         13   -1    0    0    0    0  0.00000000000E+00  0.00000000000E+00  0.14999999963E+04  0.15000000000E+04  0.10566000000E+00 0. -1.
        994   -1    0    0    0    0 -0.00000000000E+00 -0.00000000000E+00  0.11368683772E-12  0.17120000000E+03  0.17120000000E+03 0.  0.
         13    1    1    2    0    0  0.42873389584E+02  0.52774595683E+02  0.25669026148E+03  0.26554319232E+03  0.10566000000E+00 0. -1.
        994    1    1    2    0    0 -0.50717129111E+02 -0.67646688725E+02  0.31298026112E+02  0.19348722986E+03  0.17120000000E+03 0.  0.
        998    1    1    2    0    0  0.78437395266E+01  0.14872093043E+02  0.12120117087E+04  0.12121695778E+04  0.10000000000E+02 0. -1.
</event>
<event>
 5    1  0.1145138E-008  0.3824844E+03  0.7957747E-01  0.3440412E+00
         13   -1    0    0    0    0  0.00000000000E+00  0.00000000000E+00  0.14999999963E+04  0.15000000000E+04  0.10566000000E+00 0.  1.
        994   -1    0    0    0    0 -0.00000000000E+00 -0.00000000000E+00  0.11368683772E-12  0.17120000000E+03  0.17120000000E+03 0.  0.
         13    1    1    2    0    0 -0.35246640617E+01  0.95408102667E+01  0.16716783242E+02  0.19568145627E+02  0.10566000000E+00 0.  1.
        994    1    1    2    0    0  0.48653207238E+01 -0.75072225664E+01  0.31496463373E+01  0.17146250321E+03  0.17120000000E+03 0.  0.
        998    1    1    2    0    0 -0.13406566621E+01 -0.20335877004E+01  0.14801335667E+04  0.14801693512E+04  0.10000000000E+02 0.  1.
</event>
<event>
 5    1  0.1145138E-008  0.3715395E+03  0.7957747E-01  0.3488846E+00
         13   -1    0    0    0    0  0.00000000000E+00  0.00000000000E+00  0.14999999963E+04  0.15000000000E+04  0.10566000000E+00 0.  1.
        994   -1    0    0    0    0 -0.00000000000E+00 -0.00000000000E+00  0.11368683772E-12  0.17120000000E+03  0.17120000000E+03 0.  0.
         13    1    1    2    0    0 -0.15045370193E+02 -0.47488550945E+02  0.14007224939E+03  0.14866664673E+03  0.10566000000E+00 0.  1.
        994    1    1    2    0    0  0.15563620956E+02  0.32463491233E+02  0.12937538712E+02  0.17542213221E+03  0.17120000000E+03 0.  0.
        998    1    1    2    0    0 -0.51825076260E+00  0.15025059711E+02  0.13469902082E+04  0.13471112211E+04  0.10000000000E+02 0.  1.
</event>
<event>
 5    1  0.1145138E-008  0.3768130E+03  0.7957747E-01  0.3465154E+00
         13   -1    0    0    0    0  0.00000000000E+00  0.00000000000E+00  0.14999999963E+04  0.15000000000E+04  0.10566000000E+00 0.  1.
        994   -1    0    0    0    0 -0.00000000000E+00 -0.00000000000E+00  0.11368683772E-12  0.17120000000E+03  0.17120000000E+03 0.  0.
         13    1    1    2    0    0 -0.39278875097E+02  0.31877725702E+02  0.80645116821E+02  0.95198032836E+02  0.10566000000E+00 0.  1.
        994    1    1    2    0    0  0.23999368380E+02 -0.36884792335E+02  0.21555708089E+02  0.17807455220E+03  0.17120000000E+03 0.  0.
        998    1    1    2    0    0  0.15279506716E+02  0.50070666333E+01  0.13977991714E+04  0.13979274150E+04  0.10000000000E+02 0.  1.
</event>
<event>
 5    1  0.1145138E-008  0.3696642E+03  0.7957747E-01  0.3497436E+00
         13   -1    0    0    0    0  0.00000000000E+00  0.00000000000E+00  0.14999999963E+04  0.15000000000E+04  0.10566000000E+00 0. -1.
        994   -1    0    0    0    0 -0.00000000000E+00 -0.00000000000E+00  0.11368683772E-12  0.17120000000E+03  0.17120000000E+03 0.  0.
         13    1    1    2    0    0  0.54241114561E+02  0.47491463623E+02  0.30080186351E+03  0.30932072333E+03  0.10566000000E+00 0. -1.
        994    1    1    2    0    0 -0.83079252864E+01 -0.31391896826E+02  0.13103672657E+02  0.17474443924E+03  0.17120000000E+03 0.  0.
        998    1    1    2    0    0 -0.45933189275E+02 -0.16099566797E+02  0.11860944601E+04  0.11871348374E+04  0.10000000000E+02 0. -1.
</event>
<event>
 5    1  0.1145138E-008  0.3846340E+03  0.7957747E-01  0.3431226E+00
         13   -1    0    0    0    0  0.00000000000E+00  0.00000000000E+00  0.14999999963E+04  0.15000000000E+04  0.10566000000E+00 0.  1.
        994   -1    0    0    0    0 -0.00000000000E+00 -0.00000000000E+00  0.11368683772E-12  0.17120000000E+03  0.17120000000E+03 0.  0.
         13    1    1    2    0    0 -0.11117550098E+02  0.58488058753E+01  0.42599101479E+02  0.44412870445E+02  0.10566000000E+00 0.  1.
        994    1    1    2    0    0  0.10826402804E+02 -0.45105111322E+01  0.22649872400E+01  0.17161621682E+03  0.17120000000E+03 0.  0.
        998    1    1    2    0    0  0.29114729383E+00 -0.13382947432E+01  0.14551359076E+04  0.14551709127E+04  0.10000000000E+02 0.  0.
</event>
<event>
 5    1  0.1145138E-008  0.3737466E+03  0.7957747E-01  0.3478847E+00
         13   -1    0    0    0    0  0.00000000000E+00  0.00000000000E+00  0.14999999963E+04  0.15000000000E+04  0.10566000000E+00 0.  1.
        994   -1    0    0    0    0 -0.00000000000E+00 -0.00000000000E+00  0.11368683772E-12  0.17120000000E+03  0.17120000000E+03 0.  0.
         13    1    1    2    0    0  0.62193073712E+02  0.39678962375E+01  0.36586691720E+03  0.37113654480E+03  0.10566000000E+00 0.  1.
        994    1    1    2    0    0  0.21074281145E+01 -0.39149456896E+02  0.12589102501E+02  0.17608249978E+03  0.17120000000E+03 0.  0.
        998    1    1    2    0    0 -0.64300501827E+02  0.35181560659E+02  0.11215439766E+04  0.11239809554E+04  0.10000000000E+02 0.  1.
</event>
<event>
 5    1  0.1145138E-008  0.3843967E+03  0.7957747E-01  0.3432235E+00
         13   -1    0    0    0    0  0.00000000000E+00  0.00000000000E+00  0.14999999963E+04  0.15000000000E+04  0.10566000000E+00 0.  1.
        994   -1    0    0    0    0 -0.00000000000E+00 -0.00000000000E+00  0.11368683772E-12  0.17120000000E+03  0.17120000000E+03 0.  0.
         13    1    1    2    0    0 -0.15207388437E+02  0.13813369372E+02  0.12392003226E+03  0.12561154165E+03  0.10566000000E+00 0.  1.
        994    1    1    2    0    0  0.48410890868E+01  0.88034263370E+01  0.22626159256E+01  0.17150946297E+03  0.17120000000E+03 0.  0.
        998    1    1    2    0    0  0.10366299350E+02 -0.22616795709E+02  0.13738173481E+04  0.13740789954E+04  0.10000000000E+02 0.  1.
</event>
<event>
 5    1  0.1145138E-008  0.3729205E+03  0.7957747E-01  0.3482576E+00
         13   -1    0    0    0    0  0.00000000000E+00  0.00000000000E+00  0.14999999963E+04  0.15000000000E+04  0.10566000000E+00 0. -1.
        994   -1    0    0    0    0 -0.00000000000E+00 -0.00000000000E+00  0.11368683772E-12  0.17120000000E+03  0.17120000000E+03 0.  0.
         13    1    1    2    0    0  0.38510406130E+02  0.16235412223E+02  0.11802721063E+03  0.12520812115E+03  0.10566000000E+00 0. -1.
        994    1    1    2    0    0 -0.67504636704E+01 -0.76064034965E+01  0.81046200823E+01  0.17169318857E+03  0.17120000000E+03 0.  0.
        998    1    1    2    0    0 -0.31759942460E+02 -0.86290087268E+01  0.13738681656E+04  0.13742986903E+04  0.10000000000E+02 0. -1.
</event>
<event>
 5    1  0.1145138E-008  0.3714908E+03  0.7957747E-01  0.3489068E+00
         13   -1    0    0    0    0  0.00000000000E+00  0.00000000000E+00  0.14999999963E+04  0.15000000000E+04  0.10566000000E+00 0. -1.
        994   -1    0    0    0    0 -0.00000000000E+00 -0.00000000000E+00  0.11368683772E-12  0.17120000000E+03  0.17120000000E+03 0.  0.
         13    1    1    2    0    0  0.61413469070E+01 -0.42328602510E+02  0.11990852924E+03  0.12730865360E+03  0.10566000000E+00 0. -1.
        994    1    1    2    0    0 -0.12908611157E+02 -0.75473230490E+01  0.92614577153E+01  0.17210115899E+03  0.17120000000E+03 0.  0.
        998    1    1    2    0    0  0.67672642501E+01  0.49875925559E+02  0.13708300093E+04  0.13717901874E+04  0.10000000000E+02 0. -1.
</event>
<event>
 5    1  0.1145138E-008  0.3816644E+03  0.7957747E-01  0.3443943E+00
         13   -1    0    0    0    0  0.00000000000E+00  0.00000000000E+00  0.14999999963E+04  0.15000000000E+04  0.10566000000E+00 0.  1.
        994   -1    0    0    0    0 -0.00000000000E+00 -0.00000000000E+00  0.11368683772E-12  0.17120000000E+03  0.17120000000E+03 0.  0.
         13    1    1    2    0    0  0.13780899142E+02 -0.87195773571E+01  0.38491368738E+02  0.41803598431E+02  0.10566000000E+00 0.  1.
        994    1    1    2    0    0 -0.13199349288E+02  0.83456491907E+01  0.41065066715E+01  0.17195980949E+03  0.17120000000E+03 0.  0.
        998    1    1    2    0    0 -0.58154985327E+00  0.37392816634E+00  0.14574021209E+04  0.14574365921E+04  0.10000000000E+02 0.  0.
</event>
<event>
 5    1  0.1145138E-008  0.3838449E+03  0.7957747E-01  0.3434586E+00
         13   -1    0    0    0    0  0.00000000000E+00  0.00000000000E+00  0.14999999963E+04  0.15000000000E+04  0.10566000000E+00 0. -1.
        994   -1    0    0    0    0 -0.00000000000E+00 -0.00000000000E+00  0.11368683772E-12  0.17120000000E+03  0.17120000000E+03 0.  0.
         13    1    1    2    0    0  0.34730028801E+01 -0.15858142565E+02  0.60029651650E+02  0.62186113208E+02  0.10566000000E+00 0. -1.
        994    1    1    2    0    0 -0.12885016881E+02  0.57256643864E+01  0.28612613437E+01  0.17180347409E+03  0.17120000000E+03 0.  0.
        998    1    1    2    0    0  0.94120140010E+01  0.10132478179E+02  0.14371090833E+04  0.14372104127E+04  0.10000000000E+02 0. -1.
</event>
<event>
 5    1  0.1145138E-008  0.3834727E+03  0.7957747E-01  0.3436175E+00
         13   -1    0    0    0    0  0.00000000000E+00  0.00000000000E+00  0.14999999963E+04  0.15000000000E+04  0.10566000000E+00 0.  1.
        994   -1    0    0    0    0 -0.00000000000E+00 -0.00000000000E+00  0.11368683772E-12  0.17120000000E+03  0.17120000000E+03 0.  0.
         13    1    1    2    0    0  0.26144849070E+02  0.44023823902E+01  0.13876082261E+03  0.14127105563E+03  0.10566000000E+00 0.  1.
        994    1    1    2    0    0 -0.23483613139E+02  0.11355000899E+01  0.42193421216E+01  0.17285835905E+03  0.17120000000E+03 0.  0.
        998    1    1    2    0    0 -0.26612359309E+01 -0.55378824801E+01  0.13570198315E+04  0.13570705853E+04  0.10000000000E+02 0.  1.
</event>
<event>
 5    1  0.1145138E-008  0.3854674E+03  0.7957747E-01  0.3427692E+00
         13   -1    0    0    0    0  0.00000000000E+00  0.00000000000E+00  0.14999999963E+04  0.15000000000E+04  0.10566000000E+00 0. -1.
        994   -1    0    0    0    0 -0.00000000000E+00 -0.00000000000E+00  0.11368683772E-12  0.17120000000E+03  0.17120000000E+03 0.  0.
         13    1    1    2    0    0 -0.59725018797E+01  0.11271861709E+02  0.56158165208E+02  0.57588855941E+02  0.10566000000E+00 0. -1.
        994    1    1    2    0    0  0.54991268133E+01 -0.13909586313E+02  0.21332348999E+01  0.17186537661E+03  0.17120000000E+03 0.  0.
        998    1    1    2    0    0  0.47337506636E+00  0.26377246042E+01  0.14417085962E+04  0.14417457674E+04  0.10000000000E+02 0. -1.
</event>
<event>
 5    1  0.1145138E-008  0.3773575E+03  0.7957747E-01  0.3462746E+00
         13   -1    0    0    0    0  0.00000000000E+00  0.00000000000E+00  0.14999999963E+04  0.15000000000E+04  0.10566000000E+00 0. -1.
        994   -1    0    0    0    0 -0.00000000000E+00 -0.00000000000E+00  0.11368683772E-12  0.17120000000E+03  0.17120000000E+03 0.  0.
         13    1    1    2    0    0 -0.66131023913E+01 -0.48304399966E+02  0.18544555615E+03  0.19174752577E+03  0.10566000000E+00 0. -1.
        994    1    1    2    0    0  0.75822825343E+01  0.52016396105E+02  0.14848988238E+02  0.17970289069E+03  0.17120000000E+03 0.  0.
        998    1    1    2    0    0 -0.96918014299E+00 -0.37119961389E+01  0.12997054519E+04  0.12997495835E+04  0.10000000000E+02 0. -1.
</event>
<event>
 5    1  0.1145138E-008  0.3796328E+03  0.7957747E-01  0.3452759E+00
         13   -1    0    0    0    0  0.00000000000E+00  0.00000000000E+00  0.14999999963E+04  0.15000000000E+04  0.10566000000E+00 0. -1.
        994   -1    0    0    0    0 -0.00000000000E+00 -0.00000000000E+00  0.11368683772E-12  0.17120000000E+03  0.17120000000E+03 0.  0.
         13    1    1    2    0    0  0.30550356171E+02  0.20216945230E+02  0.14343486437E+03  0.14803925364E+03  0.10566000000E+00 0. -1.
        994    1    1    2    0    0 -0.30211733646E+02 -0.14744317037E+02  0.81104581372E+01  0.17465784628E+03  0.17120000000E+03 0.  0.
        998    1    1    2    0    0 -0.33862252528E+00 -0.54726281937E+01  0.13484546738E+04  0.13485029001E+04  0.10000000000E+02 0. -1.
</event>
<event>
 5    1  0.1145138E-008  0.3860430E+03  0.7957747E-01  0.3425261E+00
         13   -1    0    0    0    0  0.00000000000E+00  0.00000000000E+00  0.14999999963E+04  0.15000000000E+04  0.10566000000E+00 0. -1.
        994   -1    0    0    0    0 -0.00000000000E+00 -0.00000000000E+00  0.11368683772E-12  0.17120000000E+03  0.17120000000E+03 0.  0.
         13    1    1    2    0    0 -0.11334731250E+02  0.40399255851E+01  0.64414227313E+02  0.65528627145E+02  0.10566000000E+00 0. -1.
        994    1    1    2    0    0  0.11621315487E+02 -0.18545842043E-01  0.15559677554E+01  0.17160103832E+03  0.17120000000E+03 0.  0.
        998    1    1    2    0    0 -0.28658423647E+00 -0.40213797431E+01  0.14340298012E+04  0.14340703345E+04  0.10000000000E+02 0. -1.
</event>
<event>
 5    1  0.1145138E-008  0.3809773E+03  0.7957747E-01  0.3446914E+00
         13   -1    0    0    0    0  0.00000000000E+00  0.00000000000E+00  0.14999999963E+04  0.15000000000E+04  0.10566000000E+00 0.  1.
        994   -1    0    0    0    0 -0.00000000000E+00 -0.00000000000E+00  0.11368683772E-12  0.17120000000E+03  0.17120000000E+03 0.  0.
         13    1    1    2    0    0 -0.10493483499E+02 -0.10212323464E+02  0.27711204605E+02  0.31342092642E+02  0.10566000000E+00 0.  1.
        994    1    1    2    0    0  0.11433428162E+02  0.77842023130E+01  0.42783743620E+01  0.17181112179E+03  0.17120000000E+03 0.  0.
        998    1    1    2    0    0 -0.93994466357E+00  0.24281211506E+01  0.14680104173E+04  0.14680467856E+04  0.10000000000E+02 0.  1.
</event>
<event>
 5    1  0.1145138E-008  0.3757943E+03  0.7957747E-01  0.3469678E+00
         13   -1    0    0    0    0  0.00000000000E+00  0.00000000000E+00  0.14999999963E+04  0.15000000000E+04  0.10566000000E+00 0. -1.
        994   -1    0    0    0    0 -0.00000000000E+00 -0.00000000000E+00  0.11368683772E-12  0.17120000000E+03  0.17120000000E+03 0.  0.
         13    1    1    2    0    0  0.74438518187E+02 -0.11524033310E+03  0.70545123847E+03  0.71866743935E+03  0.10566000000E+00 0. -1.
        994    1    1    2    0    0 -0.75118042920E+02  0.11815707961E+03  0.75924983433E+02  0.23383297232E+03  0.17120000000E+03 0.  0.
        998    1    1    2    0    0  0.67952473268E+00 -0.29167465133E+01  0.71862377438E+03  0.71869958833E+03  0.10000000000E+02 0. -1.
</event>
<event>
 5    1  0.1145138E-008  0.3780048E+03  0.7957747E-01  0.3459892E+00
         13   -1    0    0    0    0  0.00000000000E+00  0.00000000000E+00  0.14999999963E+04  0.15000000000E+04  0.10566000000E+00 0.  1.
        994   -1    0    0    0    0 -0.00000000000E+00 -0.00000000000E+00  0.11368683772E-12  0.17120000000E+03  0.17120000000E+03 0.  0.
         13    1    1    2    0    0  0.36777739747E+02 -0.19392800414E+02  0.21930528926E+03  0.22321179160E+03  0.10566000000E+00 0.  1.
        994    1    1    2    0    0  0.48890626361E+01 -0.18681577698E+02  0.63995637852E+01  0.17240446252E+03  0.17120000000E+03 0.  0.
        998    1    1    2    0    0 -0.41666802383E+02  0.38074378113E+02  0.12742951432E+04  0.12755837459E+04  0.10000000000E+02 0.  1.
</event>
<event>
 5    1  0.1145138E-008  0.3838745E+03  0.7957747E-01  0.3434460E+00
         13   -1    0    0    0    0  0.00000000000E+00  0.00000000000E+00  0.14999999963E+04  0.15000000000E+04  0.10566000000E+00 0.  1.
        994   -1    0    0    0    0 -0.00000000000E+00 -0.00000000000E+00  0.11368683772E-12  0.17120000000E+03  0.17120000000E+03 0.  0.
         13    1    1    2    0    0 -0.52279522079E+01  0.12555693250E+02  0.41288534648E+02  0.43471038344E+02  0.10566000000E+00 0.  1.
        994    1    1    2    0    0  0.71827374705E+01 -0.92000870798E+01  0.26397363154E+01  0.17161771915E+03  0.17120000000E+03 0.  0.
        998    1    1    2    0    0 -0.19547852626E+01 -0.33556061703E+01  0.14560717253E+04  0.14561112425E+04  0.10000000000E+02 0.  1.
</event>
<event>
 5    1  0.1145138E-008  0.3839240E+03  0.7957747E-01  0.3434249E+00
         13   -1    0    0    0    0  0.00000000000E+00  0.00000000000E+00  0.14999999963E+04  0.15000000000E+04  0.10566000000E+00 0.  1.
        994   -1    0    0    0    0 -0.00000000000E+00 -0.00000000000E+00  0.11368683772E-12  0.17120000000E+03  0.17120000000E+03 0.  0.
         13    1    1    2    0    0 -0.89231711698E+01 -0.16063716766E+02  0.84011535332E+02  0.85997762837E+02  0.10566000000E+00 0.  1.
        994    1    1    2    0    0 -0.64626237228E+01  0.27241917154E+01  0.23276470228E+01  0.17135940204E+03  0.17120000000E+03 0.  0.
        998    1    1    2    0    0  0.15385794893E+02  0.13339525051E+02  0.14136608139E+04  0.14138428351E+04  0.10000000000E+02 0.  1.
</event>
<event>
 5    1  0.1145138E-008  0.3805934E+03  0.7957747E-01  0.3448579E+00
         13   -1    0    0    0    0  0.00000000000E+00  0.00000000000E+00  0.14999999963E+04  0.15000000000E+04  0.10566000000E+00 0. -1.
        994   -1    0    0    0    0 -0.00000000000E+00 -0.00000000000E+00  0.11368683772E-12  0.17120000000E+03  0.17120000000E+03 0.  0.
         13    1    1    2    0    0 -0.67894584786E+01  0.20005435667E+02  0.62373514967E+02  0.65854238558E+02  0.10566000000E+00 0. -1.
        994    1    1    2    0    0 -0.63273318825E+01  0.63919280849E+01  0.41038116959E+01  0.17148519803E+03  0.17120000000E+03 0.  0.
        998    1    1    2    0    0  0.13116790361E+02 -0.26397363752E+02  0.14335226696E+04  0.14338605634E+04  0.10000000000E+02 0. -1.
</event>
<event>
 5    1  0.1145138E-008  0.3815103E+03  0.7957747E-01  0.3444609E+00
         13   -1    0    0    0    0  0.00000000000E+00  0.00000000000E+00  0.14999999963E+04  0.15000000000E+04  0.10566000000E+00 0.  1.
        994   -1    0    0    0    0 -0.00000000000E+00 -0.00000000000E+00  0.11368683772E-12  0.17120000000E+03  0.17120000000E+03 0.  0.
         13    1    1    2    0    0 -0.13646465785E+02 -0.20380849125E+01  0.26605047334E+02  0.29970310746E+02  0.10566000000E+00 0.  1.
        994    1    1    2    0    0  0.13220250592E+02  0.12183650499E+01  0.39592190926E+01  0.17175964268E+03  0.17120000000E+03 0.  0.
        998    1    1    2    0    0  0.42621519347E+00  0.81971986261E+00  0.14694357299E+04  0.14694700466E+04  0.10000000000E+02 0.  0.
</event>
<event>
 5    1  0.1145138E-008  0.3725373E+03  0.7957747E-01  0.3484311E+00
         13   -1    0    0    0    0  0.00000000000E+00  0.00000000000E+00  0.14999999963E+04  0.15000000000E+04  0.10566000000E+00 0.  1.
        994   -1    0    0    0    0 -0.00000000000E+00 -0.00000000000E+00  0.11368683772E-12  0.17120000000E+03  0.17120000000E+03 0.  0.
         13    1    1    2    0    0 -0.44663907301E+01 -0.13735043174E+03  0.59377223205E+03  0.60946744332E+03  0.10566000000E+00 0.  1.
        994    1    1    2    0    0  0.14353433186E+02  0.14722728491E+03  0.87126016123E+02  0.24245056641E+03  0.17120000000E+03 0.  0.
        998    1    1    2    0    0 -0.98870424564E+01 -0.98768531673E+01  0.81910174810E+03  0.81928199027E+03  0.10000000000E+02 0. -1.
</event>
<event>
 5    1  0.1145138E-008  0.3808482E+03  0.7957747E-01  0.3447473E+00
         13   -1    0    0    0    0  0.00000000000E+00  0.00000000000E+00  0.14999999963E+04  0.15000000000E+04  0.10566000000E+00 0. -1.
        994   -1    0    0    0    0 -0.00000000000E+00 -0.00000000000E+00  0.11368683772E-12  0.17120000000E+03  0.17120000000E+03 0.  0.
         13    1    1    2    0    0  0.84449203011E+01  0.12256286111E+02  0.27745262462E+02  0.31485615466E+02  0.10566000000E+00 0. -1.
        994    1    1    2    0    0 -0.57316580937E+01 -0.18087990554E+02  0.49066643631E+01  0.17231814374E+03  0.17120000000E+03 0.  0.
        998    1    1    2    0    0 -0.27132622074E+01  0.58317044421E+01  0.14673480695E+04  0.14673962408E+04  0.10000000000E+02 0. -1.
</event>
<event>
 5    1  0.1145138E-008  0.3763729E+03  0.7957747E-01  0.3467105E+00
         13   -1    0    0    0    0  0.00000000000E+00  0.00000000000E+00  0.14999999963E+04  0.15000000000E+04  0.10566000000E+00 0.  1.
        994   -1    0    0    0    0 -0.00000000000E+00 -0.00000000000E+00  0.11368683772E-12  0.17120000000E+03  0.17120000000E+03 0.  0.
         13    1    1    2    0    0 -0.51608106925E+02  0.34982653316E+02  0.30795867025E+03  0.31420651884E+03  0.10566000000E+00 0.  1.
        994    1    1    2    0    0  0.29975510488E+02 -0.30077875522E+02  0.12101081957E+02  0.17680239254E+03  0.17120000000E+03 0.  0.
        998    1    1    2    0    0  0.21632596437E+02 -0.49047777940E+01  0.11799402441E+04  0.11801910886E+04  0.10000000000E+02 0.  1.
</event>
<event>
 5    1  0.1145138E-008  0.3792784E+03  0.7957747E-01  0.3454307E+00
         13   -1    0    0    0    0  0.00000000000E+00  0.00000000000E+00  0.14999999963E+04  0.15000000000E+04  0.10566000000E+00 0.  1.
        994   -1    0    0    0    0 -0.00000000000E+00 -0.00000000000E+00  0.11368683772E-12  0.17120000000E+03  0.17120000000E+03 0.  0.
         13    1    1    2    0    0 -0.14827718246E+02 -0.14681681836E+02  0.44694087597E+02  0.49325304257E+02  0.10566000000E+00 0.  1.
        994    1    1    2    0    0  0.31827490236E+02  0.52032324423E+01  0.79908819478E+01  0.17439425724E+03  0.17120000000E+03 0.  0.
        998    1    1    2    0    0 -0.16999771990E+02  0.94784493934E+01  0.14473150267E+04  0.14474804385E+04  0.10000000000E+02 0.  1.
</event>
<event>
 5    1  0.1145138E-008  0.3754492E+03  0.7957747E-01  0.3471216E+00
         13   -1    0    0    0    0  0.00000000000E+00  0.00000000000E+00  0.14999999963E+04  0.15000000000E+04  0.10566000000E+00 0. -1.
        994   -1    0    0    0    0 -0.00000000000E+00 -0.00000000000E+00  0.11368683772E-12  0.17120000000E+03  0.17120000000E+03 0.  0.
         13    1    1    2    0    0  0.29932648640E+02  0.45483087605E+00  0.63017349072E+02  0.69766523303E+02  0.10566000000E+00 0. -1.
        994    1    1    2    0    0 -0.36809034319E+02 -0.48238615223E+01  0.11140181508E+02  0.17553267015E+03  0.17120000000E+03 0.  0.
        998    1    1    2    0    0  0.68763856790E+01  0.43690306463E+01  0.14258424657E+04  0.14259008065E+04  0.10000000000E+02 0. -1.
</event>
<event>
 5    1  0.1145138E-008  0.3837291E+03  0.7957747E-01  0.3435080E+00
         13   -1    0    0    0    0  0.00000000000E+00  0.00000000000E+00  0.14999999963E+04  0.15000000000E+04  0.10566000000E+00 0. -1.
        994   -1    0    0    0    0 -0.00000000000E+00 -0.00000000000E+00  0.11368683772E-12  0.17120000000E+03  0.17120000000E+03 0.  0.
         13    1    1    2    0    0 -0.24687873628E+02 -0.94786082706E+01  0.10940479528E+03  0.11255556633E+03  0.10566000000E+00 0. -1.
        994    1    1    2    0    0  0.56346250058E+02  0.42315503467E+02  0.18835991766E+02  0.18609066692E+03  0.17120000000E+03 0.  0.
        998    1    1    2    0    0 -0.31658376430E+02 -0.32836895197E+02  0.13717592092E+04  0.13725537667E+04  0.10000000000E+02 0. -1.
</event>
<event>
 5    1  0.1145138E-008  0.3844223E+03  0.7957747E-01  0.3432126E+00
         13   -1    0    0    0    0  0.00000000000E+00  0.00000000000E+00  0.14999999963E+04  0.15000000000E+04  0.10566000000E+00 0.  1.
        994   -1    0    0    0    0 -0.00000000000E+00 -0.00000000000E+00  0.11368683772E-12  0.17120000000E+03  0.17120000000E+03 0.  0.
         13    1    1    2    0    0  0.90541039380E+01 -0.16055736765E+02  0.91014831218E+02  0.92862662824E+02  0.10566000000E+00 0.  1.
        994    1    1    2    0    0  0.39517476654E+01  0.10998337873E+02  0.23673440737E+01  0.17161475480E+03  0.17120000000E+03 0.  0.
        998    1    1    2    0    0 -0.13005851603E+02  0.50573988915E+01  0.14066178210E+04  0.14067225824E+04  0.10000000000E+02 0.  1.
</event>
<event>
 5    1  0.1145138E-008  0.3823888E+03  0.7957747E-01  0.3440823E+00
         13   -1    0    0    0    0  0.00000000000E+00  0.00000000000E+00  0.14999999963E+04  0.15000000000E+04  0.10566000000E+00 0. -1.
        994   -1    0    0    0    0 -0.00000000000E+00 -0.00000000000E+00  0.11368683772E-12  0.17120000000E+03  0.17120000000E+03 0.  0.
         13    1    1    2    0    0 -0.38759169659E+02 -0.56100866074E+01  0.23489901280E+03  0.23814135231E+03  0.10566000000E+00 0. -1.
        994    1    1    2    0    0  0.35147717219E+02 -0.58691538566E+01  0.71551986108E+01  0.17501555891E+03  0.17120000000E+03 0.  0.
        998    1    1    2    0    0  0.36114524395E+01  0.11479240464E+02  0.12579457849E+04  0.12580430888E+04  0.10000000000E+02 0. -1.
</event>
<event>
 5    1  0.1145138E-008  0.3698626E+03  0.7957747E-01  0.3496523E+00
         13   -1    0    0    0    0  0.00000000000E+00  0.00000000000E+00  0.14999999963E+04  0.15000000000E+04  0.10566000000E+00 0. -1.
        994   -1    0    0    0    0 -0.00000000000E+00 -0.00000000000E+00  0.11368683772E-12  0.17120000000E+03  0.17120000000E+03 0.  0.
         13    1    1    2    0    0 -0.25143936434E+02 -0.62685233829E+01  0.25949733882E+02  0.36673038835E+02  0.10566000000E+00 0. -1.
        994    1    1    2    0    0  0.26352865159E+02  0.18716052946E+00  0.13296773835E+02  0.17372608533E+03  0.17120000000E+03 0.  0.
        998    1    1    2    0    0 -0.12089287256E+01  0.60813628534E+01  0.14607534886E+04  0.14608008758E+04  0.10000000000E+02 0. -1.
</event>
<event>
 5    1  0.1145138E-008  0.3798847E+03  0.7957747E-01  0.3451661E+00
         13   -1    0    0    0    0  0.00000000000E+00  0.00000000000E+00  0.14999999963E+04  0.15000000000E+04  0.10566000000E+00 0.  1.
        994   -1    0    0    0    0 -0.00000000000E+00 -0.00000000000E+00  0.11368683772E-12  0.17120000000E+03  0.17120000000E+03 0.  0.
         13    1    1    2    0    0  0.53308102877E+02  0.41784815376E+01  0.29226527871E+03  0.29711650550E+03  0.10566000000E+00 0.  1.
        994    1    1    2    0    0 -0.49061482848E+02  0.13639007469E+02  0.12912256289E+02  0.17907880384E+03  0.17120000000E+03 0.  0.
        998    1    1    2    0    0 -0.42466200294E+01 -0.17817489007E+02  0.11948224613E+04  0.11950046907E+04  0.10000000000E+02 0.  1.
</event>
<event>
 5    1  0.1145138E-008  0.3739278E+03  0.7957747E-01  0.3478032E+00
         13   -1    0    0    0    0  0.00000000000E+00  0.00000000000E+00  0.14999999963E+04  0.15000000000E+04  0.10566000000E+00 0. -1.
        994   -1    0    0    0    0 -0.00000000000E+00 -0.00000000000E+00  0.11368683772E-12  0.17120000000E+03  0.17120000000E+03 0.  0.
         13    1    1    2    0    0 -0.47782219815E+02 -0.64427843822E+02  0.39663282079E+03  0.40466244362E+03  0.10566000000E+00 0. -1.
        994    1    1    2    0    0  0.29141622448E+02  0.51537112523E+02  0.19284626404E+02  0.18217202019E+03  0.17120000000E+03 0.  0.
        998    1    1    2    0    0  0.18640597367E+02  0.12890731298E+02  0.10840825491E+04  0.10843655362E+04  0.10000000000E+02 0. -1.
</event>
<event>
 5    1  0.1145138E-008  0.3848235E+03  0.7957747E-01  0.3430421E+00
         13   -1    0    0    0    0  0.00000000000E+00  0.00000000000E+00  0.14999999963E+04  0.15000000000E+04  0.10566000000E+00 0. -1.
        994   -1    0    0    0    0 -0.00000000000E+00 -0.00000000000E+00  0.11368683772E-12  0.17120000000E+03  0.17120000000E+03 0.  0.
         13    1    1    2    0    0 -0.73780796246E+01 -0.10936289734E+02  0.49316596993E+02  0.51050723747E+02  0.10566000000E+00 0. -1.
        994    1    1    2    0    0  0.85882539773E+01  0.10228177282E+02  0.23049523810E+01  0.17173562974E+03  0.17120000000E+03 0.  0.
        998    1    1    2    0    0 -0.12101743526E+01  0.70811245269E+00  0.14483784469E+04  0.14484136465E+04  0.10000000000E+02 0. -1.
</event>
<event>
 5    1  0.1145138E-008  0.3836014E+03  0.7957747E-01  0.3435625E+00
         13   -1    0    0    0    0  0.00000000000E+00  0.00000000000E+00  0.14999999963E+04  0.15000000000E+04  0.10566000000E+00 0. -1.
        994   -1    0    0    0    0 -0.00000000000E+00 -0.00000000000E+00  0.11368683772E-12  0.17120000000E+03  0.17120000000E+03 0.  0.
         13    1    1    2    0    0  0.49343196332E+01  0.21136476260E+02  0.94255376282E+02  0.96722206659E+02  0.10566000000E+00 0. -1.
        994    1    1    2    0    0 -0.59321549255E+01 -0.23184397270E+02  0.42203976750E+01  0.17291604464E+03  0.17120000000E+03 0.  0.
        998    1    1    2    0    0  0.99783529235E+00  0.20479210102E+01  0.14015242223E+04  0.14015617487E+04  0.10000000000E+02 0. -1.
</event>
<event>
 5    1  0.1145138E-008  0.3856054E+03  0.7957747E-01  0.3427109E+00
         13   -1    0    0    0    0  0.00000000000E+00  0.00000000000E+00  0.14999999963E+04  0.15000000000E+04  0.10566000000E+00 0.  1.
        994   -1    0    0    0    0 -0.00000000000E+00 -0.00000000000E+00  0.11368683772E-12  0.17120000000E+03  0.17120000000E+03 0.  0.
         13    1    1    2    0    0 -0.30396760004E+01  0.13716533052E+02  0.72008655946E+02  0.73366481477E+02  0.10566000000E+00 0.  1.
        994    1    1    2    0    0  0.78705917601E+01 -0.12875319669E+02  0.20776593737E+01  0.17187634142E+03  0.17120000000E+03 0.  0.
        998    1    1    2    0    0 -0.48309157597E+01 -0.84121338241E+00  0.14259136810E+04  0.14259571771E+04  0.10000000000E+02 0.  1.
</event>
<event>
 5    1  0.1145138E-008  0.3693978E+03  0.7957747E-01  0.3498663E+00
         13   -1    0    0    0    0  0.00000000000E+00  0.00000000000E+00  0.14999999963E+04  0.15000000000E+04  0.10566000000E+00 0. -1.
        994   -1    0    0    0    0 -0.00000000000E+00 -0.00000000000E+00  0.11368683772E-12  0.17120000000E+03  0.17120000000E+03 0.  0.
         13    1    1    2    0    0 -0.17776102518E+02  0.18470112133E+02  0.30418405793E+02  0.39779711386E+02  0.10566000000E+00 0. -1.
        994    1    1    2    0    0  0.11813818593E+02 -0.12404003061E+02  0.10601504949E+02  0.17238114024E+03  0.17120000000E+03 0.  0.
        998    1    1    2    0    0  0.59622839246E+01 -0.60661090720E+01  0.14589800855E+04  0.14590391484E+04  0.10000000000E+02 0. -1.
</event>
<event>
 5    1  0.1145138E-008  0.3811622E+03  0.7957747E-01  0.3446114E+00
         13   -1    0    0    0    0  0.00000000000E+00  0.00000000000E+00  0.14999999963E+04  0.15000000000E+04  0.10566000000E+00 0. -1.
        994   -1    0    0    0    0 -0.00000000000E+00 -0.00000000000E+00  0.11368683772E-12  0.17120000000E+03  0.17120000000E+03 0.  0.
         13    1    1    2    0    0 -0.82266690419E+01 -0.13070712306E+02  0.31491252874E+02  0.35074660017E+02  0.10566000000E+00 0. -1.
        994    1    1    2    0    0  0.98808173344E+01  0.14859050611E+02  0.46087322268E+01  0.17218914701E+03  0.17120000000E+03 0.  0.
        998    1    1    2    0    0 -0.16541482925E+01 -0.17883383044E+01  0.14639000112E+04  0.14639361930E+04  0.10000000000E+02 0. -1.
</event>
<event>
 5    1  0.1145138E-008  0.3814470E+03  0.7957747E-01  0.3444882E+00
         13   -1    0    0    0    0  0.00000000000E+00  0.00000000000E+00  0.14999999963E+04  0.15000000000E+04  0.10566000000E+00 0. -1.
        994   -1    0    0    0    0 -0.00000000000E+00 -0.00000000000E+00  0.11368683772E-12  0.17120000000E+03  0.17120000000E+03 0.  0.
         13    1    1    2    0    0  0.26873857958E+02  0.19690640303E+02  0.14734890045E+03  0.15106831297E+03  0.10566000000E+00 0. -1.
        994    1    1    2    0    0 -0.29795715546E+02 -0.16246083550E+02  0.72457521662E+01  0.17468159840E+03  0.17120000000E+03 0.  0.
        998    1    1    2    0    0  0.29218575875E+01 -0.34445567526E+01  0.13454053437E+04  0.13454500886E+04  0.10000000000E+02 0. -1.
</event>
<event>
 5    1  0.1145138E-008  0.3860267E+03  0.7957747E-01  0.3425329E+00
         13   -1    0    0    0    0  0.00000000000E+00  0.00000000000E+00  0.14999999963E+04  0.15000000000E+04  0.10566000000E+00 0.  1.
        994   -1    0    0    0    0 -0.00000000000E+00 -0.00000000000E+00  0.11368683772E-12  0.17120000000E+03  0.17120000000E+03 0.  0.
         13    1    1    2    0    0 -0.86993584916E+01  0.73147293651E+01  0.54412494647E+02  0.55587002452E+02  0.10566000000E+00 0.  1.
        994    1    1    2    0    0  0.15819371299E+02 -0.87549179847E+01  0.21934838133E+01  0.17216606073E+03  0.17120000000E+03 0.  0.
        998    1    1    2    0    0 -0.71200128076E+01  0.14401886196E+01  0.14433940178E+04  0.14434469368E+04  0.10000000000E+02 0.  1.
</event>
<event>
 5    1  0.2387051E-008  0.3862675E+03  0.7957747E-01  0.3424314E+00
         13   -1    0    0    0    0  0.00000000000E+00  0.00000000000E+00  0.14999999963E+04  0.15000000000E+04  0.10566000000E+00 0. -1.
        994   -1    0    0    0    0 -0.00000000000E+00 -0.00000000000E+00  0.11368683772E-12  0.17120000000E+03  0.17120000000E+03 0.  0.
         13    1    1    2    0    0 -0.68476700816E+01 -0.75848671681E+01  0.52014820770E+02  0.53009183537E+02  0.10566000000E+00 0. -1.
        994    1    1    2    0    0  0.88830123527E+01  0.47281628458E+01  0.13338515788E+01  0.17150067811E+03  0.17120000000E+03 0.  0.
        998    1    1    2    0    0 -0.20353422710E+01  0.28567043223E+01  0.14466513239E+04  0.14466901384E+04  0.10000000000E+02 0. -1.
</event>
<event>
 5    1  0.1145138E-008  0.3821875E+03  0.7957747E-01  0.3441689E+00
         13   -1    0    0    0    0  0.00000000000E+00  0.00000000000E+00  0.14999999963E+04  0.15000000000E+04  0.10566000000E+00 0. -1.
        994   -1    0    0    0    0 -0.00000000000E+00 -0.00000000000E+00  0.11368683772E-12  0.17120000000E+03  0.17120000000E+03 0.  0.
         13    1    1    2    0    0 -0.59580159113E+01  0.21106365741E+02  0.77278214311E+02  0.80330008089E+02  0.10566000000E+00 0. -1.
        994    1    1    2    0    0 -0.51264285003E+01 -0.18586434407E+02  0.42676919286E+01  0.17233510672E+03  0.17120000000E+03 0.  0.
        998    1    1    2    0    0  0.11084444412E+02 -0.25199313345E+01  0.14184540900E+04  0.14185348852E+04  0.10000000000E+02 0. -1.
</event>
<event>
 5    1  0.1145138E-008  0.3953341E+03  0.7957747E-01  0.3386992E+00
         13   -1    0    0    0    0  0.00000000000E+00  0.00000000000E+00  0.14999999963E+04  0.15000000000E+04  0.10566000000E+00 0. -1.
        994   -1    0    0    0    0 -0.00000000000E+00 -0.00000000000E+00  0.11368683772E-12  0.17120000000E+03  0.17120000000E+03 0.  0.
         13    1    1    2    0    0  0.35058390018E+02 -0.44186325065E+02  0.53359423712E+02  0.77645098340E+02  0.10566000000E+00 0. -1.
        994    1    1    2    0    0 -0.30331212994E+02  0.43852861100E+02  0.36022880646E+02  0.18289380481E+03  0.17120000000E+03 0.  0.
        998    1    1    2    0    0 -0.47271770235E+01  0.33346396503E+00  0.14106176919E+04  0.14106610968E+04  0.10000000000E+02 0. -1.
</event>
<event>
 5    1  0.1145138E-008  0.3714630E+03  0.7957747E-01  0.3489194E+00
         13   -1    0    0    0    0  0.00000000000E+00  0.00000000000E+00  0.14999999963E+04  0.15000000000E+04  0.10566000000E+00 0. -1.
        994   -1    0    0    0    0 -0.00000000000E+00 -0.00000000000E+00  0.11368683772E-12  0.17120000000E+03  0.17120000000E+03 0.  0.
         13    1    1    2    0    0 -0.53846355874E+02  0.33604380989E+02  0.15408081628E+03  0.16664211224E+03  0.10566000000E+00 0. -1.
        994    1    1    2    0    0  0.51509121984E+02 -0.30076331092E+02  0.24323499165E+02  0.18291759880E+03  0.17120000000E+03 0.  0.
        998    1    1    2    0    0  0.23372338903E+01 -0.35280498968E+01  0.13215956808E+04  0.13216402890E+04  0.10000000000E+02 0. -1.
</event>
<event>
 5    1  0.1145138E-008  0.3775705E+03  0.7957747E-01  0.3461806E+00
         13   -1    0    0    0    0  0.00000000000E+00  0.00000000000E+00  0.14999999963E+04  0.15000000000E+04  0.10566000000E+00 0. -1.
        994   -1    0    0    0    0 -0.00000000000E+00 -0.00000000000E+00  0.11368683772E-12  0.17120000000E+03  0.17120000000E+03 0.  0.
         13    1    1    2    0    0  0.12335990060E+02 -0.42519301936E+02  0.16405084411E+03  0.16991985848E+03  0.10566000000E+00 0. -1.
        994    1    1    2    0    0 -0.13538690352E+02  0.40371632445E+02  0.11499438748E+02  0.17679038982E+03  0.17120000000E+03 0.  0.
        998    1    1    2    0    0  0.12027002914E+01  0.21476694910E+01  0.13244497134E+04  0.13244897517E+04  0.10000000000E+02 0. -1.
</event>
<event>
 5    1  0.1145138E-008  0.3890621E+03  0.7957747E-01  0.3412625E+00
         13   -1    0    0    0    0  0.00000000000E+00  0.00000000000E+00  0.14999999963E+04  0.15000000000E+04  0.10566000000E+00 0.  1.
        994   -1    0    0    0    0 -0.00000000000E+00 -0.00000000000E+00  0.11368683772E-12  0.17120000000E+03  0.17120000000E+03 0.  0.
         13    1    1    2    0    0  0.22143738639E+02  0.44949375389E+02  0.50668710906E+02  0.71260935566E+02  0.10566000000E+00 0.  1.
        994    1    1    2    0    0 -0.53967759108E+02 -0.15655506301E+02  0.33331027713E+02  0.18324303891E+03  0.17120000000E+03 0.  0.
        998    1    1    2    0    0  0.31824020468E+02 -0.29293869088E+02  0.14160002577E+04  0.14166960255E+04  0.10000000000E+02 0.  1.
</event>
<event>
 5    1  0.1145138E-008  0.3754720E+03  0.7957747E-01  0.3471114E+00
         13   -1    0    0    0    0  0.00000000000E+00  0.00000000000E+00  0.14999999963E+04  0.15000000000E+04  0.10566000000E+00 0.  1.
        994   -1    0    0    0    0 -0.00000000000E+00 -0.00000000000E+00  0.11368683772E-12  0.17120000000E+03  0.17120000000E+03 0.  0.
         13    1    1    2    0    0  0.59045148448E+02 -0.33626809581E+02  0.25792127689E+03  0.26672174286E+03  0.10566000000E+00 0.  1.
        994    1    1    2    0    0 -0.74498542689E+02  0.44942625307E+02  0.32576811187E+02  0.19478336957E+03  0.17120000000E+03 0.  0.
        998    1    1    2    0    0  0.15453394241E+02 -0.11315815726E+02  0.12095019082E+04  0.12096948876E+04  0.10000000000E+02 0.  1.
</event>
<event>
 5    1  0.1145138E-008  0.3791000E+03  0.7957747E-01  0.3455087E+00
         13   -1    0    0    0    0  0.00000000000E+00  0.00000000000E+00  0.14999999963E+04  0.15000000000E+04  0.10566000000E+00 0.  1.
        994   -1    0    0    0    0 -0.00000000000E+00 -0.00000000000E+00  0.11368683772E-12  0.17120000000E+03  0.17120000000E+03 0.  0.
         13    1    1    2    0    0 -0.68856980750E+01 -0.11692275273E+02  0.18461953808E+02  0.22912377474E+02  0.10566000000E+00 0.  1.
        994    1    1    2    0    0  0.67391682975E+01 -0.14837844802E+01  0.47478447030E+01  0.17140478417E+03  0.17120000000E+03 0.  0.
        998    1    1    2    0    0  0.14652977741E+00  0.13176059753E+02  0.14767901978E+04  0.14768828384E+04  0.10000000000E+02 0.  1.
</event>
<event>
 5    1  0.1145138E-008  0.3823670E+03  0.7957747E-01  0.3440916E+00
         13   -1    0    0    0    0  0.00000000000E+00  0.00000000000E+00  0.14999999963E+04  0.15000000000E+04  0.10566000000E+00 0.  1.
        994   -1    0    0    0    0 -0.00000000000E+00 -0.00000000000E+00  0.11368683772E-12  0.17120000000E+03  0.17120000000E+03 0.  0.
         13    1    1    2    0    0  0.12826115011E+02 -0.21046632255E+01  0.27147256162E+02  0.30098563333E+02  0.10566000000E+00 0.  1.
        994    1    1    2    0    0 -0.14363215326E+02 -0.15723468285E+00  0.36277090605E+01  0.17183982935E+03  0.17120000000E+03 0.  0.
        998    1    1    2    0    0  0.15371003150E+01  0.22618979084E+01  0.14692250311E+04  0.14692616073E+04  0.10000000000E+02 0.  1.
</event>
<event>
 5    1  0.1145138E-008  0.3777557E+03  0.7957747E-01  0.3460989E+00
         13   -1    0    0    0    0  0.00000000000E+00  0.00000000000E+00  0.14999999963E+04  0.15000000000E+04  0.10566000000E+00 0. -1.
        994   -1    0    0    0    0 -0.00000000000E+00 -0.00000000000E+00  0.11368683772E-12  0.17120000000E+03  0.17120000000E+03 0.  0.
         13    1    1    2    0    0 -0.14541628405E+02  0.91317012618E+01  0.24896710848E+02  0.30244078754E+02  0.10566000000E+00 0. -1.
        994    1    1    2    0    0  0.16345170131E+02 -0.20467321657E+02  0.75844470495E+01  0.17335812551E+03  0.17120000000E+03 0.  0.
        998    1    1    2    0    0 -0.18035417257E+01  0.11335620395E+02  0.14675188384E+04  0.14675977957E+04  0.10000000000E+02 0. -1.
</event>
<event>
 5    1  0.1145138E-008  0.3827327E+03  0.7957747E-01  0.3439345E+00
         13   -1    0    0    0    0  0.00000000000E+00  0.00000000000E+00  0.14999999963E+04  0.15000000000E+04  0.10566000000E+00 0.  1.
        994   -1    0    0    0    0 -0.00000000000E+00 -0.00000000000E+00  0.11368683772E-12  0.17120000000E+03  0.17120000000E+03 0.  0.
         13    1    1    2    0    0  0.16388839982E+02 -0.28039757593E+02  0.18728120423E+03  0.19007651803E+03  0.10566000000E+00 0.  1.
        994    1    1    2    0    0  0.19284356478E+02  0.38170900656E+02  0.88429267324E+01  0.17668203478E+03  0.17120000000E+03 0.  0.
        998    1    1    2    0    0 -0.35673196460E+02 -0.10131143063E+02  0.13038758653E+04  0.13044414472E+04  0.10000000000E+02 0.  1.
</event>
<event>
 5    1  0.1145138E-008  0.3835576E+03  0.7957747E-01  0.3435813E+00
         13   -1    0    0    0    0  0.00000000000E+00  0.00000000000E+00  0.14999999963E+04  0.15000000000E+04  0.10566000000E+00 0.  1.
        994   -1    0    0    0    0 -0.00000000000E+00 -0.00000000000E+00  0.11368683772E-12  0.17120000000E+03  0.17120000000E+03 0.  0.
         13    1    1    2    0    0 -0.21525394957E+02 -0.12776427766E+02  0.13660825392E+03  0.13888270568E+03  0.10566000000E+00 0.  1.
        994    1    1    2    0    0  0.11738674974E+02  0.29950295256E+01  0.28330390881E+01  0.17165148646E+03  0.17120000000E+03 0.  0.
        998    1    1    2    0    0  0.97867199830E+01  0.97813982402E+01  0.13605587033E+04  0.13606658079E+04  0.10000000000E+02 0.  1.
</event>
<event>
 5    1  0.1145138E-008  0.3807024E+03  0.7957747E-01  0.3448106E+00
         13   -1    0    0    0    0  0.00000000000E+00  0.00000000000E+00  0.14999999963E+04  0.15000000000E+04  0.10566000000E+00 0. -1.
        994   -1    0    0    0    0 -0.00000000000E+00 -0.00000000000E+00  0.11368683772E-12  0.17120000000E+03  0.17120000000E+03 0.  0.
         13    1    1    2    0    0 -0.10148836538E+02  0.28651950617E+01  0.12967236876E+02  0.16714323858E+02  0.10566000000E+00 0. -1.
        994    1    1    2    0    0  0.10817876340E+02 -0.33029135777E+01  0.42057957314E+01  0.17162477794E+03  0.17120000000E+03 0.  0.
        998    1    1    2    0    0 -0.66903980182E+00  0.43771851597E+00  0.14828269637E+04  0.14828608982E+04  0.10000000000E+02 0. -1.
</event>
<event>
 5    1  0.1145138E-008  0.3760364E+03  0.7957747E-01  0.3468601E+00
         13   -1    0    0    0    0  0.00000000000E+00  0.00000000000E+00  0.14999999963E+04  0.15000000000E+04  0.10566000000E+00 0. -1.
        994   -1    0    0    0    0 -0.00000000000E+00 -0.00000000000E+00  0.11368683772E-12  0.17120000000E+03  0.17120000000E+03 0.  0.
         13    1    1    2    0    0  0.50671450867E+02  0.57584899124E+02  0.45078852896E+03  0.45726789254E+03  0.10566000000E+00 0. -1.
        994    1    1    2    0    0 -0.76652776146E+02 -0.67625887690E+01  0.26476627473E+02  0.18955693736E+03  0.17120000000E+03 0.  0.
        998    1    1    2    0    0  0.25981325280E+02 -0.50822310355E+02  0.10227348398E+04  0.10243751701E+04  0.10000000000E+02 0. -1.
</event>
<event>
 5    1  0.1145138E-008  0.3691139E+03  0.7957747E-01  0.3499973E+00
         13   -1    0    0    0    0  0.00000000000E+00  0.00000000000E+00  0.14999999963E+04  0.15000000000E+04  0.10566000000E+00 0. -1.
        994   -1    0    0    0    0 -0.00000000000E+00 -0.00000000000E+00  0.11368683772E-12  0.17120000000E+03  0.17120000000E+03 0.  0.
         13    1    1    2    0    0  0.29840698854E+02  0.43381918412E+02  0.26077649988E+03  0.26603919299E+03  0.10566000000E+00 0. -1.
        994    1    1    2    0    0  0.10926145485E+03  0.86146145132E+01  0.53591634248E+02  0.21022316799E+03  0.17120000000E+03 0.  0.
        998    1    1    2    0    0 -0.13910215370E+03 -0.51996532925E+02  0.11856318621E+04  0.11949376390E+04  0.10000000000E+02 0. -1.
</event>
<event>
 5    1  0.1145138E-008  0.3842021E+03  0.7957747E-01  0.3433063E+00
         13   -1    0    0    0    0  0.00000000000E+00  0.00000000000E+00  0.14999999963E+04  0.15000000000E+04  0.10566000000E+00 0.  1.
        994   -1    0    0    0    0 -0.00000000000E+00 -0.00000000000E+00  0.11368683772E-12  0.17120000000E+03  0.17120000000E+03 0.  0.
         13    1    1    2    0    0  0.15589832558E+02  0.55566131995E+01  0.62092414539E+02  0.64260391663E+02  0.10566000000E+00 0.  1.
        994    1    1    2    0    0 -0.23745426998E+02 -0.82601839071E+01  0.41136487291E+01  0.17308506015E+03  0.17120000000E+03 0.  0.
        998    1    1    2    0    0  0.81555944399E+01  0.27035707076E+01  0.14337939330E+04  0.14338545482E+04  0.10000000000E+02 0.  1.
</event>
<event>
 5    1  0.1145138E-008  0.3862853E+03  0.7957747E-01  0.3424239E+00
         13   -1    0    0    0    0  0.00000000000E+00  0.00000000000E+00  0.14999999963E+04  0.15000000000E+04  0.10566000000E+00 0.  1.
        994   -1    0    0    0    0 -0.00000000000E+00 -0.00000000000E+00  0.11368683772E-12  0.17120000000E+03  0.17120000000E+03 0.  0.
         13    1    1    2    0    0  0.96987424961E+02 -0.39069239824E+02  0.52838892762E+03  0.53863516048E+03  0.10566000000E+00 0.  1.
        994    1    1    2    0    0  0.28449384008E+02  0.92780547838E+01  0.23151750907E+02  0.17533081110E+03  0.17120000000E+03 0.  0.
        998    1    1    2    0    0 -0.12543680897E+03  0.29791185040E+02  0.94845931775E+03  0.95723402842E+03  0.10000000000E+02 0.  1.
</event>
<event>
 5    1  0.1145138E-008  0.3782401E+03  0.7957747E-01  0.3458858E+00
         13   -1    0    0    0    0  0.00000000000E+00  0.00000000000E+00  0.14999999963E+04  0.15000000000E+04  0.10566000000E+00 0.  1.
        994   -1    0    0    0    0 -0.00000000000E+00 -0.00000000000E+00  0.11368683772E-12  0.17120000000E+03  0.17120000000E+03 0.  0.
         13    1    1    2    0    0  0.15646026884E+02 -0.64571462318E+02  0.33482123784E+03  0.34134959261E+03  0.10566000000E+00 0.  1.
        994    1    1    2    0    0 -0.15185830543E+02  0.66586176231E+02  0.20871597921E+02  0.18549768709E+03  0.17120000000E+03 0.  0.
        998    1    1    2    0    0 -0.46019634160E+00 -0.20147139122E+01  0.11443071605E+04  0.11443527203E+04  0.10000000000E+02 0.  1.
</event>
<event>
 5    1  0.1145138E-008  0.3741969E+03  0.7957747E-01  0.3476822E+00
         13   -1    0    0    0    0  0.00000000000E+00  0.00000000000E+00  0.14999999963E+04  0.15000000000E+04  0.10566000000E+00 0. -1.
        994   -1    0    0    0    0 -0.00000000000E+00 -0.00000000000E+00  0.11368683772E-12  0.17120000000E+03  0.17120000000E+03 0.  0.
         13    1    1    2    0    0  0.32136333665E+02 -0.13616113185E+03  0.58042598084E+03  0.59704851408E+03  0.10566000000E+00 0. -1.
        994    1    1    2    0    0  0.10703204176E+02  0.17747665626E+03  0.12387079205E+03  0.27616287806E+03  0.17120000000E+03 0.  0.
        998    1    1    2    0    0 -0.42839537841E+02 -0.41315524412E+02  0.79570322338E+03  0.79798860785E+03  0.10000000000E+02 0. -1.
</event>
<event>
 5    1  0.1145138E-008  0.3706406E+03  0.7957747E-01  0.3492952E+00
         13   -1    0    0    0    0  0.00000000000E+00  0.00000000000E+00  0.14999999963E+04  0.15000000000E+04  0.10566000000E+00 0. -1.
        994   -1    0    0    0    0 -0.00000000000E+00 -0.00000000000E+00  0.11368683772E-12  0.17120000000E+03  0.17120000000E+03 0.  0.
         13    1    1    2    0    0  0.42800067613E+02  0.10280418082E+02  0.10245758606E+03  0.11151278352E+03  0.10566000000E+00 0. -1.
        994    1    1    2    0    0 -0.35318261198E+02 -0.80032001729E+00  0.13252547677E+02  0.17530855685E+03  0.17120000000E+03 0.  0.
        998    1    1    2    0    0 -0.74818064152E+01 -0.94800980648E+01  0.13842898625E+04  0.13843786596E+04  0.10000000000E+02 0. -1.
</event>
<event>
 5    1  0.1145138E-008  0.3922661E+03  0.7957747E-01  0.3399428E+00
         13   -1    0    0    0    0  0.00000000000E+00  0.00000000000E+00  0.14999999963E+04  0.15000000000E+04  0.10566000000E+00 0. -1.
        994   -1    0    0    0    0 -0.00000000000E+00 -0.00000000000E+00  0.11368683772E-12  0.17120000000E+03  0.17120000000E+03 0.  0.
         13    1    1    2    0    0  0.39242533362E+02  0.34363966887E+02  0.50958853070E+02  0.72922386927E+02  0.10566000000E+00 0. -1.
        994    1    1    2    0    0 -0.32884773747E+02 -0.13772549356E+02  0.28074214732E+02  0.17711209161E+03  0.17120000000E+03 0.  0.
        998    1    1    2    0    0 -0.63577596153E+01 -0.20591417531E+02  0.14209669285E+04  0.14211655215E+04  0.10000000000E+02 0. -1.
</event>
<event>
 5    1  0.1145138E-008  0.3699521E+03  0.7957747E-01  0.3496111E+00
         13   -1    0    0    0    0  0.00000000000E+00  0.00000000000E+00  0.14999999963E+04  0.15000000000E+04  0.10566000000E+00 0.  1.
        994   -1    0    0    0    0 -0.00000000000E+00 -0.00000000000E+00  0.11368683772E-12  0.17120000000E+03  0.17120000000E+03 0.  0.
         13    1    1    2    0    0  0.98017970187E+02  0.53586586178E+02  0.48959784832E+03  0.50218035499E+03  0.10566000000E+00 0.  1.
        994    1    1    2    0    0 -0.84528456221E+02 -0.54886398667E+02  0.45289488124E+02  0.20376004124E+03  0.17120000000E+03 0.  0.
        998    1    1    2    0    0 -0.13489513966E+02  0.12998124889E+01  0.96511265984E+03  0.96525960377E+03  0.10000000000E+02 0.  1.
</event>
<event>
 5    1  0.1145138E-008  0.3820591E+03  0.7957747E-01  0.3442241E+00
         13   -1    0    0    0    0  0.00000000000E+00  0.00000000000E+00  0.14999999963E+04  0.15000000000E+04  0.10566000000E+00 0. -1.
        994   -1    0    0    0    0 -0.00000000000E+00 -0.00000000000E+00  0.11368683772E-12  0.17120000000E+03  0.17120000000E+03 0.  0.
         13    1    1    2    0    0  0.22680199554E+03  0.51920009508E+02  0.11074430217E+04  0.11316204709E+04  0.10566000000E+00 0. -1.
        994    1    1    2    0    0 -0.22709033225E+03 -0.53316935447E+02  0.21190289036E+03  0.35864326224E+03  0.17120000000E+03 0.  0.
        998    1    1    2    0    0  0.28833670566E+00  0.13969259387E+01  0.18065408420E+03  0.18093626690E+03  0.10000000000E+02 0.  0.
</event>
<event>
 5    1  0.1145138E-008  0.3871088E+03  0.7957747E-01  0.3420778E+00
         13   -1    0    0    0    0  0.00000000000E+00  0.00000000000E+00  0.14999999963E+04  0.15000000000E+04  0.10566000000E+00 0. -1.
        994   -1    0    0    0    0 -0.00000000000E+00 -0.00000000000E+00  0.11368683772E-12  0.17120000000E+03  0.17120000000E+03 0.  0.
         13    1    1    2    0    0 -0.57774591170E+02 -0.10979712378E+02  0.75240422858E+02  0.95496543732E+02  0.10566000000E+00 0. -1.
        994    1    1    2    0    0  0.56054119403E+02  0.47796345337E+01  0.32160569556E+02  0.18305368459E+03  0.17120000000E+03 0.  0.
        998    1    1    2    0    0  0.17204717677E+01  0.62000778448E+01  0.13925990039E+04  0.13926497717E+04  0.10000000000E+02 0. -1.
</event>
<event>
 5    1  0.1145138E-008  0.3791477E+03  0.7957747E-01  0.3454878E+00
         13   -1    0    0    0    0  0.00000000000E+00  0.00000000000E+00  0.14999999963E+04  0.15000000000E+04  0.10566000000E+00 0.  1.
        994   -1    0    0    0    0 -0.00000000000E+00 -0.00000000000E+00  0.11368683772E-12  0.17120000000E+03  0.17120000000E+03 0.  0.
         13    1    1    2    0    0  0.38372467691E+02 -0.45165135732E+01  0.40119484623E+02  0.55699455850E+02  0.10566000000E+00 0.  1.
        994    1    1    2    0    0 -0.35901696719E+02  0.56391105506E+01  0.20645556956E+02  0.17622829063E+03  0.17120000000E+03 0.  0.
        998    1    1    2    0    0 -0.24707709715E+01 -0.11225969774E+01  0.14392349547E+04  0.14392722535E+04  0.10000000000E+02 0.  1.
</event>
<event>
 5    1  0.1145138E-008  0.3849948E+03  0.7957747E-01  0.3429694E+00
         13   -1    0    0    0    0  0.00000000000E+00  0.00000000000E+00  0.14999999963E+04  0.15000000000E+04  0.10566000000E+00 0. -1.
        994   -1    0    0    0    0 -0.00000000000E+00 -0.00000000000E+00  0.11368683772E-12  0.17120000000E+03  0.17120000000E+03 0.  0.
         13    1    1    2    0    0  0.15825654103E+02 -0.17998113932E+01  0.77089602647E+02  0.78717905518E+02  0.10566000000E+00 0. -1.
        994    1    1    2    0    0 -0.11236095575E+02  0.37765353776E+01  0.20949472854E+01  0.17162267003E+03  0.17120000000E+03 0.  0.
        998    1    1    2    0    0 -0.45895585277E+01 -0.19767239844E+01  0.14208154463E+04  0.14208594245E+04  0.10000000000E+02 0. -1.
</event>
<event>
 5    1  0.1268349E-008  0.3860553E+03  0.7957747E-01  0.3425209E+00
         13   -1    0    0    0    0  0.00000000000E+00  0.00000000000E+00  0.14999999963E+04  0.15000000000E+04  0.10566000000E+00 0. -1.
        994   -1    0    0    0    0 -0.00000000000E+00 -0.00000000000E+00  0.11368683772E-12  0.17120000000E+03  0.17120000000E+03 0.  0.
         13    1    1    2    0    0 -0.11612501141E+02 -0.22246269004E+01  0.62994356171E+02  0.64094455462E+02  0.10566000000E+00 0. -1.
        994    1    1    2    0    0  0.96290294808E+01  0.21995470074E+01  0.14269134139E+01  0.17149061869E+03  0.17120000000E+03 0.  0.
        998    1    1    2    0    0  0.19834716602E+01  0.25079893010E-01  0.14355787267E+04  0.14356149259E+04  0.10000000000E+02 0. -1.
</event>
<event>
 5    1  0.1145138E-008  0.3820335E+03  0.7957747E-01  0.3442352E+00
         13   -1    0    0    0    0  0.00000000000E+00  0.00000000000E+00  0.14999999963E+04  0.15000000000E+04  0.10566000000E+00 0.  1.
        994   -1    0    0    0    0 -0.00000000000E+00 -0.00000000000E+00  0.11368683772E-12  0.17120000000E+03  0.17120000000E+03 0.  0.
         13    1    1    2    0    0 -0.48036642525E+01 -0.12524372231E+02  0.26877086154E+02  0.30038708597E+02  0.10566000000E+00 0.  1.
        994    1    1    2    0    0 -0.49292736909E+01  0.22408099471E+02  0.48601585272E+01  0.17279896354E+03  0.17120000000E+03 0.  0.
        998    1    1    2    0    0  0.97329379434E+01 -0.98837272398E+01  0.14682627516E+04  0.14683623279E+04  0.10000000000E+02 0.  1.
</event>
<event>
 5    1  0.1350908E-008  0.3848491E+03  0.7957747E-01  0.3430312E+00
         13   -1    0    0    0    0  0.00000000000E+00  0.00000000000E+00  0.14999999963E+04  0.15000000000E+04  0.10566000000E+00 0.  1.
        994   -1    0    0    0    0 -0.00000000000E+00 -0.00000000000E+00  0.11368683772E-12  0.17120000000E+03  0.17120000000E+03 0.  0.
         13    1    1    2    0    0 -0.11702459552E+02  0.19309070013E+01  0.40327425894E+02  0.42035561192E+02  0.10566000000E+00 0.  1.
        994    1    1    2    0    0  0.11284094298E+02 -0.32719552831E+01  0.21593692318E+01  0.17161625608E+03  0.17120000000E+03 0.  0.
        998    1    1    2    0    0  0.41836525330E+00  0.13410482817E+01  0.14575132012E+04  0.14575481827E+04  0.10000000000E+02 0.  1.
</event>
<event>
 5    1  0.1145138E-008  0.3810783E+03  0.7957747E-01  0.3446477E+00
         13   -1    0    0    0    0  0.00000000000E+00  0.00000000000E+00  0.14999999963E+04  0.15000000000E+04  0.10566000000E+00 0. -1.
        994   -1    0    0    0    0 -0.00000000000E+00 -0.00000000000E+00  0.11368683772E-12  0.17120000000E+03  0.17120000000E+03 0.  0.
         13    1    1    2    0    0 -0.21288369135E+02  0.32358186556E+02  0.21196245389E+03  0.21547236463E+03  0.10566000000E+00 0. -1.
        994    1    1    2    0    0 -0.46181278241E+01 -0.27583916551E+02  0.61997301660E+01  0.17358017229E+03  0.17120000000E+03 0.  0.
        998    1    1    2    0    0  0.25906496960E+02 -0.47742700051E+01  0.12818378122E+04  0.12821474631E+04  0.10000000000E+02 0. -1.
</event>
<event>
 5    1  0.1145138E-008  0.3850047E+03  0.7957747E-01  0.3429652E+00
         13   -1    0    0    0    0  0.00000000000E+00  0.00000000000E+00  0.14999999963E+04  0.15000000000E+04  0.10566000000E+00 0. -1.
        994   -1    0    0    0    0 -0.00000000000E+00 -0.00000000000E+00  0.11368683772E-12  0.17120000000E+03  0.17120000000E+03 0.  0.
         13    1    1    2    0    0 -0.96371275198E+01 -0.83020731053E+01  0.53514587525E+02  0.55005644135E+02  0.10566000000E+00 0. -1.
        994    1    1    2    0    0 -0.13752683368E+02  0.97467806984E+01  0.25627524987E+01  0.17204692306E+03  0.17120000000E+03 0.  0.
        998    1    1    2    0    0  0.23389810888E+02 -0.14447075931E+01  0.14439226563E+04  0.14441474328E+04  0.10000000000E+02 0. -1.
</event>
<event>
 5    1  0.1145138E-008  0.3752098E+03  0.7957747E-01  0.3472285E+00
         13   -1    0    0    0    0  0.00000000000E+00  0.00000000000E+00  0.14999999963E+04  0.15000000000E+04  0.10566000000E+00 0.  1.
        994   -1    0    0    0    0 -0.00000000000E+00 -0.00000000000E+00  0.11368683772E-12  0.17120000000E+03  0.17120000000E+03 0.  0.
         13    1    1    2    0    0 -0.35466497359E+02 -0.23775950314E+01  0.39436963373E+02  0.53092472509E+02  0.10566000000E+00 0.  1.
        994    1    1    2    0    0  0.37587259951E+02  0.28867926952E+01  0.18798242670E+02  0.17630640831E+03  0.17120000000E+03 0.  0.
        998    1    1    2    0    0 -0.21207625927E+01 -0.50919766377E+00  0.14417647902E+04  0.14418011192E+04  0.10000000000E+02 0.  1.
</event>
<event>
 5    1  0.1145138E-008  0.3836146E+03  0.7957747E-01  0.3435569E+00
         13   -1    0    0    0    0  0.00000000000E+00  0.00000000000E+00  0.14999999963E+04  0.15000000000E+04  0.10566000000E+00 0. -1.
        994   -1    0    0    0    0 -0.00000000000E+00 -0.00000000000E+00  0.11368683772E-12  0.17120000000E+03  0.17120000000E+03 0.  0.
         13    1    1    2    0    0  0.14130891626E+02  0.15232203957E+02  0.84359972772E+02  0.86881058382E+02  0.10566000000E+00 0. -1.
        994    1    1    2    0    0 -0.26592205270E+02 -0.14201692535E+02  0.53276223952E+01  0.17391566063E+03  0.17120000000E+03 0.  0.
        998    1    1    2    0    0  0.12461313644E+02 -0.10305114215E+01  0.14103124011E+04  0.14104032810E+04  0.10000000000E+02 0. -1.
</event>
<event>
 5    1  0.1145138E-008  0.3822319E+03  0.7957747E-01  0.3441497E+00
         13   -1    0    0    0    0  0.00000000000E+00  0.00000000000E+00  0.14999999963E+04  0.15000000000E+04  0.10566000000E+00 0.  1.
        994   -1    0    0    0    0 -0.00000000000E+00 -0.00000000000E+00  0.11368683772E-12  0.17120000000E+03  0.17120000000E+03 0.  0.
         13    1    1    2    0    0  0.12644380213E+02  0.27048673446E+02  0.14878996167E+03  0.15175630116E+03  0.10566000000E+00 0.  1.
        994    1    1    2    0    0  0.13652531527E+02 -0.25078284054E+02  0.57209832133E+01  0.17365909592E+03  0.17120000000E+03 0.  0.
        998    1    1    2    0    0 -0.26296911740E+02 -0.19703893915E+01  0.13454890514E+04  0.13457846029E+04  0.10000000000E+02 0.  1.
</event>
<event>
 5    1  0.1145138E-008  0.2816132E+03  0.7957747E-01  0.4036709E+00
         13   -1    0    0    0    0  0.00000000000E+00  0.00000000000E+00  0.14999999963E+04  0.15000000000E+04  0.10566000000E+00 0. -1.
        994   -1    0    0    0    0 -0.00000000000E+00 -0.00000000000E+00  0.11368683772E-12  0.17120000000E+03  0.17120000000E+03 0.  0.
         13    1    1    2    0    0 -0.20752674383E+03  0.40700081395E+02  0.18961544412E+03  0.28403850768E+03  0.10566000000E+00 0. -1.
        994    1    1    2    0    0  0.21531759654E+03 -0.49403368218E+02  0.47131023553E+03  0.54794629142E+03  0.17120000000E+03 0.  0.
        998    1    1    2    0    0 -0.77908527074E+01  0.87032868228E+01  0.83907431663E+03  0.83921520090E+03  0.10000000000E+02 0.  0.
</event>
<event>
 5    1  0.1145138E-008  0.3749141E+03  0.7957747E-01  0.3473607E+00
         13   -1    0    0    0    0  0.00000000000E+00  0.00000000000E+00  0.14999999963E+04  0.15000000000E+04  0.10566000000E+00 0. -1.
        994   -1    0    0    0    0 -0.00000000000E+00 -0.00000000000E+00  0.11368683772E-12  0.17120000000E+03  0.17120000000E+03 0.  0.
         13    1    1    2    0    0  0.50359652758E+01 -0.18635938820E+02  0.26631140953E+02  0.32892065828E+02  0.10566000000E+00 0. -1.
        994    1    1    2    0    0  0.13694765180E+02 -0.97378982825E+01  0.76835189467E+01  0.17219422092E+03  0.17120000000E+03 0.  0.
        998    1    1    2    0    0 -0.18730730456E+02  0.28373837103E+02  0.14656853364E+04  0.14661137132E+04  0.10000000000E+02 0. -1.
</event>
<event>
 5    1  0.1145138E-008  0.3790910E+03  0.7957747E-01  0.3455126E+00
         13   -1    0    0    0    0  0.00000000000E+00  0.00000000000E+00  0.14999999963E+04  0.15000000000E+04  0.10566000000E+00 0. -1.
        994   -1    0    0    0    0 -0.00000000000E+00 -0.00000000000E+00  0.11368683772E-12  0.17120000000E+03  0.17120000000E+03 0.  0.
         13    1    1    2    0    0 -0.18425854657E+01  0.28379897310E+02  0.91769511910E+02  0.96075325515E+02  0.10566000000E+00 0. -1.
        994    1    1    2    0    0  0.27025851213E+01 -0.47106819273E+01  0.46916157725E+01  0.17135035964E+03  0.17120000000E+03 0.  0.
        998    1    1    2    0    0 -0.85999965564E+00 -0.23669215383E+02  0.14035388686E+04  0.14037743148E+04  0.10000000000E+02 0. -1.
</event>
<event>
 5    1  0.1145138E-008  0.3695128E+03  0.7957747E-01  0.3498133E+00
         13   -1    0    0    0    0  0.00000000000E+00  0.00000000000E+00  0.14999999963E+04  0.15000000000E+04  0.10566000000E+00 0.  1.
        994   -1    0    0    0    0 -0.00000000000E+00 -0.00000000000E+00  0.11368683772E-12  0.17120000000E+03  0.17120000000E+03 0.  0.
         13    1    1    2    0    0  0.13329226918E+01  0.60428920818E+02  0.16895883996E+03  0.17944506658E+03  0.10566000000E+00 0.  1.
        994    1    1    2    0    0 -0.83357690437E+01 -0.34455044596E+02  0.15079846409E+02  0.17548070239E+03  0.17120000000E+03 0.  0.
        998    1    1    2    0    0  0.70028463519E+01 -0.25973876222E+02  0.13159613099E+04  0.13162742310E+04  0.10000000000E+02 0.  1.
</event>
<event>
 5    1  0.1145138E-008  0.3718602E+03  0.7957747E-01  0.3487385E+00
         13   -1    0    0    0    0  0.00000000000E+00  0.00000000000E+00  0.14999999963E+04  0.15000000000E+04  0.10566000000E+00 0.  1.
        994   -1    0    0    0    0 -0.00000000000E+00 -0.00000000000E+00  0.11368683772E-12  0.17120000000E+03  0.17120000000E+03 0.  0.
         13    1    1    2    0    0 -0.24397594205E+02 -0.33026600770E+02  0.10547287313E+03  0.11318364322E+03  0.10566000000E+00 0.  1.
        994    1    1    2    0    0 -0.60442502686E+01  0.15318855028E+02  0.92322758367E+01  0.17223784485E+03  0.17120000000E+03 0.  0.
        998    1    1    2    0    0  0.30441844473E+02  0.17707745742E+02  0.13852948473E+04  0.13857785119E+04  0.10000000000E+02 0.  1.
</event>
<event>
 5    1  0.1145138E-008  0.3848383E+03  0.7957747E-01  0.3430358E+00
         13   -1    0    0    0    0  0.00000000000E+00  0.00000000000E+00  0.14999999963E+04  0.15000000000E+04  0.10566000000E+00 0. -1.
        994   -1    0    0    0    0 -0.00000000000E+00 -0.00000000000E+00  0.11368683772E-12  0.17120000000E+03  0.17120000000E+03 0.  0.
         13    1    1    2    0    0  0.13593317164E+02 -0.16731011332E+01  0.52765590803E+02  0.54514184170E+02  0.10566000000E+00 0. -1.
        994    1    1    2    0    0 -0.15018775537E+02  0.62788600282E+01  0.25828101313E+01  0.17199156552E+03  0.17120000000E+03 0.  0.
        998    1    1    2    0    0  0.14254583722E+01 -0.46057588950E+01  0.14446515953E+04  0.14446942503E+04  0.10000000000E+02 0. -1.
</event>
<event>
 5    1  0.1145138E-008  0.3795531E+03  0.7957747E-01  0.3453107E+00
         13   -1    0    0    0    0  0.00000000000E+00  0.00000000000E+00  0.14999999963E+04  0.15000000000E+04  0.10566000000E+00 0. -1.
        994   -1    0    0    0    0 -0.00000000000E+00 -0.00000000000E+00  0.11368683772E-12  0.17120000000E+03  0.17120000000E+03 0.  0.
         13    1    1    2    0    0 -0.24365627375E+02 -0.16351441396E+01  0.72313971258E+02  0.76326136394E+02  0.10566000000E+00 0. -1.
        994    1    1    2    0    0 -0.32470982671E+01  0.83920581271E+01  0.46300253033E+01  0.17149882630E+03  0.17120000000E+03 0.  0.
        998    1    1    2    0    0  0.27612725642E+02 -0.67569139875E+01  0.14230559997E+04  0.14233750373E+04  0.10000000000E+02 0. -1.
</event>
<event>
 5    1  0.1145138E-008  0.3839576E+03  0.7957747E-01  0.3434105E+00
         13   -1    0    0    0    0  0.00000000000E+00  0.00000000000E+00  0.14999999963E+04  0.15000000000E+04  0.10566000000E+00 0.  1.
        994   -1    0    0    0    0 -0.00000000000E+00 -0.00000000000E+00  0.11368683772E-12  0.17120000000E+03  0.17120000000E+03 0.  0.
         13    1    1    2    0    0 -0.16032180485E+02 -0.13808538799E+02  0.97619346355E+02  0.99886207765E+02  0.10566000000E+00 0.  1.
        994    1    1    2    0    0  0.84626990517E+01  0.24664081217E+02  0.43954365473E+01  0.17323017647E+03  0.17120000000E+03 0.  0.
        998    1    1    2    0    0  0.75694814338E+01 -0.10855542417E+02  0.13979852134E+04  0.13980836158E+04  0.10000000000E+02 0.  1.
</event>
<event>
 5    1  0.1145138E-008  0.3713950E+03  0.7957747E-01  0.3489504E+00
         13   -1    0    0    0    0  0.00000000000E+00  0.00000000000E+00  0.14999999963E+04  0.15000000000E+04  0.10566000000E+00 0.  1.
        994   -1    0    0    0    0 -0.00000000000E+00 -0.00000000000E+00  0.11368683772E-12  0.17120000000E+03  0.17120000000E+03 0.  0.
         13    1    1    2    0    0  0.97793746609E+02 -0.41204642263E+02  0.44293873099E+03  0.45547356674E+03  0.10566000000E+00 0.  1.
        994    1    1    2    0    0 -0.10170419781E+03  0.37812049407E+02  0.50214552233E+02  0.20881675265E+03  0.17120000000E+03 0.  0.
        998    1    1    2    0    0  0.39104512056E+01  0.33925928563E+01  0.10068467131E+04  0.10069096806E+04  0.10000000000E+02 0.  0.
</event>
<event>
 5    1  0.1145138E-008  0.3850410E+03  0.7957747E-01  0.3429498E+00
         13   -1    0    0    0    0  0.00000000000E+00  0.00000000000E+00  0.14999999963E+04  0.15000000000E+04  0.10566000000E+00 0. -1.
        994   -1    0    0    0    0 -0.00000000000E+00 -0.00000000000E+00  0.11368683772E-12  0.17120000000E+03  0.17120000000E+03 0.  0.
         13    1    1    2    0    0  0.99996812685E+01 -0.15933702827E+02  0.11103021673E+03  0.11261259567E+03  0.10566000000E+00 0. -1.
        994    1    1    2    0    0 -0.69170605592E+01  0.84179911762E+01  0.20002177374E+01  0.17155800527E+03  0.17120000000E+03 0.  0.
        998    1    1    2    0    0 -0.30826207093E+01  0.75157116504E+01  0.13869695618E+04  0.13870293991E+04  0.10000000000E+02 0. -1.
</event>
<event>
 5    1  0.1145138E-008  0.3827263E+03  0.7957747E-01  0.3439373E+00
         13   -1    0    0    0    0  0.00000000000E+00  0.00000000000E+00  0.14999999963E+04  0.15000000000E+04  0.10566000000E+00 0.  1.
        994   -1    0    0    0    0 -0.00000000000E+00 -0.00000000000E+00  0.11368683772E-12  0.17120000000E+03  0.17120000000E+03 0.  0.
         13    1    1    2    0    0  0.12182836775E+02 -0.93165956591E+01  0.41896585378E+02  0.44615641841E+02  0.10566000000E+00 0.  1.
        994    1    1    2    0    0 -0.92242321472E+01  0.25769187617E+01  0.30671467797E+01  0.17149511468E+03  0.17120000000E+03 0.  0.
        998    1    1    2    0    0 -0.29586046274E+01  0.67396768974E+01  0.14550362641E+04  0.14550892435E+04  0.10000000000E+02 0.  1.
</event>
<event>
 5    1  0.1145138E-008  0.3828628E+03  0.7957747E-01  0.3438787E+00
         13   -1    0    0    0    0  0.00000000000E+00  0.00000000000E+00  0.14999999963E+04  0.15000000000E+04  0.10566000000E+00 0. -1.
        994   -1    0    0    0    0 -0.00000000000E+00 -0.00000000000E+00  0.11368683772E-12  0.17120000000E+03  0.17120000000E+03 0.  0.
         13    1    1    2    0    0  0.24198509432E+02 -0.66030215941E+01  0.13072986884E+03  0.13311452785E+03  0.10566000000E+00 0. -1.
        994    1    1    2    0    0  0.58564822279E+01  0.19096091801E+02  0.40172465351E+01  0.17240805485E+03  0.17120000000E+03 0.  0.
        998    1    1    2    0    0 -0.30054991660E+02 -0.12493070207E+02  0.13652528809E+04  0.13656774173E+04  0.10000000000E+02 0. -1.
</event>
<event>
 5    1  0.1145138E-008  0.3733057E+03  0.7957747E-01  0.3480835E+00
         13   -1    0    0    0    0  0.00000000000E+00  0.00000000000E+00  0.14999999963E+04  0.15000000000E+04  0.10566000000E+00 0. -1.
        994   -1    0    0    0    0 -0.00000000000E+00 -0.00000000000E+00  0.11368683772E-12  0.17120000000E+03  0.17120000000E+03 0.  0.
         13    1    1    2    0    0  0.21939321408E+02  0.49872413249E+02  0.17621093805E+03  0.18444212448E+03  0.10566000000E+00 0. -1.
        994    1    1    2    0    0 -0.61078304923E+02 -0.29626943284E+02  0.23473708776E+02  0.18565766912E+03  0.17120000000E+03 0.  0.
        998    1    1    2    0    0  0.39138983514E+02 -0.20245469965E+02  0.13003153494E+04  0.13011002064E+04  0.10000000000E+02 0. -1.
</event>
<event>
 5    1  0.1145138E-008  0.3840897E+03  0.7957747E-01  0.3433542E+00
         13   -1    0    0    0    0  0.00000000000E+00  0.00000000000E+00  0.14999999963E+04  0.15000000000E+04  0.10566000000E+00 0.  1.
        994   -1    0    0    0    0 -0.00000000000E+00 -0.00000000000E+00  0.11368683772E-12  0.17120000000E+03  0.17120000000E+03 0.  0.
         13    1    1    2    0    0  0.12676616843E+02  0.21932987269E+01  0.38581896935E+02  0.40670395978E+02  0.10566000000E+00 0.  1.
        994    1    1    2    0    0 -0.15192559585E+02  0.13732029687E+02  0.34672731132E+01  0.17245534056E+03  0.17120000000E+03 0.  0.
        998    1    1    2    0    0  0.25159427420E+01 -0.15925328414E+02  0.14579508262E+04  0.14580742635E+04  0.10000000000E+02 0.  1.
</event>
<event>
 5    1  0.1145138E-008  0.3853479E+03  0.7957747E-01  0.3428198E+00
         13   -1    0    0    0    0  0.00000000000E+00  0.00000000000E+00  0.14999999963E+04  0.15000000000E+04  0.10566000000E+00 0.  1.
        994   -1    0    0    0    0 -0.00000000000E+00 -0.00000000000E+00  0.11368683772E-12  0.17120000000E+03  0.17120000000E+03 0.  0.
         13    1    1    2    0    0 -0.76026052960E+01  0.87144615448E+01  0.44689141221E+02  0.46161368637E+02  0.10566000000E+00 0.  1.
        994    1    1    2    0    0  0.97390227402E+01 -0.86097539839E+01  0.20127963562E+01  0.17170459451E+03  0.17120000000E+03 0.  0.
        998    1    1    2    0    0 -0.21364174443E+01 -0.10470756090E+00  0.14532980587E+04  0.14533340369E+04  0.10000000000E+02 0.  1.
</event>
<event>
 5    1  0.1145138E-008  0.3835536E+03  0.7957747E-01  0.3435830E+00
         13   -1    0    0    0    0  0.00000000000E+00  0.00000000000E+00  0.14999999963E+04  0.15000000000E+04  0.10566000000E+00 0. -1.
        994   -1    0    0    0    0 -0.00000000000E+00 -0.00000000000E+00  0.11368683772E-12  0.17120000000E+03  0.17120000000E+03 0.  0.
         13    1    1    2    0    0  0.73201185593E+01  0.17071578159E+02  0.71858904115E+02  0.74220860823E+02  0.10566000000E+00 0. -1.
        994    1    1    2    0    0  0.89848664139E+01 -0.19711378067E+02  0.39020199349E+01  0.17260918866E+03  0.17120000000E+03 0.  0.
        998    1    1    2    0    0 -0.16304984973E+02  0.26397999081E+01  0.14242390722E+04  0.14243699505E+04  0.10000000000E+02 0. -1.
</event>
<event>
 5    1  0.1145138E-008  0.3850672E+03  0.7957747E-01  0.3429387E+00
         13   -1    0    0    0    0  0.00000000000E+00  0.00000000000E+00  0.14999999963E+04  0.15000000000E+04  0.10566000000E+00 0. -1.
        994   -1    0    0    0    0 -0.00000000000E+00 -0.00000000000E+00  0.11368683772E-12  0.17120000000E+03  0.17120000000E+03 0.  0.
         13    1    1    2    0    0 -0.13362699653E+02  0.39721872121E+01  0.58951303407E+02  0.60577284114E+02  0.10566000000E+00 0. -1.
        994    1    1    2    0    0  0.12465603512E+02 -0.93073850890E+01  0.23929345694E+01  0.17192203123E+03  0.17120000000E+03 0.  0.
        998    1    1    2    0    0  0.89709614128E+00  0.53351978769E+01  0.14386557583E+04  0.14387006847E+04  0.10000000000E+02 0. -1.
</event>
<event>
 5    1  0.1145138E-008  0.3748612E+03  0.7957747E-01  0.3473844E+00
         13   -1    0    0    0    0  0.00000000000E+00  0.00000000000E+00  0.14999999963E+04  0.15000000000E+04  0.10566000000E+00 0.  1.
        994   -1    0    0    0    0 -0.00000000000E+00 -0.00000000000E+00  0.11368683772E-12  0.17120000000E+03  0.17120000000E+03 0.  0.
         13    1    1    2    0    0  0.36931548608E+02  0.22582364714E+02  0.12743359703E+03  0.13458542006E+03  0.10566000000E+00 0.  1.
        994    1    1    2    0    0 -0.34203687921E+02 -0.21753303391E+02  0.12358425374E+02  0.17636685957E+03  0.17120000000E+03 0.  0.
        998    1    1    2    0    0 -0.27278606872E+01 -0.82906132273E+00  0.13602079739E+04  0.13602477204E+04  0.10000000000E+02 0.  1.
</event>
<event>
 5    1  0.1145138E-008  0.3853159E+03  0.7957747E-01  0.3428334E+00
         13   -1    0    0    0    0  0.00000000000E+00  0.00000000000E+00  0.14999999963E+04  0.15000000000E+04  0.10566000000E+00 0.  1.
        994   -1    0    0    0    0 -0.00000000000E+00 -0.00000000000E+00  0.11368683772E-12  0.17120000000E+03  0.17120000000E+03 0.  0.
         13    1    1    2    0    0  0.17687647208E+02 -0.12058115806E+01  0.10378424600E+03  0.10528764280E+03  0.10566000000E+00 0.  1.
        994    1    1    2    0    0 -0.15047014667E+02 -0.11262391544E+01  0.22217424228E+01  0.17187803002E+03  0.17120000000E+03 0.  0.
        998    1    1    2    0    0 -0.26406325410E+01  0.23320507350E+01  0.13939940079E+04  0.13940343272E+04  0.10000000000E+02 0.  1.
</event>
<event>
 5    1  0.1145138E-008  0.3819898E+03  0.7957747E-01  0.3442540E+00
         13   -1    0    0    0    0  0.00000000000E+00  0.00000000000E+00  0.14999999963E+04  0.15000000000E+04  0.10566000000E+00 0.  1.
        994   -1    0    0    0    0 -0.00000000000E+00 -0.00000000000E+00  0.11368683772E-12  0.17120000000E+03  0.17120000000E+03 0.  0.
         13    1    1    2    0    0  0.16902103796E+02  0.21029898326E+02  0.12424976179E+03  0.12714539789E+03  0.10566000000E+00 0.  1.
        994    1    1    2    0    0 -0.10083772133E+02  0.18136505895E+01  0.34807386630E+01  0.17154161982E+03  0.17120000000E+03 0.  0.
        998    1    1    2    0    0 -0.68183316629E+01 -0.22843548915E+02  0.13722694958E+04  0.13725129823E+04  0.10000000000E+02 0.  1.
</event>
<event>
 5    1  0.1145138E-008  0.3802036E+03  0.7957747E-01  0.3450272E+00
         13   -1    0    0    0    0  0.00000000000E+00  0.00000000000E+00  0.14999999963E+04  0.15000000000E+04  0.10566000000E+00 0. -1.
        994   -1    0    0    0    0 -0.00000000000E+00 -0.00000000000E+00  0.11368683772E-12  0.17120000000E+03  0.17120000000E+03 0.  0.
         13    1    1    2    0    0 -0.10437278153E+02  0.24960318392E+02  0.86397435961E+02  0.90534426459E+02  0.10566000000E+00 0. -1.
        994    1    1    2    0    0  0.18356157117E+01 -0.25029686069E+02  0.61373588839E+01  0.17313856256E+03  0.17120000000E+03 0.  0.
        998    1    1    2    0    0  0.86016624412E+01  0.69367677444E-01  0.14074652014E+04  0.14075270110E+04  0.10000000000E+02 0. -1.
</event>
<event>
 5    1  0.1145138E-008  0.3858848E+03  0.7957747E-01  0.3425928E+00
         13   -1    0    0    0    0  0.00000000000E+00  0.00000000000E+00  0.14999999963E+04  0.15000000000E+04  0.10566000000E+00 0.  1.
        994   -1    0    0    0    0 -0.00000000000E+00 -0.00000000000E+00  0.11368683772E-12  0.17120000000E+03  0.17120000000E+03 0.  0.
         13    1    1    2    0    0 -0.16619782426E+01 -0.13519024696E+02  0.76014815533E+02  0.77225575717E+02  0.10566000000E+00 0.  1.
        994    1    1    2    0    0  0.13071625431E+02  0.11927963338E+02  0.22190225832E+01  0.17212642959E+03  0.17120000000E+03 0.  0.
        998    1    1    2    0    0 -0.11409647189E+02  0.15910613583E+01  0.14217661582E+04  0.14218479947E+04  0.10000000000E+02 0.  1.
</event>
<event>
 5    1  0.1145138E-008  0.3706494E+03  0.7957747E-01  0.3492912E+00
         13   -1    0    0    0    0  0.00000000000E+00  0.00000000000E+00  0.14999999963E+04  0.15000000000E+04  0.10566000000E+00 0.  1.
        994   -1    0    0    0    0 -0.00000000000E+00 -0.00000000000E+00  0.11368683772E-12  0.17120000000E+03  0.17120000000E+03 0.  0.
         13    1    1    2    0    0  0.75807680943E+01  0.47448268501E+02  0.10442883407E+03  0.11495302857E+03  0.10566000000E+00 0.  1.
        994    1    1    2    0    0  0.53501274781E+01 -0.14966893102E+02  0.12168298982E+02  0.17236629384E+03  0.17120000000E+03 0.  0.
        998    1    1    2    0    0 -0.12930895572E+02 -0.32481375399E+02  0.13834028632E+04  0.13838806776E+04  0.10000000000E+02 0.  1.
</event>
<event>
 5    1  0.1145138E-008  0.3731568E+03  0.7957747E-01  0.3481508E+00
         13   -1    0    0    0    0  0.00000000000E+00  0.00000000000E+00  0.14999999963E+04  0.15000000000E+04  0.10566000000E+00 0. -1.
        994   -1    0    0    0    0 -0.00000000000E+00 -0.00000000000E+00  0.11368683772E-12  0.17120000000E+03  0.17120000000E+03 0.  0.
         13    1    1    2    0    0  0.15837891948E+02 -0.45731840391E+02  0.16091976432E+03  0.16803994096E+03  0.10566000000E+00 0. -1.
        994    1    1    2    0    0  0.50363810863E+02  0.37284445952E+02  0.21180740247E+02  0.18353393995E+03  0.17120000000E+03 0.  0.
        998    1    1    2    0    0 -0.66201702811E+02  0.84473944390E+01  0.13178994917E+04  0.13196261191E+04  0.10000000000E+02 0. -1.
</event>
<event>
 5    1  0.1145138E-008  0.3764402E+03  0.7957747E-01  0.3466807E+00
         13   -1    0    0    0    0  0.00000000000E+00  0.00000000000E+00  0.14999999963E+04  0.15000000000E+04  0.10566000000E+00 0. -1.
        994   -1    0    0    0    0 -0.00000000000E+00 -0.00000000000E+00  0.11368683772E-12  0.17120000000E+03  0.17120000000E+03 0.  0.
         13    1    1    2    0    0 -0.19411187311E+02 -0.27221491163E+02  0.32636541281E+02  0.46722144265E+02  0.10566000000E+00 0. -1.
        994    1    1    2    0    0  0.23487885581E+02  0.20613031539E+02  0.17886431891E+02  0.17494554091E+03  0.17120000000E+03 0.  0.
        998    1    1    2    0    0 -0.40766982696E+01  0.66084596238E+01  0.14494770231E+04  0.14495323148E+04  0.10000000000E+02 0. -1.
</event>
<event>
 5    1  0.1145138E-008  0.3769716E+03  0.7957747E-01  0.3464452E+00
         13   -1    0    0    0    0  0.00000000000E+00  0.00000000000E+00  0.14999999963E+04  0.15000000000E+04  0.10566000000E+00 0.  1.
        994   -1    0    0    0    0 -0.00000000000E+00 -0.00000000000E+00  0.11368683772E-12  0.17120000000E+03  0.17120000000E+03 0.  0.
         13    1    1    2    0    0 -0.59467423020E+02 -0.82513905933E+01  0.27208830248E+03  0.27863329908E+03  0.10566000000E+00 0.  1.
        994    1    1    2    0    0  0.53260112322E+02  0.10908117620E+02  0.15716054933E+02  0.18031101180E+03  0.17120000000E+03 0.  0.
        998    1    1    2    0    0  0.62073106978E+01 -0.26567270269E+01  0.12121956389E+04  0.12122556891E+04  0.10000000000E+02 0.  1.
</event>
<event>
 5    1  0.1145138E-008  0.3851130E+03  0.7957747E-01  0.3429193E+00
         13   -1    0    0    0    0  0.00000000000E+00  0.00000000000E+00  0.14999999963E+04  0.15000000000E+04  0.10566000000E+00 0. -1.
        994   -1    0    0    0    0 -0.00000000000E+00 -0.00000000000E+00  0.11368683772E-12  0.17120000000E+03  0.17120000000E+03 0.  0.
         13    1    1    2    0    0  0.70366504809E+01  0.83940793292E+01  0.37041327313E+02  0.38627012710E+02  0.10566000000E+00 0. -1.
        994    1    1    2    0    0 -0.69075529027E+01 -0.10751215875E+02  0.21110681395E+01  0.17168925283E+03  0.17120000000E+03 0.  0.
        998    1    1    2    0    0 -0.12909757813E+00  0.23571365455E+01  0.14608476008E+04  0.14608837345E+04  0.10000000000E+02 0. -1.
</event>
<event>
 5    1  0.1145138E-008  0.3822742E+03  0.7957747E-01  0.3441315E+00
         13   -1    0    0    0    0  0.00000000000E+00  0.00000000000E+00  0.14999999963E+04  0.15000000000E+04  0.10566000000E+00 0.  1.
        994   -1    0    0    0    0 -0.00000000000E+00 -0.00000000000E+00  0.11368683772E-12  0.17120000000E+03  0.17120000000E+03 0.  0.
         13    1    1    2    0    0  0.83365531280E+01  0.59365511912E+01  0.16426822622E+02  0.19354390292E+02  0.10566000000E+00 0.  1.
        994    1    1    2    0    0 -0.81166817153E+01  0.31355968523E+01  0.32407657132E+01  0.17145161140E+03  0.17120000000E+03 0.  0.
        998    1    1    2    0    0 -0.21987141272E+00 -0.90721480435E+01  0.14803324079E+04  0.14803939983E+04  0.10000000000E+02 0.  1.
</event>
<event>
 5    1  0.1145138E-008  0.3813953E+03  0.7957747E-01  0.3445106E+00
         13   -1    0    0    0    0  0.00000000000E+00  0.00000000000E+00  0.14999999963E+04  0.15000000000E+04  0.10566000000E+00 0.  1.
        994   -1    0    0    0    0 -0.00000000000E+00 -0.00000000000E+00  0.11368683772E-12  0.17120000000E+03  0.17120000000E+03 0.  0.
         13    1    1    2    0    0 -0.35380238621E+02  0.13407365185E+02  0.15966454602E+03  0.16408624911E+03  0.10566000000E+00 0.  1.
        994    1    1    2    0    0  0.58570392883E+02 -0.16230185580E+02  0.15821317869E+02  0.18235587171E+03  0.17120000000E+03 0.  0.
        998    1    1    2    0    0 -0.23190154262E+02  0.28228203947E+01  0.13245141324E+04  0.13247578792E+04  0.10000000000E+02 0.  1.
</event>
<event>
 5    1  0.1145138E-008  0.3837184E+03  0.7957747E-01  0.3435126E+00
         13   -1    0    0    0    0  0.00000000000E+00  0.00000000000E+00  0.14999999963E+04  0.15000000000E+04  0.10566000000E+00 0. -1.
        994   -1    0    0    0    0 -0.00000000000E+00 -0.00000000000E+00  0.11368683772E-12  0.17120000000E+03  0.17120000000E+03 0.  0.
         13    1    1    2    0    0  0.18861784856E+02 -0.12404571960E+02  0.10933740539E+03  0.11164371776E+03  0.10566000000E+00 0. -1.
        994    1    1    2    0    0 -0.17791001786E+02  0.43287786381E+01  0.33757145750E+01  0.17220944666E+03  0.17120000000E+03 0.  0.
        998    1    1    2    0    0 -0.10707830698E+01  0.80757933220E+01  0.13872868763E+04  0.13873468356E+04  0.10000000000E+02 0. -1.
</event>
<event>
 5    1  0.1145138E-008  0.3773266E+03  0.7957747E-01  0.3462882E+00
         13   -1    0    0    0    0  0.00000000000E+00  0.00000000000E+00  0.14999999963E+04  0.15000000000E+04  0.10566000000E+00 0. -1.
        994   -1    0    0    0    0 -0.00000000000E+00 -0.00000000000E+00  0.11368683772E-12  0.17120000000E+03  0.17120000000E+03 0.  0.
         13    1    1    2    0    0 -0.71056277457E+02 -0.36792858733E+02  0.13342107681E+03  0.15557603903E+03  0.10566000000E+00 0. -1.
        994    1    1    2    0    0  0.12242239072E+03  0.12268258770E+03  0.13223462476E+03  0.27718891584E+03  0.17120000000E+03 0.  0.
        998    1    1    2    0    0 -0.51366113268E+02 -0.85889728971E+02  0.12343442947E+04  0.12384350451E+04  0.10000000000E+02 0. -1.
</event>
<event>
 5    1  0.1145138E-008  0.3821669E+03  0.7957747E-01  0.3441777E+00
         13   -1    0    0    0    0  0.00000000000E+00  0.00000000000E+00  0.14999999963E+04  0.15000000000E+04  0.10566000000E+00 0. -1.
        994   -1    0    0    0    0 -0.00000000000E+00 -0.00000000000E+00  0.11368683772E-12  0.17120000000E+03  0.17120000000E+03 0.  0.
         13    1    1    2    0    0 -0.15527987739E+02 -0.20848726983E+02  0.12495757421E+03  0.12763304563E+03  0.10566000000E+00 0. -1.
        994    1    1    2    0    0 -0.69515740149E+01  0.14392664260E+01  0.32105543216E+01  0.17137719664E+03  0.17120000000E+03 0.  0.
        998    1    1    2    0    0  0.22479561754E+02  0.19409460557E+02  0.13718318677E+04  0.13721897577E+04  0.10000000000E+02 0. -1.
</event>
<event>
 5    1  0.1145138E-008  0.3830536E+03  0.7957747E-01  0.3437969E+00
         13   -1    0    0    0    0  0.00000000000E+00  0.00000000000E+00  0.14999999963E+04  0.15000000000E+04  0.10566000000E+00 0. -1.
        994   -1    0    0    0    0 -0.00000000000E+00 -0.00000000000E+00  0.11368683772E-12  0.17120000000E+03  0.17120000000E+03 0.  0.
         13    1    1    2    0    0  0.73319898617E+01  0.23124677597E+02  0.10612071870E+03  0.10885828811E+03  0.10566000000E+00 0. -1.
        994    1    1    2    0    0  0.99031766662E+01 -0.28623368101E+02  0.56415522798E+01  0.17395009980E+03  0.17120000000E+03 0.  0.
        998    1    1    2    0    0 -0.17235166528E+02  0.54986905042E+01  0.13882377253E+04  0.13883916121E+04  0.10000000000E+02 0. -1.
</event>
<event>
 5    1  0.1495422E-008  0.3864582E+03  0.7957747E-01  0.3423511E+00
         13   -1    0    0    0    0  0.00000000000E+00  0.00000000000E+00  0.14999999963E+04  0.15000000000E+04  0.10566000000E+00 0.  1.
        994   -1    0    0    0    0 -0.00000000000E+00 -0.00000000000E+00  0.11368683772E-12  0.17120000000E+03  0.17120000000E+03 0.  0.
         13    1    1    2    0    0 -0.18957614505E+01 -0.10006725636E+02  0.59424765661E+02  0.60291312868E+02  0.10566000000E+00 0.  1.
        994    1    1    2    0    0 -0.60744720017E+01  0.58502462752E+01  0.11407385426E+01  0.17141139366E+03  0.17120000000E+03 0.  0.
        998    1    1    2    0    0  0.79702334522E+01  0.41564793608E+01  0.14394344921E+04  0.14394972935E+04  0.10000000000E+02 0.  1.
</event>
<event>
 5    1  0.1145138E-008  0.3833678E+03  0.7957747E-01  0.3436624E+00
         13   -1    0    0    0    0  0.00000000000E+00  0.00000000000E+00  0.14999999963E+04  0.15000000000E+04  0.10566000000E+00 0.  1.
        994   -1    0    0    0    0 -0.00000000000E+00 -0.00000000000E+00  0.11368683772E-12  0.17120000000E+03  0.17120000000E+03 0.  0.
         13    1    1    2    0    0  0.18384873830E+02  0.62233881264E+01  0.73954622796E+02  0.76459345685E+02  0.10566000000E+00 0.  1.
        994    1    1    2    0    0 -0.18080367214E+02 -0.40392946659E+01  0.35782154706E+01  0.17223663723E+03  0.17120000000E+03 0.  0.
        998    1    1    2    0    0 -0.30450661652E+00 -0.21840934605E+01  0.14224671580E+04  0.14225040171E+04  0.10000000000E+02 0.  1.
</event>
<event>
 5    1  0.1145138E-008  0.3819786E+03  0.7957747E-01  0.3442588E+00
         13   -1    0    0    0    0  0.00000000000E+00  0.00000000000E+00  0.14999999963E+04  0.15000000000E+04  0.10566000000E+00 0.  1.
        994   -1    0    0    0    0 -0.00000000000E+00 -0.00000000000E+00  0.11368683772E-12  0.17120000000E+03  0.17120000000E+03 0.  0.
         13    1    1    2    0    0 -0.79007377886E+02 -0.17605786379E+03  0.10054869848E+04  0.10238372062E+04  0.10566000000E+00 0.  1.
        994    1    1    2    0    0  0.90446462140E+02  0.18237317826E+03  0.15581752858E+03  0.30826787195E+03  0.17120000000E+03 0.  0.
        998    1    1    2    0    0 -0.11439084254E+02 -0.63153144747E+01  0.33869548292E+03  0.33909492181E+03  0.10000000000E+02 0.  0.
</event>
<event>
 5    1  0.1145138E-008  0.3806150E+03  0.7957747E-01  0.3448485E+00
         13   -1    0    0    0    0  0.00000000000E+00  0.00000000000E+00  0.14999999963E+04  0.15000000000E+04  0.10566000000E+00 0.  1.
        994   -1    0    0    0    0 -0.00000000000E+00 -0.00000000000E+00  0.11368683772E-12  0.17120000000E+03  0.17120000000E+03 0.  0.
         13    1    1    2    0    0 -0.69244357329E+01 -0.23422313201E+02  0.73745485959E+02  0.77685007751E+02  0.10566000000E+00 0.  1.
        994    1    1    2    0    0  0.19327707265E+02  0.19249317702E+02  0.63093649704E+01  0.17347433409E+03  0.17120000000E+03 0.  0.
        998    1    1    2    0    0 -0.12403271532E+02  0.41729954995E+01  0.14199451453E+04  0.14200406582E+04  0.10000000000E+02 0.  1.
</event>
<event>
 5    1  0.1145138E-008  0.3856374E+03  0.7957747E-01  0.3426974E+00
         13   -1    0    0    0    0  0.00000000000E+00  0.00000000000E+00  0.14999999963E+04  0.15000000000E+04  0.10566000000E+00 0. -1.
        994   -1    0    0    0    0 -0.00000000000E+00 -0.00000000000E+00  0.11368683772E-12  0.17120000000E+03  0.17120000000E+03 0.  0.
         13    1    1    2    0    0  0.99743824955E+01 -0.48745616366E+01  0.54215480799E+02  0.55340574442E+02  0.10566000000E+00 0. -1.
        994    1    1    2    0    0  0.15350099088E+02  0.53312121148E+00  0.20886378897E+01  0.17190029717E+03  0.17120000000E+03 0.  0.
        998    1    1    2    0    0 -0.25324481583E+02  0.43414404252E+01  0.14436958776E+04  0.14439591284E+04  0.10000000000E+02 0. -1.
</event>
<event>
 5    1  0.1145138E-008  0.3851911E+03  0.7957747E-01  0.3428862E+00
         13   -1    0    0    0    0  0.00000000000E+00  0.00000000000E+00  0.14999999963E+04  0.15000000000E+04  0.10566000000E+00 0.  1.
        994   -1    0    0    0    0 -0.00000000000E+00 -0.00000000000E+00  0.11368683772E-12  0.17120000000E+03  0.17120000000E+03 0.  0.
         13    1    1    2    0    0  0.13795500035E+02 -0.11555993925E+03  0.27310110919E+03  0.29686468700E+03  0.10566000000E+00 0.  1.
        994    1    1    2    0    0 -0.12360228691E+02  0.11944010776E+03  0.74653279108E+02  0.22203888551E+03  0.17120000000E+03 0.  0.
        998    1    1    2    0    0 -0.14352713443E+01 -0.38801685079E+01  0.11522456080E+04  0.11522964275E+04  0.10000000000E+02 0.  1.
</event>
<event>
 5    1  0.1145138E-008  0.3827001E+03  0.7957747E-01  0.3439485E+00
         13   -1    0    0    0    0  0.00000000000E+00  0.00000000000E+00  0.14999999963E+04  0.15000000000E+04  0.10566000000E+00 0. -1.
        994   -1    0    0    0    0 -0.00000000000E+00 -0.00000000000E+00  0.11368683772E-12  0.17120000000E+03  0.17120000000E+03 0.  0.
         13    1    1    2    0    0  0.25052845046E+02  0.10478297829E+02  0.13025070027E+03  0.13305147821E+03  0.10566000000E+00 0. -1.
        994    1    1    2    0    0 -0.16929540121E+02 -0.67494807308E+01  0.38776616088E+01  0.17221103646E+03  0.17120000000E+03 0.  0.
        998    1    1    2    0    0 -0.81233049255E+01 -0.37288170986E+01  0.13658716344E+04  0.13659374853E+04  0.10000000000E+02 0. -1.
</event>
<event>
 5    1  0.1145138E-008  0.3253170E+03  0.7957747E-01  0.3730364E+00
         13   -1    0    0    0    0  0.00000000000E+00  0.00000000000E+00  0.14999999963E+04  0.15000000000E+04  0.10566000000E+00 0.  1.
        994   -1    0    0    0    0 -0.00000000000E+00 -0.00000000000E+00  0.11368683772E-12  0.17120000000E+03  0.17120000000E+03 0.  0.
         13    1    1    2    0    0 -0.18229127346E+03 -0.11189548436E+03  0.10574201435E+04  0.10788364468E+04  0.10566000000E+00 0.  1.
        994    1    1    2    0    0  0.15432811273E+03 -0.54052130082E+01  0.14818184373E+03  0.27406875327E+03  0.17120000000E+03 0.  0.
        998    1    1    2    0    0  0.27963160725E+02  0.11730069737E+03  0.29439800904E+03  0.31829479997E+03  0.10000000000E+02 0.  1.
</event>
<event>
 5    1  0.1145138E-008  0.3850508E+03  0.7957747E-01  0.3429457E+00
         13   -1    0    0    0    0  0.00000000000E+00  0.00000000000E+00  0.14999999963E+04  0.15000000000E+04  0.10566000000E+00 0.  1.
        994   -1    0    0    0    0 -0.00000000000E+00 -0.00000000000E+00  0.11368683772E-12  0.17120000000E+03  0.17120000000E+03 0.  0.
         13    1    1    2    0    0 -0.10059507566E+02 -0.39996007103E+01  0.36359213873E+02  0.37936711716E+02  0.10566000000E+00 0.  1.
        994    1    1    2    0    0  0.56977372665E+01  0.56639464705E+01  0.18171879277E+01  0.17139803579E+03  0.17120000000E+03 0.  0.
        998    1    1    2    0    0  0.43617702996E+01 -0.16643457602E+01  0.14618235945E+04  0.14618652525E+04  0.10000000000E+02 0.  1.
</event>
<event>
 5    1  0.1145138E-008  0.3761900E+03  0.7957747E-01  0.3467918E+00
         13   -1    0    0    0    0  0.00000000000E+00  0.00000000000E+00  0.14999999963E+04  0.15000000000E+04  0.10566000000E+00 0. -1.
        994   -1    0    0    0    0 -0.00000000000E+00 -0.00000000000E+00  0.11368683772E-12  0.17120000000E+03  0.17120000000E+03 0.  0.
         13    1    1    2    0    0 -0.33533412110E+02  0.35858357985E+02  0.17007292165E+03  0.17701729127E+03  0.10566000000E+00 0. -1.
        994    1    1    2    0    0  0.35970175871E+02 -0.40787268992E+02  0.16148188141E+02  0.18035425929E+03  0.17120000000E+03 0.  0.
        998    1    1    2    0    0 -0.24367637614E+01  0.49289110070E+01  0.13137788865E+04  0.13138284494E+04  0.10000000000E+02 0.  0.
</event>
<event>
 5    1  0.1145138E-008  0.3712740E+03  0.7957747E-01  0.3490056E+00
         13   -1    0    0    0    0  0.00000000000E+00  0.00000000000E+00  0.14999999963E+04  0.15000000000E+04  0.10566000000E+00 0.  1.
        994   -1    0    0    0    0 -0.00000000000E+00 -0.00000000000E+00  0.11368683772E-12  0.17120000000E+03  0.17120000000E+03 0.  0.
         13    1    1    2    0    0  0.33355401863E+02 -0.31441725794E+02  0.83757439145E+02  0.95480284512E+02  0.10566000000E+00 0.  1.
        994    1    1    2    0    0 -0.20794750605E+02  0.35016320094E+02  0.17460972457E+02  0.17684142582E+03  0.17120000000E+03 0.  0.
        998    1    1    2    0    0 -0.12560651259E+02 -0.35745943002E+01  0.13987815847E+04  0.13988782897E+04  0.10000000000E+02 0.  1.
</event>
<event>
 5    1  0.1145138E-008  0.4428305E+03  0.7957747E-01  0.3216215E+00
         13   -1    0    0    0    0  0.00000000000E+00  0.00000000000E+00  0.14999999963E+04  0.15000000000E+04  0.10566000000E+00 0. -1.
        994   -1    0    0    0    0 -0.00000000000E+00 -0.00000000000E+00  0.11368683772E-12  0.17120000000E+03  0.17120000000E+03 0.  0.
         13    1    1    2    0    0 -0.66913927128E+02 -0.11624049052E+02  0.20025024243E+02  0.70806814079E+02  0.10566000000E+00 0. -1.
        994    1    1    2    0    0  0.82210423271E+02  0.18084724623E+02  0.91147835793E+02  0.21143078993E+03  0.17120000000E+03 0.  0.
        998    1    1    2    0    0 -0.15296496143E+02 -0.64606755719E+01  0.13888271362E+04  0.13889623960E+04  0.10000000000E+02 0. -1.
</event>
<event>
 5    1  0.1145138E-008  0.3844818E+03  0.7957747E-01  0.3431873E+00
         13   -1    0    0    0    0  0.00000000000E+00  0.00000000000E+00  0.14999999963E+04  0.15000000000E+04  0.10566000000E+00 0.  1.
        994   -1    0    0    0    0 -0.00000000000E+00 -0.00000000000E+00  0.11368683772E-12  0.17120000000E+03  0.17120000000E+03 0.  0.
         13    1    1    2    0    0 -0.10961277692E+02 -0.63151158238E+01  0.42553814465E+02  0.44394465715E+02  0.10566000000E+00 0.  1.
        994    1    1    2    0    0  0.28485039074E+01  0.73027135119E+01  0.20900492575E+01  0.17139209989E+03  0.17120000000E+03 0.  0.
        998    1    1    2    0    0  0.81127737844E+01 -0.98759768817E+00  0.14553561326E+04  0.14554134344E+04  0.10000000000E+02 0.  1.
</event>
<event>
 5    1  0.1411260E-008  0.3864938E+03  0.7957747E-01  0.3423361E+00
         13   -1    0    0    0    0  0.00000000000E+00  0.00000000000E+00  0.14999999963E+04  0.15000000000E+04  0.10566000000E+00 0. -1.
        994   -1    0    0    0    0 -0.00000000000E+00 -0.00000000000E+00  0.11368683772E-12  0.17120000000E+03  0.17120000000E+03 0.  0.
         13    1    1    2    0    0 -0.30292802005E+01  0.99788405081E+01  0.62716161021E+02  0.63577368723E+02  0.10566000000E+00 0. -1.
        994    1    1    2    0    0  0.75340322494E+01 -0.44611331228E+01  0.11412356852E+01  0.17142755254E+03  0.17120000000E+03 0.  0.
        998    1    1    2    0    0 -0.45047520489E+01 -0.55177073854E+01  0.14361425996E+04  0.14361950787E+04  0.10000000000E+02 0. -1.
</event>
<event>
 5    1  0.1145138E-008  0.3759245E+03  0.7957747E-01  0.3469098E+00
         13   -1    0    0    0    0  0.00000000000E+00  0.00000000000E+00  0.14999999963E+04  0.15000000000E+04  0.10566000000E+00 0. -1.
        994   -1    0    0    0    0 -0.00000000000E+00 -0.00000000000E+00  0.11368683772E-12  0.17120000000E+03  0.17120000000E+03 0.  0.
         13    1    1    2    0    0 -0.10238432649E+03 -0.76349601853E+02  0.69592021878E+03  0.70754277191E+03  0.10566000000E+00 0. -1.
        994    1    1    2    0    0  0.95242342639E+02  0.81301368375E+02  0.61342264853E+02  0.22080156202E+03  0.17120000000E+03 0.  0.
        998    1    1    2    0    0  0.71419838507E+01 -0.49517665224E+01  0.74273751265E+03  0.74285566608E+03  0.10000000000E+02 0.  0.
</event>
<event>
 5    1  0.1145138E-008  0.3825339E+03  0.7957747E-01  0.3440199E+00
         13   -1    0    0    0    0  0.00000000000E+00  0.00000000000E+00  0.14999999963E+04  0.15000000000E+04  0.10566000000E+00 0.  1.
        994   -1    0    0    0    0 -0.00000000000E+00 -0.00000000000E+00  0.11368683772E-12  0.17120000000E+03  0.17120000000E+03 0.  0.
         13    1    1    2    0    0 -0.20764758102E+02 -0.11396254002E+02  0.10751671669E+03  0.11009498315E+03  0.10566000000E+00 0.  1.
        994    1    1    2    0    0  0.36032048885E+01 -0.87224137778E+01  0.31548224826E+01  0.17148893985E+03  0.17120000000E+03 0.  0.
        998    1    1    2    0    0  0.17161553213E+02  0.20118667780E+02  0.13893284571E+04  0.13896160770E+04  0.10000000000E+02 0.  1.
</event>
<event>
 5    1  0.1145138E-008  0.3832569E+03  0.7957747E-01  0.3437098E+00
         13   -1    0    0    0    0  0.00000000000E+00  0.00000000000E+00  0.14999999963E+04  0.15000000000E+04  0.10566000000E+00 0. -1.
        994   -1    0    0    0    0 -0.00000000000E+00 -0.00000000000E+00  0.11368683772E-12  0.17120000000E+03  0.17120000000E+03 0.  0.
         13    1    1    2    0    0 -0.23446282596E+02  0.44809310834E+01  0.11127243837E+03  0.11380410193E+03  0.10566000000E+00 0. -1.
        994    1    1    2    0    0  0.15844055886E+02 -0.10288824203E+02  0.36792678822E+01  0.17227846941E+03  0.17120000000E+03 0.  0.
        998    1    1    2    0    0  0.76022267102E+01  0.58078931196E+01  0.13850482900E+04  0.13851174287E+04  0.10000000000E+02 0. -1.
</event>
<event>
 5    1  0.1145138E-008  0.3726937E+03  0.7957747E-01  0.3483602E+00
         13   -1    0    0    0    0  0.00000000000E+00  0.00000000000E+00  0.14999999963E+04  0.15000000000E+04  0.10566000000E+00 0.  1.
        994   -1    0    0    0    0 -0.00000000000E+00 -0.00000000000E+00  0.11368683772E-12  0.17120000000E+03  0.17120000000E+03 0.  0.
         13    1    1    2    0    0 -0.17927568233E+02  0.60883563301E+02  0.32169184410E+03  0.32789306139E+03  0.10566000000E+00 0.  1.
        994    1    1    2    0    0  0.23530085681E+02  0.75577101948E+00  0.97689277132E+01  0.17308699567E+03  0.17120000000E+03 0.  0.
        998    1    1    2    0    0 -0.56025174477E+01 -0.61639334320E+02  0.11685392245E+04  0.11702199429E+04  0.10000000000E+02 0.  1.
</event>
<event>
 5    1  0.1145138E-008  0.3696895E+03  0.7957747E-01  0.3497319E+00
         13   -1    0    0    0    0  0.00000000000E+00  0.00000000000E+00  0.14999999963E+04  0.15000000000E+04  0.10566000000E+00 0. -1.
        994   -1    0    0    0    0 -0.00000000000E+00 -0.00000000000E+00  0.11368683772E-12  0.17120000000E+03  0.17120000000E+03 0.  0.
         13    1    1    2    0    0 -0.11175560131E+03  0.53673656662E+02  0.55649799321E+03  0.57014051203E+03  0.10566000000E+00 0. -1.
        994    1    1    2    0    0  0.10132294921E+03 -0.48248158332E+02  0.54380402548E+02  0.21180390223E+03  0.17120000000E+03 0.  0.
        998    1    1    2    0    0  0.10432652100E+02 -0.54254983309E+01  0.88912160052E+03  0.88925558574E+03  0.10000000000E+02 0.  0.
</event>
<event>
 5    1  0.1145138E-008  0.3741340E+03  0.7957747E-01  0.3477105E+00
         13   -1    0    0    0    0  0.00000000000E+00  0.00000000000E+00  0.14999999963E+04  0.15000000000E+04  0.10566000000E+00 0. -1.
        994   -1    0    0    0    0 -0.00000000000E+00 -0.00000000000E+00  0.11368683772E-12  0.17120000000E+03  0.17120000000E+03 0.  0.
         13    1    1    2    0    0 -0.49377782901E+01  0.11703950285E+02 -0.12299403430E-01  0.12703362627E+02  0.10566000000E+00 0. -1.
        994    1    1    2    0    0 -0.25600145454E+00 -0.19774737579E+02  0.14530236751E+02  0.17294991634E+03  0.17120000000E+03 0.  0.
        998    1    1    2    0    0  0.51937797447E+01  0.80707872939E+01  0.14854820589E+04  0.14855467210E+04  0.10000000000E+02 0. -1.
</event>
<event>
 5    1  0.1145138E-008  0.3774354E+03  0.7957747E-01  0.3462402E+00
         13   -1    0    0    0    0  0.00000000000E+00  0.00000000000E+00  0.14999999963E+04  0.15000000000E+04  0.10566000000E+00 0.  1.
        994   -1    0    0    0    0 -0.00000000000E+00 -0.00000000000E+00  0.11368683772E-12  0.17120000000E+03  0.17120000000E+03 0.  0.
         13    1    1    2    0    0 -0.78794507492E+01 -0.84478203136E+01  0.10020245658E+02  0.15292740083E+02  0.10566000000E+00 0.  1.
        994    1    1    2    0    0  0.44443219776E+01 -0.34989837872E+01  0.55412417598E+01  0.17138302205E+03  0.17120000000E+03 0.  0.
        998    1    1    2    0    0  0.34351287716E+01  0.11946804101E+02  0.14844385089E+04  0.14845242379E+04  0.10000000000E+02 0.  1.
</event>
<event>
 5    1  0.1145138E-008  0.4355922E+03  0.7957747E-01  0.3239884E+00
         13   -1    0    0    0    0  0.00000000000E+00  0.00000000000E+00  0.14999999963E+04  0.15000000000E+04  0.10566000000E+00 0.  1.
        994   -1    0    0    0    0 -0.00000000000E+00 -0.00000000000E+00  0.11368683772E-12  0.17120000000E+03  0.17120000000E+03 0.  0.
         13    1    1    2    0    0 -0.71549178475E+02  0.44692411746E+02  0.52158829512E+02  0.99182918228E+02  0.10566000000E+00 0.  1.
        994    1    1    2    0    0  0.66248582941E+02 -0.52926456122E+02  0.85000089547E+02  0.20910413607E+03  0.17120000000E+03 0.  0.
        998    1    1    2    0    0  0.53005955341E+01  0.82340443760E+01  0.13628410772E+04  0.13629129457E+04  0.10000000000E+02 0.  1.
</event>
<event>
 5    1  0.1145138E-008  0.3800074E+03  0.7957747E-01  0.3451126E+00
         13   -1    0    0    0    0  0.00000000000E+00  0.00000000000E+00  0.14999999963E+04  0.15000000000E+04  0.10566000000E+00 0. -1.
        994   -1    0    0    0    0 -0.00000000000E+00 -0.00000000000E+00  0.11368683772E-12  0.17120000000E+03  0.17120000000E+03 0.  0.
         13    1    1    2    0    0 -0.12877546245E+02  0.12682738141E+02  0.36652762423E+02  0.40867091912E+02  0.10566000000E+00 0. -1.
        994    1    1    2    0    0  0.17701859984E+02 -0.14343834849E+02  0.58665843020E+01  0.17280902250E+03  0.17120000000E+03 0.  0.
        998    1    1    2    0    0 -0.48243137388E+01  0.16610967076E+01  0.14574806496E+04  0.14575238856E+04  0.10000000000E+02 0. -1.
</event>
<event>
 5    1  0.1145138E-008  0.3822300E+03  0.7957747E-01  0.3441506E+00
         13   -1    0    0    0    0  0.00000000000E+00  0.00000000000E+00  0.14999999963E+04  0.15000000000E+04  0.10566000000E+00 0. -1.
        994   -1    0    0    0    0 -0.00000000000E+00 -0.00000000000E+00  0.11368683772E-12  0.17120000000E+03  0.17120000000E+03 0.  0.
         13    1    1    2    0    0 -0.99605636058E+01  0.35610305403E+02  0.22042023880E+03  0.22350033448E+03  0.10566000000E+00 0. -1.
        994    1    1    2    0    0  0.12449108745E+02 -0.21677456800E+02  0.50881165755E+01  0.17309021166E+03  0.17120000000E+03 0.  0.
        998    1    1    2    0    0 -0.24885451392E+01 -0.13932848603E+02  0.12744916409E+04  0.12746094539E+04  0.10000000000E+02 0. -1.
</event>
<event>
 5    1  0.1145138E-008  0.3705235E+03  0.7957747E-01  0.3493489E+00
         13   -1    0    0    0    0  0.00000000000E+00  0.00000000000E+00  0.14999999963E+04  0.15000000000E+04  0.10566000000E+00 0. -1.
        994   -1    0    0    0    0 -0.00000000000E+00 -0.00000000000E+00  0.11368683772E-12  0.17120000000E+03  0.17120000000E+03 0.  0.
         13    1    1    2    0    0 -0.14884586278E+02 -0.14392477183E+02  0.19653011187E+02  0.28547264683E+02  0.10566000000E+00 0. -1.
        994    1    1    2    0    0  0.14939001697E+02  0.15999711736E+02  0.10651252925E+02  0.17292210309E+03  0.17120000000E+03 0.  0.
        998    1    1    2    0    0 -0.54415418640E-01 -0.16072345525E+01  0.14696957322E+04  0.14697306322E+04  0.10000000000E+02 0. -1.
</event>
<event>
 5    1  0.1145138E-008  0.3757378E+03  0.7957747E-01  0.3469930E+00
         13   -1    0    0    0    0  0.00000000000E+00  0.00000000000E+00  0.14999999963E+04  0.15000000000E+04  0.10566000000E+00 0.  1.
        994   -1    0    0    0    0 -0.00000000000E+00 -0.00000000000E+00  0.11368683772E-12  0.17120000000E+03  0.17120000000E+03 0.  0.
         13    1    1    2    0    0 -0.22789223920E+02 -0.43449880061E+02  0.20360155537E+03  0.20942981000E+03  0.10566000000E+00 0.  1.
        994    1    1    2    0    0  0.57254766237E+01  0.15607814094E+02  0.72380688643E+01  0.17215752840E+03  0.17120000000E+03 0.  0.
        998    1    1    2    0    0  0.17063747296E+02  0.27842065967E+02  0.12891603720E+04  0.12896126616E+04  0.10000000000E+02 0.  1.
</event>
<event>
 5    1  0.1145138E-008  0.3855806E+03  0.7957747E-01  0.3427214E+00
         13   -1    0    0    0    0  0.00000000000E+00  0.00000000000E+00  0.14999999963E+04  0.15000000000E+04  0.10566000000E+00 0.  1.
        994   -1    0    0    0    0 -0.00000000000E+00 -0.00000000000E+00  0.11368683772E-12  0.17120000000E+03  0.17120000000E+03 0.  0.
         13    1    1    2    0    0 -0.14575803544E+02  0.61486052387E+01  0.90638406689E+02  0.92008648107E+02  0.10566000000E+00 0.  1.
        994    1    1    2    0    0  0.18424769552E+02  0.59469462979E+01  0.25735200862E+01  0.17231047939E+03  0.17120000000E+03 0.  0.
        998    1    1    2    0    0 -0.38489660085E+01 -0.12095551537E+02  0.14067880695E+04  0.14068808725E+04  0.10000000000E+02 0.  1.
</event>
<event>
 5    1  0.1145138E-008  0.3719607E+03  0.7957747E-01  0.3486928E+00
         13   -1    0    0    0    0  0.00000000000E+00  0.00000000000E+00  0.14999999963E+04  0.15000000000E+04  0.10566000000E+00 0.  1.
        994   -1    0    0    0    0 -0.00000000000E+00 -0.00000000000E+00  0.11368683772E-12  0.17120000000E+03  0.17120000000E+03 0.  0.
         13    1    1    2    0    0  0.33066554351E+02  0.11491233676E+03  0.56433816190E+03  0.57686724148E+03  0.10566000000E+00 0.  1.
        994    1    1    2    0    0 -0.60148414949E+02 -0.10141625783E+03  0.57621842855E+02  0.21571464008E+03  0.17120000000E+03 0.  0.
        998    1    1    2    0    0  0.27081860598E+02 -0.13496078936E+02  0.87803999153E+03  0.87861811843E+03  0.10000000000E+02 0.  1.
</event>
<event>
 5    1  0.1145138E-008  0.3694244E+03  0.7957747E-01  0.3498540E+00
         13   -1    0    0    0    0  0.00000000000E+00  0.00000000000E+00  0.14999999963E+04  0.15000000000E+04  0.10566000000E+00 0. -1.
        994   -1    0    0    0    0 -0.00000000000E+00 -0.00000000000E+00  0.11368683772E-12  0.17120000000E+03  0.17120000000E+03 0.  0.
         13    1    1    2    0    0 -0.92614542453E+01  0.82614615321E+01  0.37488478403E+01  0.12965003106E+02  0.10566000000E+00 0. -1.
        994    1    1    2    0    0  0.25003277781E+01  0.31038235588E+01  0.96252800770E+01  0.17151667959E+03  0.17120000000E+03 0.  0.
        998    1    1    2    0    0  0.67611264672E+01 -0.11365285091E+02  0.14866258684E+04  0.14867183173E+04  0.10000000000E+02 0. -1.
</event>
<event>
 5    1  0.1145138E-008  0.4077016E+03  0.7957747E-01  0.3338751E+00
         13   -1    0    0    0    0  0.00000000000E+00  0.00000000000E+00  0.14999999963E+04  0.15000000000E+04  0.10566000000E+00 0. -1.
        994   -1    0    0    0    0 -0.00000000000E+00 -0.00000000000E+00  0.11368683772E-12  0.17120000000E+03  0.17120000000E+03 0.  0.
         13    1    1    2    0    0  0.33834625270E+02 -0.32414612119E+02  0.23587686826E+02  0.52458355672E+02  0.10566000000E+00 0. -1.
        994    1    1    2    0    0 -0.27136475223E+02 -0.20718376141E+02  0.37189984633E+02  0.17848858326E+03  0.17120000000E+03 0.  0.
        998    1    1    2    0    0 -0.66981500467E+01  0.53132988260E+02  0.14392223248E+04  0.14402530611E+04  0.10000000000E+02 0. -1.
</event>
<event>
 5    1  0.1145138E-008  0.3811289E+03  0.7957747E-01  0.3446258E+00
         13   -1    0    0    0    0  0.00000000000E+00  0.00000000000E+00  0.14999999963E+04  0.15000000000E+04  0.10566000000E+00 0.  1.
        994   -1    0    0    0    0 -0.00000000000E+00 -0.00000000000E+00  0.11368683772E-12  0.17120000000E+03  0.17120000000E+03 0.  0.
         13    1    1    2    0    0 -0.21782536120E+02  0.10171712174E+00  0.63715192014E+02  0.67335919713E+02  0.10566000000E+00 0.  1.
        994    1    1    2    0    0  0.20386560655E+02  0.36592396416E+02  0.94302690851E+01  0.17650208301E+03  0.17120000000E+03 0.  0.
        998    1    1    2    0    0  0.13959754653E+01 -0.36694113538E+02  0.14268545352E+04  0.14273619973E+04  0.10000000000E+02 0.  1.
</event>
<event>
 5    1  0.1145138E-008  0.3796945E+03  0.7957747E-01  0.3452490E+00
         13   -1    0    0    0    0  0.00000000000E+00  0.00000000000E+00  0.14999999963E+04  0.15000000000E+04  0.10566000000E+00 0.  1.
        994   -1    0    0    0    0 -0.00000000000E+00 -0.00000000000E+00  0.11368683772E-12  0.17120000000E+03  0.17120000000E+03 0.  0.
         13    1    1    2    0    0 -0.40941108925E+02  0.13921304583E+02  0.20388545514E+03  0.20842088932E+03  0.10566000000E+00 0.  1.
        994    1    1    2    0    0  0.41957723938E+02  0.16410822501E+02  0.11109762961E+02  0.17737709132E+03  0.17120000000E+03 0.  0.
        998    1    1    2    0    0 -0.10166150130E+01 -0.30332127084E+02  0.12850047782E+04  0.12854020194E+04  0.10000000000E+02 0.  1.
</event>
<event>
 5    1  0.1145138E-008  0.3963499E+03  0.7957747E-01  0.3382917E+00
         13   -1    0    0    0    0  0.00000000000E+00  0.00000000000E+00  0.14999999963E+04  0.15000000000E+04  0.10566000000E+00 0.  1.
        994   -1    0    0    0    0 -0.00000000000E+00 -0.00000000000E+00  0.11368683772E-12  0.17120000000E+03  0.17120000000E+03 0.  0.
         13    1    1    2    0    0  0.10925984620E+02 -0.26416289377E+02  0.49807582629E+01  0.29017522314E+02  0.10566000000E+00 0.  1.
        994    1    1    2    0    0 -0.18117487027E+02  0.25045201362E+02  0.29309005793E+02  0.17641984942E+03  0.17120000000E+03 0.  0.
        998    1    1    2    0    0  0.71915024069E+01  0.13710880150E+01  0.14657102322E+04  0.14657626283E+04  0.10000000000E+02 0.  1.
</event>
<event>
 5    1  0.1145138E-008  0.3786885E+03  0.7957747E-01  0.3456889E+00
         13   -1    0    0    0    0  0.00000000000E+00  0.00000000000E+00  0.14999999963E+04  0.15000000000E+04  0.10566000000E+00 0. -1.
        994   -1    0    0    0    0 -0.00000000000E+00 -0.00000000000E+00  0.11368683772E-12  0.17120000000E+03  0.17120000000E+03 0.  0.
         13    1    1    2    0    0 -0.11629317365E+02  0.73484070587E+02  0.40129457115E+03  0.40813293625E+03  0.10566000000E+00 0. -1.
        994    1    1    2    0    0  0.17150173878E+02 -0.77100371200E+02  0.26036378096E+02  0.19033110279E+03  0.17120000000E+03 0.  0.
        998    1    1    2    0    0 -0.55208565135E+01  0.36163006124E+01  0.10726690470E+04  0.10727359610E+04  0.10000000000E+02 0. -1.
</event>
<event>
 5    1  0.1145138E-008  0.3784140E+03  0.7957747E-01  0.3458094E+00
         13   -1    0    0    0    0  0.00000000000E+00  0.00000000000E+00  0.14999999963E+04  0.15000000000E+04  0.10566000000E+00 0.  1.
        994   -1    0    0    0    0 -0.00000000000E+00 -0.00000000000E+00  0.11368683772E-12  0.17120000000E+03  0.17120000000E+03 0.  0.
         13    1    1    2    0    0 -0.52210757356E+02  0.11057387828E+02  0.27354443553E+03  0.27870198848E+03  0.10566000000E+00 0.  1.
        994    1    1    2    0    0  0.35450965711E+02 -0.76374462151E+01  0.93680777425E+01  0.17524925802E+03  0.17120000000E+03 0.  0.
        998    1    1    2    0    0  0.16759791645E+02 -0.34199416130E+01  0.12170874830E+04  0.12172487535E+04  0.10000000000E+02 0.  1.
</event>
<event>
 5    1  0.1145138E-008  0.3821563E+03  0.7957747E-01  0.3441823E+00
         13   -1    0    0    0    0  0.00000000000E+00  0.00000000000E+00  0.14999999963E+04  0.15000000000E+04  0.10566000000E+00 0.  1.
        994   -1    0    0    0    0 -0.00000000000E+00 -0.00000000000E+00  0.11368683772E-12  0.17120000000E+03  0.17120000000E+03 0.  0.
         13    1    1    2    0    0  0.24606583918E+02  0.11241274561E+02  0.12159978143E+03  0.12457274274E+03  0.10566000000E+00 0.  1.
        994    1    1    2    0    0 -0.84309924974E+01 -0.13328436826E+02  0.38746387141E+01  0.17196854854E+03  0.17120000000E+03 0.  0.
        998    1    1    2    0    0 -0.16175591421E+02  0.20871622648E+01  0.13745255761E+04  0.13746587087E+04  0.10000000000E+02 0.  1.
</event>
<event>
 5    1  0.1145138E-008  0.3809316E+03  0.7957747E-01  0.3447112E+00
         13   -1    0    0    0    0  0.00000000000E+00  0.00000000000E+00  0.14999999963E+04  0.15000000000E+04  0.10566000000E+00 0. -1.
        994   -1    0    0    0    0 -0.00000000000E+00 -0.00000000000E+00  0.11368683772E-12  0.17120000000E+03  0.17120000000E+03 0.  0.
         13    1    1    2    0    0  0.19219286573E+02 -0.75344719485E+02  0.40482346909E+03  0.41222355588E+03  0.10566000000E+00 0. -1.
        994    1    1    2    0    0 -0.18654660098E+02  0.11055121685E+03  0.46755768962E+02  0.20991691171E+03  0.17120000000E+03 0.  0.
        998    1    1    2    0    0 -0.56462647457E+00 -0.35206497370E+02  0.10484207582E+04  0.10490595324E+04  0.10000000000E+02 0. -1.
</event>
<event>
 5    1  0.1145138E-008  0.3726292E+03  0.7957747E-01  0.3483894E+00
         13   -1    0    0    0    0  0.00000000000E+00  0.00000000000E+00  0.14999999963E+04  0.15000000000E+04  0.10566000000E+00 0. -1.
        994   -1    0    0    0    0 -0.00000000000E+00 -0.00000000000E+00  0.11368683772E-12  0.17120000000E+03  0.17120000000E+03 0.  0.
         13    1    1    2    0    0  0.69704529853E+01  0.14899403783E+02  0.14277144218E+02  0.21781355765E+02  0.10566000000E+00 0. -1.
        994    1    1    2    0    0  0.10066558861E+02  0.43069144975E+01  0.83121330864E+01  0.17175103108E+03  0.17120000000E+03 0.  0.
        998    1    1    2    0    0 -0.17037011846E+02 -0.19206318280E+02  0.14774107190E+04  0.14776676132E+04  0.10000000000E+02 0. -1.
</event>
<event>
 5    1  0.1145138E-008  0.3846513E+03  0.7957747E-01  0.3431152E+00
         13   -1    0    0    0    0  0.00000000000E+00  0.00000000000E+00  0.14999999963E+04  0.15000000000E+04  0.10566000000E+00 0. -1.
        994   -1    0    0    0    0 -0.00000000000E+00 -0.00000000000E+00  0.11368683772E-12  0.17120000000E+03  0.17120000000E+03 0.  0.
         13    1    1    2    0    0  0.88221150288E+01  0.55147905290E+02  0.80218257749E+02  0.97745082801E+02  0.10566000000E+00 0. -1.
        994    1    1    2    0    0  0.37574731585E+02 -0.25546915560E+02  0.26555812477E+02  0.17910655076E+03  0.17120000000E+03 0.  0.
        998    1    1    2    0    0 -0.46396846614E+02 -0.29600989731E+02  0.13932259261E+04  0.13943483664E+04  0.10000000000E+02 0. -1.
</event>
<event>
 5    1  0.1145138E-008  0.3839824E+03  0.7957747E-01  0.3433999E+00
         13   -1    0    0    0    0  0.00000000000E+00  0.00000000000E+00  0.14999999963E+04  0.15000000000E+04  0.10566000000E+00 0.  1.
        994   -1    0    0    0    0 -0.00000000000E+00 -0.00000000000E+00  0.11368683772E-12  0.17120000000E+03  0.17120000000E+03 0.  0.
         13    1    1    2    0    0 -0.81649424524E+01  0.18173719577E+02  0.94947700157E+02  0.97015603372E+02  0.10566000000E+00 0.  1.
        994    1    1    2    0    0  0.14333939797E+02 -0.32976458450E+01  0.28503336375E+01  0.17185430079E+03  0.17120000000E+03 0.  0.
        998    1    1    2    0    0 -0.61689973450E+01 -0.14876073732E+02  0.14022019625E+04  0.14023300958E+04  0.10000000000E+02 0.  1.
</event>
<event>
 5    1  0.1378135E-008  0.3860689E+03  0.7957747E-01  0.3425152E+00
         13   -1    0    0    0    0  0.00000000000E+00  0.00000000000E+00  0.14999999963E+04  0.15000000000E+04  0.10566000000E+00 0. -1.
        994   -1    0    0    0    0 -0.00000000000E+00 -0.00000000000E+00  0.11368683772E-12  0.17120000000E+03  0.17120000000E+03 0.  0.
         13    1    1    2    0    0 -0.20992350092E+01  0.11594097305E+02  0.63274006065E+02  0.64361796802E+02  0.10566000000E+00 0. -1.
        994    1    1    2    0    0  0.42321466021E+01 -0.85524127574E+01  0.13988603720E+01  0.17147143097E+03  0.17120000000E+03 0.  0.
        998    1    1    2    0    0 -0.21329115930E+01 -0.30416845474E+01  0.14353271298E+04  0.14353667722E+04  0.10000000000E+02 0. -1.
</event>
<event>
 5    1  0.1145138E-008  0.3812478E+03  0.7957747E-01  0.3445743E+00
         13   -1    0    0    0    0  0.00000000000E+00  0.00000000000E+00  0.14999999963E+04  0.15000000000E+04  0.10566000000E+00 0. -1.
        994   -1    0    0    0    0 -0.00000000000E+00 -0.00000000000E+00  0.11368683772E-12  0.17120000000E+03  0.17120000000E+03 0.  0.
         13    1    1    2    0    0 -0.41772342431E+02 -0.11251910559E+02  0.21573859723E+03  0.22003337833E+03  0.10566000000E+00 0. -1.
        994    1    1    2    0    0  0.46547734926E+02  0.23580449550E+02  0.12622726682E+02  0.17941990541E+03  0.17120000000E+03 0.  0.
        998    1    1    2    0    0 -0.47753924956E+01 -0.12328538991E+02  0.12716386724E+04  0.12717467163E+04  0.10000000000E+02 0. -1.
</event>
<event>
 5    1  0.1343638E-008  0.3848906E+03  0.7957747E-01  0.3430137E+00
         13   -1    0    0    0    0  0.00000000000E+00  0.00000000000E+00  0.14999999963E+04  0.15000000000E+04  0.10566000000E+00 0. -1.
        994   -1    0    0    0    0 -0.00000000000E+00 -0.00000000000E+00  0.11368683772E-12  0.17120000000E+03  0.17120000000E+03 0.  0.
         13    1    1    2    0    0 -0.98788969149E+01 -0.48959743506E+01  0.35589544264E+02  0.37258421787E+02  0.10566000000E+00 0. -1.
        994    1    1    2    0    0  0.71026700928E+01  0.62354667508E+01  0.19784174377E+01  0.17147210591E+03  0.17120000000E+03 0.  0.
        998    1    1    2    0    0  0.27762268222E+01 -0.13394924002E+01  0.14624320346E+04  0.14624694723E+04  0.10000000000E+02 0. -1.
</event>
<event>
 5    1  0.1145138E-008  0.3696201E+03  0.7957747E-01  0.3497639E+00
         13   -1    0    0    0    0  0.00000000000E+00  0.00000000000E+00  0.14999999963E+04  0.15000000000E+04  0.10566000000E+00 0. -1.
        994   -1    0    0    0    0 -0.00000000000E+00 -0.00000000000E+00  0.11368683772E-12  0.17120000000E+03  0.17120000000E+03 0.  0.
         13    1    1    2    0    0  0.56688023858E+02  0.35868507085E+02  0.24258561629E+03  0.25169003604E+03  0.10566000000E+00 0. -1.
        994    1    1    2    0    0 -0.14422405546E+02 -0.40819198379E+02  0.15984737426E+02  0.17731092625E+03  0.17120000000E+03 0.  0.
        998    1    1    2    0    0 -0.42265618312E+02  0.49506912946E+01  0.12414296426E+04  0.12421990377E+04  0.10000000000E+02 0. -1.
</event>
<event>
 5    1  0.1145138E-008  0.3853067E+03  0.7957747E-01  0.3428373E+00
         13   -1    0    0    0    0  0.00000000000E+00  0.00000000000E+00  0.14999999963E+04  0.15000000000E+04  0.10566000000E+00 0.  1.
        994   -1    0    0    0    0 -0.00000000000E+00 -0.00000000000E+00  0.11368683772E-12  0.17120000000E+03  0.17120000000E+03 0.  0.
         13    1    1    2    0    0 -0.12266886164E+02 -0.57776169738E+01  0.60264603764E+02  0.61771279612E+02  0.10566000000E+00 0.  1.
        994    1    1    2    0    0  0.13841342543E+02  0.44920015182E+01  0.21739902816E+01  0.17183110043E+03  0.17120000000E+03 0.  0.
        998    1    1    2    0    0 -0.15744563788E+01  0.12856154557E+01  0.14375614022E+04  0.14375976200E+04  0.10000000000E+02 0.  1.
</event>
<event>
 5    1  0.1145138E-008  0.3926334E+03  0.7957747E-01  0.3397929E+00
         13   -1    0    0    0    0  0.00000000000E+00  0.00000000000E+00  0.14999999963E+04  0.15000000000E+04  0.10566000000E+00 0. -1.
        994   -1    0    0    0    0 -0.00000000000E+00 -0.00000000000E+00  0.11368683772E-12  0.17120000000E+03  0.17120000000E+03 0.  0.
         13    1    1    2    0    0 -0.33736611209E+01  0.79451129440E+02  0.11852704909E+03  0.14273239327E+03  0.10566000000E+00 0. -1.
        994    1    1    2    0    0 -0.53409725561E+01 -0.78021961544E+02  0.47089620503E+02  0.19401758897E+03  0.17120000000E+03 0.  0.
        998    1    1    2    0    0  0.87146336771E+01 -0.14291678960E+01  0.13343833267E+04  0.13344500178E+04  0.10000000000E+02 0. -1.
</event>
<event>
 5    1  0.1378523E-008  0.3844586E+03  0.7957747E-01  0.3431972E+00
         13   -1    0    0    0    0  0.00000000000E+00  0.00000000000E+00  0.14999999963E+04  0.15000000000E+04  0.10566000000E+00 0. -1.
        994   -1    0    0    0    0 -0.00000000000E+00 -0.00000000000E+00  0.11368683772E-12  0.17120000000E+03  0.17120000000E+03 0.  0.
         13    1    1    2    0    0 -0.76153115040E+01  0.70167167027E+01  0.27437077089E+02  0.29326296148E+02  0.10566000000E+00 0. -1.
        994    1    1    2    0    0  0.83907862343E+01 -0.58311383372E+01  0.22432306798E+01  0.17151932705E+03  0.17120000000E+03 0.  0.
        998    1    1    2    0    0 -0.77547473023E+00 -0.11855783655E+01  0.14703196885E+04  0.14703543768E+04  0.10000000000E+02 0. -1.
</event>
<event>
 5    1  0.1145138E-008  0.3780045E+03  0.7957747E-01  0.3459893E+00
         13   -1    0    0    0    0  0.00000000000E+00  0.00000000000E+00  0.14999999963E+04  0.15000000000E+04  0.10566000000E+00 0.  1.
        994   -1    0    0    0    0 -0.00000000000E+00 -0.00000000000E+00  0.11368683772E-12  0.17120000000E+03  0.17120000000E+03 0.  0.
         13    1    1    2    0    0  0.53498791767E+02  0.13184037445E+02  0.25005309036E+03  0.25605175009E+03  0.10566000000E+00 0.  1.
        994    1    1    2    0    0 -0.52566891273E+02 -0.83086659235E+01  0.14734811334E+02  0.17988570441E+03  0.17120000000E+03 0.  0.
        998    1    1    2    0    0 -0.93190049405E+00 -0.48753715220E+01  0.12352120946E+04  0.12352625455E+04  0.10000000000E+02 0.  1.
</event>
<event>
 5    1  0.1145138E-008  0.4048217E+03  0.7957747E-01  0.3349723E+00
         13   -1    0    0    0    0  0.00000000000E+00  0.00000000000E+00  0.14999999963E+04  0.15000000000E+04  0.10566000000E+00 0. -1.
        994   -1    0    0    0    0 -0.00000000000E+00 -0.00000000000E+00  0.11368683772E-12  0.17120000000E+03  0.17120000000E+03 0.  0.
         13    1    1    2    0    0 -0.90141974065E+02  0.12758759914E+03  0.32062718308E+03  0.35665946313E+03  0.10566000000E+00 0. -1.
        994    1    1    2    0    0  0.99160464443E+02 -0.98662410438E+02  0.11409571018E+03  0.24878573115E+03  0.17120000000E+03 0.  0.
        998    1    1    2    0    0 -0.90184903780E+01 -0.28925188701E+02  0.10652771030E+04  0.10657548057E+04  0.10000000000E+02 0. -1.
</event>
<event>
 5    1  0.1145138E-008  0.3781434E+03  0.7957747E-01  0.3459282E+00
         13   -1    0    0    0    0  0.00000000000E+00  0.00000000000E+00  0.14999999963E+04  0.15000000000E+04  0.10566000000E+00 0. -1.
        994   -1    0    0    0    0 -0.00000000000E+00 -0.00000000000E+00  0.11368683772E-12  0.17120000000E+03  0.17120000000E+03 0.  0.
         13    1    1    2    0    0  0.15766577298E+02 -0.32692242555E+02  0.13060351856E+03  0.13555315528E+03  0.10566000000E+00 0. -1.
        994    1    1    2    0    0 -0.14350919889E+02  0.13079315633E+02  0.63424229373E+01  0.17241427936E+03  0.17120000000E+03 0.  0.
        998    1    1    2    0    0 -0.14156574089E+01  0.19612926921E+02  0.13630540548E+04  0.13632325654E+04  0.10000000000E+02 0. -1.
</event>
<event>
 5    1  0.1145138E-008  0.3858658E+03  0.7957747E-01  0.3426008E+00
         13   -1    0    0    0    0  0.00000000000E+00  0.00000000000E+00  0.14999999963E+04  0.15000000000E+04  0.10566000000E+00 0.  1.
        994   -1    0    0    0    0 -0.00000000000E+00 -0.00000000000E+00  0.11368683772E-12  0.17120000000E+03  0.17120000000E+03 0.  0.
         13    1    1    2    0    0  0.11170248347E+02 -0.27667906779E+01  0.53382710249E+02  0.54609106350E+02  0.10566000000E+00 0.  1.
        994    1    1    2    0    0 -0.15090489463E+02 -0.21897690201E+01  0.19637833875E+01  0.17188895952E+03  0.17120000000E+03 0.  0.
        998    1    1    2    0    0  0.39202411154E+01  0.49565596981E+01  0.14446535026E+04  0.14447019341E+04  0.10000000000E+02 0.  1.
</event>
<event>
 5    1  0.1145138E-008  0.3768450E+03  0.7957747E-01  0.3465012E+00
         13   -1    0    0    0    0  0.00000000000E+00  0.00000000000E+00  0.14999999963E+04  0.15000000000E+04  0.10566000000E+00 0. -1.
        994   -1    0    0    0    0 -0.00000000000E+00 -0.00000000000E+00  0.11368683772E-12  0.17120000000E+03  0.17120000000E+03 0.  0.
         13    1    1    2    0    0  0.50451591736E+02 -0.88478797838E+01  0.21661086836E+03  0.22258465253E+03  0.10566000000E+00 0. -1.
        994    1    1    2    0    0 -0.36127056374E+02  0.49183404799E+01  0.10238272251E+02  0.17533857674E+03  0.17120000000E+03 0.  0.
        998    1    1    2    0    0 -0.14324535362E+02  0.39295393039E+01  0.12731508557E+04  0.12732767707E+04  0.10000000000E+02 0. -1.
</event>
<event>
 5    1  0.1145138E-008  0.3845777E+03  0.7957747E-01  0.3431465E+00
         13   -1    0    0    0    0  0.00000000000E+00  0.00000000000E+00  0.14999999963E+04  0.15000000000E+04  0.10566000000E+00 0. -1.
        994   -1    0    0    0    0 -0.00000000000E+00 -0.00000000000E+00  0.11368683772E-12  0.17120000000E+03  0.17120000000E+03 0.  0.
         13    1    1    2    0    0  0.14130214578E+02 -0.99461447068E+01  0.82899340019E+02  0.84681169679E+02  0.10566000000E+00 0. -1.
        994    1    1    2    0    0 -0.81564288498E+01  0.17457701200E+01  0.20690958462E+01  0.17141556581E+03  0.17120000000E+03 0.  0.
        998    1    1    2    0    0 -0.59737857287E+01  0.82003745867E+01  0.14150315604E+04  0.14151032645E+04  0.10000000000E+02 0. -1.
</event>
<event>
 5    1  0.1145138E-008  0.3833480E+03  0.7957747E-01  0.3436709E+00
         13   -1    0    0    0    0  0.00000000000E+00  0.00000000000E+00  0.14999999963E+04  0.15000000000E+04  0.10566000000E+00 0. -1.
        994   -1    0    0    0    0 -0.00000000000E+00 -0.00000000000E+00  0.11368683772E-12  0.17120000000E+03  0.17120000000E+03 0.  0.
         13    1    1    2    0    0  0.41310870818E+02 -0.10356447689E+03  0.60053782273E+03  0.61080101229E+03  0.10566000000E+00 0. -1.
        994    1    1    2    0    0 -0.55736579766E+02  0.15271785193E+03  0.95387513758E+02  0.25463213938E+03  0.17120000000E+03 0.  0.
        998    1    1    2    0    0  0.14425708947E+02 -0.49153375041E+02  0.80407465979E+03  0.80576684833E+03  0.10000000000E+02 0.  1.
</event>
<event>
 5    1  0.1145138E-008  0.3822501E+03  0.7957747E-01  0.3441419E+00
         13   -1    0    0    0    0  0.00000000000E+00  0.00000000000E+00  0.14999999963E+04  0.15000000000E+04  0.10566000000E+00 0.  1.
        994   -1    0    0    0    0 -0.00000000000E+00 -0.00000000000E+00  0.11368683772E-12  0.17120000000E+03  0.17120000000E+03 0.  0.
         13    1    1    2    0    0 -0.19639430027E+02  0.37734834271E+02  0.24290538359E+03  0.24660223330E+03  0.10566000000E+00 0.  1.
        994    1    1    2    0    0  0.35196475626E+02 -0.35758194485E+02  0.11400481421E+02  0.17876479336E+03  0.17120000000E+03 0.  0.
        998    1    1    2    0    0 -0.15557045599E+02 -0.19766397855E+01  0.12456941313E+04  0.12458329733E+04  0.10000000000E+02 0.  1.
</event>
<event>
 5    1  0.1145138E-008  0.3856418E+03  0.7957747E-01  0.3426955E+00
         13   -1    0    0    0    0  0.00000000000E+00  0.00000000000E+00  0.14999999963E+04  0.15000000000E+04  0.10566000000E+00 0. -1.
        994   -1    0    0    0    0 -0.00000000000E+00 -0.00000000000E+00  0.11368683772E-12  0.17120000000E+03  0.17120000000E+03 0.  0.
         13    1    1    2    0    0 -0.11453395371E+02  0.12301440108E+01  0.55497096339E+02  0.56680088090E+02  0.10566000000E+00 0. -1.
        994    1    1    2    0    0 -0.45614024667E+01  0.73191485516E+01  0.15559746529E+01  0.17142414470E+03  0.17120000000E+03 0.  0.
        998    1    1    2    0    0  0.16014797838E+02 -0.85492925624E+01  0.14429469253E+04  0.14430957672E+04  0.10000000000E+02 0. -1.
</event>
<event>
 5    1  0.1145138E-008  0.3839882E+03  0.7957747E-01  0.3433975E+00
         13   -1    0    0    0    0  0.00000000000E+00  0.00000000000E+00  0.14999999963E+04  0.15000000000E+04  0.10566000000E+00 0. -1.
        994   -1    0    0    0    0 -0.00000000000E+00 -0.00000000000E+00  0.11368683772E-12  0.17120000000E+03  0.17120000000E+03 0.  0.
         13    1    1    2    0    0  0.58467800746E+01 -0.14824503163E+02  0.56356640612E+02  0.58566482192E+02  0.10566000000E+00 0. -1.
        994    1    1    2    0    0 -0.46251570525E+01  0.19175936564E+02  0.34182109274E+01  0.17236656517E+03  0.17120000000E+03 0.  0.
        998    1    1    2    0    0 -0.12216230221E+01 -0.43514334012E+01  0.14402251447E+04  0.14402669526E+04  0.10000000000E+02 0. -1.
</event>
<event>
 5    1  0.1145138E-008  0.3854217E+03  0.7957747E-01  0.3427886E+00
         13   -1    0    0    0    0  0.00000000000E+00  0.00000000000E+00  0.14999999963E+04  0.15000000000E+04  0.10566000000E+00 0.  1.
        994   -1    0    0    0    0 -0.00000000000E+00 -0.00000000000E+00  0.11368683772E-12  0.17120000000E+03  0.17120000000E+03 0.  0.
         13    1    1    2    0    0  0.26154798834E+01  0.14273893980E+02  0.71622719068E+02  0.73078107769E+02  0.10566000000E+00 0.  1.
        994    1    1    2    0    0  0.54108822534E+01 -0.16314601086E+02  0.23918179138E+01  0.17207732171E+03  0.17120000000E+03 0.  0.
        998    1    1    2    0    0 -0.80263621368E+01  0.20407071064E+01  0.14259854593E+04  0.14260445705E+04  0.10000000000E+02 0.  1.
</event>
<event>
 5    1  0.1145138E-008  0.3770735E+03  0.7957747E-01  0.3464001E+00
         13   -1    0    0    0    0  0.00000000000E+00  0.00000000000E+00  0.14999999963E+04  0.15000000000E+04  0.10566000000E+00 0. -1.
        994   -1    0    0    0    0 -0.00000000000E+00 -0.00000000000E+00  0.11368683772E-12  0.17120000000E+03  0.17120000000E+03 0.  0.
         13    1    1    2    0    0  0.57704553239E+02  0.53962959846E+02  0.42005467121E+03  0.42741988076E+03  0.10566000000E+00 0. -1.
        994    1    1    2    0    0 -0.49863444123E+02 -0.54656506193E+02  0.24323768403E+02  0.18808185037E+03  0.17120000000E+03 0.  0.
        998    1    1    2    0    0 -0.78411091159E+01  0.69354634734E+00  0.10556215567E+04  0.10556982689E+04  0.10000000000E+02 0. -1.
</event>
<event>
 5    1  0.1145138E-008  0.3851804E+03  0.7957747E-01  0.3428907E+00
         13   -1    0    0    0    0  0.00000000000E+00  0.00000000000E+00  0.14999999963E+04  0.15000000000E+04  0.10566000000E+00 0. -1.
        994   -1    0    0    0    0 -0.00000000000E+00 -0.00000000000E+00  0.11368683772E-12  0.17120000000E+03  0.17120000000E+03 0.  0.
         13    1    1    2    0    0 -0.53499883374E+01 -0.97179616009E+01  0.39175095013E+02  0.40715603719E+02  0.10566000000E+00 0. -1.
        994    1    1    2    0    0 -0.52101564786E+01  0.15612711155E+02  0.24314866511E+01  0.17200655397E+03  0.17120000000E+03 0.  0.
        998    1    1    2    0    0  0.10560144816E+02 -0.58947495543E+01  0.14583934146E+04  0.14584778423E+04  0.10000000000E+02 0. -1.
</event>
<event>
 5    1  0.1145138E-008  0.3915668E+03  0.7957747E-01  0.3402290E+00
         13   -1    0    0    0    0  0.00000000000E+00  0.00000000000E+00  0.14999999963E+04  0.15000000000E+04  0.10566000000E+00 0. -1.
        994   -1    0    0    0    0 -0.00000000000E+00 -0.00000000000E+00  0.11368683772E-12  0.17120000000E+03  0.17120000000E+03 0.  0.
         13    1    1    2    0    0 -0.60004214280E+01  0.32800461561E+02  0.14929557962E+02  0.36534616474E+02  0.10566000000E+00 0. -1.
        994    1    1    2    0    0  0.30857786073E+02 -0.22645127010E+02  0.28396777653E+02  0.17770993703E+03  0.17120000000E+03 0.  0.
        998    1    1    2    0    0 -0.24857364645E+02 -0.10155334551E+02  0.14566736607E+04  0.14569554465E+04  0.10000000000E+02 0. -1.
</event>
<event>
 5    1  0.1145138E-008  0.3832618E+03  0.7957747E-01  0.3437078E+00
         13   -1    0    0    0    0  0.00000000000E+00  0.00000000000E+00  0.14999999963E+04  0.15000000000E+04  0.10566000000E+00 0. -1.
        994   -1    0    0    0    0 -0.00000000000E+00 -0.00000000000E+00  0.11368683772E-12  0.17120000000E+03  0.17120000000E+03 0.  0.
         13    1    1    2    0    0  0.10069112676E+02 -0.64788631021E+01  0.28336393065E+02  0.30762396414E+02  0.10566000000E+00 0. -1.
        994    1    1    2    0    0 -0.72573007966E+01 -0.41296273272E+01  0.27262200484E+01  0.17142518634E+03  0.17120000000E+03 0.  0.
        998    1    1    2    0    0 -0.28118118795E+01  0.10608490429E+02  0.14689373832E+04  0.14690124172E+04  0.10000000000E+02 0. -1.
</event>
<event>
 5    1  0.1145138E-008  0.3712646E+03  0.7957747E-01  0.3490099E+00
         13   -1    0    0    0    0  0.00000000000E+00  0.00000000000E+00  0.14999999963E+04  0.15000000000E+04  0.10566000000E+00 0. -1.
        994   -1    0    0    0    0 -0.00000000000E+00 -0.00000000000E+00  0.11368683772E-12  0.17120000000E+03  0.17120000000E+03 0.  0.
         13    1    1    2    0    0 -0.42773163080E+02  0.10636855020E+03  0.49271539370E+03  0.50587773454E+03  0.10566000000E+00 0. -1.
        994    1    1    2    0    0  0.54767955827E+02 -0.10230660575E+03  0.56500571371E+02  0.21440131793E+03  0.17120000000E+03 0.  0.
        998    1    1    2    0    0 -0.11994792747E+02 -0.40619444418E+01  0.95078403121E+03  0.95092094753E+03  0.10000000000E+02 0. -1.
</event>
<event>
 5    1  0.1145138E-008  0.3857190E+03  0.7957747E-01  0.3426629E+00
         13   -1    0    0    0    0  0.00000000000E+00  0.00000000000E+00  0.14999999963E+04  0.15000000000E+04  0.10566000000E+00 0.  1.
        994   -1    0    0    0    0 -0.00000000000E+00 -0.00000000000E+00  0.11368683772E-12  0.17120000000E+03  0.17120000000E+03 0.  0.
         13    1    1    2    0    0 -0.96478218297E+01 -0.52390566452E+01  0.59100155832E+02  0.60111294812E+02  0.10566000000E+00 0.  1.
        994    1    1    2    0    0 -0.21496521087E+02 -0.84736266236E+01  0.30273048019E+01  0.17277878151E+03  0.17120000000E+03 0.  0.
        998    1    1    2    0    0  0.31144342917E+02  0.13712683269E+02  0.14378725356E+04  0.14383099237E+04  0.10000000000E+02 0.  1.
</event>
<event>
 5    1  0.1145138E-008  0.3705449E+03  0.7957747E-01  0.3493390E+00
         13   -1    0    0    0    0  0.00000000000E+00  0.00000000000E+00  0.14999999963E+04  0.15000000000E+04  0.10566000000E+00 0. -1.
        994   -1    0    0    0    0 -0.00000000000E+00 -0.00000000000E+00  0.11368683772E-12  0.17120000000E+03  0.17120000000E+03 0.  0.
         13    1    1    2    0    0  0.11235758319E+01  0.19218385720E+02  0.16415489040E+02  0.25299964759E+02  0.10566000000E+00 0. -1.
        994    1    1    2    0    0  0.28291375318E+01 -0.22238713428E+02  0.10720869934E+02  0.17299405032E+03  0.17120000000E+03 0.  0.
        998    1    1    2    0    0 -0.39527133636E+01  0.30203277080E+01  0.14728636373E+04  0.14729059849E+04  0.10000000000E+02 0. -1.
</event>
<event>
 5    1  0.1145138E-008  0.3830713E+03  0.7957747E-01  0.3437894E+00
         13   -1    0    0    0    0  0.00000000000E+00  0.00000000000E+00  0.14999999963E+04  0.15000000000E+04  0.10566000000E+00 0.  1.
        994   -1    0    0    0    0 -0.00000000000E+00 -0.00000000000E+00  0.11368683772E-12  0.17120000000E+03  0.17120000000E+03 0.  0.
         13    1    1    2    0    0  0.95238408762E+01 -0.12945611791E+02  0.46401818878E+02  0.49106337360E+02  0.10566000000E+00 0.  1.
        994    1    1    2    0    0 -0.76119877879E+01  0.23549922869E+02  0.46204967864E+01  0.17304141185E+03  0.17120000000E+03 0.  0.
        998    1    1    2    0    0 -0.19118530883E+01 -0.10604311078E+02  0.14489776806E+04  0.14490522508E+04  0.10000000000E+02 0.  1.
</event>
<event>
 5    1  0.1145138E-008  0.3757279E+03  0.7957747E-01  0.3469974E+00
         13   -1    0    0    0    0  0.00000000000E+00  0.00000000000E+00  0.14999999963E+04  0.15000000000E+04  0.10566000000E+00 0. -1.
        994   -1    0    0    0    0 -0.00000000000E+00 -0.00000000000E+00  0.11368683772E-12  0.17120000000E+03  0.17120000000E+03 0.  0.
         13    1    1    2    0    0 -0.85776822600E+01 -0.35745524754E+02  0.10182322974E+03  0.10825571787E+03  0.10566000000E+00 0. -1.
        994    1    1    2    0    0  0.13347690745E+02  0.26965225697E+02  0.93812305415E+01  0.17407679837E+03  0.17120000000E+03 0.  0.
        998    1    1    2    0    0 -0.47700084852E+01  0.87802990567E+01  0.13887955360E+04  0.13888674838E+04  0.10000000000E+02 0. -1.
</event>
<event>
 5    1  0.1145138E-008  0.3787671E+03  0.7957747E-01  0.3456544E+00
         13   -1    0    0    0    0  0.00000000000E+00  0.00000000000E+00  0.14999999963E+04  0.15000000000E+04  0.10566000000E+00 0.  1.
        994   -1    0    0    0    0 -0.00000000000E+00 -0.00000000000E+00  0.11368683772E-12  0.17120000000E+03  0.17120000000E+03 0.  0.
         13    1    1    2    0    0 -0.36851234719E+01  0.46753334728E+02  0.27820020934E+03  0.28212554312E+03  0.10566000000E+00 0.  1.
        994    1    1    2    0    0  0.52963983875E+01 -0.43276436275E+01  0.49138205598E+01  0.17140701843E+03  0.17120000000E+03 0.  0.
        998    1    1    2    0    0 -0.16112749156E+01 -0.42425691101E+02  0.12168859664E+04  0.12176674384E+04  0.10000000000E+02 0.  1.
</event>
<event>
 5    1  0.1145138E-008  0.3746115E+03  0.7957747E-01  0.3474962E+00
         13   -1    0    0    0    0  0.00000000000E+00  0.00000000000E+00  0.14999999963E+04  0.15000000000E+04  0.10566000000E+00 0. -1.
        994   -1    0    0    0    0 -0.00000000000E+00 -0.00000000000E+00  0.11368683772E-12  0.17120000000E+03  0.17120000000E+03 0.  0.
         13    1    1    2    0    0 -0.64491264624E+02  0.57979621526E+02  0.30366001027E+03  0.31580084346E+03  0.10566000000E+00 0. -1.
        994    1    1    2    0    0  0.51833305754E+02  0.35511911136E+01  0.23052851667E+02  0.18038895896E+03  0.17120000000E+03 0.  0.
        998    1    1    2    0    0  0.12657958870E+02 -0.61530812639E+02  0.11732871343E+04  0.11750101976E+04  0.10000000000E+02 0. -1.
</event>
<event>
 5    1  0.1145138E-008  0.3825176E+03  0.7957747E-01  0.3440269E+00
         13   -1    0    0    0    0  0.00000000000E+00  0.00000000000E+00  0.14999999963E+04  0.15000000000E+04  0.10566000000E+00 0.  1.
        994   -1    0    0    0    0 -0.00000000000E+00 -0.00000000000E+00  0.11368683772E-12  0.17120000000E+03  0.17120000000E+03 0.  0.
         13    1    1    2    0    0 -0.19266752737E+02 -0.10694145867E+02  0.80980459305E+02  0.83925076527E+02  0.10566000000E+00 0.  1.
        994    1    1    2    0    0  0.17547369317E+02  0.98493244688E+01  0.42112180812E+01  0.17242996758E+03  0.17120000000E+03 0.  0.
        998    1    1    2    0    0  0.17193834201E+01  0.84482139802E+00  0.14148083189E+04  0.14148449559E+04  0.10000000000E+02 0.  1.
</event>
<event>
 5    1  0.1145138E-008  0.3796567E+03  0.7957747E-01  0.3452655E+00
         13   -1    0    0    0    0  0.00000000000E+00  0.00000000000E+00  0.14999999963E+04  0.15000000000E+04  0.10566000000E+00 0. -1.
        994   -1    0    0    0    0 -0.00000000000E+00 -0.00000000000E+00  0.11368683772E-12  0.17120000000E+03  0.17120000000E+03 0.  0.
         13    1    1    2    0    0  0.13508069105E+02  0.14437843051E+02  0.43296738073E+02  0.47597667324E+02  0.10566000000E+00 0. -1.
        994    1    1    2    0    0 -0.11420106011E+02 -0.11231515042E+02  0.51656737875E+01  0.17202525959E+03  0.17120000000E+03 0.  0.
        998    1    1    2    0    0 -0.20879630937E+01 -0.32063280090E+01  0.14515375844E+04  0.14515770731E+04  0.10000000000E+02 0. -1.
</event>
<event>
 5    1  0.1145138E-008  0.3687718E+03  0.7957747E-01  0.3501555E+00
         13   -1    0    0    0    0  0.00000000000E+00  0.00000000000E+00  0.14999999963E+04  0.15000000000E+04  0.10566000000E+00 0. -1.
        994   -1    0    0    0    0 -0.00000000000E+00 -0.00000000000E+00  0.11368683772E-12  0.17120000000E+03  0.17120000000E+03 0.  0.
         13    1    1    2    0    0  0.45733810817E+02  0.42097536548E+02  0.19714640471E+03  0.20671357016E+03  0.10566000000E+00 0. -1.
        994    1    1    2    0    0 -0.30996249833E+00 -0.47075046224E+02  0.17647486113E+02  0.17842934125E+03  0.17120000000E+03 0.  0.
        998    1    1    2    0    0 -0.45423848319E+02  0.49775096756E+01  0.12852061055E+04  0.12860570886E+04  0.10000000000E+02 0. -1.
</event>
<event>
 5    1  0.1145138E-008  0.3814698E+03  0.7957747E-01  0.3444784E+00
         13   -1    0    0    0    0  0.00000000000E+00  0.00000000000E+00  0.14999999963E+04  0.15000000000E+04  0.10566000000E+00 0. -1.
        994   -1    0    0    0    0 -0.00000000000E+00 -0.00000000000E+00  0.11368683772E-12  0.17120000000E+03  0.17120000000E+03 0.  0.
         13    1    1    2    0    0  0.16800505906E+02  0.35967552027E+00  0.39357615807E+02  0.42795086765E+02  0.10566000000E+00 0. -1.
        994    1    1    2    0    0 -0.18147256993E+02 -0.30495787006E+01  0.45203663209E+01  0.17224545445E+03  0.17120000000E+03 0.  0.
        998    1    1    2    0    0  0.13467510868E+01  0.26899031803E+01  0.14561220142E+04  0.14561594588E+04  0.10000000000E+02 0. -1.
</event>
<event>
 5    1  0.1145138E-008  0.3745465E+03  0.7957747E-01  0.3475253E+00
         13   -1    0    0    0    0  0.00000000000E+00  0.00000000000E+00  0.14999999963E+04  0.15000000000E+04  0.10566000000E+00 0.  1.
        994   -1    0    0    0    0 -0.00000000000E+00 -0.00000000000E+00  0.11368683772E-12  0.17120000000E+03  0.17120000000E+03 0.  0.
         13    1    1    2    0    0  0.42813779498E+02  0.33567245654E+02  0.12074154764E+03  0.13243229283E+03  0.10566000000E+00 0.  1.
        994    1    1    2    0    0  0.59290091241E+01 -0.62611691260E+01  0.13627579194E+02  0.17195786200E+03  0.17120000000E+03 0.  0.
        998    1    1    2    0    0 -0.48742788622E+02 -0.27306076528E+02  0.13656308694E+04  0.13668098452E+04  0.10000000000E+02 0.  1.
</event>
<event>
 5    1  0.1145138E-008  0.3799810E+03  0.7957747E-01  0.3451241E+00
         13   -1    0    0    0    0  0.00000000000E+00  0.00000000000E+00  0.14999999963E+04  0.15000000000E+04  0.10566000000E+00 0.  1.
        994   -1    0    0    0    0 -0.00000000000E+00 -0.00000000000E+00  0.11368683772E-12  0.17120000000E+03  0.17120000000E+03 0.  0.
         13    1    1    2    0    0 -0.24207424056E+02  0.13881585214E+01  0.71697978896E+02  0.75687103956E+02  0.10566000000E+00 0.  1.
        994    1    1    2    0    0  0.11502385967E+02  0.41862301934E+02  0.10469608401E+02  0.17692882723E+03  0.17120000000E+03 0.  0.
        998    1    1    2    0    0  0.12705038088E+02 -0.43250460456E+02  0.14178324090E+04  0.14185840688E+04  0.10000000000E+02 0.  1.
</event>
<event>
 5    1  0.1145138E-008  0.3849122E+03  0.7957747E-01  0.3430045E+00
         13   -1    0    0    0    0  0.00000000000E+00  0.00000000000E+00  0.14999999963E+04  0.15000000000E+04  0.10566000000E+00 0.  1.
        994   -1    0    0    0    0 -0.00000000000E+00 -0.00000000000E+00  0.11368683772E-12  0.17120000000E+03  0.17120000000E+03 0.  0.
         13    1    1    2    0    0 -0.15205382809E+02 -0.42584988673E+01  0.73474325538E+02  0.75152020308E+02  0.10566000000E+00 0.  1.
        994    1    1    2    0    0  0.13488475111E+02 -0.22169643502E+01  0.22886518615E+01  0.17176009961E+03  0.17120000000E+03 0.  0.
        998    1    1    2    0    0  0.17169076980E+01  0.64754632176E+01  0.14242370189E+04  0.14242878801E+04  0.10000000000E+02 0.  1.
</event>
<event>
 5    1  0.1145138E-008  0.3838163E+03  0.7957747E-01  0.3434708E+00
         13   -1    0    0    0    0  0.00000000000E+00  0.00000000000E+00  0.14999999963E+04  0.15000000000E+04  0.10566000000E+00 0.  1.
        994   -1    0    0    0    0 -0.00000000000E+00 -0.00000000000E+00  0.11368683772E-12  0.17120000000E+03  0.17120000000E+03 0.  0.
         13    1    1    2    0    0  0.73097738704E+01  0.98266940198E+01  0.32848650507E+02  0.35057691218E+02  0.10566000000E+00 0.  1.
        994    1    1    2    0    0 -0.52683580915E+01 -0.95195994096E+01  0.26098666382E+01  0.17156523475E+03  0.17120000000E+03 0.  0.
        998    1    1    2    0    0 -0.20414157789E+01 -0.30709461012E+00  0.14645414791E+04  0.14645770740E+04  0.10000000000E+02 0.  1.
</event>
<event>
 5    1  0.1145138E-008  0.3848433E+03  0.7957747E-01  0.3430337E+00
         13   -1    0    0    0    0  0.00000000000E+00  0.00000000000E+00  0.14999999963E+04  0.15000000000E+04  0.10566000000E+00 0. -1.
        994   -1    0    0    0    0 -0.00000000000E+00 -0.00000000000E+00  0.11368683772E-12  0.17120000000E+03  0.17120000000E+03 0.  0.
         13    1    1    2    0    0 -0.53714411150E+01 -0.10014959420E+02  0.37597861923E+02  0.39278011368E+02  0.10566000000E+00 0. -1.
        994    1    1    2    0    0  0.42542423598E+01  0.63890796587E+01  0.19018509299E+01  0.17138254273E+03  0.17120000000E+03 0.  0.
        998    1    1    2    0    0  0.11171987552E+01  0.36258797612E+01  0.14605002834E+04  0.14605394459E+04  0.10000000000E+02 0. -1.
</event>
<event>
 5    1  0.1145138E-008  0.3334694E+03  0.7957747E-01  0.3682703E+00
         13   -1    0    0    0    0  0.00000000000E+00  0.00000000000E+00  0.14999999963E+04  0.15000000000E+04  0.10566000000E+00 0. -1.
        994   -1    0    0    0    0 -0.00000000000E+00 -0.00000000000E+00  0.11368683772E-12  0.17120000000E+03  0.17120000000E+03 0.  0.
         13    1    1    2    0    0  0.84833699672E+02 -0.22663815906E+03  0.86876015013E+03  0.90183469736E+03  0.10566000000E+00 0. -1.
        994    1    1    2    0    0 -0.57891784323E+02  0.19250370428E+03  0.18859962607E+03  0.32448173109E+03  0.17120000000E+03 0.  0.
        998    1    1    2    0    0 -0.26941915349E+02  0.34134454777E+02  0.44264022008E+03  0.44488357156E+03  0.10000000000E+02 0. -1.
</event>
<event>
 5    1  0.1145138E-008  0.3703207E+03  0.7957747E-01  0.3494418E+00
         13   -1    0    0    0    0  0.00000000000E+00  0.00000000000E+00  0.14999999963E+04  0.15000000000E+04  0.10566000000E+00 0.  1.
        994   -1    0    0    0    0 -0.00000000000E+00 -0.00000000000E+00  0.11368683772E-12  0.17120000000E+03  0.17120000000E+03 0.  0.
         13    1    1    2    0    0  0.19810516050E+01 -0.12784913528E+02  0.50500627889E+01  0.13888588034E+02  0.10566000000E+00 0.  1.
        994    1    1    2    0    0 -0.81420008016E+01  0.65070610252E+01  0.94768113905E+01  0.17177858998E+03  0.17120000000E+03 0.  0.
        998    1    1    2    0    0  0.61609491967E+01  0.62778525029E+01  0.14854731221E+04  0.14855328220E+04  0.10000000000E+02 0.  1.
</event>
<event>
 5    1  0.1145138E-008  0.3851243E+03  0.7957747E-01  0.3429145E+00
         13   -1    0    0    0    0  0.00000000000E+00  0.00000000000E+00  0.14999999963E+04  0.15000000000E+04  0.10566000000E+00 0. -1.
        994   -1    0    0    0    0 -0.00000000000E+00 -0.00000000000E+00  0.11368683772E-12  0.17120000000E+03  0.17120000000E+03 0.  0.
         13    1    1    2    0    0  0.16467717168E+02 -0.15010560456E+01  0.90036465643E+02  0.91542422884E+02  0.10566000000E+00 0. -1.
        994    1    1    2    0    0 -0.70963739774E+01 -0.41762620469E+01  0.17913454711E+01  0.17140725949E+03  0.17120000000E+03 0.  0.
        998    1    1    2    0    0 -0.93713431903E+01  0.56773180925E+01  0.14081721852E+04  0.14082503176E+04  0.10000000000E+02 0. -1.
</event>
<event>
 5    1  0.1145138E-008  0.3734288E+03  0.7957747E-01  0.3480280E+00
         13   -1    0    0    0    0  0.00000000000E+00  0.00000000000E+00  0.14999999963E+04  0.15000000000E+04  0.10566000000E+00 0.  1.
        994   -1    0    0    0    0 -0.00000000000E+00 -0.00000000000E+00  0.11368683772E-12  0.17120000000E+03  0.17120000000E+03 0.  0.
         13    1    1    2    0    0 -0.82389207393E+02  0.15521139768E+02  0.35593501157E+03  0.36567558149E+03  0.10566000000E+00 0.  1.
        994    1    1    2    0    0  0.82916237915E+02 -0.94768712711E+01  0.31676544550E+02  0.19307448582E+03  0.17120000000E+03 0.  0.
        998    1    1    2    0    0 -0.52703052195E+00 -0.60442684965E+01  0.11123884402E+04  0.11124499327E+04  0.10000000000E+02 0.  1.
</event>
<event>
 5    1  0.1145138E-008  0.3772547E+03  0.7957747E-01  0.3463200E+00
         13   -1    0    0    0    0  0.00000000000E+00  0.00000000000E+00  0.14999999963E+04  0.15000000000E+04  0.10566000000E+00 0. -1.
        994   -1    0    0    0    0 -0.00000000000E+00 -0.00000000000E+00  0.11368683772E-12  0.17120000000E+03  0.17120000000E+03 0.  0.
         13    1    1    2    0    0 -0.12394774762E+02 -0.20539551097E+02  0.47113068528E+02  0.52869234824E+02  0.10566000000E+00 0. -1.
        994    1    1    2    0    0  0.16212947202E+02  0.29137893616E+02  0.92855228951E+01  0.17466407025E+03  0.17120000000E+03 0.  0.
        998    1    1    2    0    0 -0.38181724395E+01 -0.85983425198E+01  0.14436014049E+04  0.14436666949E+04  0.10000000000E+02 0. -1.
</event>
<event>
 5    1  0.1145138E-008  0.3723076E+03  0.7957747E-01  0.3485352E+00
         13   -1    0    0    0    0  0.00000000000E+00  0.00000000000E+00  0.14999999963E+04  0.15000000000E+04  0.10566000000E+00 0. -1.
        994   -1    0    0    0    0 -0.00000000000E+00 -0.00000000000E+00  0.11368683772E-12  0.17120000000E+03  0.17120000000E+03 0.  0.
         13    1    1    2    0    0 -0.25471841542E+02 -0.14725200745E+02  0.52253898592E+02  0.59967719071E+02  0.10566000000E+00 0. -1.
        994    1    1    2    0    0  0.14942144202E+02 -0.92114245473E+01  0.91255136025E+01  0.17233929620E+03  0.17120000000E+03 0.  0.
        998    1    1    2    0    0  0.10529697340E+02  0.23936625292E+02  0.14386205841E+04  0.14388929847E+04  0.10000000000E+02 0. -1.
</event>
<event>
 5    1  0.1145138E-008  0.3801955E+03  0.7957747E-01  0.3450308E+00
         13   -1    0    0    0    0  0.00000000000E+00  0.00000000000E+00  0.14999999963E+04  0.15000000000E+04  0.10566000000E+00 0.  1.
        994   -1    0    0    0    0 -0.00000000000E+00 -0.00000000000E+00  0.11368683772E-12  0.17120000000E+03  0.17120000000E+03 0.  0.
         13    1    1    2    0    0 -0.27009260145E+02 -0.17314412223E+02  0.12006122630E+03  0.12427388394E+03  0.10566000000E+00 0.  1.
        994    1    1    2    0    0  0.11978824114E+02  0.34000020052E+02  0.83879942996E+01  0.17515505142E+03  0.17120000000E+03 0.  0.
        998    1    1    2    0    0  0.15030436031E+02 -0.16685607829E+02  0.13715507757E+04  0.13717710646E+04  0.10000000000E+02 0.  1.
</event>
<event>
 5    1  0.1145138E-008  0.3859537E+03  0.7957747E-01  0.3425637E+00
         13   -1    0    0    0    0  0.00000000000E+00  0.00000000000E+00  0.14999999963E+04  0.15000000000E+04  0.10566000000E+00 0.  1.
        994   -1    0    0    0    0 -0.00000000000E+00 -0.00000000000E+00  0.11368683772E-12  0.17120000000E+03  0.17120000000E+03 0.  0.
         13    1    1    2    0    0 -0.21910092815E+02  0.32195239031E+02  0.31876995535E+02  0.50326330999E+02  0.10566000000E+00 0.  1.
        994    1    1    2    0    0 -0.86120811579E+01 -0.26809390852E+02  0.22579526318E+02  0.17496338585E+03  0.17120000000E+03 0.  0.
        998    1    1    2    0    0  0.30522173973E+02 -0.53858481791E+01  0.14455434744E+04  0.14459102832E+04  0.10000000000E+02 0.  1.
</event>
<event>
 5    1  0.1145138E-008  0.3786785E+03  0.7957747E-01  0.3456933E+00
         13   -1    0    0    0    0  0.00000000000E+00  0.00000000000E+00  0.14999999963E+04  0.15000000000E+04  0.10566000000E+00 0.  1.
        994   -1    0    0    0    0 -0.00000000000E+00 -0.00000000000E+00  0.11368683772E-12  0.17120000000E+03  0.17120000000E+03 0.  0.
         13    1    1    2    0    0 -0.28048370508E+02 -0.25284350766E+02  0.14189667433E+03  0.14683557754E+03  0.10566000000E+00 0.  1.
        994    1    1    2    0    0  0.53361827756E+01  0.37090918458E+02  0.95309649245E+01  0.17551208041E+03  0.17120000000E+03 0.  0.
        998    1    1    2    0    0  0.22712187732E+02 -0.11806567692E+02  0.13485723570E+04  0.13488523420E+04  0.10000000000E+02 0.  1.
</event>
<event>
 5    1  0.1145138E-008  0.3732904E+03  0.7957747E-01  0.3480904E+00
         13   -1    0    0    0    0  0.00000000000E+00  0.00000000000E+00  0.14999999963E+04  0.15000000000E+04  0.10566000000E+00 0.  1.
        994   -1    0    0    0    0 -0.00000000000E+00 -0.00000000000E+00  0.11368683772E-12  0.17120000000E+03  0.17120000000E+03 0.  0.
         13    1    1    2    0    0 -0.23031906686E+02 -0.13462861467E+02  0.45466433781E+02  0.52715511278E+02  0.10566000000E+00 0.  1.
        994    1    1    2    0    0  0.83087873747E+01  0.48489885408E+00  0.77961525826E+01  0.17157940165E+03  0.17120000000E+03 0.  0.
        998    1    1    2    0    0  0.14723119312E+02  0.12977962613E+02  0.14467374099E+04  0.14469050871E+04  0.10000000000E+02 0.  1.
</event>
<event>
 5    1  0.1145138E-008  0.3823130E+03  0.7957747E-01  0.3441149E+00
         13   -1    0    0    0    0  0.00000000000E+00  0.00000000000E+00  0.14999999963E+04  0.15000000000E+04  0.10566000000E+00 0.  1.
        994   -1    0    0    0    0 -0.00000000000E+00 -0.00000000000E+00  0.11368683772E-12  0.17120000000E+03  0.17120000000E+03 0.  0.
         13    1    1    2    0    0  0.34039405617E+02  0.79231448379E+02  0.43463358240E+03  0.44310570484E+03  0.10566000000E+00 0.  1.
        994    1    1    2    0    0 -0.71380191294E+02 -0.12398100926E+03  0.74133725907E+02  0.23509928048E+03  0.17120000000E+03 0.  0.
        998    1    1    2    0    0  0.37340785677E+02  0.44749560882E+02  0.99123268797E+03  0.99299501468E+03  0.10000000000E+02 0.  1.
</event>
<event>
 5    1  0.1145138E-008  0.3773672E+03  0.7957747E-01  0.3462703E+00
         13   -1    0    0    0    0  0.00000000000E+00  0.00000000000E+00  0.14999999963E+04  0.15000000000E+04  0.10566000000E+00 0.  1.
        994   -1    0    0    0    0 -0.00000000000E+00 -0.00000000000E+00  0.11368683772E-12  0.17120000000E+03  0.17120000000E+03 0.  0.
         13    1    1    2    0    0  0.25382432391E+02  0.55408984605E+02  0.11206959444E+03  0.12756970099E+03  0.10566000000E+00 0.  1.
        994    1    1    2    0    0 -0.35027132323E+02 -0.48947628816E+02  0.28007269895E+02  0.18362085266E+03  0.17120000000E+03 0.  0.
        998    1    1    2    0    0  0.96446999329E+01 -0.64613557890E+01  0.13599231319E+04  0.13600094463E+04  0.10000000000E+02 0.  1.
</event>
<event>
 5    1  0.1145138E-008  0.3854314E+03  0.7957747E-01  0.3427845E+00
         13   -1    0    0    0    0  0.00000000000E+00  0.00000000000E+00  0.14999999963E+04  0.15000000000E+04  0.10566000000E+00 0.  1.
        994   -1    0    0    0    0 -0.00000000000E+00 -0.00000000000E+00  0.11368683772E-12  0.17120000000E+03  0.17120000000E+03 0.  0.
         13    1    1    2    0    0  0.71919667992E+01  0.81530717727E+01  0.42603388779E+02  0.43968816964E+02  0.10566000000E+00 0.  1.
        994    1    1    2    0    0 -0.79735723337E+01  0.15755812498E+01  0.16330912805E+01  0.17140060472E+03  0.17120000000E+03 0.  0.
        998    1    1    2    0    0  0.78160553440E+00 -0.97286530226E+01  0.14557635162E+04  0.14558305783E+04  0.10000000000E+02 0.  1.
</event>
<event>
 5    1  0.1145138E-008  0.3799976E+03  0.7957747E-01  0.3451169E+00
         13   -1    0    0    0    0  0.00000000000E+00  0.00000000000E+00  0.14999999963E+04  0.15000000000E+04  0.10566000000E+00 0.  1.
        994   -1    0    0    0    0 -0.00000000000E+00 -0.00000000000E+00  0.11368683772E-12  0.17120000000E+03  0.17120000000E+03 0.  0.
         13    1    1    2    0    0  0.28094525100E+01 -0.27964141313E+02  0.96938102926E+02  0.10093014012E+03  0.10566000000E+00 0.  1.
        994    1    1    2    0    0  0.11604889990E+02  0.12677029953E+02  0.51224345708E+01  0.17213674766E+03  0.17120000000E+03 0.  0.
        998    1    1    2    0    0 -0.14414342500E+02  0.15287111359E+02  0.13979394588E+04  0.13981331122E+04  0.10000000000E+02 0.  1.
</event>
<event>
 5    1  0.1145138E-008  0.3803320E+03  0.7957747E-01  0.3449714E+00
         13   -1    0    0    0    0  0.00000000000E+00  0.00000000000E+00  0.14999999963E+04  0.15000000000E+04  0.10566000000E+00 0. -1.
        994   -1    0    0    0    0 -0.00000000000E+00 -0.00000000000E+00  0.11368683772E-12  0.17120000000E+03  0.17120000000E+03 0.  0.
         13    1    1    2    0    0 -0.22578272758E+02  0.16293066842E+02  0.97044397520E+02  0.10095973793E+03  0.10566000000E+00 0. -1.
        994    1    1    2    0    0  0.12756690272E+02 -0.91279894398E+01  0.47877158937E+01  0.17198376540E+03  0.17120000000E+03 0.  0.
        998    1    1    2    0    0  0.98215824862E+01 -0.71650774019E+01  0.13981678829E+04  0.13982564967E+04  0.10000000000E+02 0.  0.
</event>
<event>
 5    1  0.1145138E-008  0.3858714E+03  0.7957747E-01  0.3425985E+00
         13   -1    0    0    0    0  0.00000000000E+00  0.00000000000E+00  0.14999999963E+04  0.15000000000E+04  0.10566000000E+00 0.  1.
        994   -1    0    0    0    0 -0.00000000000E+00 -0.00000000000E+00  0.11368683772E-12  0.17120000000E+03  0.17120000000E+03 0.  0.
         13    1    1    2    0    0 -0.14280381841E+02  0.66544825765E+01  0.89497277172E+02  0.90873457231E+02  0.10566000000E+00 0.  1.
        994    1    1    2    0    0  0.24223009062E+02 -0.16086126576E+02  0.39758223004E+01  0.17369733676E+03  0.17120000000E+03 0.  0.
        998    1    1    2    0    0 -0.99426272212E+01  0.94316439992E+01  0.14065268968E+04  0.14066292060E+04  0.10000000000E+02 0.  1.
</event>
<event>
 5    1  0.1145138E-008  0.3754130E+03  0.7957747E-01  0.3471378E+00
         13   -1    0    0    0    0  0.00000000000E+00  0.00000000000E+00  0.14999999963E+04  0.15000000000E+04  0.10566000000E+00 0. -1.
        994   -1    0    0    0    0 -0.00000000000E+00 -0.00000000000E+00  0.11368683772E-12  0.17120000000E+03  0.17120000000E+03 0.  0.
         13    1    1    2    0    0 -0.23384493051E+02 -0.26941673978E+02  0.10394631062E+03  0.10989783878E+03  0.10566000000E+00 0. -1.
        994    1    1    2    0    0 -0.19573367173E+02  0.22786928748E+02  0.95359084108E+01  0.17407680596E+03  0.17120000000E+03 0.  0.
        998    1    1    2    0    0  0.42957860223E+02  0.41547452306E+01  0.13865177772E+04  0.13872253553E+04  0.10000000000E+02 0. -1.
</event>
<event>
 5    1  0.1145138E-008  0.3801746E+03  0.7957747E-01  0.3450398E+00
         13   -1    0    0    0    0  0.00000000000E+00  0.00000000000E+00  0.14999999963E+04  0.15000000000E+04  0.10566000000E+00 0.  1.
        994   -1    0    0    0    0 -0.00000000000E+00 -0.00000000000E+00  0.11368683772E-12  0.17120000000E+03  0.17120000000E+03 0.  0.
         13    1    1    2    0    0  0.25387119933E+02  0.26032112874E+02  0.15492793856E+03  0.15913784613E+03  0.10566000000E+00 0.  1.
        994    1    1    2    0    0 -0.22241393744E+02 -0.17843760346E+02  0.67662560681E+01  0.17369024613E+03  0.17120000000E+03 0.  0.
        998    1    1    2    0    0 -0.31457261888E+01 -0.81883525279E+01  0.13383058017E+04  0.13383719077E+04  0.10000000000E+02 0.  1.
</event>
<event>
 5    1  0.1145138E-008  0.3777297E+03  0.7957747E-01  0.3461104E+00
         13   -1    0    0    0    0  0.00000000000E+00  0.00000000000E+00  0.14999999963E+04  0.15000000000E+04  0.10566000000E+00 0. -1.
        994   -1    0    0    0    0 -0.00000000000E+00 -0.00000000000E+00  0.11368683772E-12  0.17120000000E+03  0.17120000000E+03 0.  0.
         13    1    1    2    0    0  0.55582157620E+02  0.69848733468E+02  0.40259523261E+03  0.41237259159E+03  0.10566000000E+00 0. -1.
        994    1    1    2    0    0 -0.23250665648E+02 -0.14740945188E+03  0.84388639157E+02  0.24228293868E+03  0.17120000000E+03 0.  0.
        998    1    1    2    0    0 -0.32331491972E+02  0.77560718411E+02  0.10130161245E+04  0.10165444697E+04  0.10000000000E+02 0. -1.
</event>
<event>
 5    1  0.1145138E-008  0.3796801E+03  0.7957747E-01  0.3452552E+00
         13   -1    0    0    0    0  0.00000000000E+00  0.00000000000E+00  0.14999999963E+04  0.15000000000E+04  0.10566000000E+00 0.  1.
        994   -1    0    0    0    0 -0.00000000000E+00 -0.00000000000E+00  0.11368683772E-12  0.17120000000E+03  0.17120000000E+03 0.  0.
         13    1    1    2    0    0 -0.36364118348E+01  0.14809887862E+02  0.26024352675E+02  0.30163460772E+02  0.10566000000E+00 0.  1.
        994    1    1    2    0    0  0.87174317877E+01  0.10275606587E+01  0.45525799296E+01  0.17148532148E+03  0.17120000000E+03 0.  0.
        998    1    1    2    0    0 -0.50810199529E+01 -0.15837448521E+02  0.14694230637E+04  0.14695512178E+04  0.10000000000E+02 0.  1.
</event>
<event>
 5    1  0.1145138E-008  0.3845549E+03  0.7957747E-01  0.3431562E+00
         13   -1    0    0    0    0  0.00000000000E+00  0.00000000000E+00  0.14999999963E+04  0.15000000000E+04  0.10566000000E+00 0.  1.
        994   -1    0    0    0    0 -0.00000000000E+00 -0.00000000000E+00  0.11368683772E-12  0.17120000000E+03  0.17120000000E+03 0.  0.
         13    1    1    2    0    0 -0.10725512471E+02  0.17360871285E+02  0.11006411255E+03  0.11193996831E+03  0.10566000000E+00 0.  1.
        994    1    1    2    0    0  0.10687136837E+02 -0.11482975606E+02  0.26621270132E+01  0.17193778102E+03  0.17120000000E+03 0.  0.
        998    1    1    2    0    0  0.38375634533E-01 -0.58778956791E+01  0.13872737567E+04  0.13873222507E+04  0.10000000000E+02 0.  1.
</event>
<event>
 5    1  0.1145138E-008  0.3700302E+03  0.7957747E-01  0.3495752E+00
         13   -1    0    0    0    0  0.00000000000E+00  0.00000000000E+00  0.14999999963E+04  0.15000000000E+04  0.10566000000E+00 0.  1.
        994   -1    0    0    0    0 -0.00000000000E+00 -0.00000000000E+00  0.11368683772E-12  0.17120000000E+03  0.17120000000E+03 0.  0.
         13    1    1    2    0    0  0.15823170698E+01  0.52589710901E+02  0.10309726788E+03  0.11574644370E+03  0.10566000000E+00 0.  1.
        994    1    1    2    0    0 -0.56393611862E+02 -0.78907097134E+02  0.44609672511E+02  0.20175736001E+03  0.17120000000E+03 0.  0.
        998    1    1    2    0    0  0.54811294793E+02  0.26317386233E+02  0.13522930559E+04  0.13536961963E+04  0.10000000000E+02 0.  1.
</event>
<event>
 5    1  0.1145138E-008  0.3846383E+03  0.7957747E-01  0.3431208E+00
         13   -1    0    0    0    0  0.00000000000E+00  0.00000000000E+00  0.14999999963E+04  0.15000000000E+04  0.10566000000E+00 0. -1.
        994   -1    0    0    0    0 -0.00000000000E+00 -0.00000000000E+00  0.11368683772E-12  0.17120000000E+03  0.17120000000E+03 0.  0.
         13    1    1    2    0    0  0.60400635746E+01  0.96133625643E+01  0.34699301409E+02  0.36509612297E+02  0.10566000000E+00 0. -1.
        994    1    1    2    0    0 -0.82118143860E+01 -0.83689316313E+01  0.22625669747E+01  0.17161594367E+03  0.17120000000E+03 0.  0.
        998    1    1    2    0    0  0.21717508114E+01 -0.12444309331E+01  0.14630381279E+04  0.14630744440E+04  0.10000000000E+02 0. -1.
</event>
<event>
 5    1  0.1145138E-008  0.3855387E+03  0.7957747E-01  0.3427391E+00
         13   -1    0    0    0    0  0.00000000000E+00  0.00000000000E+00  0.14999999963E+04  0.15000000000E+04  0.10566000000E+00 0. -1.
        994   -1    0    0    0    0 -0.00000000000E+00 -0.00000000000E+00  0.11368683772E-12  0.17120000000E+03  0.17120000000E+03 0.  0.
         13    1    1    2    0    0 -0.59952524205E+01  0.99021449794E+01  0.46090471855E+02  0.47521976880E+02  0.10566000000E+00 0. -1.
        994    1    1    2    0    0  0.39181037631E+02 -0.70187245724E+00  0.64206476306E+01  0.17574501714E+03  0.17120000000E+03 0.  0.
        998    1    1    2    0    0 -0.33185785211E+02 -0.92002725222E+01  0.14474888768E+04  0.14479330060E+04  0.10000000000E+02 0. -1.
</event>
<event>
 5    1  0.1145138E-008  0.3843104E+03  0.7957747E-01  0.3432602E+00
         13   -1    0    0    0    0  0.00000000000E+00  0.00000000000E+00  0.14999999963E+04  0.15000000000E+04  0.10566000000E+00 0.  1.
        994   -1    0    0    0    0 -0.00000000000E+00 -0.00000000000E+00  0.11368683772E-12  0.17120000000E+03  0.17120000000E+03 0.  0.
         13    1    1    2    0    0 -0.27906671656E+03  0.11717630140E+03  0.98017774411E+03  0.10258445005E+04  0.10566000000E+00 0.  1.
        994    1    1    2    0    0  0.28478866543E+03 -0.11839494828E+03  0.43642747408E+03  0.56115980600E+03  0.17120000000E+03 0.  0.
        998    1    1    2    0    0 -0.57219488715E+01  0.12186468801E+01  0.83394778094E+02  0.84195693551E+02  0.10000000000E+02 0.  0.
</event>
<event>
 5    1  0.1145138E-008  0.3687409E+03  0.7957747E-01  0.3501698E+00
         13   -1    0    0    0    0  0.00000000000E+00  0.00000000000E+00  0.14999999963E+04  0.15000000000E+04  0.10566000000E+00 0. -1.
        994   -1    0    0    0    0 -0.00000000000E+00 -0.00000000000E+00  0.11368683772E-12  0.17120000000E+03  0.17120000000E+03 0.  0.
         13    1    1    2    0    0  0.12122798585E+02 -0.50808558732E+01  0.39392123539E+01  0.13722459690E+02  0.10566000000E+00 0. -1.
        994    1    1    2    0    0  0.18036670881E+02  0.13372167931E+02  0.12031254525E+02  0.17308474068E+03  0.17120000000E+03 0.  0.
        998    1    1    2    0    0 -0.30159469466E+02 -0.82913120573E+01  0.14840295294E+04  0.14843927996E+04  0.10000000000E+02 0. -1.
</event>
<event>
 5    1  0.1145138E-008  0.2898188E+03  0.7957747E-01  0.3971496E+00
         13   -1    0    0    0    0  0.00000000000E+00  0.00000000000E+00  0.14999999963E+04  0.15000000000E+04  0.10566000000E+00 0. -1.
        994   -1    0    0    0    0 -0.00000000000E+00 -0.00000000000E+00  0.11368683772E-12  0.17120000000E+03  0.17120000000E+03 0.  0.
         13    1    1    2    0    0  0.16828988847E+03  0.12116960523E+03  0.54645448372E+03  0.58447931849E+03  0.10566000000E+00 0. -1.
        994    1    1    2    0    0 -0.13932194061E+03 -0.12292256941E+03  0.17445408899E+03  0.30702480416E+03  0.17120000000E+03 0.  0.
        998    1    1    2    0    0 -0.28967947855E+02  0.17529641749E+01  0.77909142357E+03  0.77969587735E+03  0.10000000000E+02 0.  1.
</event>
<event>
 5    1  0.1145138E-008  0.3828815E+03  0.7957747E-01  0.3438707E+00
         13   -1    0    0    0    0  0.00000000000E+00  0.00000000000E+00  0.14999999963E+04  0.15000000000E+04  0.10566000000E+00 0.  1.
        994   -1    0    0    0    0 -0.00000000000E+00 -0.00000000000E+00  0.11368683772E-12  0.17120000000E+03  0.17120000000E+03 0.  0.
         13    1    1    2    0    0 -0.13077934057E+01 -0.26886421332E+02  0.14189000095E+03  0.14442082090E+03  0.10566000000E+00 0.  1.
        994    1    1    2    0    0 -0.51836779684E+00  0.87326037895E+01  0.29390767266E+01  0.17144854985E+03  0.17120000000E+03 0.  0.
        998    1    1    2    0    0  0.18261612025E+01  0.18153817543E+02  0.13551709186E+04  0.13553306293E+04  0.10000000000E+02 0.  1.
</event>
<event>
 5    1  0.1145138E-008  0.3823112E+03  0.7957747E-01  0.3441156E+00
         13   -1    0    0    0    0  0.00000000000E+00  0.00000000000E+00  0.14999999963E+04  0.15000000000E+04  0.10566000000E+00 0.  1.
        994   -1    0    0    0    0 -0.00000000000E+00 -0.00000000000E+00  0.11368683772E-12  0.17120000000E+03  0.17120000000E+03 0.  0.
         13    1    1    2    0    0  0.32259769836E+02 -0.14009143117E+02  0.20805707993E+03  0.21100878776E+03  0.10566000000E+00 0.  1.
        994    1    1    2    0    0 -0.19635312419E+02  0.49105147369E+01  0.43312467894E+01  0.17244668262E+03  0.17120000000E+03 0.  0.
        998    1    1    2    0    0 -0.12624457417E+02  0.90986283805E+01  0.12876116696E+04  0.12877445296E+04  0.10000000000E+02 0.  1.
</event>
<event>
 5    1  0.1145138E-008  0.3703686E+03  0.7957747E-01  0.3494199E+00
         13   -1    0    0    0    0  0.00000000000E+00  0.00000000000E+00  0.14999999963E+04  0.15000000000E+04  0.10566000000E+00 0.  1.
        994   -1    0    0    0    0 -0.00000000000E+00 -0.00000000000E+00  0.11368683772E-12  0.17120000000E+03  0.17120000000E+03 0.  0.
         13    1    1    2    0    0  0.16972333038E+02  0.88186626991E+01  0.15817638030E+02  0.24820107522E+02  0.10566000000E+00 0.  1.
        994    1    1    2    0    0 -0.22851648458E+02 -0.87369867605E+01  0.11146182378E+02  0.17329803852E+03  0.17120000000E+03 0.  0.
        998    1    1    2    0    0  0.58793154208E+01 -0.81675938593E-01  0.14730361759E+04  0.14730818540E+04  0.10000000000E+02 0.  1.
</event>
<event>
 5    1  0.1145138E-008  0.3778086E+03  0.7957747E-01  0.3460756E+00
         13   -1    0    0    0    0  0.00000000000E+00  0.00000000000E+00  0.14999999963E+04  0.15000000000E+04  0.10566000000E+00 0.  1.
        994   -1    0    0    0    0 -0.00000000000E+00 -0.00000000000E+00  0.11368683772E-12  0.17120000000E+03  0.17120000000E+03 0.  0.
         13    1    1    2    0    0 -0.17504096202E+02 -0.39052543319E+02  0.59978505370E+02  0.73681251307E+02  0.10566000000E+00 0.  1.
        994    1    1    2    0    0 -0.82510960668E+01  0.68747599262E+00  0.15375337338E+02  0.17208833257E+03  0.17120000000E+03 0.  0.
        998    1    1    2    0    0  0.25755192269E+02  0.38365067327E+02  0.14246461536E+04  0.14254304161E+04  0.10000000000E+02 0.  1.
</event>
<event>
 5    1  0.1145138E-008  0.3828316E+03  0.7957747E-01  0.3438921E+00
         13   -1    0    0    0    0  0.00000000000E+00  0.00000000000E+00  0.14999999963E+04  0.15000000000E+04  0.10566000000E+00 0. -1.
        994   -1    0    0    0    0 -0.00000000000E+00 -0.00000000000E+00  0.11368683772E-12  0.17120000000E+03  0.17120000000E+03 0.  0.
         13    1    1    2    0    0  0.81939478697E+01 -0.10922334441E+02  0.33502490943E+02  0.36178256381E+02  0.10566000000E+00 0. -1.
        994    1    1    2    0    0 -0.36281049192E+00  0.11090419825E+02  0.31184606458E+01  0.17158756901E+03  0.17120000000E+03 0.  0.
        998    1    1    2    0    0 -0.78311373778E+01 -0.16808538425E+00  0.14633790447E+04  0.14634341746E+04  0.10000000000E+02 0. -1.
</event>
<event>
 5    1  0.1145138E-008  0.3235934E+03  0.7957747E-01  0.3740766E+00
         13   -1    0    0    0    0  0.00000000000E+00  0.00000000000E+00  0.14999999963E+04  0.15000000000E+04  0.10566000000E+00 0. -1.
        994   -1    0    0    0    0 -0.00000000000E+00 -0.00000000000E+00  0.11368683772E-12  0.17120000000E+03  0.17120000000E+03 0.  0.
         13    1    1    2    0    0  0.17036292329E+03 -0.48204857390E+01  0.10186601835E+04  0.10328191242E+04  0.10566000000E+00 0. -1.
        994    1    1    2    0    0 -0.87415064973E+02 -0.58419523153E+02  0.68210937895E+02  0.21217070089E+03  0.17120000000E+03 0.  0.
        998    1    1    2    0    0 -0.82947858321E+02  0.63240008892E+02  0.41312887493E+03  0.42621017494E+03  0.10000000000E+02 0.  1.
</event>
<event>
 5    1  0.1145138E-008  0.2297447E+03  0.7957747E-01  0.4574409E+00
         13   -1    0    0    0    0  0.00000000000E+00  0.00000000000E+00  0.14999999963E+04  0.15000000000E+04  0.10566000000E+00 0.  1.
        994   -1    0    0    0    0 -0.00000000000E+00 -0.00000000000E+00  0.11368683772E-12  0.17120000000E+03  0.17120000000E+03 0.  0.
         13    1    1    2    0    0  0.14926352321E+02  0.70710585389E+02 -0.30676120704E+01  0.72333977407E+02  0.10566000000E+00 0.  1.
        994    1    1    2    0    0  0.22941471240E+02 -0.56832029932E+02  0.12613007112E+03  0.22130166192E+03  0.17120000000E+03 0.  0.
        998    1    1    2    0    0 -0.37867823560E+02 -0.13878555457E+02  0.13769375372E+04  0.13775643607E+04  0.10000000000E+02 0.  1.
</event>
<event>
 5    1  0.1145138E-008  0.3852219E+03  0.7957747E-01  0.3428731E+00
         13   -1    0    0    0    0  0.00000000000E+00  0.00000000000E+00  0.14999999963E+04  0.15000000000E+04  0.10566000000E+00 0.  1.
        994   -1    0    0    0    0 -0.00000000000E+00 -0.00000000000E+00  0.11368683772E-12  0.17120000000E+03  0.17120000000E+03 0.  0.
         13    1    1    2    0    0  0.80986299399E+01  0.59924760105E+01  0.36443372606E+02  0.37810423782E+02  0.10566000000E+00 0.  1.
        994    1    1    2    0    0  0.46033611632E+01  0.12395801491E+02  0.20947942660E+01  0.17172266883E+03  0.17120000000E+03 0.  0.
        998    1    1    2    0    0 -0.12701991103E+02 -0.18388277502E+02  0.14614618294E+04  0.14616669074E+04  0.10000000000E+02 0.  1.
</event>
<event>
 5    1  0.1145138E-008  0.3835593E+03  0.7957747E-01  0.3435805E+00
         13   -1    0    0    0    0  0.00000000000E+00  0.00000000000E+00  0.14999999963E+04  0.15000000000E+04  0.10566000000E+00 0. -1.
        994   -1    0    0    0    0 -0.00000000000E+00 -0.00000000000E+00  0.11368683772E-12  0.17120000000E+03  0.17120000000E+03 0.  0.
         13    1    1    2    0    0 -0.12934525695E+02  0.19809268469E+02  0.11230167248E+03  0.11476665839E+03  0.10566000000E+00 0. -1.
        994    1    1    2    0    0  0.34210566065E+02 -0.55472736151E+01  0.63258995721E+01  0.17478727666E+03  0.17120000000E+03 0.  0.
        998    1    1    2    0    0 -0.21276040371E+02 -0.14261994854E+02  0.13813724242E+04  0.13816460650E+04  0.10000000000E+02 0. -1.
</event>
<event>
 5    1  0.1145138E-008  0.3811774E+03  0.7957747E-01  0.3446048E+00
         13   -1    0    0    0    0  0.00000000000E+00  0.00000000000E+00  0.14999999963E+04  0.15000000000E+04  0.10566000000E+00 0.  1.
        994   -1    0    0    0    0 -0.00000000000E+00 -0.00000000000E+00  0.11368683772E-12  0.17120000000E+03  0.17120000000E+03 0.  0.
         13    1    1    2    0    0  0.10631693378E+02  0.20993514201E+01  0.15123191547E+02  0.18605436493E+02  0.10566000000E+00 0.  1.
        994    1    1    2    0    0 -0.32548223351E+01 -0.19395231975E+02  0.48289865713E+01  0.17239352657E+03  0.17120000000E+03 0.  0.
        998    1    1    2    0    0 -0.73768710434E+01  0.17295880555E+02  0.14800478182E+04  0.14802010369E+04  0.10000000000E+02 0.  1.
</event>
<event>
 5    1  0.1145138E-008  0.3812501E+03  0.7957747E-01  0.3445733E+00
         13   -1    0    0    0    0  0.00000000000E+00  0.00000000000E+00  0.14999999963E+04  0.15000000000E+04  0.10566000000E+00 0.  1.
        994   -1    0    0    0    0 -0.00000000000E+00 -0.00000000000E+00  0.11368683772E-12  0.17120000000E+03  0.17120000000E+03 0.  0.
         13    1    1    2    0    0  0.17622332196E+00  0.17190888928E+02  0.41292004274E+02  0.44728050458E+02  0.10566000000E+00 0.  1.
        994    1    1    2    0    0 -0.62271625205E+01 -0.87950442849E+01  0.38901546417E+01  0.17158293522E+03  0.17120000000E+03 0.  0.
        998    1    1    2    0    0  0.60509391986E+01 -0.83958446431E+01  0.14548178374E+04  0.14548890143E+04  0.10000000000E+02 0.  1.
</event>
<event>
 5    1  0.1145138E-008  0.3769154E+03  0.7957747E-01  0.3464701E+00
         13   -1    0    0    0    0  0.00000000000E+00  0.00000000000E+00  0.14999999963E+04  0.15000000000E+04  0.10566000000E+00 0.  1.
        994   -1    0    0    0    0 -0.00000000000E+00 -0.00000000000E+00  0.11368683772E-12  0.17120000000E+03  0.17120000000E+03 0.  0.
         13    1    1    2    0    0  0.67017633551E+02  0.53600308549E+02  0.41849658054E+03  0.42720458257E+03  0.10566000000E+00 0.  1.
        994    1    1    2    0    0 -0.61022007308E+02 -0.77541663221E+02  0.39323068484E+02  0.20147490818E+03  0.17120000000E+03 0.  0.
        998    1    1    2    0    0 -0.59956262434E+01  0.23941354672E+02  0.10421803473E+04  0.10425205093E+04  0.10000000000E+02 0.  1.
</event>
<event>
 5    1  0.1634739E-008  0.3856461E+03  0.7957747E-01  0.3426937E+00
         13   -1    0    0    0    0  0.00000000000E+00  0.00000000000E+00  0.14999999963E+04  0.15000000000E+04  0.10566000000E+00 0.  1.
        994   -1    0    0    0    0 -0.00000000000E+00 -0.00000000000E+00  0.11368683772E-12  0.17120000000E+03  0.17120000000E+03 0.  0.
         13    1    1    2    0    0 -0.10783634956E+02  0.34667781528E+01  0.48025096546E+02  0.49342946769E+02  0.10566000000E+00 0.  1.
        994    1    1    2    0    0  0.11567112283E+02 -0.29531229977E+01  0.17775630358E+01  0.17162493628E+03  0.17120000000E+03 0.  0.
        998    1    1    2    0    0 -0.78347732728E+00 -0.51365515507E+00  0.14501973367E+04  0.14502321170E+04  0.10000000000E+02 0.  0.
</event>
<event>
 5    1  0.1145138E-008  0.3847048E+03  0.7957747E-01  0.3430925E+00
         13   -1    0    0    0    0  0.00000000000E+00  0.00000000000E+00  0.14999999963E+04  0.15000000000E+04  0.10566000000E+00 0.  1.
        994   -1    0    0    0    0 -0.00000000000E+00 -0.00000000000E+00  0.11368683772E-12  0.17120000000E+03  0.17120000000E+03 0.  0.
         13    1    1    2    0    0 -0.12162022615E+02  0.21124462262E+02  0.14333110960E+03  0.14538904994E+03  0.10566000000E+00 0.  1.
        994    1    1    2    0    0  0.19272203066E+01 -0.36644477042E+02  0.62219009205E+01  0.17519898381E+03  0.17120000000E+03 0.  0.
        998    1    1    2    0    0  0.10234802309E+02  0.15520014781E+02  0.13504469858E+04  0.13506119663E+04  0.10000000000E+02 0.  1.
</event>
<event>
 5    1  0.1145138E-008  0.3727295E+03  0.7957747E-01  0.3483440E+00
         13   -1    0    0    0    0  0.00000000000E+00  0.00000000000E+00  0.14999999963E+04  0.15000000000E+04  0.10566000000E+00 0.  1.
        994   -1    0    0    0    0 -0.00000000000E+00 -0.00000000000E+00  0.11368683772E-12  0.17120000000E+03  0.17120000000E+03 0.  0.
         13    1    1    2    0    0 -0.73084543622E+01 -0.22246770924E+02  0.31237207636E+02  0.39039808231E+02  0.10566000000E+00 0.  1.
        994    1    1    2    0    0  0.56318945126E+01  0.21179355511E+02  0.94962542688E+01  0.17285804054E+03  0.17120000000E+03 0.  0.
        998    1    1    2    0    0  0.16765598496E+01  0.10674154132E+01  0.14592665344E+04  0.14593021512E+04  0.10000000000E+02 0.  1.
</event>
<event>
 5    1  0.1145138E-008  0.3807521E+03  0.7957747E-01  0.3447890E+00
         13   -1    0    0    0    0  0.00000000000E+00  0.00000000000E+00  0.14999999963E+04  0.15000000000E+04  0.10566000000E+00 0. -1.
        994   -1    0    0    0    0 -0.00000000000E+00 -0.00000000000E+00  0.11368683772E-12  0.17120000000E+03  0.17120000000E+03 0.  0.
         13    1    1    2    0    0  0.28615065900E+02  0.13058985441E+02  0.11871362471E+03  0.12280999533E+03  0.10566000000E+00 0. -1.
        994    1    1    2    0    0 -0.29373362663E+02 -0.20593583443E+02  0.80571923198E+01  0.17510353640E+03  0.17120000000E+03 0.  0.
        998    1    1    2    0    0  0.75829676223E+00  0.75345980019E+01  0.13732291792E+04  0.13732864683E+04  0.10000000000E+02 0. -1.
</event>
<event>
 5    1  0.1145138E-008  0.3773422E+03  0.7957747E-01  0.3462813E+00
         13   -1    0    0    0    0  0.00000000000E+00  0.00000000000E+00  0.14999999963E+04  0.15000000000E+04  0.10566000000E+00 0. -1.
        994   -1    0    0    0    0 -0.00000000000E+00 -0.00000000000E+00  0.11368683772E-12  0.17120000000E+03  0.17120000000E+03 0.  0.
         13    1    1    2    0    0  0.25551647788E+02 -0.19494877615E+02  0.29740976275E+02  0.43788968836E+02  0.10566000000E+00 0. -1.
        994    1    1    2    0    0  0.68065835744E+01  0.23339282090E+02  0.16998783733E+02  0.17375111602E+03  0.17120000000E+03 0.  0.
        998    1    1    2    0    0 -0.32358231362E+02 -0.38444044746E+01  0.14532602363E+04  0.14536599151E+04  0.10000000000E+02 0. -1.
</event>
<event>
 5    1  0.1145138E-008  0.3777418E+03  0.7957747E-01  0.3461050E+00
         13   -1    0    0    0    0  0.00000000000E+00  0.00000000000E+00  0.14999999963E+04  0.15000000000E+04  0.10566000000E+00 0.  1.
        994   -1    0    0    0    0 -0.00000000000E+00 -0.00000000000E+00  0.11368683772E-12  0.17120000000E+03  0.17120000000E+03 0.  0.
         13    1    1    2    0    0 -0.36449239392E+02  0.63256536118E+01  0.14414277964E+03  0.14881435761E+03  0.10566000000E+00 0.  1.
        994    1    1    2    0    0  0.28682142218E+01  0.11648983144E+02  0.57623108485E+01  0.17171653877E+03  0.17120000000E+03 0.  0.
        998    1    1    2    0    0  0.33581025170E+02 -0.17974636756E+02  0.13500949058E+04  0.13506691036E+04  0.10000000000E+02 0.  1.
</event>
<event>
 5    1  0.1145138E-008  0.3854419E+03  0.7957747E-01  0.3427800E+00
         13   -1    0    0    0    0  0.00000000000E+00  0.00000000000E+00  0.14999999963E+04  0.15000000000E+04  0.10566000000E+00 0. -1.
        994   -1    0    0    0    0 -0.00000000000E+00 -0.00000000000E+00  0.11368683772E-12  0.17120000000E+03  0.17120000000E+03 0.  0.
         13    1    1    2    0    0 -0.21909965204E+01  0.16896172442E+02  0.99132972214E+02  0.10058647251E+03  0.10566000000E+00 0. -1.
        994    1    1    2    0    0  0.49039426266E+01 -0.15372389829E+02  0.22663547210E+01  0.17197364736E+03  0.17120000000E+03 0.  0.
        998    1    1    2    0    0 -0.27129461062E+01 -0.15237826137E+01  0.13986006693E+04  0.13986398801E+04  0.10000000000E+02 0. -1.
</event>
<event>
 5    1  0.1145138E-008  0.3803306E+03  0.7957747E-01  0.3449720E+00
         13   -1    0    0    0    0  0.00000000000E+00  0.00000000000E+00  0.14999999963E+04  0.15000000000E+04  0.10566000000E+00 0. -1.
        994   -1    0    0    0    0 -0.00000000000E+00 -0.00000000000E+00  0.11368683772E-12  0.17120000000E+03  0.17120000000E+03 0.  0.
         13    1    1    2    0    0  0.28081325829E+02 -0.12324806490E+02  0.10574724835E+03  0.11010428426E+03  0.10566000000E+00 0. -1.
        994    1    1    2    0    0 -0.32036088835E+02  0.21241214648E+02  0.89159184416E+01  0.17568845662E+03  0.17120000000E+03 0.  0.
        998    1    1    2    0    0  0.39547630062E+01 -0.89164081585E+01  0.13853368295E+04  0.13854072591E+04  0.10000000000E+02 0. -1.
</event>
<event>
 5    1  0.1145138E-008  0.3826264E+03  0.7957747E-01  0.3439802E+00
         13   -1    0    0    0    0  0.00000000000E+00  0.00000000000E+00  0.14999999963E+04  0.15000000000E+04  0.10566000000E+00 0. -1.
        994   -1    0    0    0    0 -0.00000000000E+00 -0.00000000000E+00  0.11368683772E-12  0.17120000000E+03  0.17120000000E+03 0.  0.
         13    1    1    2    0    0  0.24377666453E+02  0.11075162198E+02  0.12065142981E+03  0.12358684606E+03  0.10566000000E+00 0. -1.
        994    1    1    2    0    0 -0.23090376769E+02 -0.57687551337E+01  0.46927381067E+01  0.17291010909E+03  0.17120000000E+03 0.  0.
        998    1    1    2    0    0 -0.12872896834E+01 -0.53064070647E+01  0.13746558284E+04  0.13747030449E+04  0.10000000000E+02 0. -1.
</event>
<event>
 5    1  0.1145138E-008  0.3851358E+03  0.7957747E-01  0.3429096E+00
         13   -1    0    0    0    0  0.00000000000E+00  0.00000000000E+00  0.14999999963E+04  0.15000000000E+04  0.10566000000E+00 0. -1.
        994   -1    0    0    0    0 -0.00000000000E+00 -0.00000000000E+00  0.11368683772E-12  0.17120000000E+03  0.17120000000E+03 0.  0.
         13    1    1    2    0    0  0.73920295389E+01 -0.16348494339E+02  0.10221931643E+03  0.10378205617E+03  0.10566000000E+00 0. -1.
        994    1    1    2    0    0 -0.17888778783E+02  0.60774038653E+01  0.27369374905E+01  0.17226106371E+03  0.17120000000E+03 0.  0.
        998    1    1    2    0    0  0.10496749244E+02  0.10271090474E+02  0.13950437424E+04  0.13951568801E+04  0.10000000000E+02 0. -1.
</event>
<event>
 5    1  0.1145138E-008  0.3738210E+03  0.7957747E-01  0.3478512E+00
         13   -1    0    0    0    0  0.00000000000E+00  0.00000000000E+00  0.14999999963E+04  0.15000000000E+04  0.10566000000E+00 0. -1.
        994   -1    0    0    0    0 -0.00000000000E+00 -0.00000000000E+00  0.11368683772E-12  0.17120000000E+03  0.17120000000E+03 0.  0.
         13    1    1    2    0    0  0.26039638043E+02 -0.16891833147E+01  0.41980029148E+02  0.49429243379E+02  0.10566000000E+00 0. -1.
        994    1    1    2    0    0 -0.32414869481E+02  0.10952200802E+00  0.10879718341E+02  0.17458105289E+03  0.17120000000E+03 0.  0.
        998    1    1    2    0    0  0.63752314381E+01  0.15796613067E+01  0.14471402488E+04  0.14471897037E+04  0.10000000000E+02 0. -1.
</event>
<event>
 5    1  0.1145138E-008  0.3787022E+03  0.7957747E-01  0.3456829E+00
         13   -1    0    0    0    0  0.00000000000E+00  0.00000000000E+00  0.14999999963E+04  0.15000000000E+04  0.10566000000E+00 0.  1.
        994   -1    0    0    0    0 -0.00000000000E+00 -0.00000000000E+00  0.11368683772E-12  0.17120000000E+03  0.17120000000E+03 0.  0.
         13    1    1    2    0    0  0.17460653414E+02 -0.83180197142E+02  0.45477013556E+03  0.46264425531E+03  0.10566000000E+00 0.  1.
        994    1    1    2    0    0 -0.26317567923E+02  0.93111107971E+02  0.36893667174E+02  0.20008217184E+03  0.17120000000E+03 0.  0.
        998    1    1    2    0    0  0.88569145089E+01 -0.99309108289E+01  0.10083361935E+04  0.10084735729E+04  0.10000000000E+02 0.  1.
</event>
<event>
 5    1  0.1145138E-008  0.3752994E+03  0.7957747E-01  0.3471885E+00
         13   -1    0    0    0    0  0.00000000000E+00  0.00000000000E+00  0.14999999963E+04  0.15000000000E+04  0.10566000000E+00 0. -1.
        994   -1    0    0    0    0 -0.00000000000E+00 -0.00000000000E+00  0.11368683772E-12  0.17120000000E+03  0.17120000000E+03 0.  0.
         13    1    1    2    0    0 -0.16119033086E+02  0.30780172045E+02  0.12948467693E+03  0.13406541292E+03  0.10566000000E+00 0. -1.
        994    1    1    2    0    0 -0.26120977243E+02  0.43204672709E+02  0.15230374412E+02  0.17913780589E+03  0.17120000000E+03 0.  0.
        998    1    1    2    0    0  0.42240010329E+02 -0.73984844754E+02  0.13552849449E+04  0.13579967812E+04  0.10000000000E+02 0. -1.
</event>
<event>
 5    1  0.1145138E-008  0.3825460E+03  0.7957747E-01  0.3440147E+00
         13   -1    0    0    0    0  0.00000000000E+00  0.00000000000E+00  0.14999999963E+04  0.15000000000E+04  0.10566000000E+00 0.  1.
        994   -1    0    0    0    0 -0.00000000000E+00 -0.00000000000E+00  0.11368683772E-12  0.17120000000E+03  0.17120000000E+03 0.  0.
         13    1    1    2    0    0 -0.10194375669E+01  0.27342774313E+02  0.14335473332E+03  0.14594265069E+03  0.10566000000E+00 0.  1.
        994    1    1    2    0    0  0.76056776181E+01 -0.33683270723E+01  0.30828522893E+01  0.17142968220E+03  0.17120000000E+03 0.  0.
        998    1    1    2    0    0 -0.65862400511E+01 -0.23974447241E+02  0.13535624107E+04  0.13538276671E+04  0.10000000000E+02 0.  1.
</event>
<event>
 5    1  0.1145138E-008  0.3763415E+03  0.7957747E-01  0.3467245E+00
         13   -1    0    0    0    0  0.00000000000E+00  0.00000000000E+00  0.14999999963E+04  0.15000000000E+04  0.10566000000E+00 0.  1.
        994   -1    0    0    0    0 -0.00000000000E+00 -0.00000000000E+00  0.11368683772E-12  0.17120000000E+03  0.17120000000E+03 0.  0.
         13    1    1    2    0    0 -0.20533589794E+02  0.13566074619E+01  0.33360810566E+02  0.39197238924E+02  0.10566000000E+00 0.  1.
        994    1    1    2    0    0  0.92921570893E+01  0.22181755359E+01  0.63003507971E+01  0.17158204716E+03  0.17120000000E+03 0.  0.
        998    1    1    2    0    0  0.11241432705E+02 -0.35747829977E+01  0.14603388349E+04  0.14604207139E+04  0.10000000000E+02 0.  1.
</event>
<event>
 5    1  0.1145138E-008  0.3859227E+03  0.7957747E-01  0.3425768E+00
         13   -1    0    0    0    0  0.00000000000E+00  0.00000000000E+00  0.14999999963E+04  0.15000000000E+04  0.10566000000E+00 0.  1.
        994   -1    0    0    0    0 -0.00000000000E+00 -0.00000000000E+00  0.11368683772E-12  0.17120000000E+03  0.17120000000E+03 0.  0.
         13    1    1    2    0    0 -0.67430498959E+02 -0.55739005228E+02  0.17166402604E+03  0.19267137279E+03  0.10566000000E+00 0.  1.
        994    1    1    2    0    0  0.62710886149E+02  0.51950739027E+02  0.44622258801E+02  0.19476170185E+03  0.17120000000E+03 0.  0.
        998    1    1    2    0    0  0.47196128100E+01  0.37882662007E+01  0.12837137114E+04  0.12837669254E+04  0.10000000000E+02 0.  1.
</event>
<event>
 5    1  0.1145138E-008  0.3842813E+03  0.7957747E-01  0.3432726E+00
         13   -1    0    0    0    0  0.00000000000E+00  0.00000000000E+00  0.14999999963E+04  0.15000000000E+04  0.10566000000E+00 0. -1.
        994   -1    0    0    0    0 -0.00000000000E+00 -0.00000000000E+00  0.11368683772E-12  0.17120000000E+03  0.17120000000E+03 0.  0.
         13    1    1    2    0    0  0.13779871936E+02 -0.17704073782E+02  0.11671571300E+03  0.11885237870E+03  0.10566000000E+00 0. -1.
        994    1    1    2    0    0 -0.37080591637E+02  0.33222368920E+01  0.65695354918E+01  0.17532428905E+03  0.17120000000E+03 0.  0.
        998    1    1    2    0    0  0.23300719701E+02  0.14381836890E+02  0.13767147478E+04  0.13770233322E+04  0.10000000000E+02 0. -1.
</event>
<event>
 5    1  0.1145138E-008  0.3749518E+03  0.7957747E-01  0.3473438E+00
         13   -1    0    0    0    0  0.00000000000E+00  0.00000000000E+00  0.14999999963E+04  0.15000000000E+04  0.10566000000E+00 0. -1.
        994   -1    0    0    0    0 -0.00000000000E+00 -0.00000000000E+00  0.11368683772E-12  0.17120000000E+03  0.17120000000E+03 0.  0.
         13    1    1    2    0    0  0.15365671616E+03 -0.87070998190E+02  0.80075387442E+03  0.81999909982E+03  0.10566000000E+00 0. -1.
        994    1    1    2    0    0 -0.16873763626E+03  0.76601721509E+02  0.13418625997E+03  0.28575445052E+03  0.17120000000E+03 0.  0.
        998    1    1    2    0    0  0.15080920099E+02  0.10469276681E+02  0.56505986190E+03  0.56544644966E+03  0.10000000000E+02 0. -1.
</event>
<event>
 5    1  0.1145138E-008  0.3687346E+03  0.7957747E-01  0.3501727E+00
         13   -1    0    0    0    0  0.00000000000E+00  0.00000000000E+00  0.14999999963E+04  0.15000000000E+04  0.10566000000E+00 0.  1.
        994   -1    0    0    0    0 -0.00000000000E+00 -0.00000000000E+00  0.11368683772E-12  0.17120000000E+03  0.17120000000E+03 0.  0.
         13    1    1    2    0    0  0.21096281601E+02  0.13506166152E+03  0.69008814138E+03  0.70349723493E+03  0.10566000000E+00 0.  1.
        994    1    1    2    0    0 -0.53560259132E+02 -0.10240351443E+03  0.58312241736E+02  0.21462744154E+03  0.17120000000E+03 0.  0.
        998    1    1    2    0    0  0.32463977531E+02 -0.32658147084E+02  0.75159961316E+03  0.75307532353E+03  0.10000000000E+02 0.  1.
</event>
<event>
 5    1  0.1145138E-008  0.3860013E+03  0.7957747E-01  0.3425436E+00
         13   -1    0    0    0    0  0.00000000000E+00  0.00000000000E+00  0.14999999963E+04  0.15000000000E+04  0.10566000000E+00 0.  1.
        994   -1    0    0    0    0 -0.00000000000E+00 -0.00000000000E+00  0.11368683772E-12  0.17120000000E+03  0.17120000000E+03 0.  0.
         13    1    1    2    0    0 -0.86296481677E+01  0.59229477082E+01  0.46143375762E+02  0.47315689024E+02  0.10566000000E+00 0.  1.
        994    1    1    2    0    0  0.10153594083E+02 -0.13863123217E+02  0.21023333693E+01  0.17207307013E+03  0.17120000000E+03 0.  0.
        998    1    1    2    0    0 -0.15239459157E+01  0.79401755090E+01  0.14517542871E+04  0.14518112408E+04  0.10000000000E+02 0.  1.
</event>
<event>
 5    1  0.1145138E-008  0.3856980E+03  0.7957747E-01  0.3426717E+00
         13   -1    0    0    0    0  0.00000000000E+00  0.00000000000E+00  0.14999999963E+04  0.15000000000E+04  0.10566000000E+00 0. -1.
        994   -1    0    0    0    0 -0.00000000000E+00 -0.00000000000E+00  0.11368683772E-12  0.17120000000E+03  0.17120000000E+03 0.  0.
         13    1    1    2    0    0  0.17936310084E+02  0.44153140062E+01  0.10911494698E+03  0.11066747054E+03  0.10566000000E+00 0. -1.
        994    1    1    2    0    0 -0.35032531031E+02 -0.26702706733E+01  0.53448698548E+01  0.17484969605E+03  0.17120000000E+03 0.  0.
        998    1    1    2    0    0  0.17096220947E+02 -0.17450433328E+01  0.13855401794E+04  0.13856828334E+04  0.10000000000E+02 0. -1.
</event>
<event>
 5    1  0.1145138E-008  0.3824809E+03  0.7957747E-01  0.3440427E+00
         13   -1    0    0    0    0  0.00000000000E+00  0.00000000000E+00  0.14999999963E+04  0.15000000000E+04  0.10566000000E+00 0.  1.
        994   -1    0    0    0    0 -0.00000000000E+00 -0.00000000000E+00  0.11368683772E-12  0.17120000000E+03  0.17120000000E+03 0.  0.
         13    1    1    2    0    0  0.12465434367E+02  0.72254784804E+01  0.34236306477E+02  0.37144722888E+02  0.10566000000E+00 0.  1.
        994    1    1    2    0    0 -0.19254095494E+02  0.23196395525E+01  0.41340648330E+01  0.17234451373E+03  0.17120000000E+03 0.  0.
        998    1    1    2    0    0  0.67886611265E+01 -0.95451180330E+01  0.14616296250E+04  0.14617107634E+04  0.10000000000E+02 0.  1.
</event>
<event>
 5    1  0.1145138E-008  0.3817764E+03  0.7957747E-01  0.3443460E+00
         13   -1    0    0    0    0  0.00000000000E+00  0.00000000000E+00  0.14999999963E+04  0.15000000000E+04  0.10566000000E+00 0.  1.
        994   -1    0    0    0    0 -0.00000000000E+00 -0.00000000000E+00  0.11368683772E-12  0.17120000000E+03  0.17120000000E+03 0.  0.
         13    1    1    2    0    0  0.11273312429E+02 -0.20674062074E+02  0.83554028525E+02  0.86808935385E+02  0.10566000000E+00 0.  1.
        994    1    1    2    0    0  0.73880661147E+01  0.23586158448E+02  0.52719825807E+01  0.17305526340E+03  0.17120000000E+03 0.  0.
        998    1    1    2    0    0 -0.18661378544E+02 -0.29120963740E+01  0.14111739852E+04  0.14113358012E+04  0.10000000000E+02 0.  1.
</event>
<event>
 5    1  0.1145138E-008  0.3989149E+03  0.7957747E-01  0.3372719E+00
         13   -1    0    0    0    0  0.00000000000E+00  0.00000000000E+00  0.14999999963E+04  0.15000000000E+04  0.10566000000E+00 0.  1.
        994   -1    0    0    0    0 -0.00000000000E+00 -0.00000000000E+00  0.11368683772E-12  0.17120000000E+03  0.17120000000E+03 0.  0.
         13    1    1    2    0    0  0.13962592991E+00  0.84859458872E+02  0.11370383390E+03  0.14187924536E+03  0.10566000000E+00 0.  1.
        994    1    1    2    0    0  0.16485107783E+02 -0.88671790954E+02  0.59596496176E+02  0.20247377027E+03  0.17120000000E+03 0.  0.
        998    1    1    2    0    0 -0.16624733713E+02  0.38123320813E+01  0.13266996662E+04  0.13268469844E+04  0.10000000000E+02 0.  1.
</event>
<event>
 5    1  0.1145138E-008  0.3793201E+03  0.7957747E-01  0.3454124E+00
         13   -1    0    0    0    0  0.00000000000E+00  0.00000000000E+00  0.14999999963E+04  0.15000000000E+04  0.10566000000E+00 0. -1.
        994   -1    0    0    0    0 -0.00000000000E+00 -0.00000000000E+00  0.11368683772E-12  0.17120000000E+03  0.17120000000E+03 0.  0.
         13    1    1    2    0    0  0.13510749994E+02 -0.24957369512E+02  0.10006552874E+03  0.10401217171E+03  0.10566000000E+00 0. -1.
        994    1    1    2    0    0  0.69225140473E+01 -0.44263212249E+01  0.47029976720E+01  0.17146157502E+03  0.17120000000E+03 0.  0.
        998    1    1    2    0    0 -0.20433264041E+02  0.29383690736E+02  0.13952314699E+04  0.13957262533E+04  0.10000000000E+02 0. -1.
</event>
<event>
 5    1  0.1145138E-008  0.3791579E+03  0.7957747E-01  0.3454833E+00
         13   -1    0    0    0    0  0.00000000000E+00  0.00000000000E+00  0.14999999963E+04  0.15000000000E+04  0.10566000000E+00 0.  1.
        994   -1    0    0    0    0 -0.00000000000E+00 -0.00000000000E+00  0.11368683772E-12  0.17120000000E+03  0.17120000000E+03 0.  0.
         13    1    1    2    0    0 -0.43262097013E+02 -0.10405080082E+02  0.19287890285E+03  0.19794483337E+03  0.10566000000E+00 0.  1.
        994    1    1    2    0    0  0.45991881385E+02 -0.93689945849E+01  0.11979631877E+02  0.17792128257E+03  0.17120000000E+03 0.  0.
        998    1    1    2    0    0 -0.27297843725E+01  0.19774074667E+02  0.12951414615E+04  0.12953338841E+04  0.10000000000E+02 0.  1.
</event>
<event>
 5    1  0.1145138E-008  0.3279544E+03  0.7957747E-01  0.3714672E+00
         13   -1    0    0    0    0  0.00000000000E+00  0.00000000000E+00  0.14999999963E+04  0.15000000000E+04  0.10566000000E+00 0. -1.
        994   -1    0    0    0    0 -0.00000000000E+00 -0.00000000000E+00  0.11368683772E-12  0.17120000000E+03  0.17120000000E+03 0.  0.
         13    1    1    2    0    0  0.26056616156E+03  0.42024410979E+02  0.71874086118E+03  0.76566912721E+03  0.10566000000E+00 0. -1.
        994    1    1    2    0    0 -0.22775124259E+03 -0.88087040456E+02  0.30772117961E+03  0.42852271769E+03  0.17120000000E+03 0.  0.
        998    1    1    2    0    0 -0.32814918978E+02  0.46062629476E+02  0.47353795549E+03  0.47700815510E+03  0.10000000000E+02 0. -1.
</event>
<event>
 5    1  0.1145138E-008  0.3811422E+03  0.7957747E-01  0.3446200E+00
         13   -1    0    0    0    0  0.00000000000E+00  0.00000000000E+00  0.14999999963E+04  0.15000000000E+04  0.10566000000E+00 0. -1.
        994   -1    0    0    0    0 -0.00000000000E+00 -0.00000000000E+00  0.11368683772E-12  0.17120000000E+03  0.17120000000E+03 0.  0.
         13    1    1    2    0    0 -0.93803021101E+01 -0.45497331145E+01  0.13592540745E+02  0.17130629499E+02  0.10566000000E+00 0. -1.
        994    1    1    2    0    0  0.10547105245E+02  0.66424133209E+01  0.40752684970E+01  0.17170151687E+03  0.17120000000E+03 0.  0.
        998    1    1    2    0    0 -0.11668031351E+01 -0.20926802064E+01  0.14823321870E+04  0.14823678536E+04  0.10000000000E+02 0. -1.
</event>
<event>
 5    1  0.1145138E-008  0.3805852E+03  0.7957747E-01  0.3448615E+00
         13   -1    0    0    0    0  0.00000000000E+00  0.00000000000E+00  0.14999999963E+04  0.15000000000E+04  0.10566000000E+00 0.  1.
        994   -1    0    0    0    0 -0.00000000000E+00 -0.00000000000E+00  0.11368683772E-12  0.17120000000E+03  0.17120000000E+03 0.  0.
         13    1    1    2    0    0  0.10485278239E+01 -0.28660926875E+02  0.10088304483E+03  0.10488063710E+03  0.10566000000E+00 0.  1.
        994    1    1    2    0    0  0.72349631805E+01  0.26825983219E+02  0.64179924381E+01  0.17355866067E+03  0.17120000000E+03 0.  0.
        998    1    1    2    0    0 -0.82834910044E+01  0.18349436565E+01  0.13926989590E+04  0.13927607022E+04  0.10000000000E+02 0.  1.
</event>
<event>
 5    1  0.1145138E-008  0.3839784E+03  0.7957747E-01  0.3434017E+00
         13   -1    0    0    0    0  0.00000000000E+00  0.00000000000E+00  0.14999999963E+04  0.15000000000E+04  0.10566000000E+00 0.  1.
        994   -1    0    0    0    0 -0.00000000000E+00 -0.00000000000E+00  0.11368683772E-12  0.17120000000E+03  0.17120000000E+03 0.  0.
         13    1    1    2    0    0  0.95677096388E+00 -0.15061065847E+02  0.55292247186E+02  0.57314874841E+02  0.10566000000E+00 0.  1.
        994    1    1    2    0    0  0.67355307272E+01  0.15559109903E+01  0.22959114952E+01  0.17135489326E+03  0.17120000000E+03 0.  0.
        998    1    1    2    0    0 -0.76923016911E+01  0.13505154856E+02  0.14424118376E+04  0.14425302319E+04  0.10000000000E+02 0.  1.
</event>
<event>
 5    1  0.1145138E-008  0.3725744E+03  0.7957747E-01  0.3484142E+00
         13   -1    0    0    0    0  0.00000000000E+00  0.00000000000E+00  0.14999999963E+04  0.15000000000E+04  0.10566000000E+00 0. -1.
        994   -1    0    0    0    0 -0.00000000000E+00 -0.00000000000E+00  0.11368683772E-12  0.17120000000E+03  0.17120000000E+03 0.  0.
         13    1    1    2    0    0 -0.23629577122E+02  0.44052035549E+02  0.95325894160E+02  0.10763817173E+03  0.10566000000E+00 0. -1.
        994    1    1    2    0    0  0.22574489981E+02 -0.31373002732E+02  0.17595166847E+02  0.17638849961E+03  0.17120000000E+03 0.  0.
        998    1    1    2    0    0  0.10550871409E+01 -0.12679032817E+02  0.13870789353E+04  0.13871733287E+04  0.10000000000E+02 0. -1.
</event>
<event>
 5    1  0.1145138E-008  0.3688366E+03  0.7957747E-01  0.3501255E+00
         13   -1    0    0    0    0  0.00000000000E+00  0.00000000000E+00  0.14999999963E+04  0.15000000000E+04  0.10566000000E+00 0.  1.
        994   -1    0    0    0    0 -0.00000000000E+00 -0.00000000000E+00  0.11368683772E-12  0.17120000000E+03  0.17120000000E+03 0.  0.
         13    1    1    2    0    0 -0.14038787551E+02  0.51587116686E+02  0.13454723724E+03  0.14478013806E+03  0.10566000000E+00 0.  1.
        994    1    1    2    0    0  0.29240404277E+02 -0.38229040314E+02  0.17963643545E+02  0.17874169423E+03  0.17120000000E+03 0.  0.
        998    1    1    2    0    0 -0.15201616726E+02 -0.13358076372E+02  0.13474891155E+04  0.13476781677E+04  0.10000000000E+02 0.  1.
</event>
<event>
 5    1  0.1145138E-008  0.3766431E+03  0.7957747E-01  0.3465907E+00
         13   -1    0    0    0    0  0.00000000000E+00  0.00000000000E+00  0.14999999963E+04  0.15000000000E+04  0.10566000000E+00 0.  1.
        994   -1    0    0    0    0 -0.00000000000E+00 -0.00000000000E+00  0.11368683772E-12  0.17120000000E+03  0.17120000000E+03 0.  0.
         13    1    1    2    0    0 -0.13394885438E+02 -0.74701839719E+01  0.17267444928E+02  0.23095506551E+02  0.10566000000E+00 0.  1.
        994    1    1    2    0    0  0.15892893971E+02  0.11175600065E+02  0.71144488937E+01  0.17244574074E+03  0.17120000000E+03 0.  0.
        998    1    1    2    0    0 -0.24980085332E+01 -0.37054160930E+01  0.14756181025E+04  0.14756587527E+04  0.10000000000E+02 0.  1.
</event>
<event>
 5    1  0.1145138E-008  0.3818542E+03  0.7957747E-01  0.3443124E+00
         13   -1    0    0    0    0  0.00000000000E+00  0.00000000000E+00  0.14999999963E+04  0.15000000000E+04  0.10566000000E+00 0.  1.
        994   -1    0    0    0    0 -0.00000000000E+00 -0.00000000000E+00  0.11368683772E-12  0.17120000000E+03  0.17120000000E+03 0.  0.
         13    1    1    2    0    0 -0.84146385158E+00 -0.16273965400E+02  0.40821145536E+02  0.43953692657E+02  0.10566000000E+00 0.  1.
        994    1    1    2    0    0  0.67886057699E+01  0.75435039657E+01  0.35423238637E+01  0.17153710292E+03  0.17120000000E+03 0.  0.
        998    1    1    2    0    0 -0.59471419183E+01  0.87304614342E+01  0.14556365269E+04  0.14557092044E+04  0.10000000000E+02 0.  1.
</event>
<event>
 5    1  0.1145138E-008  0.3845720E+03  0.7957747E-01  0.3431490E+00
         13   -1    0    0    0    0  0.00000000000E+00  0.00000000000E+00  0.14999999963E+04  0.15000000000E+04  0.10566000000E+00 0.  1.
        994   -1    0    0    0    0 -0.00000000000E+00 -0.00000000000E+00  0.11368683772E-12  0.17120000000E+03  0.17120000000E+03 0.  0.
         13    1    1    2    0    0  0.12257394086E+02  0.14516319918E+02  0.10016798560E+03  0.10195392958E+03  0.10566000000E+00 0.  1.
        994    1    1    2    0    0  0.14447849518E+01 -0.12908868414E+02  0.23986400270E+01  0.17170882261E+03  0.17120000000E+03 0.  0.
        998    1    1    2    0    0 -0.13702179038E+02 -0.16074515035E+01  0.13974333706E+04  0.13975372478E+04  0.10000000000E+02 0.  1.
</event>
<event>
 5    1  0.1145138E-008  0.3752255E+03  0.7957747E-01  0.3472215E+00
         13   -1    0    0    0    0  0.00000000000E+00  0.00000000000E+00  0.14999999963E+04  0.15000000000E+04  0.10566000000E+00 0.  1.
        994   -1    0    0    0    0 -0.00000000000E+00 -0.00000000000E+00  0.11368683772E-12  0.17120000000E+03  0.17120000000E+03 0.  0.
         13    1    1    2    0    0  0.10320877919E+03  0.15840097920E+03  0.88742366311E+03  0.90733879633E+03  0.10566000000E+00 0.  1.
        994    1    1    2    0    0 -0.80358094130E+02 -0.17714746810E+03  0.14835451500E+03  0.29859194709E+03  0.17120000000E+03 0.  0.
        998    1    1    2    0    0 -0.22850685062E+02  0.18746488900E+02  0.46422181817E+03  0.46526925658E+03  0.10000000000E+02 0. -1.
</event>
<event>
 5    1  0.1145138E-008  0.3695464E+03  0.7957747E-01  0.3497978E+00
         13   -1    0    0    0    0  0.00000000000E+00  0.00000000000E+00  0.14999999963E+04  0.15000000000E+04  0.10566000000E+00 0. -1.
        994   -1    0    0    0    0 -0.00000000000E+00 -0.00000000000E+00  0.11368683772E-12  0.17120000000E+03  0.17120000000E+03 0.  0.
         13    1    1    2    0    0  0.97641147930E+02 -0.76773434949E+02  0.43143345502E+03  0.44895744939E+03  0.10566000000E+00 0. -1.
        994    1    1    2    0    0 -0.11141730061E+03  0.84282748668E+02  0.82294256618E+02  0.23579478635E+03  0.17120000000E+03 0.  0.
        998    1    1    2    0    0  0.13776152676E+02 -0.75093137189E+01  0.98627228464E+03  0.98644776426E+03  0.10000000000E+02 0. -1.
</event>
<event>
 5    1  0.1145138E-008  0.3844114E+03  0.7957747E-01  0.3432173E+00
         13   -1    0    0    0    0  0.00000000000E+00  0.00000000000E+00  0.14999999963E+04  0.15000000000E+04  0.10566000000E+00 0.  1.
        994   -1    0    0    0    0 -0.00000000000E+00 -0.00000000000E+00  0.11368683772E-12  0.17120000000E+03  0.17120000000E+03 0.  0.
         13    1    1    2    0    0  0.17756935806E+02 -0.45260429794E+01  0.88651427729E+02  0.90525580014E+02  0.10566000000E+00 0.  1.
        994    1    1    2    0    0 -0.76132795777E+01  0.71109858905E+01  0.22803416194E+01  0.17153182825E+03  0.17120000000E+03 0.  0.
        998    1    1    2    0    0 -0.10143656228E+02 -0.25849429111E+01  0.14090682269E+04  0.14091425917E+04  0.10000000000E+02 0.  1.
</event>
<event>
 5    1  0.1145138E-008  0.3718665E+03  0.7957747E-01  0.3487357E+00
         13   -1    0    0    0    0  0.00000000000E+00  0.00000000000E+00  0.14999999963E+04  0.15000000000E+04  0.10566000000E+00 0.  1.
        994   -1    0    0    0    0 -0.00000000000E+00 -0.00000000000E+00  0.11368683772E-12  0.17120000000E+03  0.17120000000E+03 0.  0.
         13    1    1    2    0    0 -0.10070021501E+02  0.89955881580E+01  0.73741409666E+01  0.15385547061E+02  0.10566000000E+00 0.  1.
        994    1    1    2    0    0  0.37729004355E+01  0.25133541908E+01  0.83673595931E+01  0.17146429492E+03  0.17120000000E+03 0.  0.
        998    1    1    2    0    0  0.62971210652E+01 -0.11508942349E+02  0.14842584957E+04  0.14843501580E+04  0.10000000000E+02 0.  1.
</event>
<event>
 5    1  0.1145138E-008  0.3794630E+03  0.7957747E-01  0.3453500E+00
         13   -1    0    0    0    0  0.00000000000E+00  0.00000000000E+00  0.14999999963E+04  0.15000000000E+04  0.10566000000E+00 0. -1.
        994   -1    0    0    0    0 -0.00000000000E+00 -0.00000000000E+00  0.11368683772E-12  0.17120000000E+03  0.17120000000E+03 0.  0.
         13    1    1    2    0    0  0.20665639240E+02  0.24193495470E+02  0.18378541275E+03  0.18651939034E+03  0.10566000000E+00 0. -1.
        994    1    1    2    0    0  0.14887130588E+02  0.46436209339E+02  0.12409396287E+02  0.17844153471E+03  0.17120000000E+03 0.  0.
        998    1    1    2    0    0 -0.35552769828E+02 -0.70629704809E+02  0.13038051872E+04  0.13062390749E+04  0.10000000000E+02 0. -1.
</event>
<event>
 5    1  0.1145138E-008  0.3707632E+03  0.7957747E-01  0.3492391E+00
         13   -1    0    0    0    0  0.00000000000E+00  0.00000000000E+00  0.14999999963E+04  0.15000000000E+04  0.10566000000E+00 0. -1.
        994   -1    0    0    0    0 -0.00000000000E+00 -0.00000000000E+00  0.11368683772E-12  0.17120000000E+03  0.17120000000E+03 0.  0.
         13    1    1    2    0    0 -0.42638223132E+02 -0.43641260619E+02  0.18766657653E+03  0.19733558425E+03  0.10566000000E+00 0. -1.
        994    1    1    2    0    0  0.35985131932E+02  0.41886643716E+02  0.19461345618E+02  0.18093536032E+03  0.17120000000E+03 0.  0.
        998    1    1    2    0    0  0.66530912001E+01  0.17546169023E+01  0.12928720741E+04  0.12929290554E+04  0.10000000000E+02 0.  0.
</event>
<event>
 5    1  0.1145138E-008  0.3839094E+03  0.7957747E-01  0.3434311E+00
         13   -1    0    0    0    0  0.00000000000E+00  0.00000000000E+00  0.14999999963E+04  0.15000000000E+04  0.10566000000E+00 0.  1.
        994   -1    0    0    0    0 -0.00000000000E+00 -0.00000000000E+00  0.11368683772E-12  0.17120000000E+03  0.17120000000E+03 0.  0.
         13    1    1    2    0    0  0.12502421565E+02 -0.36406183913E+01  0.38012381598E+02  0.40181052326E+02  0.10566000000E+00 0.  1.
        994    1    1    2    0    0 -0.10661780564E+02  0.46128885924E+01  0.26180675802E+01  0.17161365500E+03  0.17120000000E+03 0.  0.
        998    1    1    2    0    0 -0.18406410006E+01 -0.97227020109E+00  0.14593695471E+04  0.14594052927E+04  0.10000000000E+02 0.  1.
</event>
<event>
 5    1  0.1145138E-008  0.3714878E+03  0.7957747E-01  0.3489081E+00
         13   -1    0    0    0    0  0.00000000000E+00  0.00000000000E+00  0.14999999963E+04  0.15000000000E+04  0.10566000000E+00 0. -1.
        994   -1    0    0    0    0 -0.00000000000E+00 -0.00000000000E+00  0.11368683772E-12  0.17120000000E+03  0.17120000000E+03 0.  0.
         13    1    1    2    0    0 -0.28671590100E+02 -0.21104839958E+02  0.80037129610E+02  0.87598102883E+02  0.10566000000E+00 0. -1.
        994    1    1    2    0    0 -0.13737196507E+02  0.28087729492E+01  0.91700535266E+01  0.17201781784E+03  0.17120000000E+03 0.  0.
        998    1    1    2    0    0  0.42408786607E+02  0.18296067009E+02  0.14107928131E+04  0.14115840793E+04  0.10000000000E+02 0. -1.
</event>
<event>
 5    1  0.1145138E-008  0.3843358E+03  0.7957747E-01  0.3432494E+00
         13   -1    0    0    0    0  0.00000000000E+00  0.00000000000E+00  0.14999999963E+04  0.15000000000E+04  0.10566000000E+00 0.  1.
        994   -1    0    0    0    0 -0.00000000000E+00 -0.00000000000E+00  0.11368683772E-12  0.17120000000E+03  0.17120000000E+03 0.  0.
         13    1    1    2    0    0  0.14519340471E+01 -0.14030243872E+02  0.49344570037E+02  0.51321083501E+02  0.10566000000E+00 0.  1.
        994    1    1    2    0    0  0.51409902638E+00  0.13687215032E+02  0.25788079762E+01  0.17176639486E+03  0.17120000000E+03 0.  0.
        998    1    1    2    0    0 -0.19660330735E+01  0.34302883985E+00  0.14480766183E+04  0.14481125216E+04  0.10000000000E+02 0.  1.
</event>
<event>
 5    1  0.1145138E-008  0.3912599E+03  0.7957747E-01  0.3403550E+00
         13   -1    0    0    0    0  0.00000000000E+00  0.00000000000E+00  0.14999999963E+04  0.15000000000E+04  0.10566000000E+00 0. -1.
        994   -1    0    0    0    0 -0.00000000000E+00 -0.00000000000E+00  0.11368683772E-12  0.17120000000E+03  0.17120000000E+03 0.  0.
         13    1    1    2    0    0  0.12349065747E+03 -0.99677379217E+02  0.45129450950E+03  0.47838506235E+03  0.10566000000E+00 0. -1.
        994    1    1    2    0    0 -0.10939905912E+03  0.66426421327E+02  0.87643384010E+02  0.23102256675E+03  0.17120000000E+03 0.  0.
        998    1    1    2    0    0 -0.14091598355E+02  0.33250957890E+02  0.96106210277E+03  0.96179237090E+03  0.10000000000E+02 0. -1.
</event>
<event>
 5    1  0.1145138E-008  0.3840450E+03  0.7957747E-01  0.3433733E+00
         13   -1    0    0    0    0  0.00000000000E+00  0.00000000000E+00  0.14999999963E+04  0.15000000000E+04  0.10566000000E+00 0. -1.
        994   -1    0    0    0    0 -0.00000000000E+00 -0.00000000000E+00  0.11368683772E-12  0.17120000000E+03  0.17120000000E+03 0.  0.
         13    1    1    2    0    0  0.92432879349E+01  0.14176807169E+02  0.88934135723E+02  0.90530171181E+02  0.10566000000E+00 0. -1.
        994    1    1    2    0    0  0.38434442724E+02  0.78635506512E+01  0.71987226918E+01  0.17578482137E+03  0.17120000000E+03 0.  0.
        998    1    1    2    0    0 -0.47677730659E+02 -0.22040357820E+02  0.14038671379E+04  0.14048850074E+04  0.10000000000E+02 0. -1.
</event>
<event>
 5    1  0.1145138E-008  0.3822451E+03  0.7957747E-01  0.3441441E+00
         13   -1    0    0    0    0  0.00000000000E+00  0.00000000000E+00  0.14999999963E+04  0.15000000000E+04  0.10566000000E+00 0.  1.
        994   -1    0    0    0    0 -0.00000000000E+00 -0.00000000000E+00  0.11368683772E-12  0.17120000000E+03  0.17120000000E+03 0.  0.
         13    1    1    2    0    0  0.31347843547E+02  0.14352437028E+02  0.16347455235E+03  0.16707070411E+03  0.10566000000E+00 0.  1.
        994    1    1    2    0    0 -0.41215381368E+02 -0.18756463885E+02  0.98383348429E+01  0.17736049569E+03  0.17120000000E+03 0.  0.
        998    1    1    2    0    0  0.98675378201E+01  0.44040268564E+01  0.13266871091E+04  0.13267688002E+04  0.10000000000E+02 0.  1.
</event>
<event>
 5    1  0.1145138E-008  0.3839962E+03  0.7957747E-01  0.3433941E+00
         13   -1    0    0    0    0  0.00000000000E+00  0.00000000000E+00  0.14999999963E+04  0.15000000000E+04  0.10566000000E+00 0. -1.
        994   -1    0    0    0    0 -0.00000000000E+00 -0.00000000000E+00  0.11368683772E-12  0.17120000000E+03  0.17120000000E+03 0.  0.
         13    1    1    2    0    0 -0.14584904454E+02  0.12037400475E+02  0.77210703141E+02  0.79492907178E+02  0.10566000000E+00 0. -1.
        994    1    1    2    0    0  0.27243831306E+02 -0.68704381847E+01  0.47383237622E+01  0.17355495089E+03  0.17120000000E+03 0.  0.
        998    1    1    2    0    0 -0.12658926851E+02 -0.51669622908E+01  0.14180509694E+04  0.14181521419E+04  0.10000000000E+02 0. -1.
</event>
<event>
 5    1  0.1145138E-008  0.3770863E+03  0.7957747E-01  0.3463944E+00
         13   -1    0    0    0    0  0.00000000000E+00  0.00000000000E+00  0.14999999963E+04  0.15000000000E+04  0.10566000000E+00 0.  1.
        994   -1    0    0    0    0 -0.00000000000E+00 -0.00000000000E+00  0.11368683772E-12  0.17120000000E+03  0.17120000000E+03 0.  0.
         13    1    1    2    0    0  0.23878023536E+02  0.33333457576E+02  0.13349249488E+03  0.13964790280E+03  0.10566000000E+00 0.  1.
        994    1    1    2    0    0 -0.25718016435E+02 -0.35874383690E+02  0.12216347689E+02  0.17722039083E+03  0.17120000000E+03 0.  0.
        998    1    1    2    0    0  0.18399928982E+01  0.25409261139E+01  0.13542911537E+04  0.13543317064E+04  0.10000000000E+02 0.  1.
</event>
<event>
 5    1  0.1145138E-008  0.3775037E+03  0.7957747E-01  0.3462100E+00
         13   -1    0    0    0    0  0.00000000000E+00  0.00000000000E+00  0.14999999963E+04  0.15000000000E+04  0.10566000000E+00 0. -1.
        994   -1    0    0    0    0 -0.00000000000E+00 -0.00000000000E+00  0.11368683772E-12  0.17120000000E+03  0.17120000000E+03 0.  0.
         13    1    1    2    0    0  0.31695855810E+02  0.11368422209E+02  0.11379366048E+03  0.11867129656E+03  0.10566000000E+00 0. -1.
        994    1    1    2    0    0  0.20979206097E+01 -0.72908957271E+01  0.55926402239E+01  0.17145925480E+03  0.17120000000E+03 0.  0.
        998    1    1    2    0    0 -0.33793776419E+02 -0.40775264823E+01  0.13806136956E+04  0.13810694486E+04  0.10000000000E+02 0. -1.
</event>
<event>
 5    1  0.1145138E-008  0.3161873E+03  0.7957747E-01  0.3786830E+00
         13   -1    0    0    0    0  0.00000000000E+00  0.00000000000E+00  0.14999999963E+04  0.15000000000E+04  0.10566000000E+00 0. -1.
        994   -1    0    0    0    0 -0.00000000000E+00 -0.00000000000E+00  0.11368683772E-12  0.17120000000E+03  0.17120000000E+03 0.  0.
         13    1    1    2    0    0  0.26362987077E+02 -0.21800483525E+03  0.83739802393E+03  0.86571160148E+03  0.10566000000E+00 0. -1.
        994    1    1    2    0    0 -0.11091042615E+03  0.15238663799E+03  0.18191606788E+03  0.31293083232E+03  0.17120000000E+03 0.  0.
        998    1    1    2    0    0  0.84547439068E+02  0.65618197263E+02  0.48068590447E+03  0.49255756620E+03  0.10000000000E+02 0. -1.
</event>
<event>
 5    1  0.1145138E-008  0.3794794E+03  0.7957747E-01  0.3453429E+00
         13   -1    0    0    0    0  0.00000000000E+00  0.00000000000E+00  0.14999999963E+04  0.15000000000E+04  0.10566000000E+00 0.  1.
        994   -1    0    0    0    0 -0.00000000000E+00 -0.00000000000E+00  0.11368683772E-12  0.17120000000E+03  0.17120000000E+03 0.  0.
         13    1    1    2    0    0  0.26172057517E+02  0.16064933896E+02  0.10052109418E+03  0.10510737479E+03  0.10566000000E+00 0.  1.
        994    1    1    2    0    0 -0.21118169379E+02 -0.20588262804E+02  0.73145188186E+01  0.17387580576E+03  0.17120000000E+03 0.  0.
        998    1    1    2    0    0 -0.50538881377E+01  0.45233289076E+01  0.13921643833E+04  0.13922168194E+04  0.10000000000E+02 0.  1.
</event>
<event>
 5    1  0.1145138E-008  0.3791747E+03  0.7957747E-01  0.3454760E+00
         13   -1    0    0    0    0  0.00000000000E+00  0.00000000000E+00  0.14999999963E+04  0.15000000000E+04  0.10566000000E+00 0. -1.
        994   -1    0    0    0    0 -0.00000000000E+00 -0.00000000000E+00  0.11368683772E-12  0.17120000000E+03  0.17120000000E+03 0.  0.
         13    1    1    2    0    0  0.17925059470E+02 -0.10446073925E+01  0.34852344381E+02  0.39205816335E+02  0.10566000000E+00 0. -1.
        994    1    1    2    0    0 -0.16884724683E+01 -0.17861237383E+02  0.56299983094E+01  0.17222953179E+03  0.17120000000E+03 0.  0.
        998    1    1    2    0    0 -0.16236587002E+02  0.18905844775E+02  0.14595176536E+04  0.14597646519E+04  0.10000000000E+02 0. -1.
</event>
<event>
 5    1  0.1145138E-008  0.3849776E+03  0.7957747E-01  0.3429767E+00
         13   -1    0    0    0    0  0.00000000000E+00  0.00000000000E+00  0.14999999963E+04  0.15000000000E+04  0.10566000000E+00 0. -1.
        994   -1    0    0    0    0 -0.00000000000E+00 -0.00000000000E+00  0.11368683772E-12  0.17120000000E+03  0.17120000000E+03 0.  0.
         13    1    1    2    0    0  0.97504667630E+01 -0.64217257040E+01  0.41487066642E+02  0.43098700974E+02  0.10566000000E+00 0. -1.
        994    1    1    2    0    0 -0.74167634921E+01  0.22843970913E+01  0.18393763472E+01  0.17138567664E+03  0.17120000000E+03 0.  0.
        998    1    1    2    0    0 -0.23337032709E+01  0.41373286127E+01  0.14566735533E+04  0.14567156224E+04  0.10000000000E+02 0. -1.
</event>
<event>
 5    1  0.1145138E-008  0.3701623E+03  0.7957747E-01  0.3495146E+00
         13   -1    0    0    0    0  0.00000000000E+00  0.00000000000E+00  0.14999999963E+04  0.15000000000E+04  0.10566000000E+00 0.  1.
        994   -1    0    0    0    0 -0.00000000000E+00 -0.00000000000E+00  0.11368683772E-12  0.17120000000E+03  0.17120000000E+03 0.  0.
         13    1    1    2    0    0 -0.98925977371E+02  0.44040242860E+02  0.42628569940E+03  0.43982428385E+03  0.10566000000E+00 0.  1.
        994    1    1    2    0    0  0.10495587530E+03 -0.42083878084E+02  0.54763953163E+02  0.21235658483E+03  0.17120000000E+03 0.  0.
        998    1    1    2    0    0 -0.60298979282E+01 -0.19563647761E+01  0.10189503437E+04  0.10190191313E+04  0.10000000000E+02 0.  1.
</event>
<event>
 5    1  0.1145138E-008  0.3854950E+03  0.7957747E-01  0.3427576E+00
         13   -1    0    0    0    0  0.00000000000E+00  0.00000000000E+00  0.14999999963E+04  0.15000000000E+04  0.10566000000E+00 0. -1.
        994   -1    0    0    0    0 -0.00000000000E+00 -0.00000000000E+00  0.11368683772E-12  0.17120000000E+03  0.17120000000E+03 0.  0.
         13    1    1    2    0    0  0.15484730822E+02  0.82523401849E+00  0.84781251600E+02  0.86187758335E+02  0.10566000000E+00 0. -1.
        994    1    1    2    0    0 -0.13585480686E+02 -0.45798664149E+01  0.20597397962E+01  0.17181159155E+03  0.17120000000E+03 0.  0.
        998    1    1    2    0    0 -0.18992501354E+01  0.37546323964E+01  0.14131590049E+04  0.14132006501E+04  0.10000000000E+02 0. -1.
</event>
<event>
 5    1  0.1145138E-008  0.3855132E+03  0.7957747E-01  0.3427499E+00
         13   -1    0    0    0    0  0.00000000000E+00  0.00000000000E+00  0.14999999963E+04  0.15000000000E+04  0.10566000000E+00 0.  1.
        994   -1    0    0    0    0 -0.00000000000E+00 -0.00000000000E+00  0.11368683772E-12  0.17120000000E+03  0.17120000000E+03 0.  0.
         13    1    1    2    0    0  0.29360676996E+01 -0.14580318228E+02  0.83446846984E+02  0.84761982096E+02  0.10566000000E+00 0.  1.
        994    1    1    2    0    0 -0.67706522696E+01  0.44306294644E+01  0.15905533841E+01  0.17139848911E+03  0.17120000000E+03 0.  0.
        998    1    1    2    0    0  0.38345845700E+01  0.10149688764E+02  0.14149625959E+04  0.14150395288E+04  0.10000000000E+02 0.  1.
</event>
<event>
 5    1  0.1145138E-008  0.3844398E+03  0.7957747E-01  0.3432052E+00
         13   -1    0    0    0    0  0.00000000000E+00  0.00000000000E+00  0.14999999963E+04  0.15000000000E+04  0.10566000000E+00 0. -1.
        994   -1    0    0    0    0 -0.00000000000E+00 -0.00000000000E+00  0.11368683772E-12  0.17120000000E+03  0.17120000000E+03 0.  0.
         13    1    1    2    0    0  0.17333276916E+02  0.10520827660E+02  0.10056135425E+03  0.10258522036E+03  0.10566000000E+00 0. -1.
        994    1    1    2    0    0 -0.18979602845E+02 -0.11037297781E+02  0.34983013512E+01  0.17263755495E+03  0.17120000000E+03 0.  0.
        998    1    1    2    0    0  0.16463259294E+01  0.51647012073E+00  0.13959403407E+04  0.13959772247E+04  0.10000000000E+02 0. -1.
</event>
<event>
 5    1  0.1145138E-008  0.3727428E+03  0.7957747E-01  0.3483380E+00
         13   -1    0    0    0    0  0.00000000000E+00  0.00000000000E+00  0.14999999963E+04  0.15000000000E+04  0.10566000000E+00 0. -1.
        994   -1    0    0    0    0 -0.00000000000E+00 -0.00000000000E+00  0.11368683772E-12  0.17120000000E+03  0.17120000000E+03 0.  0.
         13    1    1    2    0    0 -0.37120703832E+02  0.17143877183E+02  0.89894530360E+02  0.98756756379E+02  0.10566000000E+00 0. -1.
        994    1    1    2    0    0  0.62594135346E+02 -0.15247921314E+02  0.22195625434E+02  0.18426234198E+03  0.17120000000E+03 0.  0.
        998    1    1    2    0    0 -0.25473431514E+02 -0.18959558692E+01  0.13879098405E+04  0.13881809016E+04  0.10000000000E+02 0. -1.
</event>
<event>
 5    1  0.1145138E-008  0.3839295E+03  0.7957747E-01  0.3434225E+00
         13   -1    0    0    0    0  0.00000000000E+00  0.00000000000E+00  0.14999999963E+04  0.15000000000E+04  0.10566000000E+00 0. -1.
        994   -1    0    0    0    0 -0.00000000000E+00 -0.00000000000E+00  0.11368683772E-12  0.17120000000E+03  0.17120000000E+03 0.  0.
         13    1    1    2    0    0 -0.68757299565E+01  0.14257262697E+02  0.63756045030E+02  0.65691625371E+02  0.10566000000E+00 0. -1.
        994    1    1    2    0    0  0.98906504421E+00  0.95410107456E+01  0.24662617211E+01  0.17148624313E+03  0.17120000000E+03 0.  0.
        998    1    1    2    0    0  0.58866649123E+01 -0.23798273443E+02  0.14337776895E+04  0.14340221315E+04  0.10000000000E+02 0. -1.
</event>
<event>
 5    1  0.1145138E-008  0.3845499E+03  0.7957747E-01  0.3431583E+00
         13   -1    0    0    0    0  0.00000000000E+00  0.00000000000E+00  0.14999999963E+04  0.15000000000E+04  0.10566000000E+00 0. -1.
        994   -1    0    0    0    0 -0.00000000000E+00 -0.00000000000E+00  0.11368683772E-12  0.17120000000E+03  0.17120000000E+03 0.  0.
         13    1    1    2    0    0 -0.17621418048E+02  0.12334081502E+02  0.12003456684E+03  0.12194651426E+03  0.10566000000E+00 0. -1.
        994    1    1    2    0    0  0.18294103033E+02 -0.53206782567E+01  0.30501379713E+01  0.17228385637E+03  0.17120000000E+03 0.  0.
        998    1    1    2    0    0 -0.67268498566E+00 -0.70134032456E+01  0.13769152915E+04  0.13769696294E+04  0.10000000000E+02 0. -1.
</event>
<event>
 5    1  0.1145138E-008  0.3838519E+03  0.7957747E-01  0.3434556E+00
         13   -1    0    0    0    0  0.00000000000E+00  0.00000000000E+00  0.14999999963E+04  0.15000000000E+04  0.10566000000E+00 0.  1.
        994   -1    0    0    0    0 -0.00000000000E+00 -0.00000000000E+00  0.11368683772E-12  0.17120000000E+03  0.17120000000E+03 0.  0.
         13    1    1    2    0    0 -0.58020502664E+01  0.15308327960E+02  0.62696286260E+02  0.64798488926E+02  0.10566000000E+00 0.  1.
        994    1    1    2    0    0 -0.14863774313E+02 -0.10011349542E+02  0.32620564318E+01  0.17216631470E+03  0.17120000000E+03 0.  0.
        998    1    1    2    0    0  0.20665824579E+02 -0.52969784178E+01  0.14340416536E+04  0.14342351964E+04  0.10000000000E+02 0.  1.
</event>
<event>
 5    1  0.1145138E-008  0.3801102E+03  0.7957747E-01  0.3450679E+00
         13   -1    0    0    0    0  0.00000000000E+00  0.00000000000E+00  0.14999999963E+04  0.15000000000E+04  0.10566000000E+00 0.  1.
        994   -1    0    0    0    0 -0.00000000000E+00 -0.00000000000E+00  0.11368683772E-12  0.17120000000E+03  0.17120000000E+03 0.  0.
         13    1    1    2    0    0 -0.82390830007E+01 -0.24207693011E+02  0.79863436789E+02  0.83857465913E+02  0.10566000000E+00 0.  1.
        994    1    1    2    0    0 -0.15343794890E+01  0.14177972679E+02  0.47574137678E+01  0.17185878568E+03  0.17120000000E+03 0.  0.
        998    1    1    2    0    0  0.97734624897E+01  0.10029720332E+02  0.14153791457E+04  0.14154837484E+04  0.10000000000E+02 0.  1.
</event>
<event>
 5    1  0.1145138E-008  0.3838745E+03  0.7957747E-01  0.3434460E+00
         13   -1    0    0    0    0  0.00000000000E+00  0.00000000000E+00  0.14999999963E+04  0.15000000000E+04  0.10566000000E+00 0. -1.
        994   -1    0    0    0    0 -0.00000000000E+00 -0.00000000000E+00  0.11368683772E-12  0.17120000000E+03  0.17120000000E+03 0.  0.
         13    1    1    2    0    0 -0.52797397746E+02 -0.43264330961E+01  0.66702984897E+02  0.85179707620E+02  0.10566000000E+00 0. -1.
        994    1    1    2    0    0  0.52015071016E+02  0.46315718454E+01  0.28564910149E+02  0.18125234664E+03  0.17120000000E+03 0.  0.
        998    1    1    2    0    0  0.78232672994E+00 -0.30513874927E+00  0.14047321012E+04  0.14047679457E+04  0.10000000000E+02 0.  0.
</event>
<event>
 5    1  0.1145138E-008  0.3812599E+03  0.7957747E-01  0.3445691E+00
         13   -1    0    0    0    0  0.00000000000E+00  0.00000000000E+00  0.14999999963E+04  0.15000000000E+04  0.10566000000E+00 0.  1.
        994   -1    0    0    0    0 -0.00000000000E+00 -0.00000000000E+00  0.11368683772E-12  0.17120000000E+03  0.17120000000E+03 0.  0.
         13    1    1    2    0    0  0.67434673035E+01 -0.32084612317E+02  0.14451856029E+03  0.14819083012E+03  0.10566000000E+00 0.  1.
        994    1    1    2    0    0 -0.11370294526E+02  0.25691554706E+02  0.61306827697E+01  0.17359828586E+03  0.17120000000E+03 0.  0.
        998    1    1    2    0    0  0.46268272226E+01  0.63930576109E+01  0.13493507532E+04  0.13494108840E+04  0.10000000000E+02 0.  1.
</event>
<event>
 5    1  0.1145138E-008  0.3797906E+03  0.7957747E-01  0.3452071E+00
         13   -1    0    0    0    0  0.00000000000E+00  0.00000000000E+00  0.14999999963E+04  0.15000000000E+04  0.10566000000E+00 0.  1.
        994   -1    0    0    0    0 -0.00000000000E+00 -0.00000000000E+00  0.11368683772E-12  0.17120000000E+03  0.17120000000E+03 0.  0.
         13    1    1    2    0    0 -0.35375650972E+02 -0.15302960985E+02  0.16133011111E+03  0.16587053148E+03  0.10566000000E+00 0.  1.
        994    1    1    2    0    0  0.29356082617E+02  0.18048575841E+02  0.82216964985E+01  0.17482724893E+03  0.17120000000E+03 0.  0.
        998    1    1    2    0    0  0.60195683547E+01 -0.27456148564E+01  0.13304481887E+04  0.13305022196E+04  0.10000000000E+02 0.  1.
</event>
<event>
 5    1  0.1145138E-008  0.3840974E+03  0.7957747E-01  0.3433509E+00
         13   -1    0    0    0    0  0.00000000000E+00  0.00000000000E+00  0.14999999963E+04  0.15000000000E+04  0.10566000000E+00 0. -1.
        994   -1    0    0    0    0 -0.00000000000E+00 -0.00000000000E+00  0.11368683772E-12  0.17120000000E+03  0.17120000000E+03 0.  0.
         13    1    1    2    0    0 -0.12623263707E+02 -0.63733920098E+01  0.37814464748E+02  0.40372166409E+02  0.10566000000E+00 0. -1.
        994    1    1    2    0    0  0.64212458485E+02  0.12431123816E+02  0.16318205349E+02  0.18399319686E+03  0.17120000000E+03 0.  0.
        998    1    1    2    0    0 -0.51589194778E+02 -0.60577318065E+01  0.14458673262E+04  0.14468346367E+04  0.10000000000E+02 0. -1.
</event>
<event>
 5    1  0.1145138E-008  0.3845516E+03  0.7957747E-01  0.3431576E+00
         13   -1    0    0    0    0  0.00000000000E+00  0.00000000000E+00  0.14999999963E+04  0.15000000000E+04  0.10566000000E+00 0. -1.
        994   -1    0    0    0    0 -0.00000000000E+00 -0.00000000000E+00  0.11368683772E-12  0.17120000000E+03  0.17120000000E+03 0.  0.
         13    1    1    2    0    0  0.19499967659E+02  0.82805299709E+01  0.12596303113E+03  0.12773218972E+03  0.10566000000E+00 0. -1.
        994    1    1    2    0    0 -0.12694282527E+00 -0.23004293851E+02  0.35977923949E+01  0.17277614928E+03  0.17120000000E+03 0.  0.
        998    1    1    2    0    0 -0.19373024834E+02  0.14723763880E+02  0.13704391728E+04  0.13706916610E+04  0.10000000000E+02 0. -1.
</event>
<event>
 5    1  0.1145138E-008  0.3723743E+03  0.7957747E-01  0.3485050E+00
         13   -1    0    0    0    0  0.00000000000E+00  0.00000000000E+00  0.14999999963E+04  0.15000000000E+04  0.10566000000E+00 0. -1.
        994   -1    0    0    0    0 -0.00000000000E+00 -0.00000000000E+00  0.11368683772E-12  0.17120000000E+03  0.17120000000E+03 0.  0.
         13    1    1    2    0    0 -0.27593782336E+02 -0.54447997638E+01  0.26725709799E+02  0.38798677766E+02  0.10566000000E+00 0. -1.
        994    1    1    2    0    0  0.29244080878E+02  0.10934238961E+02  0.15643877515E+02  0.17472534090E+03  0.17120000000E+03 0.  0.
        998    1    1    2    0    0 -0.16502985419E+01 -0.54894391974E+01  0.14576304090E+04  0.14576759813E+04  0.10000000000E+02 0. -1.
</event>
<event>
 5    1  0.1145138E-008  0.3822031E+03  0.7957747E-01  0.3441622E+00
         13   -1    0    0    0    0  0.00000000000E+00  0.00000000000E+00  0.14999999963E+04  0.15000000000E+04  0.10566000000E+00 0.  1.
        994   -1    0    0    0    0 -0.00000000000E+00 -0.00000000000E+00  0.11368683772E-12  0.17120000000E+03  0.17120000000E+03 0.  0.
         13    1    1    2    0    0  0.95253209422E+01  0.17624489904E+02  0.74114941374E+02  0.76774931340E+02  0.10566000000E+00 0.  1.
        994    1    1    2    0    0 -0.72214279364E+01  0.16682281325E+02  0.41225957395E+01  0.17221173981E+03  0.17120000000E+03 0.  0.
        998    1    1    2    0    0 -0.23038930058E+01 -0.34306771229E+02  0.14217624592E+04  0.14222133289E+04  0.10000000000E+02 0.  1.
</event>
<event>
 5    1  0.1145138E-008  0.3837700E+03  0.7957747E-01  0.3434905E+00
         13   -1    0    0    0    0  0.00000000000E+00  0.00000000000E+00  0.14999999963E+04  0.15000000000E+04  0.10566000000E+00 0.  1.
        994   -1    0    0    0    0 -0.00000000000E+00 -0.00000000000E+00  0.11368683772E-12  0.17120000000E+03  0.17120000000E+03 0.  0.
         13    1    1    2    0    0  0.68496293996E+01 -0.17210365736E+02  0.66071710635E+02  0.68619211756E+02  0.10566000000E+00 0.  1.
        994    1    1    2    0    0  0.40655639952E+01  0.42710367130E+02  0.83435287234E+01  0.17669113940E+03  0.17120000000E+03 0.  0.
        998    1    1    2    0    0 -0.10915193395E+02 -0.25500001393E+02  0.14255847569E+04  0.14258896488E+04  0.10000000000E+02 0.  1.
</event>
<event>
 5    1  0.1145138E-008  0.3806534E+03  0.7957747E-01  0.3448318E+00
         13   -1    0    0    0    0  0.00000000000E+00  0.00000000000E+00  0.14999999963E+04  0.15000000000E+04  0.10566000000E+00 0.  1.
        994   -1    0    0    0    0 -0.00000000000E+00 -0.00000000000E+00  0.11368683772E-12  0.17120000000E+03  0.17120000000E+03 0.  0.
         13    1    1    2    0    0 -0.27319924616E+02  0.71703858151E+01  0.10297610217E+03  0.10677959307E+03  0.10566000000E+00 0.  1.
        994    1    1    2    0    0  0.18236483771E+02 -0.24191803755E+01  0.49333489327E+01  0.17225620368E+03  0.17120000000E+03 0.  0.
        998    1    1    2    0    0  0.90834408452E+01 -0.47512054396E+01  0.13920905452E+04  0.13921642032E+04  0.10000000000E+02 0.  1.
</event>
<event>
 5    1  0.1145138E-008  0.3920708E+03  0.7957747E-01  0.3400227E+00
         13   -1    0    0    0    0  0.00000000000E+00  0.00000000000E+00  0.14999999963E+04  0.15000000000E+04  0.10566000000E+00 0.  1.
        994   -1    0    0    0    0 -0.00000000000E+00 -0.00000000000E+00  0.11368683772E-12  0.17120000000E+03  0.17120000000E+03 0.  0.
         13    1    1    2    0    0 -0.45496872076E+02  0.55571321763E+01  0.41398329660E+02  0.61763095367E+02  0.10566000000E+00 0.  1.
        994    1    1    2    0    0 -0.14825323621E+02 -0.58071303864E+01  0.24084824401E+02  0.17361748688E+03  0.17120000000E+03 0.  0.
        998    1    1    2    0    0  0.60322195697E+02  0.24999821011E+00  0.14345168422E+04  0.14358194178E+04  0.10000000000E+02 0.  1.
</event>
<event>
 5    1  0.1145138E-008  0.3857825E+03  0.7957747E-01  0.3426360E+00
         13   -1    0    0    0    0  0.00000000000E+00  0.00000000000E+00  0.14999999963E+04  0.15000000000E+04  0.10566000000E+00 0. -1.
        994   -1    0    0    0    0 -0.00000000000E+00 -0.00000000000E+00  0.11368683772E-12  0.17120000000E+03  0.17120000000E+03 0.  0.
         13    1    1    2    0    0  0.80632817188E+01  0.12339770089E+02  0.80817462678E+02  0.82150836123E+02  0.10566000000E+00 0. -1.
        994    1    1    2    0    0  0.49259871380E+01 -0.28670277129E+02  0.40230582845E+01  0.17370053292E+03  0.17120000000E+03 0.  0.
        998    1    1    2    0    0 -0.12989268857E+02  0.16330507040E+02  0.14151594753E+04  0.14153486310E+04  0.10000000000E+02 0. -1.
</event>
<event>
 5    1  0.1145138E-008  0.3832430E+03  0.7957747E-01  0.3437158E+00
         13   -1    0    0    0    0  0.00000000000E+00  0.00000000000E+00  0.14999999963E+04  0.15000000000E+04  0.10566000000E+00 0.  1.
        994   -1    0    0    0    0 -0.00000000000E+00 -0.00000000000E+00  0.11368683772E-12  0.17120000000E+03  0.17120000000E+03 0.  0.
         13    1    1    2    0    0  0.10438317567E+02  0.11746738918E+02  0.48995892924E+02  0.51454378203E+02  0.10566000000E+00 0.  1.
        994    1    1    2    0    0 -0.50028741580E+01 -0.69037667905E+01  0.27454534905E+01  0.17143415138E+03  0.17120000000E+03 0.  0.
        998    1    1    2    0    0 -0.54354434090E+01 -0.48429721270E+01  0.14482586499E+04  0.14483114704E+04  0.10000000000E+02 0.  1.
</event>
<event>
 5    1  0.1145138E-008  0.3727222E+03  0.7957747E-01  0.3483473E+00
         13   -1    0    0    0    0  0.00000000000E+00  0.00000000000E+00  0.14999999963E+04  0.15000000000E+04  0.10566000000E+00 0. -1.
        994   -1    0    0    0    0 -0.00000000000E+00 -0.00000000000E+00  0.11368683772E-12  0.17120000000E+03  0.17120000000E+03 0.  0.
         13    1    1    2    0    0 -0.28823977554E+02 -0.44409587052E+02  0.11017148456E+03  0.12223256635E+03  0.10566000000E+00 0. -1.
        994    1    1    2    0    0  0.16567985029E+02  0.25778452293E+02  0.15707101262E+02  0.17462869112E+03  0.17120000000E+03 0.  0.
        998    1    1    2    0    0  0.12255992525E+02  0.18631134759E+02  0.13741214105E+04  0.13743387425E+04  0.10000000000E+02 0. -1.
</event>
<event>
 5    1  0.1145138E-008  0.3802200E+03  0.7957747E-01  0.3450201E+00
         13   -1    0    0    0    0  0.00000000000E+00  0.00000000000E+00  0.14999999963E+04  0.15000000000E+04  0.10566000000E+00 0.  1.
        994   -1    0    0    0    0 -0.00000000000E+00 -0.00000000000E+00  0.11368683772E-12  0.17120000000E+03  0.17120000000E+03 0.  0.
         13    1    1    2    0    0 -0.31853656337E+02  0.44631783562E+01  0.13414795624E+03  0.13795021098E+03  0.10566000000E+00 0.  1.
        994    1    1    2    0    0  0.11144645546E+02  0.40381570039E+01  0.44916666782E+01  0.17166864858E+03  0.17120000000E+03 0.  0.
        998    1    1    2    0    0  0.20709010790E+02 -0.85013353601E+01  0.13613603734E+04  0.13615811404E+04  0.10000000000E+02 0.  1.
</event>
<event>
 5    1  0.1145138E-008  0.3990565E+03  0.7957747E-01  0.3372160E+00
         13   -1    0    0    0    0  0.00000000000E+00  0.00000000000E+00  0.14999999963E+04  0.15000000000E+04  0.10566000000E+00 0.  1.
        994   -1    0    0    0    0 -0.00000000000E+00 -0.00000000000E+00  0.11368683772E-12  0.17120000000E+03  0.17120000000E+03 0.  0.
         13    1    1    2    0    0  0.11713197184E+02 -0.15308212642E+02 -0.52193851483E+01  0.19969814920E+02  0.10566000000E+00 0.  1.
        994    1    1    2    0    0 -0.71393783803E+01  0.19145831660E+02  0.28846776812E+02  0.17481164185E+03  0.17120000000E+03 0.  0.
        998    1    1    2    0    0 -0.45738188041E+01 -0.38376190182E+01  0.14763726046E+04  0.14764185432E+04  0.10000000000E+02 0.  1.
</event>
<event>
 5    1  0.1145138E-008  0.3902467E+03  0.7957747E-01  0.3407721E+00
         13   -1    0    0    0    0  0.00000000000E+00  0.00000000000E+00  0.14999999963E+04  0.15000000000E+04  0.10566000000E+00 0. -1.
        994   -1    0    0    0    0 -0.00000000000E+00 -0.00000000000E+00  0.11368683772E-12  0.17120000000E+03  0.17120000000E+03 0.  0.
         13    1    1    2    0    0  0.59241610542E+02  0.62564381705E+02  0.14294092922E+03  0.16690114046E+03  0.10566000000E+00 0. -1.
        994    1    1    2    0    0 -0.62505469959E+02 -0.67742903459E+02  0.54833162479E+02  0.20202017338E+03  0.17120000000E+03 0.  0.
        998    1    1    2    0    0  0.32638594170E+01  0.51785217540E+01  0.13022259046E+04  0.13022786862E+04  0.10000000000E+02 0. -1.
</event>
<event>
 5    1  0.1145138E-008  0.3797207E+03  0.7957747E-01  0.3452375E+00
         13   -1    0    0    0    0  0.00000000000E+00  0.00000000000E+00  0.14999999963E+04  0.15000000000E+04  0.10566000000E+00 0.  1.
        994   -1    0    0    0    0 -0.00000000000E+00 -0.00000000000E+00  0.11368683772E-12  0.17120000000E+03  0.17120000000E+03 0.  0.
         13    1    1    2    0    0 -0.28597449177E+02  0.98961343719E+01  0.14487801779E+03  0.14800472553E+03  0.10566000000E+00 0.  1.
        994    1    1    2    0    0 -0.28608014272E+02  0.11543546036E+02  0.74650412474E+01  0.17411731326E+03  0.17120000000E+03 0.  0.
        998    1    1    2    0    0  0.57205463449E+02 -0.21439680408E+02  0.13476569372E+04  0.13490779612E+04  0.10000000000E+02 0.  1.
</event>
<event>
 5    1  0.1145138E-008  0.3787758E+03  0.7957747E-01  0.3456506E+00
         13   -1    0    0    0    0  0.00000000000E+00  0.00000000000E+00  0.14999999963E+04  0.15000000000E+04  0.10566000000E+00 0. -1.
        994   -1    0    0    0    0 -0.00000000000E+00 -0.00000000000E+00  0.11368683772E-12  0.17120000000E+03  0.17120000000E+03 0.  0.
         13    1    1    2    0    0 -0.39159693158E+02 -0.12383127805E+03  0.70995542718E+03  0.72173706205E+03  0.10566000000E+00 0. -1.
        994    1    1    2    0    0  0.48180056232E+02  0.13379296864E+03  0.75930792595E+02  0.23515271961E+03  0.17120000000E+03 0.  0.
        998    1    1    2    0    0 -0.90203630732E+01 -0.99616905891E+01  0.71411377650E+03  0.71431021834E+03  0.10000000000E+02 0. -1.
</event>
<event>
 5    1  0.1145138E-008  0.3823092E+03  0.7957747E-01  0.3441165E+00
         13   -1    0    0    0    0  0.00000000000E+00  0.00000000000E+00  0.14999999963E+04  0.15000000000E+04  0.10566000000E+00 0. -1.
        994   -1    0    0    0    0 -0.00000000000E+00 -0.00000000000E+00  0.11368683772E-12  0.17120000000E+03  0.17120000000E+03 0.  0.
         13    1    1    2    0    0  0.20061138757E+02  0.28733704012E+01  0.68902800526E+02  0.71821393958E+02  0.10566000000E+00 0. -1.
        994    1    1    2    0    0 -0.10112804806E+02 -0.52121743070E+01  0.34015075711E+01  0.17161132199E+03  0.17120000000E+03 0.  0.
        998    1    1    2    0    0 -0.99483339515E+01  0.23388039058E+01  0.14276956882E+04  0.14277672840E+04  0.10000000000E+02 0. -1.
</event>
<event>
 5    1  0.1145138E-008  0.3829074E+03  0.7957747E-01  0.3438596E+00
         13   -1    0    0    0    0  0.00000000000E+00  0.00000000000E+00  0.14999999963E+04  0.15000000000E+04  0.10566000000E+00 0.  1.
        994   -1    0    0    0    0 -0.00000000000E+00 -0.00000000000E+00  0.11368683772E-12  0.17120000000E+03  0.17120000000E+03 0.  0.
         13    1    1    2    0    0 -0.83596453216E+01 -0.17065222207E+02  0.66824112599E+02  0.69473582515E+02  0.10566000000E+00 0.  1.
        994    1    1    2    0    0  0.63286910985E+01  0.10341765873E+02  0.31595562989E+01  0.17165787849E+03  0.17120000000E+03 0.  0.
        998    1    1    2    0    0  0.20309542231E+01  0.67234563343E+01  0.14300163274E+04  0.14300685390E+04  0.10000000000E+02 0.  1.
</event>
<event>
 5    1  0.1145138E-008  0.3726513E+03  0.7957747E-01  0.3483794E+00
         13   -1    0    0    0    0  0.00000000000E+00  0.00000000000E+00  0.14999999963E+04  0.15000000000E+04  0.10566000000E+00 0. -1.
        994   -1    0    0    0    0 -0.00000000000E+00 -0.00000000000E+00  0.11368683772E-12  0.17120000000E+03  0.17120000000E+03 0.  0.
         13    1    1    2    0    0 -0.77169988605E+01 -0.49497128659E+02  0.10401750048E+03  0.11545202201E+03  0.10566000000E+00 0. -1.
        994    1    1    2    0    0 -0.15227693374E+01  0.13504480506E+02  0.12999642665E+02  0.17222984796E+03  0.17120000000E+03 0.  0.
        998    1    1    2    0    0  0.92397681979E+01  0.35992648153E+02  0.13829828531E+04  0.13835181300E+04  0.10000000000E+02 0. -1.
</event>
<event>
 5    1  0.1145138E-008  0.3764644E+03  0.7957747E-01  0.3466699E+00
         13   -1    0    0    0    0  0.00000000000E+00  0.00000000000E+00  0.14999999963E+04  0.15000000000E+04  0.10566000000E+00 0.  1.
        994   -1    0    0    0    0 -0.00000000000E+00 -0.00000000000E+00  0.11368683772E-12  0.17120000000E+03  0.17120000000E+03 0.  0.
         13    1    1    2    0    0 -0.64660454578E+02  0.13909352514E+02  0.28472169368E+03  0.29230275142E+03  0.10566000000E+00 0.  1.
        994    1    1    2    0    0  0.70977744050E+02 -0.11863538535E+02  0.23651004850E+02  0.18720949155E+03  0.17120000000E+03 0.  0.
        998    1    1    2    0    0 -0.63172894714E+01 -0.20458139790E+01  0.11916272977E+04  0.11916877570E+04  0.10000000000E+02 0. -1.
</event>
<event>
 5    1  0.1145138E-008  0.3753916E+03  0.7957747E-01  0.3471473E+00
         13   -1    0    0    0    0  0.00000000000E+00  0.00000000000E+00  0.14999999963E+04  0.15000000000E+04  0.10566000000E+00 0. -1.
        994   -1    0    0    0    0 -0.00000000000E+00 -0.00000000000E+00  0.11368683772E-12  0.17120000000E+03  0.17120000000E+03 0.  0.
         13    1    1    2    0    0 -0.12413707936E+02 -0.35767058055E+02  0.45469498183E+02  0.59168141898E+02  0.10566000000E+00 0. -1.
        994    1    1    2    0    0  0.23829395220E+02  0.29650192110E+02  0.18992352281E+02  0.17640046319E+03  0.17120000000E+03 0.  0.
        998    1    1    2    0    0 -0.11415687284E+02  0.61168659451E+01  0.14355381458E+04  0.14356313949E+04  0.10000000000E+02 0. -1.
</event>
<event>
 5    1  0.1145138E-008  0.3718588E+03  0.7957747E-01  0.3487391E+00
         13   -1    0    0    0    0  0.00000000000E+00  0.00000000000E+00  0.14999999963E+04  0.15000000000E+04  0.10566000000E+00 0. -1.
        994   -1    0    0    0    0 -0.00000000000E+00 -0.00000000000E+00  0.11368683772E-12  0.17120000000E+03  0.17120000000E+03 0.  0.
         13    1    1    2    0    0 -0.46779273269E+01  0.63155630393E+02  0.26292945910E+03  0.27044856865E+03  0.10566000000E+00 0. -1.
        994    1    1    2    0    0  0.38338994864E+02 -0.20490228122E+02  0.14821148128E+02  0.17725358786E+03  0.17120000000E+03 0.  0.
        998    1    1    2    0    0 -0.33661067537E+02 -0.42665402272E+02  0.12222493890E+04  0.12234978435E+04  0.10000000000E+02 0. -1.
</event>
<event>
 5    1  0.1145138E-008  0.3860841E+03  0.7957747E-01  0.3425088E+00
         13   -1    0    0    0    0  0.00000000000E+00  0.00000000000E+00  0.14999999963E+04  0.15000000000E+04  0.10566000000E+00 0.  1.
        994   -1    0    0    0    0 -0.00000000000E+00 -0.00000000000E+00  0.11368683772E-12  0.17120000000E+03  0.17120000000E+03 0.  0.
         13    1    1    2    0    0 -0.11313507196E+02 -0.49209507930E+01  0.67893473679E+02  0.69005406556E+02  0.10566000000E+00 0.  1.
        994    1    1    2    0    0  0.13984544889E+02  0.81058560904E+00  0.17361879956E+01  0.17178090375E+03  0.17120000000E+03 0.  0.
        998    1    1    2    0    0 -0.26710376925E+01  0.41103651840E+01  0.14303703346E+04  0.14304136897E+04  0.10000000000E+02 0.  1.
</event>
<event>
 5    1  0.1145138E-008  0.3823960E+03  0.7957747E-01  0.3440792E+00
         13   -1    0    0    0    0  0.00000000000E+00  0.00000000000E+00  0.14999999963E+04  0.15000000000E+04  0.10566000000E+00 0. -1.
        994   -1    0    0    0    0 -0.00000000000E+00 -0.00000000000E+00  0.11368683772E-12  0.17120000000E+03  0.17120000000E+03 0.  0.
         13    1    1    2    0    0 -0.78859852543E+01 -0.19171022063E+02  0.77117636709E+02  0.79855230924E+02  0.10566000000E+00 0. -1.
        994    1    1    2    0    0  0.11408447456E+02 -0.30352956797E+01  0.33909068242E+01  0.17164004178E+03  0.17120000000E+03 0.  0.
        998    1    1    2    0    0 -0.35224622016E+01  0.22206317743E+02  0.14194914527E+04  0.14197047273E+04  0.10000000000E+02 0. -1.
</event>
<event>
 5    1  0.1145138E-008  0.3770725E+03  0.7957747E-01  0.3464005E+00
         13   -1    0    0    0    0  0.00000000000E+00  0.00000000000E+00  0.14999999963E+04  0.15000000000E+04  0.10566000000E+00 0. -1.
        994   -1    0    0    0    0 -0.00000000000E+00 -0.00000000000E+00  0.11368683772E-12  0.17120000000E+03  0.17120000000E+03 0.  0.
         13    1    1    2    0    0 -0.41763742697E+02 -0.68580142908E+01  0.21299798804E+03  0.21716214366E+03  0.10566000000E+00 0. -1.
        994    1    1    2    0    0 -0.18693935837E+02  0.22958691122E+00  0.67989817443E+01  0.17235191354E+03  0.17120000000E+03 0.  0.
        998    1    1    2    0    0  0.60457678534E+02  0.66284273796E+01  0.12802030265E+04  0.12816859428E+04  0.10000000000E+02 0. -1.
</event>
<event>
 5    1  0.1145138E-008  0.3848998E+03  0.7957747E-01  0.3430097E+00
         13   -1    0    0    0    0  0.00000000000E+00  0.00000000000E+00  0.14999999963E+04  0.15000000000E+04  0.10566000000E+00 0. -1.
        994   -1    0    0    0    0 -0.00000000000E+00 -0.00000000000E+00  0.11368683772E-12  0.17120000000E+03  0.17120000000E+03 0.  0.
         13    1    1    2    0    0  0.11816467822E+02  0.72234952074E+01  0.58079869955E+02  0.59708376739E+02  0.10566000000E+00 0. -1.
        994    1    1    2    0    0 -0.51357020901E-01 -0.11792088550E+02  0.21374976312E+01  0.17161895258E+03  0.17120000000E+03 0.  0.
        998    1    1    2    0    0 -0.11765110801E+02  0.45685933421E+01  0.14397826287E+04  0.14398726707E+04  0.10000000000E+02 0. -1.
</event>
<event>
 5    1  0.1145138E-008  0.3844025E+03  0.7957747E-01  0.3432210E+00
         13   -1    0    0    0    0  0.00000000000E+00  0.00000000000E+00  0.14999999963E+04  0.15000000000E+04  0.10566000000E+00 0.  1.
        994   -1    0    0    0    0 -0.00000000000E+00 -0.00000000000E+00  0.11368683772E-12  0.17120000000E+03  0.17120000000E+03 0.  0.
         13    1    1    2    0    0 -0.20930160910E+02  0.58211080903E+01  0.11093474641E+03  0.11304196592E+03  0.10566000000E+00 0.  1.
        994    1    1    2    0    0  0.27198023530E+02 -0.81385989411E+00  0.43705316607E+01  0.17340396881E+03  0.17120000000E+03 0.  0.
        998    1    1    2    0    0 -0.62678626203E+01 -0.50072481962E+01  0.13846947182E+04  0.13847540653E+04  0.10000000000E+02 0.  1.
</event>
<event>
 5    1  0.1145138E-008  0.3807342E+03  0.7957747E-01  0.3447968E+00
         13   -1    0    0    0    0  0.00000000000E+00  0.00000000000E+00  0.14999999963E+04  0.15000000000E+04  0.10566000000E+00 0.  1.
        994   -1    0    0    0    0 -0.00000000000E+00 -0.00000000000E+00  0.11368683772E-12  0.17120000000E+03  0.17120000000E+03 0.  0.
         13    1    1    2    0    0 -0.85953311702E+01 -0.66874971470E+01  0.14080925679E+02  0.17801291190E+02  0.10566000000E+00 0.  1.
        994    1    1    2    0    0  0.68280856786E+01  0.71960939820E+01  0.40912013186E+01  0.17153595673E+03  0.17120000000E+03 0.  0.
        998    1    1    2    0    0  0.17672454916E+01 -0.50859683500E+00  0.14818278693E+04  0.14818627521E+04  0.10000000000E+02 0.  1.
</event>
<event>
 5    1  0.1145138E-008  0.3842522E+03  0.7957747E-01  0.3432850E+00
         13   -1    0    0    0    0  0.00000000000E+00  0.00000000000E+00  0.14999999963E+04  0.15000000000E+04  0.10566000000E+00 0.  1.
        994   -1    0    0    0    0 -0.00000000000E+00 -0.00000000000E+00  0.11368683772E-12  0.17120000000E+03  0.17120000000E+03 0.  0.
         13    1    1    2    0    0  0.17737334770E+02 -0.14936641947E+02  0.12730626904E+03  0.12940097998E+03  0.10566000000E+00 0.  1.
        994    1    1    2    0    0 -0.16568052048E+02  0.12315131247E+02  0.34080478657E+01  0.17247381713E+03  0.17120000000E+03 0.  0.
        998    1    1    2    0    0 -0.11692827218E+01  0.26215106997E+01  0.13692856794E+04  0.13693252029E+04  0.10000000000E+02 0.  1.
</event>
<event>
 5    1  0.1340633E-008  0.3819575E+03  0.7957747E-01  0.3442679E+00
         13   -1    0    0    0    0  0.00000000000E+00  0.00000000000E+00  0.14999999963E+04  0.15000000000E+04  0.10566000000E+00 0. -1.
        994   -1    0    0    0    0 -0.00000000000E+00 -0.00000000000E+00  0.11368683772E-12  0.17120000000E+03  0.17120000000E+03 0.  0.
         13    1    1    2    0    0  0.92856430782E+01  0.39699297926E+01  0.14771417240E+02  0.17893838080E+02  0.10566000000E+00 0. -1.
        994    1    1    2    0    0 -0.98632068395E+01 -0.34142936641E+01  0.35101641122E+01  0.17155378603E+03  0.17120000000E+03 0.  0.
        998    1    1    2    0    0  0.57756376128E+00 -0.55563612849E+00  0.14817184149E+04  0.14817523759E+04  0.10000000000E+02 0. -1.
</event>
<event>
 5    1  0.1145138E-008  0.3852348E+03  0.7957747E-01  0.3428677E+00
         13   -1    0    0    0    0  0.00000000000E+00  0.00000000000E+00  0.14999999963E+04  0.15000000000E+04  0.10566000000E+00 0.  1.
        994   -1    0    0    0    0 -0.00000000000E+00 -0.00000000000E+00  0.11368683772E-12  0.17120000000E+03  0.17120000000E+03 0.  0.
         13    1    1    2    0    0  0.14661173603E+03  0.18408102726E+03  0.11076612540E+04  0.11323843387E+04  0.10566000000E+00 0.  1.
        994    1    1    2    0    0 -0.14960865181E+03 -0.19539275190E+03  0.23549827004E+03  0.38122165650E+03  0.17120000000E+03 0.  0.
        998    1    1    2    0    0  0.29969157787E+01  0.11311724639E+02  0.15684047222E+03  0.15759400479E+03  0.10000000000E+02 0.  1.
</event>
<event>
 5    1  0.1145138E-008  0.3797025E+03  0.7957747E-01  0.3452455E+00
         13   -1    0    0    0    0  0.00000000000E+00  0.00000000000E+00  0.14999999963E+04  0.15000000000E+04  0.10566000000E+00 0. -1.
        994   -1    0    0    0    0 -0.00000000000E+00 -0.00000000000E+00  0.11368683772E-12  0.17120000000E+03  0.17120000000E+03 0.  0.
         13    1    1    2    0    0 -0.22392794567E+02  0.50558204522E+01  0.58624415399E+02  0.62958969289E+02  0.10566000000E+00 0. -1.
        994    1    1    2    0    0  0.18978393267E+02 -0.83213617616E+01  0.57216428469E+01  0.17254449185E+03  0.17120000000E+03 0.  0.
        998    1    1    2    0    0  0.34144012993E+01  0.32655413094E+01  0.14356539380E+04  0.14356965389E+04  0.10000000000E+02 0. -1.
</event>
<event>
 5    1  0.1145138E-008  0.3813680E+03  0.7957747E-01  0.3445224E+00
         13   -1    0    0    0    0  0.00000000000E+00  0.00000000000E+00  0.14999999963E+04  0.15000000000E+04  0.10566000000E+00 0. -1.
        994   -1    0    0    0    0 -0.00000000000E+00 -0.00000000000E+00  0.11368683772E-12  0.17120000000E+03  0.17120000000E+03 0.  0.
         13    1    1    2    0    0 -0.29804616189E+02  0.34560121994E+01  0.17219595303E+03  0.17479049337E+03  0.10566000000E+00 0. -1.
        994    1    1    2    0    0 -0.17423852856E+02  0.11133780205E+02  0.48683310938E+01  0.17251287592E+03  0.17120000000E+03 0.  0.
        998    1    1    2    0    0  0.47228469045E+02 -0.14589792405E+02  0.13229357122E+04  0.13238966307E+04  0.10000000000E+02 0. -1.
</event>
<event>
 5    1  0.1145138E-008  0.3823939E+03  0.7957747E-01  0.3440801E+00
         13   -1    0    0    0    0  0.00000000000E+00  0.00000000000E+00  0.14999999963E+04  0.15000000000E+04  0.10566000000E+00 0. -1.
        994   -1    0    0    0    0 -0.00000000000E+00 -0.00000000000E+00  0.11368683772E-12  0.17120000000E+03  0.17120000000E+03 0.  0.
         13    1    1    2    0    0  0.17152080515E+02  0.30232545289E+02  0.17086300251E+03  0.17436277542E+03  0.10566000000E+00 0. -1.
        994    1    1    2    0    0  0.18011789233E+01 -0.53268017820E+02  0.12409155357E+02  0.17973356143E+03  0.17120000000E+03 0.  0.
        998    1    1    2    0    0 -0.18953259439E+02  0.23035472531E+02  0.13167278384E+04  0.13171036631E+04  0.10000000000E+02 0. -1.
</event>
<event>
 5    1  0.1298506E-008  0.3856492E+03  0.7957747E-01  0.3426923E+00
         13   -1    0    0    0    0  0.00000000000E+00  0.00000000000E+00  0.14999999963E+04  0.15000000000E+04  0.10566000000E+00 0.  1.
        994   -1    0    0    0    0 -0.00000000000E+00 -0.00000000000E+00  0.11368683772E-12  0.17120000000E+03  0.17120000000E+03 0.  0.
         13    1    1    2    0    0  0.20200387536E+01  0.13487771010E+02  0.76644758604E+02  0.77848768191E+02  0.10566000000E+00 0.  1.
        994    1    1    2    0    0  0.69053321601E+01 -0.12640167211E+01  0.14698950562E+01  0.17135017345E+03  0.17120000000E+03 0.  0.
        998    1    1    2    0    0 -0.89253709137E+01 -0.12223754289E+02  0.14218853426E+04  0.14220010584E+04  0.10000000000E+02 0.  1.
</event>
<event>
 5    1  0.1145138E-008  0.3764826E+03  0.7957747E-01  0.3466619E+00
         13   -1    0    0    0    0  0.00000000000E+00  0.00000000000E+00  0.14999999963E+04  0.15000000000E+04  0.10566000000E+00 0. -1.
        994   -1    0    0    0    0 -0.00000000000E+00 -0.00000000000E+00  0.11368683772E-12  0.17120000000E+03  0.17120000000E+03 0.  0.
         13    1    1    2    0    0 -0.41735377590E+02  0.82057809670E+01  0.16146409467E+03  0.16697257743E+03  0.10566000000E+00 0. -1.
        994    1    1    2    0    0  0.12268337177E+02 -0.46374707929E+01  0.65013723750E+01  0.17182469577E+03  0.17120000000E+03 0.  0.
        998    1    1    2    0    0  0.29467040413E+02 -0.35683101741E+01  0.13320345292E+04  0.13324027268E+04  0.10000000000E+02 0. -1.
</event>
<event>
 5    1  0.1145138E-008  0.3729606E+03  0.7957747E-01  0.3482394E+00
         13   -1    0    0    0    0  0.00000000000E+00  0.00000000000E+00  0.14999999963E+04  0.15000000000E+04  0.10566000000E+00 0.  1.
        994   -1    0    0    0    0 -0.00000000000E+00 -0.00000000000E+00  0.11368683772E-12  0.17120000000E+03  0.17120000000E+03 0.  0.
         13    1    1    2    0    0  0.11315722919E+03 -0.14773919284E+03  0.83823540111E+03  0.85864429565E+03  0.10566000000E+00 0.  1.
        994    1    1    2    0    0 -0.10305293559E+03  0.15331409680E+03  0.13536368896E+03  0.28593336304E+03  0.17120000000E+03 0.  0.
        998    1    1    2    0    0 -0.10104293596E+02 -0.55749039579E+01  0.52640090621E+03  0.52662234131E+03  0.10000000000E+02 0.  0.
</event>
<event>
 5    1  0.1145138E-008  0.3750978E+03  0.7957747E-01  0.3472785E+00
         13   -1    0    0    0    0  0.00000000000E+00  0.00000000000E+00  0.14999999963E+04  0.15000000000E+04  0.10566000000E+00 0.  1.
        994   -1    0    0    0    0 -0.00000000000E+00 -0.00000000000E+00  0.11368683772E-12  0.17120000000E+03  0.17120000000E+03 0.  0.
         13    1    1    2    0    0 -0.18657921014E+02  0.75555844144E+01  0.87074378461E+01  0.21932521750E+02  0.10566000000E+00 0.  1.
        994    1    1    2    0    0  0.16527563412E+02 -0.11795274320E+02  0.15129041713E+02  0.17306246488E+03  0.17120000000E+03 0.  0.
        998    1    1    2    0    0  0.21303576022E+01  0.42396899053E+01  0.14761635167E+04  0.14762050134E+04  0.10000000000E+02 0.  1.
</event>
<event>
 5    1  0.1145138E-008  0.3841584E+03  0.7957747E-01  0.3433249E+00
         13   -1    0    0    0    0  0.00000000000E+00  0.00000000000E+00  0.14999999963E+04  0.15000000000E+04  0.10566000000E+00 0. -1.
        994   -1    0    0    0    0 -0.00000000000E+00 -0.00000000000E+00  0.11368683772E-12  0.17120000000E+03  0.17120000000E+03 0.  0.
         13    1    1    2    0    0  0.16757041321E+01 -0.20141294986E+02  0.96926249803E+02  0.99011053993E+02  0.10566000000E+00 0. -1.
        994    1    1    2    0    0 -0.26453047371E-01  0.16346904340E+02  0.29302521231E+01  0.17200362891E+03  0.17120000000E+03 0.  0.
        998    1    1    2    0    0 -0.16492510848E+01  0.37943906456E+01  0.14001434944E+04  0.14001853171E+04  0.10000000000E+02 0. -1.
</event>
<event>
 5    1  0.1145138E-008  0.3818929E+03  0.7957747E-01  0.3442957E+00
         13   -1    0    0    0    0  0.00000000000E+00  0.00000000000E+00  0.14999999963E+04  0.15000000000E+04  0.10566000000E+00 0. -1.
        994   -1    0    0    0    0 -0.00000000000E+00 -0.00000000000E+00  0.11368683772E-12  0.17120000000E+03  0.17120000000E+03 0.  0.
         13    1    1    2    0    0  0.32107582468E+02  0.36208736815E+02  0.28743542413E+03  0.29148088047E+03  0.10566000000E+00 0. -1.
        994    1    1    2    0    0 -0.32874581403E+02 -0.41012678070E+02  0.12413886707E+02  0.17951691410E+03  0.17120000000E+03 0.  0.
        998    1    1    2    0    0  0.76699893511E+00  0.48039412551E+01  0.12001506854E+04  0.12002022054E+04  0.10000000000E+02 0. -1.
</event>
<event>
 5    1  0.1145138E-008  0.3831297E+03  0.7957747E-01  0.3437643E+00
         13   -1    0    0    0    0  0.00000000000E+00  0.00000000000E+00  0.14999999963E+04  0.15000000000E+04  0.10566000000E+00 0. -1.
        994   -1    0    0    0    0 -0.00000000000E+00 -0.00000000000E+00  0.11368683772E-12  0.17120000000E+03  0.17120000000E+03 0.  0.
         13    1    1    2    0    0 -0.21843635782E+02  0.18523543894E+02  0.16613443196E+03  0.16858507274E+03  0.10566000000E+00 0. -1.
        994    1    1    2    0    0  0.20342152070E+02  0.45924383826E+01  0.40018435037E+01  0.17251187899E+03  0.17120000000E+03 0.  0.
        998    1    1    2    0    0  0.15014837123E+01 -0.23115982276E+02  0.13298637208E+04  0.13301030483E+04  0.10000000000E+02 0. -1.
</event>
<event>
 5    1  0.1145138E-008  0.3842022E+03  0.7957747E-01  0.3433063E+00
         13   -1    0    0    0    0  0.00000000000E+00  0.00000000000E+00  0.14999999963E+04  0.15000000000E+04  0.10566000000E+00 0.  1.
        994   -1    0    0    0    0 -0.00000000000E+00 -0.00000000000E+00  0.11368683772E-12  0.17120000000E+03  0.17120000000E+03 0.  0.
         13    1    1    2    0    0 -0.34461052870E+01 -0.10122891901E+02  0.27416992351E+02  0.29428748116E+02  0.10566000000E+00 0.  1.
        994    1    1    2    0    0  0.11994658119E+02  0.61303915253E+01  0.26252375492E+01  0.17174919329E+03  0.17120000000E+03 0.  0.
        998    1    1    2    0    0 -0.85485528320E+01  0.39925003758E+01  0.14699577664E+04  0.14700220586E+04  0.10000000000E+02 0.  1.
</event>
<event>
 5    1  0.1145138E-008  0.3824041E+03  0.7957747E-01  0.3440757E+00
         13   -1    0    0    0    0  0.00000000000E+00  0.00000000000E+00  0.14999999963E+04  0.15000000000E+04  0.10566000000E+00 0. -1.
        994   -1    0    0    0    0 -0.00000000000E+00 -0.00000000000E+00  0.11368683772E-12  0.17120000000E+03  0.17120000000E+03 0.  0.
         13    1    1    2    0    0 -0.19356673594E+02  0.15608220896E+02  0.98538057264E+02  0.10162704987E+03  0.10566000000E+00 0. -1.
        994    1    1    2    0    0  0.17122344211E+02 -0.19823397855E+02  0.52034231679E+01  0.17327047465E+03  0.17120000000E+03 0.  0.
        998    1    1    2    0    0  0.22343293834E+01  0.42151769584E+01  0.13962585158E+04  0.13963024755E+04  0.10000000000E+02 0. -1.
</event>
<event>
 5    1  0.1145138E-008  0.3742318E+03  0.7957747E-01  0.3476666E+00
         13   -1    0    0    0    0  0.00000000000E+00  0.00000000000E+00  0.14999999963E+04  0.15000000000E+04  0.10566000000E+00 0.  1.
        994   -1    0    0    0    0 -0.00000000000E+00 -0.00000000000E+00  0.11368683772E-12  0.17120000000E+03  0.17120000000E+03 0.  0.
         13    1    1    2    0    0 -0.12845054654E+02  0.21896171146E+02  0.45398845782E+02  0.52014460511E+02  0.10566000000E+00 0.  1.
        994    1    1    2    0    0 -0.93080387685E+01 -0.18076495581E+01  0.73802315352E+01  0.17162113798E+03  0.17120000000E+03 0.  0.
        998    1    1    2    0    0  0.22153093422E+02 -0.20088521587E+02  0.14472209190E+04  0.14475644015E+04  0.10000000000E+02 0.  1.
</event>
<event>
 5    1  0.1145138E-008  0.3811178E+03  0.7957747E-01  0.3446306E+00
         13   -1    0    0    0    0  0.00000000000E+00  0.00000000000E+00  0.14999999963E+04  0.15000000000E+04  0.10566000000E+00 0. -1.
        994   -1    0    0    0    0 -0.00000000000E+00 -0.00000000000E+00  0.11368683772E-12  0.17120000000E+03  0.17120000000E+03 0.  0.
         13    1    1    2    0    0 -0.24196815704E+02 -0.23389215001E+02  0.17926150357E+03  0.18239308949E+03  0.10566000000E+00 0. -1.
        994    1    1    2    0    0  0.15127168498E+02 -0.11114878089E+02  0.47444437604E+01  0.17229138542E+03  0.17120000000E+03 0.  0.
        998    1    1    2    0    0  0.90696472061E+01  0.34504093090E+02  0.13159940490E+04  0.13165155251E+04  0.10000000000E+02 0. -1.
</event>
<event>
 5    1  0.1145138E-008  0.3846313E+03  0.7957747E-01  0.3431237E+00
         13   -1    0    0    0    0  0.00000000000E+00  0.00000000000E+00  0.14999999963E+04  0.15000000000E+04  0.10566000000E+00 0. -1.
        994   -1    0    0    0    0 -0.00000000000E+00 -0.00000000000E+00  0.11368683772E-12  0.17120000000E+03  0.17120000000E+03 0.  0.
         13    1    1    2    0    0  0.16061056325E+02 -0.55474111038E+01  0.73908169959E+02  0.75836403205E+02  0.10566000000E+00 0. -1.
        994    1    1    2    0    0 -0.22882494741E+02  0.26031540116E+01  0.35615678600E+01  0.17277878846E+03  0.17120000000E+03 0.  0.
        998    1    1    2    0    0  0.68214384151E+01  0.29442570922E+01  0.14225302585E+04  0.14225848083E+04  0.10000000000E+02 0. -1.
</event>
<event>
 5    1  0.1145138E-008  0.3688007E+03  0.7957747E-01  0.3501421E+00
         13   -1    0    0    0    0  0.00000000000E+00  0.00000000000E+00  0.14999999963E+04  0.15000000000E+04  0.10566000000E+00 0.  1.
        994   -1    0    0    0    0 -0.00000000000E+00 -0.00000000000E+00  0.11368683772E-12  0.17120000000E+03  0.17120000000E+03 0.  0.
         13    1    1    2    0    0  0.54979277211E+02 -0.56907848394E+02  0.44122630840E+03  0.44826542418E+03  0.10566000000E+00 0.  1.
        994    1    1    2    0    0 -0.46322196752E-01  0.85493487236E+01  0.10151138283E+02  0.17171365443E+03  0.17120000000E+03 0.  0.
        998    1    1    2    0    0 -0.54932955015E+02  0.48358499671E+02  0.10486225496E+04  0.10512209214E+04  0.10000000000E+02 0.  1.
</event>
<event>
 5    1  0.1145138E-008  0.3825187E+03  0.7957747E-01  0.3440264E+00
         13   -1    0    0    0    0  0.00000000000E+00  0.00000000000E+00  0.14999999963E+04  0.15000000000E+04  0.10566000000E+00 0.  1.
        994   -1    0    0    0    0 -0.00000000000E+00 -0.00000000000E+00  0.11368683772E-12  0.17120000000E+03  0.17120000000E+03 0.  0.
         13    1    1    2    0    0 -0.10123859699E+02 -0.38043878877E+01  0.18555329612E+02  0.21477367703E+02  0.10566000000E+00 0.  1.
        994    1    1    2    0    0  0.19700624529E+02  0.65085948990E+01  0.42955407763E+01  0.17250613927E+03  0.17120000000E+03 0.  0.
        998    1    1    2    0    0 -0.95767648301E+01 -0.27042070113E+01  0.14771491259E+04  0.14772164930E+04  0.10000000000E+02 0.  1.
</event>
<event>
 5    1  0.1145138E-008  0.3812661E+03  0.7957747E-01  0.3445664E+00
         13   -1    0    0    0    0  0.00000000000E+00  0.00000000000E+00  0.14999999963E+04  0.15000000000E+04  0.10566000000E+00 0.  1.
        994   -1    0    0    0    0 -0.00000000000E+00 -0.00000000000E+00  0.11368683772E-12  0.17120000000E+03  0.17120000000E+03 0.  0.
         13    1    1    2    0    0 -0.95459207338E+02  0.34283341706E+02  0.23248164646E+03  0.25364450494E+03  0.10566000000E+00 0.  1.
        994    1    1    2    0    0  0.11473373114E+03 -0.20624689385E+02  0.68340579370E+02  0.21810337380E+03  0.17120000000E+03 0.  0.
        998    1    1    2    0    0 -0.19274523799E+02 -0.13658652321E+02  0.11991777705E+04  0.11994521213E+04  0.10000000000E+02 0.  1.
</event>
<event>
 5    1  0.1145138E-008  0.3860447E+03  0.7957747E-01  0.3425253E+00
         13   -1    0    0    0    0  0.00000000000E+00  0.00000000000E+00  0.14999999963E+04  0.15000000000E+04  0.10566000000E+00 0.  1.
        994   -1    0    0    0    0 -0.00000000000E+00 -0.00000000000E+00  0.11368683772E-12  0.17120000000E+03  0.17120000000E+03 0.  0.
         13    1    1    2    0    0  0.12554211690E+02  0.32762335671E+01  0.76160598092E+02  0.77257943302E+02  0.10566000000E+00 0.  1.
        994    1    1    2    0    0 -0.58956368672E+01 -0.15244449308E+02  0.19884226355E+01  0.17198995783E+03  0.17120000000E+03 0.  0.
        998    1    1    2    0    0 -0.66585748226E+01  0.11968215741E+02  0.14218509756E+04  0.14219520989E+04  0.10000000000E+02 0.  1.
</event>
<event>
 5    1  0.1145138E-008  0.3765471E+03  0.7957747E-01  0.3466332E+00
         13   -1    0    0    0    0  0.00000000000E+00  0.00000000000E+00  0.14999999963E+04  0.15000000000E+04  0.10566000000E+00 0.  1.
        994   -1    0    0    0    0 -0.00000000000E+00 -0.00000000000E+00  0.11368683772E-12  0.17120000000E+03  0.17120000000E+03 0.  0.
         13    1    1    2    0    0  0.56372560266E+02 -0.78657116385E+02  0.55967616191E+03  0.56798083144E+03  0.10566000000E+00 0.  1.
        994    1    1    2    0    0 -0.32592330499E+02  0.84690235806E+02  0.34260631088E+02  0.19676871421E+03  0.17120000000E+03 0.  0.
        998    1    1    2    0    0 -0.23780229767E+02 -0.60331194212E+01  0.90606320328E+03  0.90645045435E+03  0.10000000000E+02 0.  1.
</event>
<event>
 5    1  0.1145138E-008  0.3841475E+03  0.7957747E-01  0.3433296E+00
         13   -1    0    0    0    0  0.00000000000E+00  0.00000000000E+00  0.14999999963E+04  0.15000000000E+04  0.10566000000E+00 0. -1.
        994   -1    0    0    0    0 -0.00000000000E+00 -0.00000000000E+00  0.11368683772E-12  0.17120000000E+03  0.17120000000E+03 0.  0.
         13    1    1    2    0    0 -0.60131607497E+01 -0.10146637180E+02  0.34485127996E+02  0.36446502784E+02  0.10566000000E+00 0. -1.
        994    1    1    2    0    0  0.62544347278E+01 -0.34739219335E+01  0.22227920107E+01  0.17136384360E+03  0.17120000000E+03 0.  0.
        998    1    1    2    0    0 -0.24127397812E+00  0.13620559113E+02  0.14632920763E+04  0.14633896536E+04  0.10000000000E+02 0. -1.
</event>
<event>
 5    1  0.1145138E-008  0.3781025E+03  0.7957747E-01  0.3459463E+00
         13   -1    0    0    0    0  0.00000000000E+00  0.00000000000E+00  0.14999999963E+04  0.15000000000E+04  0.10566000000E+00 0.  1.
        994   -1    0    0    0    0 -0.00000000000E+00 -0.00000000000E+00  0.11368683772E-12  0.17120000000E+03  0.17120000000E+03 0.  0.
         13    1    1    2    0    0 -0.57223354862E+02  0.47525712141E+02  0.42678495720E+03  0.43321890138E+03  0.10566000000E+00 0.  1.
        994    1    1    2    0    0  0.57259731834E+02 -0.34178100436E+02  0.20202112903E+02  0.18483610255E+03  0.17120000000E+03 0.  0.
        998    1    1    2    0    0 -0.36376972231E-01 -0.13347611705E+02  0.10530129262E+04  0.10531449961E+04  0.10000000000E+02 0.  1.
</event>
<event>
 5    1  0.1145138E-008  0.3825394E+03  0.7957747E-01  0.3440175E+00
         13   -1    0    0    0    0  0.00000000000E+00  0.00000000000E+00  0.14999999963E+04  0.15000000000E+04  0.10566000000E+00 0. -1.
        994   -1    0    0    0    0 -0.00000000000E+00 -0.00000000000E+00  0.11368683772E-12  0.17120000000E+03  0.17120000000E+03 0.  0.
         13    1    1    2    0    0  0.12384877008E+02 -0.18607815362E+02  0.89974314971E+02  0.92709354920E+02  0.10566000000E+00 0. -1.
        994    1    1    2    0    0 -0.72925580233E+00  0.83114992045E+01  0.30875181652E+01  0.17143099370E+03  0.17120000000E+03 0.  0.
        998    1    1    2    0    0 -0.11655621206E+02  0.10296316158E+02  0.14069381631E+04  0.14070596514E+04  0.10000000000E+02 0. -1.
</event>
<event>
 5    1  0.1145138E-008  0.3799668E+03  0.7957747E-01  0.3451303E+00
         13   -1    0    0    0    0  0.00000000000E+00  0.00000000000E+00  0.14999999963E+04  0.15000000000E+04  0.10566000000E+00 0.  1.
        994   -1    0    0    0    0 -0.00000000000E+00 -0.00000000000E+00  0.11368683772E-12  0.17120000000E+03  0.17120000000E+03 0.  0.
         13    1    1    2    0    0  0.46678249406E+01  0.10905315260E+02  0.15342048023E+02  0.19393403316E+02  0.10566000000E+00 0.  1.
        994    1    1    2    0    0 -0.10150810770E+02 -0.75064476046E-01  0.44944732719E+01  0.17155956658E+03  0.17120000000E+03 0.  0.
        998    1    1    2    0    0  0.54829858295E+01 -0.10830250784E+02  0.14801634750E+04  0.14802470301E+04  0.10000000000E+02 0.  1.
</event>
<event>
 5    1  0.1145138E-008  0.3823327E+03  0.7957747E-01  0.3441064E+00
         13   -1    0    0    0    0  0.00000000000E+00  0.00000000000E+00  0.14999999963E+04  0.15000000000E+04  0.10566000000E+00 0. -1.
        994   -1    0    0    0    0 -0.00000000000E+00 -0.00000000000E+00  0.11368683772E-12  0.17120000000E+03  0.17120000000E+03 0.  0.
         13    1    1    2    0    0 -0.13543911574E+02  0.39422799599E+01  0.32668008596E+02  0.35583550437E+02  0.10566000000E+00 0. -1.
        994    1    1    2    0    0  0.62045843551E+01 -0.95823522593E+01  0.33926724118E+01  0.17161371906E+03  0.17120000000E+03 0.  0.
        998    1    1    2    0    0  0.73393272194E+01  0.56400722994E+01  0.14639393153E+04  0.14640027305E+04  0.10000000000E+02 0. -1.
</event>
<event>
 5    1  0.1145138E-008  0.3749616E+03  0.7957747E-01  0.3473394E+00
         13   -1    0    0    0    0  0.00000000000E+00  0.00000000000E+00  0.14999999963E+04  0.15000000000E+04  0.10566000000E+00 0. -1.
        994   -1    0    0    0    0 -0.00000000000E+00 -0.00000000000E+00  0.11368683772E-12  0.17120000000E+03  0.17120000000E+03 0.  0.
         13    1    1    2    0    0 -0.41486812511E+02 -0.42861084277E+02  0.23050541351E+03  0.23809868748E+03  0.10566000000E+00 0. -1.
        994    1    1    2    0    0  0.45573706912E+02  0.33024725982E+02  0.17544361085E+02  0.18106584408E+03  0.17120000000E+03 0.  0.
        998    1    1    2    0    0 -0.40868944007E+01  0.98363582957E+01  0.12519502217E+04  0.12520354684E+04  0.10000000000E+02 0. -1.
</event>
<event>
 5    1  0.1145138E-008  0.3834041E+03  0.7957747E-01  0.3436469E+00
         13   -1    0    0    0    0  0.00000000000E+00  0.00000000000E+00  0.14999999963E+04  0.15000000000E+04  0.10566000000E+00 0.  1.
        994   -1    0    0    0    0 -0.00000000000E+00 -0.00000000000E+00  0.11368683772E-12  0.17120000000E+03  0.17120000000E+03 0.  0.
         13    1    1    2    0    0  0.16337074458E+02 -0.15010260026E+02  0.10331175506E+03  0.10566710844E+03  0.10566000000E+00 0.  1.
        994    1    1    2    0    0 -0.46567330145E+01  0.10052981136E+02  0.28304378784E+01  0.17158146453E+03  0.17120000000E+03 0.  0.
        998    1    1    2    0    0 -0.11680341444E+02  0.49572788902E+01  0.13938578033E+04  0.13939514270E+04  0.10000000000E+02 0.  1.
</event>
<event>
 5    1  0.1145138E-008  0.3690700E+03  0.7957747E-01  0.3500176E+00
         13   -1    0    0    0    0  0.00000000000E+00  0.00000000000E+00  0.14999999963E+04  0.15000000000E+04  0.10566000000E+00 0. -1.
        994   -1    0    0    0    0 -0.00000000000E+00 -0.00000000000E+00  0.11368683772E-12  0.17120000000E+03  0.17120000000E+03 0.  0.
         13    1    1    2    0    0  0.81196149002E+02  0.54575640318E+01  0.36717170268E+03  0.37608199908E+03  0.10566000000E+00 0. -1.
        994    1    1    2    0    0 -0.24410277974E+02 -0.26985374324E+02  0.15075928962E+02  0.17567241028E+03  0.17120000000E+03 0.  0.
        998    1    1    2    0    0 -0.56785871028E+02  0.21527810292E+02  0.11177523646E+04  0.11194455906E+04  0.10000000000E+02 0. -1.
</event>
<event>
 5    1  0.1145138E-008  0.3754050E+03  0.7957747E-01  0.3471413E+00
         13   -1    0    0    0    0  0.00000000000E+00  0.00000000000E+00  0.14999999963E+04  0.15000000000E+04  0.10566000000E+00 0. -1.
        994   -1    0    0    0    0 -0.00000000000E+00 -0.00000000000E+00  0.11368683772E-12  0.17120000000E+03  0.17120000000E+03 0.  0.
         13    1    1    2    0    0 -0.76431018841E-01 -0.67939262937E+02  0.38515873636E+03  0.39110486145E+03  0.10566000000E+00 0. -1.
        994    1    1    2    0    0 -0.11852326104E+02  0.29920720260E+02  0.99947664475E+01  0.17448513545E+03  0.17120000000E+03 0.  0.
        998    1    1    2    0    0  0.11928757122E+02  0.38018542677E+02  0.11048464935E+04  0.11056100031E+04  0.10000000000E+02 0. -1.
</event>
<event>
 5    1  0.1145138E-008  0.3786749E+03  0.7957747E-01  0.3456949E+00
         13   -1    0    0    0    0  0.00000000000E+00  0.00000000000E+00  0.14999999963E+04  0.15000000000E+04  0.10566000000E+00 0.  1.
        994   -1    0    0    0    0 -0.00000000000E+00 -0.00000000000E+00  0.11368683772E-12  0.17120000000E+03  0.17120000000E+03 0.  0.
         13    1    1    2    0    0 -0.10587783395E+02  0.29822286113E+01  0.10979474412E+02  0.15542035488E+02  0.10566000000E+00 0.  1.
        994    1    1    2    0    0 -0.13115686199E+02  0.34023075541E+01  0.54202154374E+01  0.17182088248E+03  0.17120000000E+03 0.  0.
        998    1    1    2    0    0  0.23703469594E+02 -0.63845361654E+01  0.14836003064E+04  0.14838370820E+04  0.10000000000E+02 0.  1.
</event>
<event>
 5    1  0.1145138E-008  0.3735827E+03  0.7957747E-01  0.3479586E+00
         13   -1    0    0    0    0  0.00000000000E+00  0.00000000000E+00  0.14999999963E+04  0.15000000000E+04  0.10566000000E+00 0. -1.
        994   -1    0    0    0    0 -0.00000000000E+00 -0.00000000000E+00  0.11368683772E-12  0.17120000000E+03  0.17120000000E+03 0.  0.
         13    1    1    2    0    0 -0.20506752121E+02  0.79410614372E+02  0.24800292816E+03  0.26121262622E+03  0.10566000000E+00 0. -1.
        994    1    1    2    0    0 -0.33589529891E+01 -0.59170965418E+02  0.25387980293E+02  0.18293844663E+03  0.17120000000E+03 0.  0.
        998    1    1    2    0    0  0.23865705110E+02 -0.20239648955E+02  0.12266090878E+04  0.12270489271E+04  0.10000000000E+02 0. -1.
</event>
<event>
 5    1  0.1145138E-008  0.3686287E+03  0.7957747E-01  0.3502217E+00
         13   -1    0    0    0    0  0.00000000000E+00  0.00000000000E+00  0.14999999963E+04  0.15000000000E+04  0.10566000000E+00 0. -1.
        994   -1    0    0    0    0 -0.00000000000E+00 -0.00000000000E+00  0.11368683772E-12  0.17120000000E+03  0.17120000000E+03 0.  0.
         13    1    1    2    0    0 -0.60552969051E+02  0.19334114558E+02  0.24626274430E+03  0.25433407251E+03  0.10566000000E+00 0. -1.
        994    1    1    2    0    0  0.30572682320E+02  0.81898107468E+02  0.37297988234E+02  0.19581258600E+03  0.17120000000E+03 0.  0.
        998    1    1    2    0    0  0.29980286732E+02 -0.10123222203E+03  0.12164392637E+04  0.12210533415E+04  0.10000000000E+02 0. -1.
</event>
<event>
 5    1  0.1145138E-008  0.3811481E+03  0.7957747E-01  0.3446175E+00
         13   -1    0    0    0    0  0.00000000000E+00  0.00000000000E+00  0.14999999963E+04  0.15000000000E+04  0.10566000000E+00 0.  1.
        994   -1    0    0    0    0 -0.00000000000E+00 -0.00000000000E+00  0.11368683772E-12  0.17120000000E+03  0.17120000000E+03 0.  0.
         13    1    1    2    0    0  0.17746980282E+02 -0.10645213395E+02  0.60305913578E+02  0.63758060305E+02  0.10566000000E+00 0.  1.
        994    1    1    2    0    0 -0.69208608924E+01  0.44795226547E+01  0.37810909188E+01  0.17144008017E+03  0.17120000000E+03 0.  0.
        998    1    1    2    0    0 -0.10826119389E+02  0.61656907407E+01  0.14359129918E+04  0.14360018595E+04  0.10000000000E+02 0.  1.
</event>
<event>
 5    1  0.1145138E-008  0.3813893E+03  0.7957747E-01  0.3445131E+00
         13   -1    0    0    0    0  0.00000000000E+00  0.00000000000E+00  0.14999999963E+04  0.15000000000E+04  0.10566000000E+00 0.  1.
        994   -1    0    0    0    0 -0.00000000000E+00 -0.00000000000E+00  0.11368683772E-12  0.17120000000E+03  0.17120000000E+03 0.  0.
         13    1    1    2    0    0 -0.18448018240E+02  0.72615739024E+01  0.52996769355E+02  0.56583818876E+02  0.10566000000E+00 0.  1.
        994    1    1    2    0    0  0.35666760028E+02  0.17683286348E+02  0.87252008308E+01  0.17598404904E+03  0.17120000000E+03 0.  0.
        998    1    1    2    0    0 -0.17218741788E+02 -0.24944860250E+02  0.14382780261E+04  0.14386321321E+04  0.10000000000E+02 0.  1.
</event>
<event>
 5    1  0.1145138E-008  0.3768121E+03  0.7957747E-01  0.3465158E+00
         13   -1    0    0    0    0  0.00000000000E+00  0.00000000000E+00  0.14999999963E+04  0.15000000000E+04  0.10566000000E+00 0. -1.
        994   -1    0    0    0    0 -0.00000000000E+00 -0.00000000000E+00  0.11368683772E-12  0.17120000000E+03  0.17120000000E+03 0.  0.
         13    1    1    2    0    0  0.46641132883E+01 -0.11178341042E+02  0.10188017607E+02  0.15827701286E+02  0.10566000000E+00 0. -1.
        994    1    1    2    0    0  0.54504000197E+00  0.91841094564E+01  0.60371537663E+01  0.17155329248E+03  0.17120000000E+03 0.  0.
        998    1    1    2    0    0 -0.52091532903E+01  0.19942315855E+01  0.14837748249E+04  0.14838190062E+04  0.10000000000E+02 0. -1.
</event>
<event>
 5    1  0.1145138E-008  0.3831581E+03  0.7957747E-01  0.3437521E+00
         13   -1    0    0    0    0  0.00000000000E+00  0.00000000000E+00  0.14999999963E+04  0.15000000000E+04  0.10566000000E+00 0.  1.
        994   -1    0    0    0    0 -0.00000000000E+00 -0.00000000000E+00  0.11368683772E-12  0.17120000000E+03  0.17120000000E+03 0.  0.
         13    1    1    2    0    0  0.17245400396E+02  0.11483717866E+02  0.78898318572E+02  0.81573497218E+02  0.10566000000E+00 0.  1.
        994    1    1    2    0    0 -0.20587737278E+02 -0.11155559387E+02  0.43634600731E+01  0.17284901277E+03  0.17120000000E+03 0.  0.
        998    1    1    2    0    0  0.33423368821E+01 -0.32815847935E+00  0.14167382176E+04  0.14167774900E+04  0.10000000000E+02 0.  1.
</event>
<event>
 5    1  0.1145138E-008  0.3818309E+03  0.7957747E-01  0.3443225E+00
         13   -1    0    0    0    0  0.00000000000E+00  0.00000000000E+00  0.14999999963E+04  0.15000000000E+04  0.10566000000E+00 0.  1.
        994   -1    0    0    0    0 -0.00000000000E+00 -0.00000000000E+00  0.11368683772E-12  0.17120000000E+03  0.17120000000E+03 0.  0.
         13    1    1    2    0    0 -0.14334080603E+02  0.49440470516E+01  0.34250095797E+02  0.37456504030E+02  0.10566000000E+00 0.  1.
        994    1    1    2    0    0  0.13174224323E+02 -0.25692270177E+01  0.38106338521E+01  0.17176763969E+03  0.17120000000E+03 0.  0.
        998    1    1    2    0    0  0.11598562798E+01 -0.23748200338E+01  0.14619392666E+04  0.14619758563E+04  0.10000000000E+02 0.  1.
</event>
<event>
 5    1  0.1145138E-008  0.3802956E+03  0.7957747E-01  0.3449873E+00
         13   -1    0    0    0    0  0.00000000000E+00  0.00000000000E+00  0.14999999963E+04  0.15000000000E+04  0.10566000000E+00 0. -1.
        994   -1    0    0    0    0 -0.00000000000E+00 -0.00000000000E+00  0.11368683772E-12  0.17120000000E+03  0.17120000000E+03 0.  0.
         13    1    1    2    0    0  0.32519152185E+02 -0.61061349822E+01  0.14308137830E+03  0.14685731893E+03  0.10566000000E+00 0. -1.
        994    1    1    2    0    0 -0.94802188943E+01  0.13122688350E+02  0.48597622589E+01  0.17203237134E+03  0.17120000000E+03 0.  0.
        998    1    1    2    0    0 -0.23038933291E+02 -0.70165533679E+01  0.13520588557E+04  0.13523103097E+04  0.10000000000E+02 0. -1.
</event>
<event>
 5    1  0.1145138E-008  0.3769495E+03  0.7957747E-01  0.3464550E+00
         13   -1    0    0    0    0  0.00000000000E+00  0.00000000000E+00  0.14999999963E+04  0.15000000000E+04  0.10566000000E+00 0.  1.
        994   -1    0    0    0    0 -0.00000000000E+00 -0.00000000000E+00  0.11368683772E-12  0.17120000000E+03  0.17120000000E+03 0.  0.
         13    1    1    2    0    0 -0.27207407105E+02 -0.35182181569E+02  0.26111661683E+03  0.26487719352E+03  0.10566000000E+00 0.  1.
        994    1    1    2    0    0 -0.32314665847E+02 -0.70770127795E+01  0.93854430862E+01  0.17461915210E+03  0.17120000000E+03 0.  0.
        998    1    1    2    0    0  0.59522072952E+02  0.42259194348E+02  0.12294979364E+04  0.12317036544E+04  0.10000000000E+02 0.  1.
</event>
<event>
 5    1  0.1145138E-008  0.4115716E+03  0.7957747E-01  0.3324246E+00
         13   -1    0    0    0    0  0.00000000000E+00  0.00000000000E+00  0.14999999963E+04  0.15000000000E+04  0.10566000000E+00 0. -1.
        994   -1    0    0    0    0 -0.00000000000E+00 -0.00000000000E+00  0.11368683772E-12  0.17120000000E+03  0.17120000000E+03 0.  0.
         13    1    1    2    0    0  0.29151207841E+02  0.15714216331E+02  0.17033799046E+01  0.33160853135E+02  0.10566000000E+00 0. -1.
        994    1    1    2    0    0 -0.26790296650E+02  0.96325410347E+01  0.38224133297E+02  0.17771052363E+03  0.17120000000E+03 0.  0.
        998    1    1    2    0    0 -0.23609111906E+01 -0.25346757366E+02  0.14600724831E+04  0.14603286232E+04  0.10000000000E+02 0. -1.
</event>
<event>
 5    1  0.1145138E-008  0.3844085E+03  0.7957747E-01  0.3432185E+00
         13   -1    0    0    0    0  0.00000000000E+00  0.00000000000E+00  0.14999999963E+04  0.15000000000E+04  0.10566000000E+00 0. -1.
        994   -1    0    0    0    0 -0.00000000000E+00 -0.00000000000E+00  0.11368683772E-12  0.17120000000E+03  0.17120000000E+03 0.  0.
         13    1    1    2    0    0 -0.11718881722E+02 -0.13617726333E+02  0.82001444860E+02  0.83946547174E+02  0.10566000000E+00 0. -1.
        994    1    1    2    0    0  0.47862068872E+01  0.15119861640E+02  0.27532520115E+01  0.17195504758E+03  0.17120000000E+03 0.  0.
        998    1    1    2    0    0  0.69326748351E+01 -0.15021353065E+01  0.14152452994E+04  0.14152984052E+04  0.10000000000E+02 0. -1.
</event>
<event>
 5    1  0.1145138E-008  0.3796286E+03  0.7957747E-01  0.3452777E+00
         13   -1    0    0    0    0  0.00000000000E+00  0.00000000000E+00  0.14999999963E+04  0.15000000000E+04  0.10566000000E+00 0. -1.
        994   -1    0    0    0    0 -0.00000000000E+00 -0.00000000000E+00  0.11368683772E-12  0.17120000000E+03  0.17120000000E+03 0.  0.
         13    1    1    2    0    0 -0.10949465743E+03 -0.27809903735E+02  0.46372947634E+03  0.47729184902E+03  0.10566000000E+00 0. -1.
        994    1    1    2    0    0  0.17259030951E+03  0.38725213834E+02  0.11734827914E+03  0.27270334751E+03  0.17120000000E+03 0.  0.
        998    1    1    2    0    0 -0.63095652087E+02 -0.10915310100E+02  0.91892224080E+03  0.92120480347E+03  0.10000000000E+02 0. -1.
</event>
<event>
 5    1  0.1145138E-008  0.3705538E+03  0.7957747E-01  0.3493350E+00
         13   -1    0    0    0    0  0.00000000000E+00  0.00000000000E+00  0.14999999963E+04  0.15000000000E+04  0.10566000000E+00 0. -1.
        994   -1    0    0    0    0 -0.00000000000E+00 -0.00000000000E+00  0.11368683772E-12  0.17120000000E+03  0.17120000000E+03 0.  0.
         13    1    1    2    0    0 -0.16757959652E+03  0.30424579306E+02  0.71807438827E+03  0.73799689325E+03  0.10566000000E+00 0. -1.
        994    1    1    2    0    0  0.15685846935E+03 -0.11754220786E+02  0.10371315442E+03  0.25457533170E+03  0.17120000000E+03 0.  0.
        998    1    1    2    0    0  0.10721127165E+02 -0.18670358521E+02  0.67821245360E+03  0.67862777505E+03  0.10000000000E+02 0. -1.
</event>
<event>
 5    1  0.1145138E-008  0.3850323E+03  0.7957747E-01  0.3429535E+00
         13   -1    0    0    0    0  0.00000000000E+00  0.00000000000E+00  0.14999999963E+04  0.15000000000E+04  0.10566000000E+00 0.  1.
        994   -1    0    0    0    0 -0.00000000000E+00 -0.00000000000E+00  0.11368683772E-12  0.17120000000E+03  0.17120000000E+03 0.  0.
         13    1    1    2    0    0 -0.50423532688E+01  0.11520850402E+02  0.46759751275E+02  0.48421491343E+02  0.10566000000E+00 0.  1.
        994    1    1    2    0    0  0.15748347671E+02 -0.11634949040E+02  0.28757759302E+01  0.17234004927E+03  0.17120000000E+03 0.  0.
        998    1    1    2    0    0 -0.10705994402E+02  0.11409863760E+00  0.14503644691E+04  0.14504384594E+04  0.10000000000E+02 0.  1.
</event>
<event>
 5    1  0.1145138E-008  0.3848234E+03  0.7957747E-01  0.3430422E+00
         13   -1    0    0    0    0  0.00000000000E+00  0.00000000000E+00  0.14999999963E+04  0.15000000000E+04  0.10566000000E+00 0.  1.
        994   -1    0    0    0    0 -0.00000000000E+00 -0.00000000000E+00  0.11368683772E-12  0.17120000000E+03  0.17120000000E+03 0.  0.
         13    1    1    2    0    0  0.14123758394E+02  0.70729420357E+01  0.70492619219E+02  0.72240761268E+02  0.10566000000E+00 0.  1.
        994    1    1    2    0    0 -0.13791409603E+02 -0.56035229258E+01  0.24473814077E+01  0.17186341124E+03  0.17120000000E+03 0.  0.
        998    1    1    2    0    0 -0.33234879141E+00 -0.14694191098E+01  0.14270599957E+04  0.14270958275E+04  0.10000000000E+02 0.  0.
</event>
<event>
 5    1  0.1145138E-008  0.3819530E+03  0.7957747E-01  0.3442698E+00
         13   -1    0    0    0    0  0.00000000000E+00  0.00000000000E+00  0.14999999963E+04  0.15000000000E+04  0.10566000000E+00 0. -1.
        994   -1    0    0    0    0 -0.00000000000E+00 -0.00000000000E+00  0.11368683772E-12  0.17120000000E+03  0.17120000000E+03 0.  0.
         13    1    1    2    0    0  0.16170222889E+02  0.94783182816E+01  0.56711462304E+02  0.59728684452E+02  0.10566000000E+00 0. -1.
        994    1    1    2    0    0  0.50490509569E+00 -0.89069621511E+01  0.34149035444E+01  0.17146629543E+03  0.17120000000E+03 0.  0.
        998    1    1    2    0    0 -0.16675127985E+02 -0.57135613045E+00  0.14398736304E+04  0.14400050201E+04  0.10000000000E+02 0. -1.
</event>
<event>
 5    1  0.1145138E-008  0.3382826E+03  0.7957747E-01  0.3655695E+00
         13   -1    0    0    0    0  0.00000000000E+00  0.00000000000E+00  0.14999999963E+04  0.15000000000E+04  0.10566000000E+00 0. -1.
        994   -1    0    0    0    0 -0.00000000000E+00 -0.00000000000E+00  0.11368683772E-12  0.17120000000E+03  0.17120000000E+03 0.  0.
         13    1    1    2    0    0  0.14284357092E+03  0.13757532907E+03  0.97061633959E+03  0.99067015033E+03  0.10566000000E+00 0. -1.
        994    1    1    2    0    0 -0.11547644899E+03 -0.12078337145E+03  0.11616644654E+03  0.26594645399E+03  0.17120000000E+03 0.  0.
        998    1    1    2    0    0 -0.27367121928E+02 -0.16791957618E+02  0.41321721015E+03  0.41458339567E+03  0.10000000000E+02 0. -1.
</event>
<event>
 5    1  0.1145138E-008  0.3855294E+03  0.7957747E-01  0.3427430E+00
         13   -1    0    0    0    0  0.00000000000E+00  0.00000000000E+00  0.14999999963E+04  0.15000000000E+04  0.10566000000E+00 0.  1.
        994   -1    0    0    0    0 -0.00000000000E+00 -0.00000000000E+00  0.11368683772E-12  0.17120000000E+03  0.17120000000E+03 0.  0.
         13    1    1    2    0    0 -0.68335850804E+01  0.16095823142E+02  0.10426109827E+03  0.10571736463E+03  0.10566000000E+00 0.  1.
        994    1    1    2    0    0  0.89904424081E+01 -0.17703653815E+02  0.26628994515E+01  0.17236814800E+03  0.17120000000E+03 0.  0.
        998    1    1    2    0    0 -0.21568573276E+01  0.16078306731E+01  0.13930759986E+04  0.13931144874E+04  0.10000000000E+02 0.  1.
</event>
<event>
 5    1  0.1145138E-008  0.3896377E+03  0.7957747E-01  0.3410238E+00
         13   -1    0    0    0    0  0.00000000000E+00  0.00000000000E+00  0.14999999963E+04  0.15000000000E+04  0.10566000000E+00 0.  1.
        994   -1    0    0    0    0 -0.00000000000E+00 -0.00000000000E+00  0.11368683772E-12  0.17120000000E+03  0.17120000000E+03 0.  0.
         13    1    1    2    0    0 -0.16475632160E+02 -0.95650162184E+02  0.38953432476E+03  0.40144414470E+03  0.10566000000E+00 0.  1.
        994    1    1    2    0    0 -0.12002727806E+02 -0.42403242448E+02  0.29057113122E+02  0.17915316427E+03  0.17120000000E+03 0.  0.
        998    1    1    2    0    0  0.28478359967E+02  0.13805340463E+03  0.10814085584E+04  0.10906026910E+04  0.10000000000E+02 0.  1.
</event>
<event>
 5    1  0.1145138E-008  0.4106534E+03  0.7957747E-01  0.3327663E+00
         13   -1    0    0    0    0  0.00000000000E+00  0.00000000000E+00  0.14999999963E+04  0.15000000000E+04  0.10566000000E+00 0.  1.
        994   -1    0    0    0    0 -0.00000000000E+00 -0.00000000000E+00  0.11368683772E-12  0.17120000000E+03  0.17120000000E+03 0.  0.
         13    1    1    2    0    0  0.10368717914E+03  0.73192271925E+02  0.21546942109E+03  0.25007043483E+03  0.10566000000E+00 0.  1.
        994    1    1    2    0    0 -0.73832778210E+02 -0.64159678624E+02  0.74689559672E+02  0.21084523666E+03  0.17120000000E+03 0.  0.
        998    1    1    2    0    0 -0.29854400934E+02 -0.90325933008E+01  0.12098410155E+04  0.12102843285E+04  0.10000000000E+02 0.  1.
</event>
<event>
 5    1  0.1145138E-008  0.3830381E+03  0.7957747E-01  0.3438036E+00
         13   -1    0    0    0    0  0.00000000000E+00  0.00000000000E+00  0.14999999963E+04  0.15000000000E+04  0.10566000000E+00 0. -1.
        994   -1    0    0    0    0 -0.00000000000E+00 -0.00000000000E+00  0.11368683772E-12  0.17120000000E+03  0.17120000000E+03 0.  0.
         13    1    1    2    0    0  0.88726050238E+00 -0.15440656379E+02  0.43751237438E+02  0.46404558419E+02  0.10566000000E+00 0. -1.
        994    1    1    2    0    0 -0.42149478847E+01  0.17081230419E+02  0.36324442121E+01  0.17213996883E+03  0.17120000000E+03 0.  0.
        998    1    1    2    0    0  0.33276873823E+01 -0.16405740396E+01  0.14526163146E+04  0.14526554728E+04  0.10000000000E+02 0. -1.
</event>
<event>
 5    1  0.1145138E-008  0.3843925E+03  0.7957747E-01  0.3432253E+00
         13   -1    0    0    0    0  0.00000000000E+00  0.00000000000E+00  0.14999999963E+04  0.15000000000E+04  0.10566000000E+00 0.  1.
        994   -1    0    0    0    0 -0.00000000000E+00 -0.00000000000E+00  0.11368683772E-12  0.17120000000E+03  0.17120000000E+03 0.  0.
         13    1    1    2    0    0  0.17518917405E+02 -0.65756056201E+01  0.85074281982E+02  0.87107954144E+02  0.10566000000E+00 0.  1.
        994    1    1    2    0    0 -0.18061775941E+02  0.11898293309E+02  0.34750410804E+01  0.17259580830E+03  0.17120000000E+03 0.  0.
        998    1    1    2    0    0  0.54285853604E+00 -0.53226876885E+01  0.14114506732E+04  0.14114962376E+04  0.10000000000E+02 0.  1.
</event>
<event>
 5    1  0.1145138E-008  0.3835086E+03  0.7957747E-01  0.3436022E+00
         13   -1    0    0    0    0  0.00000000000E+00  0.00000000000E+00  0.14999999963E+04  0.15000000000E+04  0.10566000000E+00 0. -1.
        994   -1    0    0    0    0 -0.00000000000E+00 -0.00000000000E+00  0.11368683772E-12  0.17120000000E+03  0.17120000000E+03 0.  0.
         13    1    1    2    0    0  0.13710260615E+02 -0.11938501805E+00  0.37223694773E+02  0.39668628859E+02  0.10566000000E+00 0. -1.
        994    1    1    2    0    0 -0.20138836797E+02 -0.25306304606E+00  0.37140294651E+01  0.17242062175E+03  0.17120000000E+03 0.  0.
        998    1    1    2    0    0  0.64285761814E+01  0.37244806411E+00  0.14590622720E+04  0.14591107494E+04  0.10000000000E+02 0. -1.
</event>
<event>
 5    1  0.1145138E-008  0.3813319E+03  0.7957747E-01  0.3445380E+00
         13   -1    0    0    0    0  0.00000000000E+00  0.00000000000E+00  0.14999999963E+04  0.15000000000E+04  0.10566000000E+00 0.  1.
        994   -1    0    0    0    0 -0.00000000000E+00 -0.00000000000E+00  0.11368683772E-12  0.17120000000E+03  0.17120000000E+03 0.  0.
         13    1    1    2    0    0  0.34758582811E+01  0.13459580851E+02  0.26007099094E+02  0.29489358670E+02  0.10566000000E+00 0.  1.
        994    1    1    2    0    0  0.34729588512E+01 -0.17753140733E+02  0.45522185899E+01  0.17221323452E+03  0.17120000000E+03 0.  0.
        998    1    1    2    0    0 -0.69488171322E+01  0.42935598816E+01  0.14694406786E+04  0.14694974068E+04  0.10000000000E+02 0.  1.
</event>
<event>
 5    1  0.1145138E-008  0.3778335E+03  0.7957747E-01  0.3460647E+00
         13   -1    0    0    0    0  0.00000000000E+00  0.00000000000E+00  0.14999999963E+04  0.15000000000E+04  0.10566000000E+00 0. -1.
        994   -1    0    0    0    0 -0.00000000000E+00 -0.00000000000E+00  0.11368683772E-12  0.17120000000E+03  0.17120000000E+03 0.  0.
         13    1    1    2    0    0 -0.25091197067E+02  0.25716576354E+02  0.12526518296E+03  0.13031610682E+03  0.10566000000E+00 0. -1.
        994    1    1    2    0    0  0.26564647137E+01 -0.19548809547E+02  0.65423943661E+01  0.17245711259E+03  0.17120000000E+03 0.  0.
        998    1    1    2    0    0  0.22434732353E+02 -0.61677668068E+01  0.13681924189E+04  0.13684267806E+04  0.10000000000E+02 0. -1.
</event>
<event>
 5    1  0.1145138E-008  0.3731295E+03  0.7957747E-01  0.3481631E+00
         13   -1    0    0    0    0  0.00000000000E+00  0.00000000000E+00  0.14999999963E+04  0.15000000000E+04  0.10566000000E+00 0.  1.
        994   -1    0    0    0    0 -0.00000000000E+00 -0.00000000000E+00  0.11368683772E-12  0.17120000000E+03  0.17120000000E+03 0.  0.
         13    1    1    2    0    0  0.38848681425E+02  0.26051139613E+00  0.99201564750E+02  0.10653754985E+03  0.10566000000E+00 0.  1.
        994    1    1    2    0    0 -0.16072317125E+02  0.13877508434E+02  0.91863713727E+01  0.17275628509E+03  0.17120000000E+03 0.  0.
        998    1    1    2    0    0 -0.22776364300E+02 -0.14138019830E+02  0.13916120602E+04  0.13919061651E+04  0.10000000000E+02 0.  1.
</event>
<event>
 5    1  0.1145138E-008  0.3845229E+03  0.7957747E-01  0.3431698E+00
         13   -1    0    0    0    0  0.00000000000E+00  0.00000000000E+00  0.14999999963E+04  0.15000000000E+04  0.10566000000E+00 0. -1.
        994   -1    0    0    0    0 -0.00000000000E+00 -0.00000000000E+00  0.11368683772E-12  0.17120000000E+03  0.17120000000E+03 0.  0.
         13    1    1    2    0    0 -0.84880712007E+01 -0.15913831534E+02  0.88054629048E+02  0.89882847349E+02  0.10566000000E+00 0. -1.
        994    1    1    2    0    0 -0.20655454538E+01  0.12145503445E+02  0.23672619954E+01  0.17165903315E+03  0.17120000000E+03 0.  0.
        998    1    1    2    0    0  0.10553616654E+02  0.37683280891E+01  0.14095781052E+04  0.14096581195E+04  0.10000000000E+02 0. -1.
</event>
<event>
 5    1  0.1145138E-008  0.3776704E+03  0.7957747E-01  0.3461365E+00
         13   -1    0    0    0    0  0.00000000000E+00  0.00000000000E+00  0.14999999963E+04  0.15000000000E+04  0.10566000000E+00 0. -1.
        994   -1    0    0    0    0 -0.00000000000E+00 -0.00000000000E+00  0.11368683772E-12  0.17120000000E+03  0.17120000000E+03 0.  0.
         13    1    1    2    0    0 -0.64537051307E+01  0.10862048542E+02  0.12731336350E+02  0.17936903237E+02  0.10566000000E+00 0. -1.
        994    1    1    2    0    0 -0.44887959296E+01 -0.10955969433E+02  0.57861681336E+01  0.17170644221E+03  0.17120000000E+03 0.  0.
        998    1    1    2    0    0  0.10942501060E+02  0.93920890961E-01  0.14814824918E+04  0.14815566546E+04  0.10000000000E+02 0. -1.
</event>
<event>
 5    1  0.1145138E-008  0.3281030E+03  0.7957747E-01  0.3713795E+00
         13   -1    0    0    0    0  0.00000000000E+00  0.00000000000E+00  0.14999999963E+04  0.15000000000E+04  0.10566000000E+00 0. -1.
        994   -1    0    0    0    0 -0.00000000000E+00 -0.00000000000E+00  0.11368683772E-12  0.17120000000E+03  0.17120000000E+03 0.  0.
         13    1    1    2    0    0 -0.84178882333E+02 -0.16976112206E+03  0.93015958069E+03  0.94926380923E+03  0.10566000000E+00 0. -1.
        994    1    1    2    0    0  0.61631809608E+02  0.12600893552E+03  0.89116677022E+02  0.23859579608E+03  0.17120000000E+03 0.  0.
        998    1    1    2    0    0  0.22547072725E+02  0.43752186546E+02  0.48072373856E+03  0.48334039468E+03  0.10000000000E+02 0. -1.
</event>
<event>
 5    1  0.1145138E-008  0.3853466E+03  0.7957747E-01  0.3428203E+00
         13   -1    0    0    0    0  0.00000000000E+00  0.00000000000E+00  0.14999999963E+04  0.15000000000E+04  0.10566000000E+00 0.  1.
        994   -1    0    0    0    0 -0.00000000000E+00 -0.00000000000E+00  0.11368683772E-12  0.17120000000E+03  0.17120000000E+03 0.  0.
         13    1    1    2    0    0  0.51422332448E+01  0.14708850397E+02  0.81477180777E+02  0.82953812415E+02  0.10566000000E+00 0.  1.
        994    1    1    2    0    0 -0.89002850368E+01 -0.11242039013E+02  0.21338211292E+01  0.17181266457E+03  0.17120000000E+03 0.  0.
        998    1    1    2    0    0  0.37580517920E+01 -0.34668113842E+01  0.14163889944E+04  0.14164335230E+04  0.10000000000E+02 0.  1.
</event>
<event>
 5    1  0.1145138E-008  0.3817300E+03  0.7957747E-01  0.3443660E+00
         13   -1    0    0    0    0  0.00000000000E+00  0.00000000000E+00  0.14999999963E+04  0.15000000000E+04  0.10566000000E+00 0. -1.
        994   -1    0    0    0    0 -0.00000000000E+00 -0.00000000000E+00  0.11368683772E-12  0.17120000000E+03  0.17120000000E+03 0.  0.
         13    1    1    2    0    0  0.13581818182E+02 -0.15463669477E+02  0.64956131915E+02  0.68138836916E+02  0.10566000000E+00 0. -1.
        994    1    1    2    0    0 -0.50936289326E+01  0.80294970885E+01  0.35629806026E+01  0.17150088253E+03  0.17120000000E+03 0.  0.
        998    1    1    2    0    0 -0.84881892495E+01  0.74341723883E+01  0.14314808838E+04  0.14315602805E+04  0.10000000000E+02 0. -1.
</event>
<event>
 5    1  0.1145138E-008  0.3827882E+03  0.7957747E-01  0.3439107E+00
         13   -1    0    0    0    0  0.00000000000E+00  0.00000000000E+00  0.14999999963E+04  0.15000000000E+04  0.10566000000E+00 0.  1.
        994   -1    0    0    0    0 -0.00000000000E+00 -0.00000000000E+00  0.11368683772E-12  0.17120000000E+03  0.17120000000E+03 0.  0.
         13    1    1    2    0    0  0.20814651391E+02 -0.49343668472E+01  0.76543498708E+02  0.79476512551E+02  0.10566000000E+00 0.  1.
        994    1    1    2    0    0 -0.26943770986E+02  0.98051089005E+01  0.54601442196E+01  0.17367026265E+03  0.17120000000E+03 0.  0.
        998    1    1    2    0    0  0.61291195951E+01 -0.48707420532E+01  0.14179963534E+04  0.14180532248E+04  0.10000000000E+02 0.  1.
</event>
<event>
 5    1  0.1145138E-008  0.3853881E+03  0.7957747E-01  0.3428028E+00
         13   -1    0    0    0    0  0.00000000000E+00  0.00000000000E+00  0.14999999963E+04  0.15000000000E+04  0.10566000000E+00 0.  1.
        994   -1    0    0    0    0 -0.00000000000E+00 -0.00000000000E+00  0.11368683772E-12  0.17120000000E+03  0.17120000000E+03 0.  0.
         13    1    1    2    0    0 -0.15669349983E+02  0.60142615778E+01  0.92783727392E+02  0.94289612917E+02  0.10566000000E+00 0.  1.
        994    1    1    2    0    0  0.15633403895E+02 -0.99019549399E+01  0.25631807250E+01  0.17221632305E+03  0.17120000000E+03 0.  0.
        998    1    1    2    0    0  0.35946088260E-01  0.38876933621E+01  0.14046530882E+04  0.14046940640E+04  0.10000000000E+02 0.  1.
</event>
<event>
 5    1  0.1145138E-008  0.3793292E+03  0.7957747E-01  0.3454084E+00
         13   -1    0    0    0    0  0.00000000000E+00  0.00000000000E+00  0.14999999963E+04  0.15000000000E+04  0.10566000000E+00 0. -1.
        994   -1    0    0    0    0 -0.00000000000E+00 -0.00000000000E+00  0.11368683772E-12  0.17120000000E+03  0.17120000000E+03 0.  0.
         13    1    1    2    0    0  0.24875192565E+02 -0.37397457235E+02  0.22223441127E+03  0.22672778773E+03  0.10566000000E+00 0. -1.
        994    1    1    2    0    0 -0.12257232893E+02  0.24095227702E+02  0.69244944285E+01  0.17345952951E+03  0.17120000000E+03 0.  0.
        998    1    1    2    0    0 -0.12617959672E+02  0.13302229533E+02  0.12708410906E+04  0.12710126828E+04  0.10000000000E+02 0. -1.
</event>
<event>
 5    1  0.1145138E-008  0.3828691E+03  0.7957747E-01  0.3438760E+00
         13   -1    0    0    0    0  0.00000000000E+00  0.00000000000E+00  0.14999999963E+04  0.15000000000E+04  0.10566000000E+00 0.  1.
        994   -1    0    0    0    0 -0.00000000000E+00 -0.00000000000E+00  0.11368683772E-12  0.17120000000E+03  0.17120000000E+03 0.  0.
         13    1    1    2    0    0 -0.15284457570E+01  0.26476342990E+02  0.11981329387E+03  0.12271336291E+03  0.10566000000E+00 0.  1.
        994    1    1    2    0    0 -0.23934779279E+02 -0.30295791208E+02  0.76440807943E+01  0.17566610543E+03  0.17120000000E+03 0.  0.
        998    1    1    2    0    0  0.25463225036E+02  0.38194482174E+01  0.13725426216E+04  0.13728205317E+04  0.10000000000E+02 0.  1.
</event>
<event>
 5    1  0.1145138E-008  0.3861559E+03  0.7957747E-01  0.3424784E+00
         13   -1    0    0    0    0  0.00000000000E+00  0.00000000000E+00  0.14999999963E+04  0.15000000000E+04  0.10566000000E+00 0. -1.
        994   -1    0    0    0    0 -0.00000000000E+00 -0.00000000000E+00  0.11368683772E-12  0.17120000000E+03  0.17120000000E+03 0.  0.
         13    1    1    2    0    0  0.10199772253E+02 -0.43963656604E+00  0.48334133510E+02  0.49400690892E+02  0.10566000000E+00 0. -1.
        994    1    1    2    0    0 -0.12370311682E+02 -0.73139492266E+01  0.17342367102E+01  0.17181084378E+03  0.17120000000E+03 0.  0.
        998    1    1    2    0    0  0.21705394290E+01  0.77535857927E+01  0.14499316261E+04  0.14499884653E+04  0.10000000000E+02 0. -1.
</event>
<event>
 5    1  0.1145138E-008  0.3776745E+03  0.7957747E-01  0.3461347E+00
         13   -1    0    0    0    0  0.00000000000E+00  0.00000000000E+00  0.14999999963E+04  0.15000000000E+04  0.10566000000E+00 0. -1.
        994   -1    0    0    0    0 -0.00000000000E+00 -0.00000000000E+00  0.11368683772E-12  0.17120000000E+03  0.17120000000E+03 0.  0.
         13    1    1    2    0    0 -0.17159995466E+02  0.59468436458E+02  0.29684051591E+03  0.30322477377E+03  0.10566000000E+00 0. -1.
        994    1    1    2    0    0  0.98308822066E+01 -0.58410297064E+02  0.17223418231E+02  0.18197388599E+03  0.17120000000E+03 0.  0.
        998    1    1    2    0    0  0.73291132598E+01 -0.10581393940E+01  0.11859360621E+04  0.11860013402E+04  0.10000000000E+02 0. -1.
</event>
<event>
 5    1  0.1145138E-008  0.3854071E+03  0.7957747E-01  0.3427948E+00
         13   -1    0    0    0    0  0.00000000000E+00  0.00000000000E+00  0.14999999963E+04  0.15000000000E+04  0.10566000000E+00 0. -1.
        994   -1    0    0    0    0 -0.00000000000E+00 -0.00000000000E+00  0.11368683772E-12  0.17120000000E+03  0.17120000000E+03 0.  0.
         13    1    1    2    0    0 -0.29741965531E+01 -0.11410188163E+02  0.47992575913E+02  0.49420003499E+02  0.10566000000E+00 0. -1.
        994    1    1    2    0    0  0.30819322830E+01  0.10457828509E+02  0.18186581295E+01  0.17155643970E+03  0.17120000000E+03 0.  0.
        998    1    1    2    0    0 -0.10773572996E+00  0.95235965396E+00  0.14501887622E+04  0.14502235568E+04  0.10000000000E+02 0.  0.
</event>
<event>
 5    1  0.1145138E-008  0.3788057E+03  0.7957747E-01  0.3456375E+00
         13   -1    0    0    0    0  0.00000000000E+00  0.00000000000E+00  0.14999999963E+04  0.15000000000E+04  0.10566000000E+00 0. -1.
        994   -1    0    0    0    0 -0.00000000000E+00 -0.00000000000E+00  0.11368683772E-12  0.17120000000E+03  0.17120000000E+03 0.  0.
         13    1    1    2    0    0 -0.23329837619E+01 -0.11192993661E+02  0.11981022374E+02  0.16561460729E+02  0.10566000000E+00 0. -1.
        994    1    1    2    0    0  0.58175113118E+01 -0.30400707067E+01  0.48818576214E+01  0.17139532666E+03  0.17120000000E+03 0.  0.
        998    1    1    2    0    0 -0.34845275499E+01  0.14233064367E+02  0.14831371163E+04  0.14832432126E+04  0.10000000000E+02 0. -1.
</event>
<event>
 5    1  0.1145138E-008  0.3812984E+03  0.7957747E-01  0.3445524E+00
         13   -1    0    0    0    0  0.00000000000E+00  0.00000000000E+00  0.14999999963E+04  0.15000000000E+04  0.10566000000E+00 0. -1.
        994   -1    0    0    0    0 -0.00000000000E+00 -0.00000000000E+00  0.11368683772E-12  0.17120000000E+03  0.17120000000E+03 0.  0.
         13    1    1    2    0    0 -0.72826782477E+02  0.24073441178E+03  0.10341706549E+04  0.10643146865E+04  0.10566000000E+00 0. -1.
        994    1    1    2    0    0  0.84328821037E+02 -0.24323303788E+03  0.27005622512E+03  0.41050391655E+03  0.17120000000E+03 0.  0.
        998    1    1    2    0    0 -0.11502038559E+02  0.24986261041E+01  0.19577311629E+03  0.19638139699E+03  0.10000000000E+02 0. -1.
</event>
<event>
 5    1  0.1145138E-008  0.3834478E+03  0.7957747E-01  0.3436282E+00
         13   -1    0    0    0    0  0.00000000000E+00  0.00000000000E+00  0.14999999963E+04  0.15000000000E+04  0.10566000000E+00 0.  1.
        994   -1    0    0    0    0 -0.00000000000E+00 -0.00000000000E+00  0.11368683772E-12  0.17120000000E+03  0.17120000000E+03 0.  0.
         13    1    1    2    0    0  0.19574427562E+02  0.50701281801E+01  0.77454656871E+02  0.80050605551E+02  0.10566000000E+00 0.  1.
        994    1    1    2    0    0 -0.25732629829E+02 -0.12687833260E+02  0.51282114175E+01  0.17366314492E+03  0.17120000000E+03 0.  0.
        998    1    1    2    0    0  0.61582022673E+01  0.76177050800E+01  0.14174171280E+04  0.14174862495E+04  0.10000000000E+02 0.  1.
</event>
<event>
 5    1  0.1145138E-008  0.3847979E+03  0.7957747E-01  0.3430530E+00
         13   -1    0    0    0    0  0.00000000000E+00  0.00000000000E+00  0.14999999963E+04  0.15000000000E+04  0.10566000000E+00 0.  1.
        994   -1    0    0    0    0 -0.00000000000E+00 -0.00000000000E+00  0.11368683772E-12  0.17120000000E+03  0.17120000000E+03 0.  0.
         13    1    1    2    0    0  0.41715934874E+01 -0.99857901121E+01  0.32725517250E+02  0.34468664606E+02  0.10566000000E+00 0.  1.
        994    1    1    2    0    0 -0.47061710661E+01  0.12139245956E+02  0.22885537340E+01  0.17170960025E+03  0.17120000000E+03 0.  0.
        998    1    1    2    0    0  0.53457757873E+00 -0.21534558438E+01  0.14649859253E+04  0.14650217351E+04  0.10000000000E+02 0.  1.
</event>
<event>
 5    1  0.1145138E-008  0.3811324E+03  0.7957747E-01  0.3446242E+00
         13   -1    0    0    0    0  0.00000000000E+00  0.00000000000E+00  0.14999999963E+04  0.15000000000E+04  0.10566000000E+00 0.  1.
        994   -1    0    0    0    0 -0.00000000000E+00 -0.00000000000E+00  0.11368683772E-12  0.17120000000E+03  0.17120000000E+03 0.  0.
         13    1    1    2    0    0  0.10978887598E+02 -0.27855552769E+02  0.12876095603E+03  0.13219630386E+03  0.10566000000E+00 0.  1.
        994    1    1    2    0    0 -0.94493195224E+01  0.99616739177E+01  0.41907107738E+01  0.17180083423E+03  0.17120000000E+03 0.  0.
        998    1    1    2    0    0 -0.15295680760E+01  0.17893878851E+02  0.13670483295E+04  0.13672028619E+04  0.10000000000E+02 0.  1.
</event>
<event>
 5    1  0.1145138E-008  0.3711177E+03  0.7957747E-01  0.3490770E+00
         13   -1    0    0    0    0  0.00000000000E+00  0.00000000000E+00  0.14999999963E+04  0.15000000000E+04  0.10566000000E+00 0. -1.
        994   -1    0    0    0    0 -0.00000000000E+00 -0.00000000000E+00  0.11368683772E-12  0.17120000000E+03  0.17120000000E+03 0.  0.
         13    1    1    2    0    0  0.35758839933E+02  0.38210602986E+02  0.17864910715E+03  0.18615654558E+03  0.10566000000E+00 0. -1.
        994    1    1    2    0    0  0.14267381241E+01 -0.55794458921E+01  0.88002787673E+01  0.17152274107E+03  0.17120000000E+03 0.  0.
        998    1    1    2    0    0 -0.37185578057E+02 -0.32631157094E+02  0.13125506104E+04  0.13135207133E+04  0.10000000000E+02 0. -1.
</event>
<event>
 5    1  0.1145138E-008  0.3859195E+03  0.7957747E-01  0.3425782E+00
         13   -1    0    0    0    0  0.00000000000E+00  0.00000000000E+00  0.14999999963E+04  0.15000000000E+04  0.10566000000E+00 0. -1.
        994   -1    0    0    0    0 -0.00000000000E+00 -0.00000000000E+00  0.11368683772E-12  0.17120000000E+03  0.17120000000E+03 0.  0.
         13    1    1    2    0    0  0.10023811804E+02 -0.80696635675E+01  0.71693679324E+02  0.72839488550E+02  0.10566000000E+00 0. -1.
        994    1    1    2    0    0 -0.86980036249E+01  0.15278226557E+01  0.14300447939E+01  0.17143358637E+03  0.17120000000E+03 0.  0.
        998    1    1    2    0    0 -0.13258081792E+01  0.65418409118E+01  0.14268762722E+04  0.14269269251E+04  0.10000000000E+02 0. -1.
</event>
<event>
 5    1  0.1145138E-008  0.3749830E+03  0.7957747E-01  0.3473299E+00
         13   -1    0    0    0    0  0.00000000000E+00  0.00000000000E+00  0.14999999963E+04  0.15000000000E+04  0.10566000000E+00 0.  1.
        994   -1    0    0    0    0 -0.00000000000E+00 -0.00000000000E+00  0.11368683772E-12  0.17120000000E+03  0.17120000000E+03 0.  0.
         13    1    1    2    0    0  0.16983744707E+02  0.14948813566E+02  0.11977755896E+02  0.25600633032E+02  0.10566000000E+00 0.  1.
        994    1    1    2    0    0  0.12909116281E+02 -0.75239811647E+02  0.34636490636E+02  0.19062214201E+03  0.17120000000E+03 0.  0.
        998    1    1    2    0    0 -0.29892860988E+02  0.60290998081E+02  0.14533857497E+04  0.14549772250E+04  0.10000000000E+02 0.  1.
</event>
<event>
 5    1  0.1145138E-008  0.3848726E+03  0.7957747E-01  0.3430213E+00
         13   -1    0    0    0    0  0.00000000000E+00  0.00000000000E+00  0.14999999963E+04  0.15000000000E+04  0.10566000000E+00 0.  1.
        994   -1    0    0    0    0 -0.00000000000E+00 -0.00000000000E+00  0.11368683772E-12  0.17120000000E+03  0.17120000000E+03 0.  0.
         13    1    1    2    0    0 -0.88755359312E+01 -0.20496093737E+02  0.13434638723E+03  0.13619041054E+03  0.10566000000E+00 0.  1.
        994    1    1    2    0    0  0.13333195297E+02  0.20585145473E+02  0.36749273922E+01  0.17298689951E+03  0.17120000000E+03 0.  0.
        998    1    1    2    0    0 -0.44576593662E+01 -0.89051735288E-01  0.13619786817E+04  0.13620226900E+04  0.10000000000E+02 0.  1.
</event>
<event>
 5    1  0.1145138E-008  0.3789377E+03  0.7957747E-01  0.3455797E+00
         13   -1    0    0    0    0  0.00000000000E+00  0.00000000000E+00  0.14999999963E+04  0.15000000000E+04  0.10566000000E+00 0. -1.
        994   -1    0    0    0    0 -0.00000000000E+00 -0.00000000000E+00  0.11368683772E-12  0.17120000000E+03  0.17120000000E+03 0.  0.
         13    1    1    2    0    0  0.47808632512E+01 -0.13164983767E+02  0.19649295591E+02  0.24130466889E+02  0.10566000000E+00 0. -1.
        994    1    1    2    0    0 -0.81123531705E+01 -0.58152545369E+01  0.50046315296E+01  0.17156373100E+03  0.17120000000E+03 0.  0.
        998    1    1    2    0    0  0.33314899194E+01  0.18980238304E+02  0.14753460692E+04  0.14755058021E+04  0.10000000000E+02 0. -1.
</event>
<event>
 5    1  0.1145138E-008  0.3793471E+03  0.7957747E-01  0.3454006E+00
         13   -1    0    0    0    0  0.00000000000E+00  0.00000000000E+00  0.14999999963E+04  0.15000000000E+04  0.10566000000E+00 0.  1.
        994   -1    0    0    0    0 -0.00000000000E+00 -0.00000000000E+00  0.11368683772E-12  0.17120000000E+03  0.17120000000E+03 0.  0.
         13    1    1    2    0    0 -0.40235848535E+01  0.57641175742E+02  0.25778292048E+03  0.26417937019E+03  0.10566000000E+00 0.  1.
        994    1    1    2    0    0  0.82779797461E+01 -0.79829053024E+02  0.26353573774E+02  0.19090613795E+03  0.17120000000E+03 0.  0.
        998    1    1    2    0    0 -0.42543948926E+01  0.22187877282E+02  0.12158635020E+04  0.12161144919E+04  0.10000000000E+02 0.  1.
</event>
<event>
 5    1  0.1145138E-008  0.3848478E+03  0.7957747E-01  0.3430318E+00
         13   -1    0    0    0    0  0.00000000000E+00  0.00000000000E+00  0.14999999963E+04  0.15000000000E+04  0.10566000000E+00 0. -1.
        994   -1    0    0    0    0 -0.00000000000E+00 -0.00000000000E+00  0.11368683772E-12  0.17120000000E+03  0.17120000000E+03 0.  0.
         13    1    1    2    0    0 -0.13269045359E+02  0.10722425816E+02  0.80989171137E+02  0.82766508841E+02  0.10566000000E+00 0. -1.
        994    1    1    2    0    0  0.13597469737E+02 -0.12706111605E+02  0.28461110206E+01  0.17223204349E+03  0.17120000000E+03 0.  0.
        998    1    1    2    0    0 -0.32842437754E+00  0.19836857882E+01  0.14161647141E+04  0.14162014477E+04  0.10000000000E+02 0.  0.
</event>
<event>
 5    1  0.1145138E-008  0.3830319E+03  0.7957747E-01  0.3438062E+00
         13   -1    0    0    0    0  0.00000000000E+00  0.00000000000E+00  0.14999999963E+04  0.15000000000E+04  0.10566000000E+00 0.  1.
        994   -1    0    0    0    0 -0.00000000000E+00 -0.00000000000E+00  0.11368683772E-12  0.17120000000E+03  0.17120000000E+03 0.  0.
         13    1    1    2    0    0  0.90867095987E+01 -0.17668982183E+02  0.77970808516E+02  0.80462533936E+02  0.10566000000E+00 0.  1.
        994    1    1    2    0    0 -0.93490155017E+01  0.13518937932E+01  0.29058098561E+01  0.17148502978E+03  0.17120000000E+03 0.  0.
        998    1    1    2    0    0  0.26230590302E+00  0.16317088390E+02  0.14191233779E+04  0.14192524363E+04  0.10000000000E+02 0.  1.
</event>
<event>
 5    1  0.1145138E-008  0.3860545E+03  0.7957747E-01  0.3425212E+00
         13   -1    0    0    0    0  0.00000000000E+00  0.00000000000E+00  0.14999999963E+04  0.15000000000E+04  0.10566000000E+00 0. -1.
        994   -1    0    0    0    0 -0.00000000000E+00 -0.00000000000E+00  0.11368683772E-12  0.17120000000E+03  0.17120000000E+03 0.  0.
         13    1    1    2    0    0 -0.12742641755E+02  0.64909256090E+00  0.73091427956E+02  0.74196794033E+02  0.10566000000E+00 0. -1.
        994    1    1    2    0    0  0.10820949963E+02  0.27003304815E+01  0.15152503360E+01  0.17156957984E+03  0.17120000000E+03 0.  0.
        998    1    1    2    0    0  0.19216917915E+01 -0.33494230424E+01  0.14253933180E+04  0.14254336261E+04  0.10000000000E+02 0. -1.
</event>
<event>
 5    1  0.1145138E-008  0.3810061E+03  0.7957747E-01  0.3446789E+00
         13   -1    0    0    0    0  0.00000000000E+00  0.00000000000E+00  0.14999999963E+04  0.15000000000E+04  0.10566000000E+00 0. -1.
        994   -1    0    0    0    0 -0.00000000000E+00 -0.00000000000E+00  0.11368683772E-12  0.17120000000E+03  0.17120000000E+03 0.  0.
         13    1    1    2    0    0  0.12632190631E+02  0.21682482879E+02  0.89925968325E+02  0.93361626203E+02  0.10566000000E+00 0. -1.
        994    1    1    2    0    0 -0.86207878984E+01 -0.20131364118E+01  0.38872878831E+01  0.17147280166E+03  0.17120000000E+03 0.  0.
        998    1    1    2    0    0 -0.40114027329E+01 -0.19669346467E+02  0.14061867401E+04  0.14063655721E+04  0.10000000000E+02 0. -1.
</event>
<event>
 5    1  0.1145138E-008  0.3736485E+03  0.7957747E-01  0.3479289E+00
         13   -1    0    0    0    0  0.00000000000E+00  0.00000000000E+00  0.14999999963E+04  0.15000000000E+04  0.10566000000E+00 0.  1.
        994   -1    0    0    0    0 -0.00000000000E+00 -0.00000000000E+00  0.11368683772E-12  0.17120000000E+03  0.17120000000E+03 0.  0.
         13    1    1    2    0    0 -0.60196842994E+02  0.44989562667E+01  0.20710158097E+03  0.21571967115E+03  0.10566000000E+00 0.  1.
        994    1    1    2    0    0  0.65205137131E+02  0.10726812234E+02  0.22435735486E+02  0.18487719339E+03  0.17120000000E+03 0.  0.
        998    1    1    2    0    0 -0.50082941369E+01 -0.15225768501E+02  0.12704626798E+04  0.12706031355E+04  0.10000000000E+02 0.  1.
</event>
<event>
 5    1  0.1145138E-008  0.3850332E+03  0.7957747E-01  0.3429531E+00
         13   -1    0    0    0    0  0.00000000000E+00  0.00000000000E+00  0.14999999963E+04  0.15000000000E+04  0.10566000000E+00 0. -1.
        994   -1    0    0    0    0 -0.00000000000E+00 -0.00000000000E+00  0.11368683772E-12  0.17120000000E+03  0.17120000000E+03 0.  0.
         13    1    1    2    0    0  0.15077674809E+02  0.28355202874E+01  0.77768720602E+02  0.79267657472E+02  0.10566000000E+00 0. -1.
        994    1    1    2    0    0  0.32334384700E+00 -0.76386957707E+01  0.18058912588E+01  0.17138014899E+03  0.17120000000E+03 0.  0.
        998    1    1    2    0    0 -0.15401018656E+02  0.48031754833E+01  0.14204253844E+04  0.14205521935E+04  0.10000000000E+02 0. -1.
</event>
<event>
 5    1  0.1145138E-008  0.3860190E+03  0.7957747E-01  0.3425362E+00
         13   -1    0    0    0    0  0.00000000000E+00  0.00000000000E+00  0.14999999963E+04  0.15000000000E+04  0.10566000000E+00 0.  1.
        994   -1    0    0    0    0 -0.00000000000E+00 -0.00000000000E+00  0.11368683772E-12  0.17120000000E+03  0.17120000000E+03 0.  0.
         13    1    1    2    0    0 -0.10184375052E+01  0.12344011674E+02  0.70476170570E+02  0.71556366743E+02  0.10566000000E+00 0.  1.
        994    1    1    2    0    0 -0.40254861258E+01 -0.59163153537E+01  0.12929367007E+01  0.17135436677E+03  0.17120000000E+03 0.  0.
        998    1    1    2    0    0  0.50439236310E+01 -0.64276963208E+01  0.14282308890E+04  0.14282892665E+04  0.10000000000E+02 0.  1.
</event>
<event>
 5    1  0.1145138E-008  0.3803796E+03  0.7957747E-01  0.3449507E+00
         13   -1    0    0    0    0  0.00000000000E+00  0.00000000000E+00  0.14999999963E+04  0.15000000000E+04  0.10566000000E+00 0.  1.
        994   -1    0    0    0    0 -0.00000000000E+00 -0.00000000000E+00  0.11368683772E-12  0.17120000000E+03  0.17120000000E+03 0.  0.
         13    1    1    2    0    0 -0.86484429426E+02 -0.58941243815E+02  0.59198071313E+03  0.60116121185E+03  0.10566000000E+00 0.  1.
        994    1    1    2    0    0  0.10180951565E+03  0.73915930990E+02  0.58736922559E+02  0.22042733134E+03  0.17120000000E+03 0.  0.
        998    1    1    2    0    0 -0.15325086224E+02 -0.14974687175E+02  0.84928236059E+03  0.84961145681E+03  0.10000000000E+02 0.  1.
</event>
<event>
 5    1  0.1145138E-008  0.3690971E+03  0.7957747E-01  0.3500051E+00
         13   -1    0    0    0    0  0.00000000000E+00  0.00000000000E+00  0.14999999963E+04  0.15000000000E+04  0.10566000000E+00 0.  1.
        994   -1    0    0    0    0 -0.00000000000E+00 -0.00000000000E+00  0.11368683772E-12  0.17120000000E+03  0.17120000000E+03 0.  0.
         13    1    1    2    0    0  0.10539059348E+03  0.82710601458E+01  0.36969670328E+03  0.38451430560E+03  0.10566000000E+00 0.  1.
        994    1    1    2    0    0 -0.11366607960E+03 -0.31053932452E+01  0.56983372423E+02  0.21327485987E+03  0.17120000000E+03 0.  0.
        998    1    1    2    0    0  0.82754861243E+01 -0.51656669005E+01  0.10733199206E+04  0.10734108345E+04  0.10000000000E+02 0.  0.
</event>
<event>
 5    1  0.1145138E-008  0.3794435E+03  0.7957747E-01  0.3453585E+00
         13   -1    0    0    0    0  0.00000000000E+00  0.00000000000E+00  0.14999999963E+04  0.15000000000E+04  0.10566000000E+00 0.  1.
        994   -1    0    0    0    0 -0.00000000000E+00 -0.00000000000E+00  0.11368683772E-12  0.17120000000E+03  0.17120000000E+03 0.  0.
         13    1    1    2    0    0 -0.12421768915E+02 -0.20874858084E+02  0.64535434306E+02  0.68955735715E+02  0.10566000000E+00 0.  1.
        994    1    1    2    0    0  0.11519007476E+02  0.14125266563E+02  0.55277004567E+01  0.17225622242E+03  0.17120000000E+03 0.  0.
        998    1    1    2    0    0  0.90276143877E+00  0.67495915211E+01  0.14299368615E+04  0.14299880419E+04  0.10000000000E+02 0.  1.
</event>
<event>
 5    1  0.1145138E-008  0.3817721E+03  0.7957747E-01  0.3443479E+00
         13   -1    0    0    0    0  0.00000000000E+00  0.00000000000E+00  0.14999999963E+04  0.15000000000E+04  0.10566000000E+00 0. -1.
        994   -1    0    0    0    0 -0.00000000000E+00 -0.00000000000E+00  0.11368683772E-12  0.17120000000E+03  0.17120000000E+03 0.  0.
         13    1    1    2    0    0  0.12690224342E+02 -0.14376468373E+02  0.53870915320E+02  0.57182264018E+02  0.10566000000E+00 0. -1.
        994    1    1    2    0    0 -0.11022823037E+02  0.16887631370E+02  0.45940716597E+01  0.17244489037E+03  0.17120000000E+03 0.  0.
        998    1    1    2    0    0 -0.16674013052E+01 -0.25111629970E+01  0.14415350093E+04  0.14415728456E+04  0.10000000000E+02 0. -1.
</event>
<event>
 5    1  0.1145138E-008  0.3837178E+03  0.7957747E-01  0.3435128E+00
         13   -1    0    0    0    0  0.00000000000E+00  0.00000000000E+00  0.14999999963E+04  0.15000000000E+04  0.10566000000E+00 0.  1.
        994   -1    0    0    0    0 -0.00000000000E+00 -0.00000000000E+00  0.11368683772E-12  0.17120000000E+03  0.17120000000E+03 0.  0.
         13    1    1    2    0    0 -0.23148575201E+02 -0.79604486181E+01  0.13465378956E+03  0.13686080331E+03  0.10566000000E+00 0.  1.
        994    1    1    2    0    0  0.13694359183E+02 -0.28291381495E+01  0.29140828069E+01  0.17179485259E+03  0.17120000000E+03 0.  0.
        998    1    1    2    0    0  0.94542160180E+01  0.10789586768E+02  0.13624321239E+04  0.13625443441E+04  0.10000000000E+02 0.  1.
</event>
<event>
 5    1  0.1145138E-008  0.3797670E+03  0.7957747E-01  0.3452174E+00
         13   -1    0    0    0    0  0.00000000000E+00  0.00000000000E+00  0.14999999963E+04  0.15000000000E+04  0.10566000000E+00 0.  1.
        994   -1    0    0    0    0 -0.00000000000E+00 -0.00000000000E+00  0.11368683772E-12  0.17120000000E+03  0.17120000000E+03 0.  0.
         13    1    1    2    0    0  0.88502160183E+01  0.61916667972E+02  0.35581862529E+03  0.36127400316E+03  0.10566000000E+00 0.  1.
        994    1    1    2    0    0 -0.38835163979E+01 -0.61509500646E+02  0.17065117177E+02  0.18275436682E+03  0.17120000000E+03 0.  0.
        998    1    1    2    0    0 -0.49666996204E+01 -0.40716732600E+00  0.11271162538E+04  0.11271716300E+04  0.10000000000E+02 0.  1.
</event>
<event>
 5    1  0.1145138E-008  0.3826596E+03  0.7957747E-01  0.3439659E+00
         13   -1    0    0    0    0  0.00000000000E+00  0.00000000000E+00  0.14999999963E+04  0.15000000000E+04  0.10566000000E+00 0.  1.
        994   -1    0    0    0    0 -0.00000000000E+00 -0.00000000000E+00  0.11368683772E-12  0.17120000000E+03  0.17120000000E+03 0.  0.
         13    1    1    2    0    0  0.12831268075E+02 -0.12783484098E+02  0.55660060888E+02  0.58533003068E+02  0.10566000000E+00 0.  1.
        994    1    1    2    0    0 -0.14875883270E+02  0.13317366257E+02  0.41187413822E+01  0.17240953621E+03  0.17120000000E+03 0.  0.
        998    1    1    2    0    0  0.20446151950E+01 -0.53388215903E+00  0.14402211940E+04  0.14402574607E+04  0.10000000000E+02 0.  1.
</event>
<event>
 5    1  0.1145138E-008  0.3787600E+03  0.7957747E-01  0.3456575E+00
         13   -1    0    0    0    0  0.00000000000E+00  0.00000000000E+00  0.14999999963E+04  0.15000000000E+04  0.10566000000E+00 0. -1.
        994   -1    0    0    0    0 -0.00000000000E+00 -0.00000000000E+00  0.11368683772E-12  0.17120000000E+03  0.17120000000E+03 0.  0.
         13    1    1    2    0    0 -0.11848479316E+02  0.14811398054E+01 -0.25741273217E+01  0.12215462853E+02  0.10566000000E+00 0. -1.
        994    1    1    2    0    0 -0.72273995795E+01  0.12829446174E+02  0.16430379105E+02  0.17261583749E+03  0.17120000000E+03 0.  0.
        998    1    1    2    0    0  0.19075878895E+02 -0.14310585979E+02  0.14861437445E+04  0.14863686997E+04  0.10000000000E+02 0. -1.
</event>
<event>
 5    1  0.1145138E-008  0.3843112E+03  0.7957747E-01  0.3432599E+00
         13   -1    0    0    0    0  0.00000000000E+00  0.00000000000E+00  0.14999999963E+04  0.15000000000E+04  0.10566000000E+00 0.  1.
        994   -1    0    0    0    0 -0.00000000000E+00 -0.00000000000E+00  0.11368683772E-12  0.17120000000E+03  0.17120000000E+03 0.  0.
         13    1    1    2    0    0  0.17340612476E+02  0.44914165904E+01  0.78740761779E+02  0.80752637069E+02  0.10566000000E+00 0.  1.
        994    1    1    2    0    0 -0.15224554814E+02 -0.53015850014E+01  0.28295705482E+01  0.17198063944E+03  0.17120000000E+03 0.  0.
        998    1    1    2    0    0 -0.21160576616E+01  0.81016841095E+00  0.14184296640E+04  0.14184667235E+04  0.10000000000E+02 0.  1.
</event>
<event>
 5    1  0.1145138E-008  0.3799134E+03  0.7957747E-01  0.3451536E+00
         13   -1    0    0    0    0  0.00000000000E+00  0.00000000000E+00  0.14999999963E+04  0.15000000000E+04  0.10566000000E+00 0.  1.
        994   -1    0    0    0    0 -0.00000000000E+00 -0.00000000000E+00  0.11368683772E-12  0.17120000000E+03  0.17120000000E+03 0.  0.
         13    1    1    2    0    0 -0.51644305585E+01  0.12029560804E+02  0.18557772697E+02  0.22710873335E+02  0.10566000000E+00 0.  1.
        994    1    1    2    0    0  0.67773128051E+01 -0.11612399163E+02  0.47816206647E+01  0.17179372421E+03  0.17120000000E+03 0.  0.
        998    1    1    2    0    0 -0.16128822465E+01 -0.41716164039E+00  0.14766606029E+04  0.14766954025E+04  0.10000000000E+02 0.  1.
</event>
<event>
 5    1  0.1145138E-008  0.3830372E+03  0.7957747E-01  0.3438040E+00
         13   -1    0    0    0    0  0.00000000000E+00  0.00000000000E+00  0.14999999963E+04  0.15000000000E+04  0.10566000000E+00 0.  1.
        994   -1    0    0    0    0 -0.00000000000E+00 -0.00000000000E+00  0.11368683772E-12  0.17120000000E+03  0.17120000000E+03 0.  0.
         13    1    1    2    0    0  0.55364877912E+01  0.12180359659E+02  0.32782913377E+02  0.35408253728E+02  0.10566000000E+00 0.  1.
        994    1    1    2    0    0 -0.69606583699E+01 -0.12846165537E+02  0.33146389679E+01  0.17185430331E+03  0.17120000000E+03 0.  0.
        998    1    1    2    0    0  0.14241705787E+01  0.66580587801E+00  0.14639024439E+04  0.14639374430E+04  0.10000000000E+02 0.  1.
</event>
<event>
 5    1  0.1145138E-008  0.3837029E+03  0.7957747E-01  0.3435192E+00
         13   -1    0    0    0    0  0.00000000000E+00  0.00000000000E+00  0.14999999963E+04  0.15000000000E+04  0.10566000000E+00 0.  1.
        994   -1    0    0    0    0 -0.00000000000E+00 -0.00000000000E+00  0.11368683772E-12  0.17120000000E+03  0.17120000000E+03 0.  0.
         13    1    1    2    0    0 -0.12602504834E+02  0.88429245770E+02  0.19079920190E+03  0.21067249760E+03  0.10566000000E+00 0.  1.
        994    1    1    2    0    0  0.63817158276E+01 -0.81417513220E+02  0.43310542713E+02  0.19456305113E+03  0.17120000000E+03 0.  0.
        998    1    1    2    0    0  0.62207890063E+01 -0.70117325503E+01  0.12658902517E+04  0.12659644513E+04  0.10000000000E+02 0.  1.
</event>
<event>
 5    1  0.1145138E-008  0.3844792E+03  0.7957747E-01  0.3431884E+00
         13   -1    0    0    0    0  0.00000000000E+00  0.00000000000E+00  0.14999999963E+04  0.15000000000E+04  0.10566000000E+00 0. -1.
        994   -1    0    0    0    0 -0.00000000000E+00 -0.00000000000E+00  0.11368683772E-12  0.17120000000E+03  0.17120000000E+03 0.  0.
         13    1    1    2    0    0  0.72744832903E+01  0.12118991433E+02  0.53213567128E+02  0.55058904375E+02  0.10566000000E+00 0. -1.
        994    1    1    2    0    0 -0.10128991747E+02 -0.24443771133E+01  0.22466727164E+01  0.17153151020E+03  0.17120000000E+03 0.  0.
        998    1    1    2    0    0  0.28545084562E+01 -0.96746143198E+01  0.14445397564E+04  0.14446095854E+04  0.10000000000E+02 0. -1.
</event>
<event>
 5    1  0.1145138E-008  0.3796933E+03  0.7957747E-01  0.3452495E+00
         13   -1    0    0    0    0  0.00000000000E+00  0.00000000000E+00  0.14999999963E+04  0.15000000000E+04  0.10566000000E+00 0. -1.
        994   -1    0    0    0    0 -0.00000000000E+00 -0.00000000000E+00  0.11368683772E-12  0.17120000000E+03  0.17120000000E+03 0.  0.
         13    1    1    2    0    0  0.12684639384E+02  0.34067918433E+02  0.16696963641E+03  0.17088122715E+03  0.10566000000E+00 0. -1.
        994    1    1    2    0    0  0.43057896823E+01 -0.10034344831E+02  0.46871355996E+01  0.17161187937E+03  0.17120000000E+03 0.  0.
        998    1    1    2    0    0 -0.16990429066E+02 -0.24033573601E+02  0.13283432243E+04  0.13287068935E+04  0.10000000000E+02 0. -1.
</event>
<event>
 5    1  0.1145138E-008  0.3793629E+03  0.7957747E-01  0.3453937E+00
         13   -1    0    0    0    0  0.00000000000E+00  0.00000000000E+00  0.14999999963E+04  0.15000000000E+04  0.10566000000E+00 0.  1.
        994   -1    0    0    0    0 -0.00000000000E+00 -0.00000000000E+00  0.11368683772E-12  0.17120000000E+03  0.17120000000E+03 0.  0.
         13    1    1    2    0    0 -0.11541976917E+02 -0.27889674786E+02  0.11015686485E+03  0.11421732456E+03  0.10566000000E+00 0.  1.
        994    1    1    2    0    0 -0.15915633408E+02  0.82816646657E+01  0.55341603490E+01  0.17222647963E+03  0.17120000000E+03 0.  0.
        998    1    1    2    0    0  0.27457610326E+02  0.19608010120E+02  0.13843089711E+04  0.13847561958E+04  0.10000000000E+02 0.  1.
</event>
<event>
 5    1  0.1145138E-008  0.3730287E+03  0.7957747E-01  0.3482086E+00
         13   -1    0    0    0    0  0.00000000000E+00  0.00000000000E+00  0.14999999963E+04  0.15000000000E+04  0.10566000000E+00 0. -1.
        994   -1    0    0    0    0 -0.00000000000E+00 -0.00000000000E+00  0.11368683772E-12  0.17120000000E+03  0.17120000000E+03 0.  0.
         13    1    1    2    0    0 -0.25476196640E+02 -0.22866321995E+02  0.38037855947E+02  0.51174162679E+02  0.10566000000E+00 0. -1.
        994    1    1    2    0    0 -0.29711220380E+02  0.11065266878E+03  0.60504940840E+02  0.21470225334E+03  0.17120000000E+03 0.  0.
        998    1    1    2    0    0  0.55187417020E+02 -0.87786346784E+02  0.14014571995E+04  0.14053235840E+04  0.10000000000E+02 0. -1.
</event>
<event>
 5    1  0.1145138E-008  0.3706859E+03  0.7957747E-01  0.3492745E+00
         13   -1    0    0    0    0  0.00000000000E+00  0.00000000000E+00  0.14999999963E+04  0.15000000000E+04  0.10566000000E+00 0.  1.
        994   -1    0    0    0    0 -0.00000000000E+00 -0.00000000000E+00  0.11368683772E-12  0.17120000000E+03  0.17120000000E+03 0.  0.
         13    1    1    2    0    0 -0.21503833727E+02 -0.73214931575E+02  0.36071124348E+03  0.36869425464E+03  0.10566000000E+00 0.  1.
        994    1    1    2    0    0 -0.40559407529E+02  0.47075752869E+02  0.22350328041E+02  0.18349433019E+03  0.17120000000E+03 0.  0.
        998    1    1    2    0    0  0.62063241256E+02  0.26139178706E+02  0.11169384248E+04  0.11190114152E+04  0.10000000000E+02 0.  1.
</event>
<event>
 5    1  0.1145138E-008  0.3803118E+03  0.7957747E-01  0.3449802E+00
         13   -1    0    0    0    0  0.00000000000E+00  0.00000000000E+00  0.14999999963E+04  0.15000000000E+04  0.10566000000E+00 0. -1.
        994   -1    0    0    0    0 -0.00000000000E+00 -0.00000000000E+00  0.11368683772E-12  0.17120000000E+03  0.17120000000E+03 0.  0.
         13    1    1    2    0    0 -0.20033756630E+01  0.45295850457E+02  0.26157295451E+03  0.26547344364E+03  0.10566000000E+00 0. -1.
        994    1    1    2    0    0 -0.80823988870E+01 -0.24502499220E+02  0.62020985011E+01  0.17324434671E+03  0.17120000000E+03 0.  0.
        998    1    1    2    0    0  0.10085774550E+02 -0.20793351237E+02  0.12322249433E+04  0.12324822097E+04  0.10000000000E+02 0. -1.
</event>
<event>
 5    1  0.1145138E-008  0.3844944E+03  0.7957747E-01  0.3431819E+00
         13   -1    0    0    0    0  0.00000000000E+00  0.00000000000E+00  0.14999999963E+04  0.15000000000E+04  0.10566000000E+00 0. -1.
        994   -1    0    0    0    0 -0.00000000000E+00 -0.00000000000E+00  0.11368683772E-12  0.17120000000E+03  0.17120000000E+03 0.  0.
         13    1    1    2    0    0  0.11023994107E+02  0.37637184316E+01  0.32847230384E+02  0.34851767968E+02  0.10566000000E+00 0. -1.
        994    1    1    2    0    0 -0.10193906144E+02 -0.58257998414E+02  0.13489852551E+02  0.18162964027E+03  0.17120000000E+03 0.  0.
        998    1    1    2    0    0 -0.83008796340E+00  0.54494279982E+02  0.14536629133E+04  0.14547185918E+04  0.10000000000E+02 0. -1.
</event>
<event>
 5    1  0.1145138E-008  0.3806781E+03  0.7957747E-01  0.3448211E+00
         13   -1    0    0    0    0  0.00000000000E+00  0.00000000000E+00  0.14999999963E+04  0.15000000000E+04  0.10566000000E+00 0. -1.
        994   -1    0    0    0    0 -0.00000000000E+00 -0.00000000000E+00  0.11368683772E-12  0.17120000000E+03  0.17120000000E+03 0.  0.
         13    1    1    2    0    0 -0.11644566692E+02 -0.84232118583E+01  0.27762428728E+02  0.31261958422E+02  0.10566000000E+00 0. -1.
        994    1    1    2    0    0 -0.11531248861E+02 -0.94333959610E+01  0.45319288008E+01  0.17190676845E+03  0.17120000000E+03 0.  0.
        998    1    1    2    0    0  0.23175815553E+02  0.17856607819E+02  0.14677056387E+04  0.14680312731E+04  0.10000000000E+02 0. -1.
</event>
<event>
 5    1  0.1145138E-008  0.3700857E+03  0.7957747E-01  0.3495497E+00
         13   -1    0    0    0    0  0.00000000000E+00  0.00000000000E+00  0.14999999963E+04  0.15000000000E+04  0.10566000000E+00 0. -1.
        994   -1    0    0    0    0 -0.00000000000E+00 -0.00000000000E+00  0.11368683772E-12  0.17120000000E+03  0.17120000000E+03 0.  0.
         13    1    1    2    0    0 -0.39063904453E+02 -0.54615039052E+02  0.23057581956E+03  0.24015413978E+03  0.10566000000E+00 0. -1.
        994    1    1    2    0    0  0.40508169160E+02  0.29517202841E+02  0.17958567694E+02  0.17928783335E+03  0.17120000000E+03 0.  0.
        998    1    1    2    0    0 -0.14442647070E+01  0.25097836211E+02  0.12514656090E+04  0.12517580269E+04  0.10000000000E+02 0. -1.
</event>
<event>
 5    1  0.1145138E-008  0.3839355E+03  0.7957747E-01  0.3434200E+00
         13   -1    0    0    0    0  0.00000000000E+00  0.00000000000E+00  0.14999999963E+04  0.15000000000E+04  0.10566000000E+00 0.  1.
        994   -1    0    0    0    0 -0.00000000000E+00 -0.00000000000E+00  0.11368683772E-12  0.17120000000E+03  0.17120000000E+03 0.  0.
         13    1    1    2    0    0  0.70762662132E+01 -0.20744102773E+02  0.11700785495E+03  0.11904302007E+03  0.10566000000E+00 0.  1.
        994    1    1    2    0    0 -0.63614344459E+01  0.45424410988E+01  0.23612423770E+01  0.17139462385E+03  0.17120000000E+03 0.  0.
        998    1    1    2    0    0 -0.71483176730E+00  0.16201661674E+02  0.13806308989E+04  0.13807623561E+04  0.10000000000E+02 0.  1.
</event>
<event>
 5    1  0.1145138E-008  0.3831253E+03  0.7957747E-01  0.3437662E+00
         13   -1    0    0    0    0  0.00000000000E+00  0.00000000000E+00  0.14999999963E+04  0.15000000000E+04  0.10566000000E+00 0.  1.
        994   -1    0    0    0    0 -0.00000000000E+00 -0.00000000000E+00  0.11368683772E-12  0.17120000000E+03  0.17120000000E+03 0.  0.
         13    1    1    2    0    0 -0.14458255425E+02 -0.26037834111E+02  0.16180620157E+03  0.16452436897E+03  0.10566000000E+00 0.  1.
        994    1    1    2    0    0 -0.92928389979E+00  0.29994509589E+02  0.55491130702E+01  0.17389872579E+03  0.17120000000E+03 0.  0.
        998    1    1    2    0    0  0.15387539325E+02 -0.39566754772E+01  0.13326446816E+04  0.13327769052E+04  0.10000000000E+02 0.  1.
</event>
<event>
 5    1  0.1145138E-008  0.3826949E+03  0.7957747E-01  0.3439508E+00
         13   -1    0    0    0    0  0.00000000000E+00  0.00000000000E+00  0.14999999963E+04  0.15000000000E+04  0.10566000000E+00 0. -1.
        994   -1    0    0    0    0 -0.00000000000E+00 -0.00000000000E+00  0.11368683772E-12  0.17120000000E+03  0.17120000000E+03 0.  0.
         13    1    1    2    0    0 -0.35808483980E+01  0.15701746161E+02  0.45582970975E+02  0.48344448644E+02  0.10566000000E+00 0. -1.
        994    1    1    2    0    0  0.27269800525E+01 -0.11354670407E+02  0.32309036316E+01  0.17162821359E+03  0.17120000000E+03 0.  0.
        998    1    1    2    0    0  0.85386834555E+00 -0.43470757544E+01  0.14511861217E+04  0.14512273378E+04  0.10000000000E+02 0. -1.
</event>
<event>
 5    1  0.1145138E-008  0.3856553E+03  0.7957747E-01  0.3426898E+00
         13   -1    0    0    0    0  0.00000000000E+00  0.00000000000E+00  0.14999999963E+04  0.15000000000E+04  0.10566000000E+00 0.  1.
        994   -1    0    0    0    0 -0.00000000000E+00 -0.00000000000E+00  0.11368683772E-12  0.17120000000E+03  0.17120000000E+03 0.  0.
         13    1    1    2    0    0 -0.13467147191E+02  0.55290619389E+01  0.80055916481E+02  0.81368885375E+02  0.10566000000E+00 0.  1.
        994    1    1    2    0    0  0.10645211812E+02 -0.61944064915E+01  0.18031080517E+01  0.17165192223E+03  0.17120000000E+03 0.  0.
        998    1    1    2    0    0  0.28219353786E+01  0.66534455259E+00  0.14181409717E+04  0.14181791924E+04  0.10000000000E+02 0.  1.
</event>
<event>
 5    1  0.1145138E-008  0.3828550E+03  0.7957747E-01  0.3438821E+00
         13   -1    0    0    0    0  0.00000000000E+00  0.00000000000E+00  0.14999999963E+04  0.15000000000E+04  0.10566000000E+00 0. -1.
        994   -1    0    0    0    0 -0.00000000000E+00 -0.00000000000E+00  0.11368683772E-12  0.17120000000E+03  0.17120000000E+03 0.  0.
         13    1    1    2    0    0 -0.15595486779E+02 -0.47118898223E+01  0.47554218488E+02  0.50267643406E+02  0.10566000000E+00 0. -1.
        994    1    1    2    0    0  0.12789123537E+02  0.78638238698E+01  0.34456489322E+01  0.17189157601E+03  0.17120000000E+03 0.  0.
        998    1    1    2    0    0  0.28063632411E+01 -0.31519340475E+01  0.14490001289E+04  0.14490407806E+04  0.10000000000E+02 0. -1.
</event>
<event>
 5    1  0.1145138E-008  0.3834465E+03  0.7957747E-01  0.3436288E+00
         13   -1    0    0    0    0  0.00000000000E+00  0.00000000000E+00  0.14999999963E+04  0.15000000000E+04  0.10566000000E+00 0. -1.
        994   -1    0    0    0    0 -0.00000000000E+00 -0.00000000000E+00  0.11368683772E-12  0.17120000000E+03  0.17120000000E+03 0.  0.
         13    1    1    2    0    0  0.77622206599E+01 -0.77745595235E+01  0.24011699033E+02  0.26405845941E+02  0.10566000000E+00 0. -1.
        994    1    1    2    0    0 -0.75039415825E+01  0.81622983221E+01  0.28098204557E+01  0.17158166378E+03  0.17120000000E+03 0.  0.
        998    1    1    2    0    0 -0.25827907743E+00 -0.38773879856E+00  0.14731784768E+04  0.14732124903E+04  0.10000000000E+02 0. -1.
</event>
<event>
 5    1  0.1145138E-008  0.3830278E+03  0.7957747E-01  0.3438080E+00
         13   -1    0    0    0    0  0.00000000000E+00  0.00000000000E+00  0.14999999963E+04  0.15000000000E+04  0.10566000000E+00 0.  1.
        994   -1    0    0    0    0 -0.00000000000E+00 -0.00000000000E+00  0.11368683772E-12  0.17120000000E+03  0.17120000000E+03 0.  0.
         13    1    1    2    0    0 -0.64504339716E+01  0.83352797939E+01  0.20243394213E+02  0.22823040134E+02  0.10566000000E+00 0.  1.
        994    1    1    2    0    0  0.53051413685E+01 -0.62673756558E+01  0.28356473803E+01  0.17142025965E+03  0.17120000000E+03 0.  0.
        998    1    1    2    0    0  0.11452926031E+01 -0.20679041381E+01  0.14769209547E+04  0.14769567002E+04  0.10000000000E+02 0.  1.
</event>
<event>
 5    1  0.1145138E-008  0.3851595E+03  0.7957747E-01  0.3428996E+00
         13   -1    0    0    0    0  0.00000000000E+00  0.00000000000E+00  0.14999999963E+04  0.15000000000E+04  0.10566000000E+00 0.  1.
        994   -1    0    0    0    0 -0.00000000000E+00 -0.00000000000E+00  0.11368683772E-12  0.17120000000E+03  0.17120000000E+03 0.  0.
         13    1    1    2    0    0  0.11461936873E+02 -0.10255405188E+02  0.75162981442E+02  0.76720494496E+02  0.10566000000E+00 0.  1.
        994    1    1    2    0    0 -0.13401078858E+02  0.37023378092E+01  0.21865911137E+01  0.17177752298E+03  0.17120000000E+03 0.  0.
        998    1    1    2    0    0  0.19391419859E+01  0.65530673785E+01  0.14226504237E+04  0.14227019825E+04  0.10000000000E+02 0.  1.
</event>
<event>
 5    1  0.1145138E-008  0.3822289E+03  0.7957747E-01  0.3441510E+00
         13   -1    0    0    0    0  0.00000000000E+00  0.00000000000E+00  0.14999999963E+04  0.15000000000E+04  0.10566000000E+00 0. -1.
        994   -1    0    0    0    0 -0.00000000000E+00 -0.00000000000E+00  0.11368683772E-12  0.17120000000E+03  0.17120000000E+03 0.  0.
         13    1    1    2    0    0  0.12766177106E+03  0.12510918040E+03  0.84923449171E+03  0.86784161451E+03  0.10566000000E+00 0. -1.
        994    1    1    2    0    0 -0.15650709529E+03 -0.14061565272E+03  0.16732615228E+03  0.31870788177E+03  0.17120000000E+03 0.  0.
        998    1    1    2    0    0  0.28845324227E+02  0.15506472318E+02  0.48343935229E+03  0.48465050372E+03  0.10000000000E+02 0.  1.
</event>
<event>
 5    1  0.1145138E-008  0.3814317E+03  0.7957747E-01  0.3444948E+00
         13   -1    0    0    0    0  0.00000000000E+00  0.00000000000E+00  0.14999999963E+04  0.15000000000E+04  0.10566000000E+00 0. -1.
        994   -1    0    0    0    0 -0.00000000000E+00 -0.00000000000E+00  0.11368683772E-12  0.17120000000E+03  0.17120000000E+03 0.  0.
         13    1    1    2    0    0  0.39543747317E+02  0.51468607135E+01  0.20667535696E+03  0.21048732139E+03  0.10566000000E+00 0. -1.
        994    1    1    2    0    0 -0.36659765103E+02 -0.73191799238E+01  0.80759138016E+01  0.17541997935E+03  0.17120000000E+03 0.  0.
        998    1    1    2    0    0 -0.28839822136E+01  0.21723192103E+01  0.12852487255E+04  0.12852926993E+04  0.10000000000E+02 0. -1.
</event>
<event>
 5    1  0.1145138E-008  0.3753079E+03  0.7957747E-01  0.3471847E+00
         13   -1    0    0    0    0  0.00000000000E+00  0.00000000000E+00  0.14999999963E+04  0.15000000000E+04  0.10566000000E+00 0.  1.
        994   -1    0    0    0    0 -0.00000000000E+00 -0.00000000000E+00  0.11368683772E-12  0.17120000000E+03  0.17120000000E+03 0.  0.
         13    1    1    2    0    0 -0.18345736843E+02 -0.64080327663E+00  0.25245186240E+02  0.31213895648E+02  0.10566000000E+00 0.  1.
        994    1    1    2    0    0 -0.22585702556E+02 -0.40554689246E+00  0.82553512022E+01  0.17288108414E+03  0.17120000000E+03 0.  0.
        998    1    1    2    0    0  0.40931439399E+02  0.10463501691E+01  0.14664994588E+04  0.14671050202E+04  0.10000000000E+02 0.  1.
</event>
<event>
 5    1  0.1145138E-008  0.3836753E+03  0.7957747E-01  0.3435310E+00
         13   -1    0    0    0    0  0.00000000000E+00  0.00000000000E+00  0.14999999963E+04  0.15000000000E+04  0.10566000000E+00 0.  1.
        994   -1    0    0    0    0 -0.00000000000E+00 -0.00000000000E+00  0.11368683772E-12  0.17120000000E+03  0.17120000000E+03 0.  0.
         13    1    1    2    0    0 -0.34354692530E+01  0.17067011169E+02  0.64217247753E+02  0.66535339424E+02  0.10566000000E+00 0.  1.
        994    1    1    2    0    0  0.13551120533E+02 -0.13098288623E+02  0.34632828603E+01  0.17226906966E+03  0.17120000000E+03 0.  0.
        998    1    1    2    0    0 -0.10115651280E+02 -0.39687225461E+01  0.14323194657E+04  0.14323955909E+04  0.10000000000E+02 0.  1.
</event>
<event>
 5    1  0.1145138E-008  0.3844091E+03  0.7957747E-01  0.3432182E+00
         13   -1    0    0    0    0  0.00000000000E+00  0.00000000000E+00  0.14999999963E+04  0.15000000000E+04  0.10566000000E+00 0.  1.
        994   -1    0    0    0    0 -0.00000000000E+00 -0.00000000000E+00  0.11368683772E-12  0.17120000000E+03  0.17120000000E+03 0.  0.
         13    1    1    2    0    0  0.16610049884E+02  0.60248000749E+01  0.79014124525E+02  0.80965640932E+02  0.10566000000E+00 0.  1.
        994    1    1    2    0    0 -0.99908893315E+01 -0.17096172320E+02  0.32168134048E+01  0.17237135744E+03  0.17120000000E+03 0.  0.
        998    1    1    2    0    0 -0.66191605529E+01  0.11071372245E+02  0.14177690583E+04  0.14178630016E+04  0.10000000000E+02 0.  1.
</event>
<event>
 5    1  0.1145138E-008  0.3838987E+03  0.7957747E-01  0.3434357E+00
         13   -1    0    0    0    0  0.00000000000E+00  0.00000000000E+00  0.14999999963E+04  0.15000000000E+04  0.10566000000E+00 0.  1.
        994   -1    0    0    0    0 -0.00000000000E+00 -0.00000000000E+00  0.11368683772E-12  0.17120000000E+03  0.17120000000E+03 0.  0.
         13    1    1    2    0    0 -0.21879930623E+02  0.75927840130E+01  0.11759577360E+03  0.11985474069E+03  0.10566000000E+00 0.  1.
        994    1    1    2    0    0  0.17156905076E+02 -0.11584187552E+02  0.35936037050E+01  0.17248451171E+03  0.17120000000E+03 0.  0.
        998    1    1    2    0    0  0.47230255470E+01  0.39914035389E+01  0.13788106190E+04  0.13788607476E+04  0.10000000000E+02 0.  0.
</event>
<event>
 5    1  0.1145138E-008  0.3826125E+03  0.7957747E-01  0.3439861E+00
         13   -1    0    0    0    0  0.00000000000E+00  0.00000000000E+00  0.14999999963E+04  0.15000000000E+04  0.10566000000E+00 0. -1.
        994   -1    0    0    0    0 -0.00000000000E+00 -0.00000000000E+00  0.11368683772E-12  0.17120000000E+03  0.17120000000E+03 0.  0.
         13    1    1    2    0    0  0.11164277253E+02 -0.99274049345E+01  0.39720100281E+02  0.42436917722E+02  0.10566000000E+00 0. -1.
        994    1    1    2    0    0 -0.65750890366E+01 -0.28479592978E+01  0.29903190786E+01  0.17137597462E+03  0.17120000000E+03 0.  0.
        998    1    1    2    0    0 -0.45891882162E+01  0.12775364232E+02  0.14572895769E+04  0.14573871077E+04  0.10000000000E+02 0. -1.
</event>
<event>
 5    1  0.1145138E-008  0.3845126E+03  0.7957747E-01  0.3431742E+00
         13   -1    0    0    0    0  0.00000000000E+00  0.00000000000E+00  0.14999999963E+04  0.15000000000E+04  0.10566000000E+00 0. -1.
        994   -1    0    0    0    0 -0.00000000000E+00 -0.00000000000E+00  0.11368683772E-12  0.17120000000E+03  0.17120000000E+03 0.  0.
         13    1    1    2    0    0 -0.29515706258E+01  0.10751845966E+02  0.34982835404E+02  0.36716806748E+02  0.10566000000E+00 0. -1.
        994    1    1    2    0    0 -0.16785798973E+02  0.22200452180E+01  0.28172253939E+01  0.17205832850E+03  0.17120000000E+03 0.  0.
        998    1    1    2    0    0  0.19737369598E+02 -0.12971891184E+02  0.14621999355E+04  0.14624248648E+04  0.10000000000E+02 0. -1.
</event>
<event>
 5    1  0.1145138E-008  0.3693261E+03  0.7957747E-01  0.3498994E+00
         13   -1    0    0    0    0  0.00000000000E+00  0.00000000000E+00  0.14999999963E+04  0.15000000000E+04  0.10566000000E+00 0.  1.
        994   -1    0    0    0    0 -0.00000000000E+00 -0.00000000000E+00  0.11368683772E-12  0.17120000000E+03  0.17120000000E+03 0.  0.
         13    1    1    2    0    0 -0.12588774368E+03 -0.10282603702E+02  0.51655208570E+03  0.53177018001E+03  0.10566000000E+00 0.  1.
        994    1    1    2    0    0  0.12617594071E+03  0.10455792790E+02  0.67421881998E+02  0.22334914773E+03  0.17120000000E+03 0.  0.
        998    1    1    2    0    0 -0.28819703797E+00 -0.17318908841E+00  0.91602602858E+03  0.91608067226E+03  0.10000000000E+02 0.  0.
</event>
<event>
 5    1  0.1145138E-008  0.3775938E+03  0.7957747E-01  0.3461703E+00
         13   -1    0    0    0    0  0.00000000000E+00  0.00000000000E+00  0.14999999963E+04  0.15000000000E+04  0.10566000000E+00 0. -1.
        994   -1    0    0    0    0 -0.00000000000E+00 -0.00000000000E+00  0.11368683772E-12  0.17120000000E+03  0.17120000000E+03 0.  0.
         13    1    1    2    0    0 -0.26532312710E+02  0.32462920852E+02  0.16864063200E+03  0.17377421780E+03  0.10566000000E+00 0. -1.
        994    1    1    2    0    0  0.21177267561E+02 -0.64153495340E+01  0.70044096341E+01  0.17276612841E+03  0.17120000000E+03 0.  0.
        998    1    1    2    0    0  0.53550451492E+01 -0.26047571319E+02  0.13243549546E+04  0.13246596538E+04  0.10000000000E+02 0. -1.
</event>
<event>
 5    1  0.1145138E-008  0.3832669E+03  0.7957747E-01  0.3437056E+00
         13   -1    0    0    0    0  0.00000000000E+00  0.00000000000E+00  0.14999999963E+04  0.15000000000E+04  0.10566000000E+00 0.  1.
        994   -1    0    0    0    0 -0.00000000000E+00 -0.00000000000E+00  0.11368683772E-12  0.17120000000E+03  0.17120000000E+03 0.  0.
         13    1    1    2    0    0  0.27295970257E+02 -0.36138224075E+01  0.14422935037E+03  0.14683407771E+03  0.10566000000E+00 0.  1.
        994    1    1    2    0    0 -0.22931506225E+02  0.12188326000E+00  0.42341687983E+01  0.17278089309E+03  0.17120000000E+03 0.  0.
        998    1    1    2    0    0 -0.43644640321E+01  0.34919391475E+01  0.13515364771E+04  0.13515850292E+04  0.10000000000E+02 0.  1.
</event>
<event>
 5    1  0.1145138E-008  0.2918264E+03  0.7957747E-01  0.3956156E+00
         13   -1    0    0    0    0  0.00000000000E+00  0.00000000000E+00  0.14999999963E+04  0.15000000000E+04  0.10566000000E+00 0.  1.
        994   -1    0    0    0    0 -0.00000000000E+00 -0.00000000000E+00  0.11368683772E-12  0.17120000000E+03  0.17120000000E+03 0.  0.
         13    1    1    2    0    0 -0.11930118855E+03 -0.64465416474E+02  0.74573195258E+03  0.75796089594E+03  0.10566000000E+00 0.  1.
        994    1    1    2    0    0  0.27499499333E+02  0.80324750820E+02  0.43062302833E+02  0.19588795262E+03  0.17120000000E+03 0.  0.
        998    1    1    2    0    0  0.91801689212E+02 -0.15859334346E+02  0.71120574086E+03  0.71735115143E+03  0.10000000000E+02 0. -1.
</event>
<event>
 5    1  0.1145138E-008  0.3787189E+03  0.7957747E-01  0.3456756E+00
         13   -1    0    0    0    0  0.00000000000E+00  0.00000000000E+00  0.14999999963E+04  0.15000000000E+04  0.10566000000E+00 0.  1.
        994   -1    0    0    0    0 -0.00000000000E+00 -0.00000000000E+00  0.11368683772E-12  0.17120000000E+03  0.17120000000E+03 0.  0.
         13    1    1    2    0    0 -0.21417989204E+03 -0.11661111289E+02  0.96559768751E+03  0.98913493162E+03  0.10566000000E+00 0.  1.
        994    1    1    2    0    0  0.22078515088E+03  0.50599037105E+01  0.19118397997E+03  0.33857412729E+03  0.17120000000E+03 0.  0.
        998    1    1    2    0    0 -0.66052588396E+01  0.66012075785E+01  0.34321832879E+03  0.34349094108E+03  0.10000000000E+02 0.  1.
</event>
<event>
 5    1  0.1719063E-008  0.3861781E+03  0.7957747E-01  0.3424691E+00
         13   -1    0    0    0    0  0.00000000000E+00  0.00000000000E+00  0.14999999963E+04  0.15000000000E+04  0.10566000000E+00 0. -1.
        994   -1    0    0    0    0 -0.00000000000E+00 -0.00000000000E+00  0.11368683772E-12  0.17120000000E+03  0.17120000000E+03 0.  0.
         13    1    1    2    0    0 -0.10071351628E+00 -0.10395210999E+02  0.52567401643E+02  0.53585571141E+02  0.10566000000E+00 0. -1.
        994    1    1    2    0    0  0.46031313028E+01  0.65746292313E+01  0.12574305114E+01  0.17139263607E+03  0.17120000000E+03 0.  0.
        998    1    1    2    0    0 -0.45024177866E+01  0.38205817679E+01  0.14461751641E+04  0.14462217928E+04  0.10000000000E+02 0. -1.
</event>
<event>
 5    1  0.1145138E-008  0.3865992E+03  0.7957747E-01  0.3422918E+00
         13   -1    0    0    0    0  0.00000000000E+00  0.00000000000E+00  0.14999999963E+04  0.15000000000E+04  0.10566000000E+00 0.  1.
        994   -1    0    0    0    0 -0.00000000000E+00 -0.00000000000E+00  0.11368683772E-12  0.17120000000E+03  0.17120000000E+03 0.  0.
         13    1    1    2    0    0  0.39834611687E+02 -0.98600481892E+02  0.30522415623E+03  0.32321919502E+03  0.10566000000E+00 0.  1.
        994    1    1    2    0    0  0.29122173951E+02  0.62316613505E+02  0.37791464169E+02  0.18833240852E+03  0.17120000000E+03 0.  0.
        998    1    1    2    0    0 -0.68956785638E+02  0.36283868387E+02  0.11569843759E+04  0.11596483965E+04  0.10000000000E+02 0.  1.
</event>
<event>
 5    1  0.1145138E-008  0.3875502E+03  0.7957747E-01  0.3418928E+00
         13   -1    0    0    0    0  0.00000000000E+00  0.00000000000E+00  0.14999999963E+04  0.15000000000E+04  0.10566000000E+00 0.  1.
        994   -1    0    0    0    0 -0.00000000000E+00 -0.00000000000E+00  0.11368683772E-12  0.17120000000E+03  0.17120000000E+03 0.  0.
         13    1    1    2    0    0  0.17422642775E+01  0.13747391898E+03  0.44326739224E+03  0.46409924162E+03  0.10566000000E+00 0.  1.
        994    1    1    2    0    0  0.36114972325E+02 -0.87701935146E+02  0.54904203335E+02  0.20327280241E+03  0.17120000000E+03 0.  0.
        998    1    1    2    0    0 -0.37857236602E+02 -0.49771983834E+02  0.10018284007E+04  0.10038279560E+04  0.10000000000E+02 0.  1.
</event>
<event>
 5    1  0.1145138E-008  0.3802294E+03  0.7957747E-01  0.3450160E+00
         13   -1    0    0    0    0  0.00000000000E+00  0.00000000000E+00  0.14999999963E+04  0.15000000000E+04  0.10566000000E+00 0. -1.
        994   -1    0    0    0    0 -0.00000000000E+00 -0.00000000000E+00  0.11368683772E-12  0.17120000000E+03  0.17120000000E+03 0.  0.
         13    1    1    2    0    0 -0.13085156523E+02  0.15865748293E+02  0.48118112211E+02  0.52328836953E+02  0.10566000000E+00 0. -1.
        994    1    1    2    0    0  0.25048583359E+02 -0.17993705831E+02  0.72012939218E+01  0.17410486384E+03  0.17120000000E+03 0.  0.
        998    1    1    2    0    0 -0.11963426836E+02  0.21279575375E+01  0.14446805901E+04  0.14447662992E+04  0.10000000000E+02 0. -1.
</event>
<event>
 5    1  0.1145138E-008  0.3763873E+03  0.7957747E-01  0.3467041E+00
         13   -1    0    0    0    0  0.00000000000E+00  0.00000000000E+00  0.14999999963E+04  0.15000000000E+04  0.10566000000E+00 0.  1.
        994   -1    0    0    0    0 -0.00000000000E+00 -0.00000000000E+00  0.11368683772E-12  0.17120000000E+03  0.17120000000E+03 0.  0.
         13    1    1    2    0    0 -0.11052468434E+02  0.52867645543E+01  0.98828627969E+01  0.15741317576E+02  0.10566000000E+00 0.  1.
        994    1    1    2    0    0  0.52037603094E+01 -0.10810429809E+02  0.64552025899E+01  0.17174124186E+03  0.17120000000E+03 0.  0.
        998    1    1    2    0    0  0.58487081249E+01  0.55236652545E+01  0.14836619309E+04  0.14837174406E+04  0.10000000000E+02 0.  1.
</event>
<event>
 5    1  0.1145138E-008  0.3850238E+03  0.7957747E-01  0.3429571E+00
         13   -1    0    0    0    0  0.00000000000E+00  0.00000000000E+00  0.14999999963E+04  0.15000000000E+04  0.10566000000E+00 0.  1.
        994   -1    0    0    0    0 -0.00000000000E+00 -0.00000000000E+00  0.11368683772E-12  0.17120000000E+03  0.17120000000E+03 0.  0.
         13    1    1    2    0    0  0.85214790333E+01 -0.77762519527E+01  0.42429261018E+02  0.43969751579E+02  0.10566000000E+00 0.  1.
        994    1    1    2    0    0 -0.86633331409E+01 -0.74881025492E+01  0.20496544081E+01  0.17159477295E+03  0.17120000000E+03 0.  0.
        998    1    1    2    0    0  0.14185410759E+00  0.15264354502E+02  0.14555210809E+04  0.14556354755E+04  0.10000000000E+02 0.  1.
</event>
<event>
 5    1  0.1145138E-008  0.3810380E+03  0.7957747E-01  0.3446651E+00
         13   -1    0    0    0    0  0.00000000000E+00  0.00000000000E+00  0.14999999963E+04  0.15000000000E+04  0.10566000000E+00 0.  1.
        994   -1    0    0    0    0 -0.00000000000E+00 -0.00000000000E+00  0.11368683772E-12  0.17120000000E+03  0.17120000000E+03 0.  0.
         13    1    1    2    0    0 -0.65769735475E+01  0.13376704346E+02  0.28980702796E+02  0.32589647111E+02  0.10566000000E+00 0.  1.
        994    1    1    2    0    0  0.12245381937E+02 -0.10052460823E+02  0.44467513521E+01  0.17198899658E+03  0.17120000000E+03 0.  0.
        998    1    1    2    0    0 -0.56684083897E+01 -0.33242435230E+01  0.14665725421E+04  0.14666213563E+04  0.10000000000E+02 0.  1.
</event>
<event>
 5    1  0.1145138E-008  0.3936383E+03  0.7957747E-01  0.3393842E+00
         13   -1    0    0    0    0  0.00000000000E+00  0.00000000000E+00  0.14999999963E+04  0.15000000000E+04  0.10566000000E+00 0. -1.
        994   -1    0    0    0    0 -0.00000000000E+00 -0.00000000000E+00  0.11368683772E-12  0.17120000000E+03  0.17120000000E+03 0.  0.
         13    1    1    2    0    0  0.15139758692E+03 -0.19426163116E+02  0.37233884539E+03  0.40241127232E+03  0.10566000000E+00 0. -1.
        994    1    1    2    0    0 -0.13295647231E+03  0.50114426784E+02  0.10598561550E+03  0.24643715222E+03  0.17120000000E+03 0.  0.
        998    1    1    2    0    0 -0.18441114610E+02 -0.30688263668E+02  0.10216755354E+04  0.10223515755E+04  0.10000000000E+02 0. -1.
</event>
<event>
 5    1  0.1145138E-008  0.3864560E+03  0.7957747E-01  0.3423520E+00
         13   -1    0    0    0    0  0.00000000000E+00  0.00000000000E+00  0.14999999963E+04  0.15000000000E+04  0.10566000000E+00 0.  1.
        994   -1    0    0    0    0 -0.00000000000E+00 -0.00000000000E+00  0.11368683772E-12  0.17120000000E+03  0.17120000000E+03 0.  0.
         13    1    1    2    0    0  0.88003593365E+01  0.57439820846E+01  0.59401249433E+02  0.60323786792E+02  0.10566000000E+00 0.  1.
        994    1    1    2    0    0 -0.14030617222E+02 -0.14257055383E+01  0.15602383619E+01  0.17178697622E+03  0.17120000000E+03 0.  0.
        998    1    1    2    0    0  0.52302578850E+01 -0.43182765463E+01  0.14390385085E+04  0.14390892370E+04  0.10000000000E+02 0.  1.
</event>
<event>
 5    1  0.1145138E-008  0.3807642E+03  0.7957747E-01  0.3447838E+00
         13   -1    0    0    0    0  0.00000000000E+00  0.00000000000E+00  0.14999999963E+04  0.15000000000E+04  0.10566000000E+00 0.  1.
        994   -1    0    0    0    0 -0.00000000000E+00 -0.00000000000E+00  0.11368683772E-12  0.17120000000E+03  0.17120000000E+03 0.  0.
         13    1    1    2    0    0 -0.28134892826E+02 -0.30098988679E+02  0.23337432281E+03  0.23698334756E+03  0.10566000000E+00 0.  1.
        994    1    1    2    0    0  0.96726396282E+01  0.17639869327E+02  0.50986123546E+01  0.17245335832E+03  0.17120000000E+03 0.  0.
        998    1    1    2    0    0  0.18462253198E+02  0.12459119352E+02  0.12615270611E+04  0.12617632941E+04  0.10000000000E+02 0.  1.
</event>
<event>
 5    1  0.1145138E-008  0.3758519E+03  0.7957747E-01  0.3469421E+00
         13   -1    0    0    0    0  0.00000000000E+00  0.00000000000E+00  0.14999999963E+04  0.15000000000E+04  0.10566000000E+00 0. -1.
        994   -1    0    0    0    0 -0.00000000000E+00 -0.00000000000E+00  0.11368683772E-12  0.17120000000E+03  0.17120000000E+03 0.  0.
         13    1    1    2    0    0 -0.22152841476E+01 -0.13938800353E+02  0.13163735670E+02  0.19300070983E+02  0.10566000000E+00 0. -1.
        994    1    1    2    0    0 -0.16040187305E+02  0.13700474257E+02  0.77516171552E+01  0.17266881065E+03  0.17120000000E+03 0.  0.
        998    1    1    2    0    0  0.18255471453E+02  0.23832609597E+00  0.14790846435E+04  0.14792311184E+04  0.10000000000E+02 0. -1.
</event>
<event>
 5    1  0.1145138E-008  0.3809685E+03  0.7957747E-01  0.3446952E+00
         13   -1    0    0    0    0  0.00000000000E+00  0.00000000000E+00  0.14999999963E+04  0.15000000000E+04  0.10566000000E+00 0.  1.
        994   -1    0    0    0    0 -0.00000000000E+00 -0.00000000000E+00  0.11368683772E-12  0.17120000000E+03  0.17120000000E+03 0.  0.
         13    1    1    2    0    0  0.48327983752E+00  0.42709255354E+02  0.21163064397E+03  0.21589778758E+03  0.10566000000E+00 0.  1.
        994    1    1    2    0    0  0.11612620365E+01 -0.45287020833E+02  0.10514123805E+02  0.17740419833E+03  0.17120000000E+03 0.  0.
        998    1    1    2    0    0 -0.16445418741E+01  0.25777654794E+01  0.12778552285E+04  0.12778980141E+04  0.10000000000E+02 0.  0.
</event>
<event>
 5    1  0.1145138E-008  0.3846540E+03  0.7957747E-01  0.3431141E+00
         13   -1    0    0    0    0  0.00000000000E+00  0.00000000000E+00  0.14999999963E+04  0.15000000000E+04  0.10566000000E+00 0. -1.
        994   -1    0    0    0    0 -0.00000000000E+00 -0.00000000000E+00  0.11368683772E-12  0.17120000000E+03  0.17120000000E+03 0.  0.
         13    1    1    2    0    0 -0.12531819567E+02  0.23000794243E+01  0.44280582889E+02  0.46077305173E+02  0.10566000000E+00 0.  1.
        994    1    1    2    0    0  0.10293400424E+02 -0.41116397017E+01  0.22066041094E+01  0.17157263411E+03  0.17120000000E+03 0.  0.
        998    1    1    2    0    0  0.22384191433E+01  0.18115602774E+01  0.14535128093E+04  0.14535500607E+04  0.10000000000E+02 0. -1.
</event>
<event>
 5    1  0.1145138E-008  0.3559071E+03  0.7957747E-01  0.3563277E+00
         13   -1    0    0    0    0  0.00000000000E+00  0.00000000000E+00  0.14999999963E+04  0.15000000000E+04  0.10566000000E+00 0.  1.
        994   -1    0    0    0    0 -0.00000000000E+00 -0.00000000000E+00  0.11368683772E-12  0.17120000000E+03  0.17120000000E+03 0.  0.
         13    1    1    2    0    0  0.26047276096E+03 -0.14805796813E+03  0.65936279098E+03  0.72424203304E+03  0.10566000000E+00 0.  1.
        994    1    1    2    0    0 -0.27529673439E+03  0.15935365936E+03  0.56563750913E+03  0.67114611855E+03  0.17120000000E+03 0.  0.
        998    1    1    2    0    0  0.14823973428E+02 -0.11295691236E+02  0.27499969617E+03  0.27581184841E+03  0.10000000000E+02 0.  1.
</event>
<event>
 5    1  0.1145138E-008  0.3744154E+03  0.7957747E-01  0.3475841E+00
         13   -1    0    0    0    0  0.00000000000E+00  0.00000000000E+00  0.14999999963E+04  0.15000000000E+04  0.10566000000E+00 0. -1.
        994   -1    0    0    0    0 -0.00000000000E+00 -0.00000000000E+00  0.11368683772E-12  0.17120000000E+03  0.17120000000E+03 0.  0.
         13    1    1    2    0    0  0.72570147566E+01 -0.66984966246E+02  0.34705898261E+03  0.35353868040E+03  0.10566000000E+00 0. -1.
        994    1    1    2    0    0  0.14285600406E+02  0.31919473633E+02  0.11155791610E+02  0.17509089886E+03  0.17120000000E+03 0.  0.
        998    1    1    2    0    0 -0.21542615163E+02  0.35065492614E+02  0.11417852221E+04  0.11425704207E+04  0.10000000000E+02 0. -1.
</event>
<event>
 5    1  0.1145138E-008  0.3844154E+03  0.7957747E-01  0.3432155E+00
         13   -1    0    0    0    0  0.00000000000E+00  0.00000000000E+00  0.14999999963E+04  0.15000000000E+04  0.10566000000E+00 0. -1.
        994   -1    0    0    0    0 -0.00000000000E+00 -0.00000000000E+00  0.11368683772E-12  0.17120000000E+03  0.17120000000E+03 0.  0.
         13    1    1    2    0    0  0.13724623463E+02 -0.75256114353E+01  0.63931061006E+02  0.65819388040E+02  0.10566000000E+00 0. -1.
        994    1    1    2    0    0 -0.81429592700E+01  0.41398758683E+01  0.21956502794E+01  0.17145759603E+03  0.17120000000E+03 0.  0.
        998    1    1    2    0    0 -0.55816641930E+01  0.33857355670E+01  0.14338732850E+04  0.14339230159E+04  0.10000000000E+02 0. -1.
</event>
<event>
 5    1  0.1145138E-008  0.3790967E+03  0.7957747E-01  0.3455101E+00
         13   -1    0    0    0    0  0.00000000000E+00  0.00000000000E+00  0.14999999963E+04  0.15000000000E+04  0.10566000000E+00 0.  1.
        994   -1    0    0    0    0 -0.00000000000E+00 -0.00000000000E+00  0.11368683772E-12  0.17120000000E+03  0.17120000000E+03 0.  0.
         13    1    1    2    0    0  0.14776654918E+02 -0.69460277050E+01  0.26982279165E+02  0.31538094179E+02  0.10566000000E+00 0.  1.
        994    1    1    2    0    0 -0.13486729068E+02  0.33867761772E+01  0.52384170767E+01  0.17184365897E+03  0.17120000000E+03 0.  0.
        998    1    1    2    0    0 -0.12899258503E+01  0.35592515278E+01  0.14677793000E+04  0.14678182469E+04  0.10000000000E+02 0.  1.
</event>
<event>
 5    1  0.1145138E-008  0.3760190E+03  0.7957747E-01  0.3468678E+00
         13   -1    0    0    0    0  0.00000000000E+00  0.00000000000E+00  0.14999999963E+04  0.15000000000E+04  0.10566000000E+00 0. -1.
        994   -1    0    0    0    0 -0.00000000000E+00 -0.00000000000E+00  0.11368683772E-12  0.17120000000E+03  0.17120000000E+03 0.  0.
         13    1    1    2    0    0 -0.52171185347E+02 -0.78088577189E+01  0.19292844109E+03  0.20001051318E+03  0.10566000000E+00 0. -1.
        994    1    1    2    0    0  0.55085486649E+02  0.72176391656E+01  0.16684642824E+02  0.18076040070E+03  0.17120000000E+03 0.  0.
        998    1    1    2    0    0 -0.29143013021E+01  0.59121855334E+00  0.12903869124E+04  0.12904290861E+04  0.10000000000E+02 0. -1.
</event>
<event>
 5    1  0.1145138E-008  0.3776456E+03  0.7957747E-01  0.3461475E+00
         13   -1    0    0    0    0  0.00000000000E+00  0.00000000000E+00  0.14999999963E+04  0.15000000000E+04  0.10566000000E+00 0. -1.
        994   -1    0    0    0    0 -0.00000000000E+00 -0.00000000000E+00  0.11368683772E-12  0.17120000000E+03  0.17120000000E+03 0.  0.
         13    1    1    2    0    0  0.40096025017E+02 -0.22744357190E+02  0.20100083212E+03  0.20621916177E+03  0.10566000000E+00 0. -1.
        994    1    1    2    0    0 -0.26667670542E+02  0.21558142453E+01  0.77418026355E+01  0.17345082212E+03  0.17120000000E+03 0.  0.
        998    1    1    2    0    0 -0.13428354475E+02  0.20588542944E+02  0.12912573615E+04  0.12915300161E+04  0.10000000000E+02 0.  1.
</event>
<event>
 5    1  0.1145138E-008  0.3815007E+03  0.7957747E-01  0.3444650E+00
         13   -1    0    0    0    0  0.00000000000E+00  0.00000000000E+00  0.14999999963E+04  0.15000000000E+04  0.10566000000E+00 0. -1.
        994   -1    0    0    0    0 -0.00000000000E+00 -0.00000000000E+00  0.11368683772E-12  0.17120000000E+03  0.17120000000E+03 0.  0.
         13    1    1    2    0    0  0.83240399746E+01  0.14159065016E+02  0.38024466844E+02  0.41420284964E+02  0.10566000000E+00 0. -1.
        994    1    1    2    0    0 -0.86825920522E+01 -0.13319715929E+02  0.42188906973E+01  0.17198849170E+03  0.17120000000E+03 0.  0.
        998    1    1    2    0    0  0.35855207760E+00 -0.83934908678E+00  0.14577566387E+04  0.14577912233E+04  0.10000000000E+02 0. -1.
</event>
<event>
 5    1  0.1145138E-008  0.3745761E+03  0.7957747E-01  0.3475121E+00
         13   -1    0    0    0    0  0.00000000000E+00  0.00000000000E+00  0.14999999963E+04  0.15000000000E+04  0.10566000000E+00 0. -1.
        994   -1    0    0    0    0 -0.00000000000E+00 -0.00000000000E+00  0.11368683772E-12  0.17120000000E+03  0.17120000000E+03 0.  0.
         13    1    1    2    0    0  0.37696505903E+01 -0.99961397503E+01  0.50778441343E+01  0.11829147922E+02  0.10566000000E+00 0. -1.
        994    1    1    2    0    0  0.25711316785E+01  0.10506342339E+02  0.72948982020E+01  0.17169638752E+03  0.17120000000E+03 0.  0.
        998    1    1    2    0    0 -0.63407822688E+01 -0.51020258824E+00  0.14876272539E+04  0.14876744646E+04  0.10000000000E+02 0. -1.
</event>
<event>
 5    1  0.1145138E-008  0.3929452E+03  0.7957747E-01  0.3396659E+00
         13   -1    0    0    0    0  0.00000000000E+00  0.00000000000E+00  0.14999999963E+04  0.15000000000E+04  0.10566000000E+00 0. -1.
        994   -1    0    0    0    0 -0.00000000000E+00 -0.00000000000E+00  0.11368683772E-12  0.17120000000E+03  0.17120000000E+03 0.  0.
         13    1    1    2    0    0 -0.21339303786E+01  0.15625753690E+02 -0.57392747257E+01  0.16782975768E+02  0.10566000000E+00 0. -1.
        994    1    1    2    0    0  0.36301092881E+02 -0.40174251706E+02  0.34870751516E+02  0.18291295513E+03  0.17120000000E+03 0.  0.
        998    1    1    2    0    0 -0.34167162502E+02  0.24548498017E+02  0.14708685195E+04  0.14715040691E+04  0.10000000000E+02 0. -1.
</event>
<event>
 5    1  0.1145138E-008  0.3802989E+03  0.7957747E-01  0.3449858E+00
         13   -1    0    0    0    0  0.00000000000E+00  0.00000000000E+00  0.14999999963E+04  0.15000000000E+04  0.10566000000E+00 0.  1.
        994   -1    0    0    0    0 -0.00000000000E+00 -0.00000000000E+00  0.11368683772E-12  0.17120000000E+03  0.17120000000E+03 0.  0.
         13    1    1    2    0    0 -0.31180626893E+02  0.14464483861E+02  0.15580404868E+03  0.15955051092E+03  0.10566000000E+00 0.  1.
        994    1    1    2    0    0  0.81530680356E+01 -0.96172227192E+01  0.45133937919E+01  0.17172295774E+03  0.17120000000E+03 0.  0.
        998    1    1    2    0    0  0.23027558857E+02 -0.48472611416E+01  0.13396825538E+04  0.13399265313E+04  0.10000000000E+02 0.  1.
</event>
<event>
 5    1  0.1145138E-008  0.3817300E+03  0.7957747E-01  0.3443660E+00
         13   -1    0    0    0    0  0.00000000000E+00  0.00000000000E+00  0.14999999963E+04  0.15000000000E+04  0.10566000000E+00 0.  1.
        994   -1    0    0    0    0 -0.00000000000E+00 -0.00000000000E+00  0.11368683772E-12  0.17120000000E+03  0.17120000000E+03 0.  0.
         13    1    1    2    0    0 -0.23468256063E+02 -0.86752387578E+01  0.96093970208E+02  0.99297940988E+02  0.10566000000E+00 0.  1.
        994    1    1    2    0    0  0.15199916782E+02 -0.30454259082E+01  0.40615561366E+01  0.17194838856E+03  0.17120000000E+03 0.  0.
        998    1    1    2    0    0  0.82683392809E+01  0.11720664666E+02  0.13998444699E+04  0.13999536705E+04  0.10000000000E+02 0.  1.
</event>
<event>
 5    1  0.1145138E-008  0.3746188E+03  0.7957747E-01  0.3474929E+00
         13   -1    0    0    0    0  0.00000000000E+00  0.00000000000E+00  0.14999999963E+04  0.15000000000E+04  0.10566000000E+00 0.  1.
        994   -1    0    0    0    0 -0.00000000000E+00 -0.00000000000E+00  0.11368683772E-12  0.17120000000E+03  0.17120000000E+03 0.  0.
         13    1    1    2    0    0  0.12586095395E+02  0.38992615877E+02  0.13732305556E+03  0.14330550109E+03  0.10566000000E+00 0.  1.
        994    1    1    2    0    0  0.83275764185E+01  0.68057229897E+00  0.71122501623E+01  0.17155126292E+03  0.17120000000E+03 0.  0.
        998    1    1    2    0    0 -0.20913671814E+02 -0.39673188176E+02  0.13555646906E+04  0.13563432360E+04  0.10000000000E+02 0.  1.
</event>
<event>
 5    1  0.2323867E-008  0.3863808E+03  0.7957747E-01  0.3423837E+00
         13   -1    0    0    0    0  0.00000000000E+00  0.00000000000E+00  0.14999999963E+04  0.15000000000E+04  0.10566000000E+00 0. -1.
        994   -1    0    0    0    0 -0.00000000000E+00 -0.00000000000E+00  0.11368683772E-12  0.17120000000E+03  0.17120000000E+03 0.  0.
         13    1    1    2    0    0 -0.10629449499E+02  0.29286290815E+00  0.59999498272E+02  0.60934570830E+02  0.10566000000E+00 0. -1.
        994    1    1    2    0    0  0.89954582571E+01 -0.46053607945E+00  0.12118227754E+01  0.17144106532E+03  0.17120000000E+03 0.  0.
        998    1    1    2    0    0  0.16339912417E+01  0.16767317130E+00  0.14387886752E+04  0.14388243639E+04  0.10000000000E+02 0. -1.
</event>
<event>
 5    1  0.1145138E-008  0.3802899E+03  0.7957747E-01  0.3449897E+00
         13   -1    0    0    0    0  0.00000000000E+00  0.00000000000E+00  0.14999999963E+04  0.15000000000E+04  0.10566000000E+00 0. -1.
        994   -1    0    0    0    0 -0.00000000000E+00 -0.00000000000E+00  0.11368683772E-12  0.17120000000E+03  0.17120000000E+03 0.  0.
         13    1    1    2    0    0  0.21751269875E+02  0.23976827710E+02  0.15981874278E+03  0.16306455076E+03  0.10566000000E+00 0. -1.
        994    1    1    2    0    0  0.37919403013E+02 -0.23351717894E+02  0.10638707074E+02  0.17721683312E+03  0.17120000000E+03 0.  0.
        998    1    1    2    0    0 -0.59670672888E+02 -0.62510981550E+00  0.13295425464E+04  0.13309186161E+04  0.10000000000E+02 0. -1.
</event>
<event>
 5    1  0.1145138E-008  0.3772867E+03  0.7957747E-01  0.3463058E+00
         13   -1    0    0    0    0  0.00000000000E+00  0.00000000000E+00  0.14999999963E+04  0.15000000000E+04  0.10566000000E+00 0.  1.
        994   -1    0    0    0    0 -0.00000000000E+00 -0.00000000000E+00  0.11368683772E-12  0.17120000000E+03  0.17120000000E+03 0.  0.
         13    1    1    2    0    0  0.12511644837E+03  0.14040287399E+03  0.91403379126E+03  0.93317998018E+03  0.10566000000E+00 0.  1.
        994    1    1    2    0    0 -0.13325048232E+03 -0.13763120998E+03  0.14140326004E+03  0.29326159474E+03  0.17120000000E+03 0.  0.
        998    1    1    2    0    0  0.81340339519E+01 -0.27716640105E+01  0.44456294498E+03  0.44475842508E+03  0.10000000000E+02 0.  0.
</event>
<event>
 5    1  0.1145138E-008  0.3769688E+03  0.7957747E-01  0.3464464E+00
         13   -1    0    0    0    0  0.00000000000E+00  0.00000000000E+00  0.14999999963E+04  0.15000000000E+04  0.10566000000E+00 0. -1.
        994   -1    0    0    0    0 -0.00000000000E+00 -0.00000000000E+00  0.11368683772E-12  0.17120000000E+03  0.17120000000E+03 0.  0.
         13    1    1    2    0    0  0.72880282350E+02 -0.76251127093E+02  0.59750141009E+03  0.60674023780E+03  0.10566000000E+00 0. -1.
        994    1    1    2    0    0 -0.89048098723E+02  0.58898183752E+02  0.45185127008E+02  0.20675999526E+03  0.17120000000E+03 0.  0.
        998    1    1    2    0    0  0.16167816374E+02  0.17352943342E+02  0.85731345918E+03  0.85769976694E+03  0.10000000000E+02 0. -1.
</event>
<event>
 5    1  0.1145138E-008  0.3729052E+03  0.7957747E-01  0.3482645E+00
         13   -1    0    0    0    0  0.00000000000E+00  0.00000000000E+00  0.14999999963E+04  0.15000000000E+04  0.10566000000E+00 0.  1.
        994   -1    0    0    0    0 -0.00000000000E+00 -0.00000000000E+00  0.11368683772E-12  0.17120000000E+03  0.17120000000E+03 0.  0.
         13    1    1    2    0    0  0.42180327049E+02  0.11212579983E+02  0.81201466689E+02  0.92187804488E+02  0.10566000000E+00 0.  1.
        994    1    1    2    0    0  0.10324352493E+02  0.26131283209E+01  0.12883991191E+02  0.17201412129E+03  0.17120000000E+03 0.  0.
        998    1    1    2    0    0 -0.52504679542E+02 -0.13825708304E+02  0.14059145384E+04  0.14069980742E+04  0.10000000000E+02 0.  1.
</event>
<event>
 5    1  0.1145138E-008  0.3854805E+03  0.7957747E-01  0.3427637E+00
         13   -1    0    0    0    0  0.00000000000E+00  0.00000000000E+00  0.14999999963E+04  0.15000000000E+04  0.10566000000E+00 0.  1.
        994   -1    0    0    0    0 -0.00000000000E+00 -0.00000000000E+00  0.11368683772E-12  0.17120000000E+03  0.17120000000E+03 0.  0.
         13    1    1    2    0    0 -0.53525571133E+00 -0.11712392995E+02  0.49132241943E+02  0.50511929390E+02  0.10566000000E+00 0.  1.
        994    1    1    2    0    0  0.38892936515E+01  0.92721847428E+01  0.17238000809E+01  0.17150367781E+03  0.17120000000E+03 0.  0.
        998    1    1    2    0    0 -0.33540379402E+01  0.24402082518E+01  0.14491439543E+04  0.14491843928E+04  0.10000000000E+02 0.  1.
</event>
<event>
 5    1  0.1145138E-008  0.3781381E+03  0.7957747E-01  0.3459306E+00
         13   -1    0    0    0    0  0.00000000000E+00  0.00000000000E+00  0.14999999963E+04  0.15000000000E+04  0.10566000000E+00 0. -1.
        994   -1    0    0    0    0 -0.00000000000E+00 -0.00000000000E+00  0.11368683772E-12  0.17120000000E+03  0.17120000000E+03 0.  0.
         13    1    1    2    0    0  0.49987911350E+02  0.61037977439E+02  0.46604256010E+03  0.47267335969E+03  0.10566000000E+00 0. -1.
        994    1    1    2    0    0 -0.21270914342E+02 -0.76607036349E+02  0.26641197453E+02  0.19063127555E+03  0.17120000000E+03 0.  0.
        998    1    1    2    0    0 -0.28716997008E+02  0.15569058910E+02  0.10073162387E+04  0.10078953648E+04  0.10000000000E+02 0. -1.
</event>
<event>
 5    1  0.1145138E-008  0.3848835E+03  0.7957747E-01  0.3430166E+00
         13   -1    0    0    0    0  0.00000000000E+00  0.00000000000E+00  0.14999999963E+04  0.15000000000E+04  0.10566000000E+00 0. -1.
        994   -1    0    0    0    0 -0.00000000000E+00 -0.00000000000E+00  0.11368683772E-12  0.17120000000E+03  0.17120000000E+03 0.  0.
         13    1    1    2    0    0  0.15050841053E+02 -0.50456316427E+01  0.75166417387E+02  0.76824395096E+02  0.10566000000E+00 0. -1.
        994    1    1    2    0    0 -0.80236559137E+01  0.52034827573E+01  0.19889029537E+01  0.17147842728E+03  0.17120000000E+03 0.  0.
        998    1    1    2    0    0 -0.70271851397E+01 -0.15785111466E+00  0.14228446759E+04  0.14228971776E+04  0.10000000000E+02 0. -1.
</event>
<event>
 5    1  0.1145138E-008  0.3837668E+03  0.7957747E-01  0.3434919E+00
         13   -1    0    0    0    0  0.00000000000E+00  0.00000000000E+00  0.14999999963E+04  0.15000000000E+04  0.10566000000E+00 0.  1.
        994   -1    0    0    0    0 -0.00000000000E+00 -0.00000000000E+00  0.11368683772E-12  0.17120000000E+03  0.17120000000E+03 0.  0.
         13    1    1    2    0    0  0.93485044917E+01 -0.63823486915E+01  0.27643514095E+02  0.29871457055E+02  0.10566000000E+00 0.  1.
        994    1    1    2    0    0 -0.48934160849E+01  0.10533338068E+02  0.26891668773E+01  0.17161459247E+03  0.17120000000E+03 0.  0.
        998    1    1    2    0    0 -0.44550884068E+01 -0.41509893769E+01  0.14696673153E+04  0.14697139505E+04  0.10000000000E+02 0.  1.
</event>
<event>
 5    1  0.1145138E-008  0.3849519E+03  0.7957747E-01  0.3429876E+00
         13   -1    0    0    0    0  0.00000000000E+00  0.00000000000E+00  0.14999999963E+04  0.15000000000E+04  0.10566000000E+00 0. -1.
        994   -1    0    0    0    0 -0.00000000000E+00 -0.00000000000E+00  0.11368683772E-12  0.17120000000E+03  0.17120000000E+03 0.  0.
         13    1    1    2    0    0  0.11251455036E+02 -0.93969040450E+01  0.63580952345E+02  0.65249105060E+02  0.10566000000E+00 0. -1.
        994    1    1    2    0    0 -0.76501179902E+01  0.11295484441E+02  0.22664367650E+01  0.17175764615E+03  0.17120000000E+03 0.  0.
        998    1    1    2    0    0 -0.36013370461E+01 -0.18985803962E+01  0.14341526072E+04  0.14341932488E+04  0.10000000000E+02 0. -1.
</event>
<event>
 5    1  0.1145138E-008  0.3816038E+03  0.7957747E-01  0.3444205E+00
         13   -1    0    0    0    0  0.00000000000E+00  0.00000000000E+00  0.14999999963E+04  0.15000000000E+04  0.10566000000E+00 0. -1.
        994   -1    0    0    0    0 -0.00000000000E+00 -0.00000000000E+00  0.11368683772E-12  0.17120000000E+03  0.17120000000E+03 0.  0.
         13    1    1    2    0    0  0.33243934695E+02 -0.58703605595E+01  0.15649582205E+03  0.16009551465E+03  0.10566000000E+00 0. -1.
        994    1    1    2    0    0 -0.26294951283E+02  0.49538751396E+02  0.13857031859E+02  0.18068472455E+03  0.17120000000E+03 0.  0.
        998    1    1    2    0    0 -0.69489834112E+01 -0.43668390836E+02  0.13296471424E+04  0.13304197608E+04  0.10000000000E+02 0. -1.
</event>
<event>
 5    1  0.1145138E-008  0.3822705E+03  0.7957747E-01  0.3441331E+00
         13   -1    0    0    0    0  0.00000000000E+00  0.00000000000E+00  0.14999999963E+04  0.15000000000E+04  0.10566000000E+00 0. -1.
        994   -1    0    0    0    0 -0.00000000000E+00 -0.00000000000E+00  0.11368683772E-12  0.17120000000E+03  0.17120000000E+03 0.  0.
         13    1    1    2    0    0 -0.96593596979E+01 -0.66867526116E+01  0.20877505496E+02  0.23956153490E+02  0.10566000000E+00 0. -1.
        994    1    1    2    0    0  0.18524477861E+02  0.15884456143E+02  0.49696717410E+01  0.17300176260E+03  0.17120000000E+03 0.  0.
        998    1    1    2    0    0 -0.88651181626E+01 -0.91977035314E+01  0.14741528190E+04  0.14742420839E+04  0.10000000000E+02 0. -1.
</event>
<event>
 5    1  0.1145138E-008  0.3733119E+03  0.7957747E-01  0.3480807E+00
         13   -1    0    0    0    0  0.00000000000E+00  0.00000000000E+00  0.14999999963E+04  0.15000000000E+04  0.10566000000E+00 0. -1.
        994   -1    0    0    0    0 -0.00000000000E+00 -0.00000000000E+00  0.11368683772E-12  0.17120000000E+03  0.17120000000E+03 0.  0.
         13    1    1    2    0    0 -0.72691256480E+02 -0.15595973906E+03  0.74557178043E+03  0.76516975235E+03  0.10566000000E+00 0. -1.
        994    1    1    2    0    0  0.77951080534E+02  0.16237789661E+03  0.12811372869E+03  0.27958097171E+03  0.17120000000E+03 0.  0.
        998    1    1    2    0    0 -0.52598240542E+01 -0.64181575582E+01  0.62631448716E+03  0.62644927594E+03  0.10000000000E+02 0. -1.
</event>
<event>
 5    1  0.1145138E-008  0.3858993E+03  0.7957747E-01  0.3425867E+00
         13   -1    0    0    0    0  0.00000000000E+00  0.00000000000E+00  0.14999999963E+04  0.15000000000E+04  0.10566000000E+00 0.  1.
        994   -1    0    0    0    0 -0.00000000000E+00 -0.00000000000E+00  0.11368683772E-12  0.17120000000E+03  0.17120000000E+03 0.  0.
         13    1    1    2    0    0 -0.56143277997E+01 -0.13479100203E+02  0.86967542260E+02  0.88184870526E+02  0.10566000000E+00 0.  1.
        994    1    1    2    0    0  0.51726249679E+01  0.13763944186E+02  0.18935589972E+01  0.17184070465E+03  0.17120000000E+03 0.  0.
        998    1    1    2    0    0  0.44170283184E+00 -0.28484398334E+00  0.14111388950E+04  0.14111744248E+04  0.10000000000E+02 0.  1.
</event>
<event>
 5    1  0.1145138E-008  0.3834659E+03  0.7957747E-01  0.3436205E+00
         13   -1    0    0    0    0  0.00000000000E+00  0.00000000000E+00  0.14999999963E+04  0.15000000000E+04  0.10566000000E+00 0. -1.
        994   -1    0    0    0    0 -0.00000000000E+00 -0.00000000000E+00  0.11368683772E-12  0.17120000000E+03  0.17120000000E+03 0.  0.
         13    1    1    2    0    0 -0.43340766020E+02  0.21924989772E+02  0.59479464949E+02  0.76791569136E+02  0.10566000000E+00 0. -1.
        994    1    1    2    0    0  0.28407262309E+02 -0.10396663787E+01  0.21215419599E+02  0.17483588730E+03  0.17120000000E+03 0.  0.
        998    1    1    2    0    0  0.14933503711E+02 -0.20885323393E+02  0.14193051117E+04  0.14195725436E+04  0.10000000000E+02 0. -1.
</event>
<event>
 5    1  0.1145138E-008  0.3844886E+03  0.7957747E-01  0.3431844E+00
         13   -1    0    0    0    0  0.00000000000E+00  0.00000000000E+00  0.14999999963E+04  0.15000000000E+04  0.10566000000E+00 0. -1.
        994   -1    0    0    0    0 -0.00000000000E+00 -0.00000000000E+00  0.11368683772E-12  0.17120000000E+03  0.17120000000E+03 0.  0.
         13    1    1    2    0    0 -0.23436563597E+02  0.12324104283E+02  0.15338616157E+03  0.15565500887E+03  0.10566000000E+00 0. -1.
        994    1    1    2    0    0  0.68832954088E+02  0.33589905090E+02  0.21453447082E+02  0.18877485978E+03  0.17120000000E+03 0.  0.
        998    1    1    2    0    0 -0.45396390491E+02 -0.45914009373E+02  0.13251603876E+04  0.13267701314E+04  0.10000000000E+02 0. -1.
</event>
<event>
 5    1  0.1145138E-008  0.3720114E+03  0.7957747E-01  0.3486698E+00
         13   -1    0    0    0    0  0.00000000000E+00  0.00000000000E+00  0.14999999963E+04  0.15000000000E+04  0.10566000000E+00 0.  1.
        994   -1    0    0    0    0 -0.00000000000E+00 -0.00000000000E+00  0.11368683772E-12  0.17120000000E+03  0.17120000000E+03 0.  0.
         13    1    1    2    0    0 -0.33980297275E+02 -0.51601433919E+02  0.18945094599E+03  0.19927127411E+03  0.10566000000E+00 0.  1.
        994    1    1    2    0    0  0.36225140259E+02  0.63188712604E+02  0.26664306321E+02  0.18795078989E+03  0.17120000000E+03 0.  0.
        998    1    1    2    0    0 -0.22448429837E+01 -0.11587278685E+02  0.12838847440E+04  0.12839779360E+04  0.10000000000E+02 0. -1.
</event>
<event>
 5    1  0.1145138E-008  0.3809516E+03  0.7957747E-01  0.3447026E+00
         13   -1    0    0    0    0  0.00000000000E+00  0.00000000000E+00  0.14999999963E+04  0.15000000000E+04  0.10566000000E+00 0. -1.
        994   -1    0    0    0    0 -0.00000000000E+00 -0.00000000000E+00  0.11368683772E-12  0.17120000000E+03  0.17120000000E+03 0.  0.
         13    1    1    2    0    0  0.16397444212E+02  0.20671649531E+02  0.99974661652E+02  0.10339795650E+03  0.10566000000E+00 0. -1.
        994    1    1    2    0    0 -0.64054025342E+01 -0.13032347140E+01  0.37959700191E+01  0.17136679080E+03  0.17120000000E+03 0.  0.
        998    1    1    2    0    0 -0.99920416778E+01 -0.19368414817E+02  0.13962293646E+04  0.13964352527E+04  0.10000000000E+02 0. -1.
</event>
<event>
 5    1  0.1145138E-008  0.3856201E+03  0.7957747E-01  0.3427047E+00
         13   -1    0    0    0    0  0.00000000000E+00  0.00000000000E+00  0.14999999963E+04  0.15000000000E+04  0.10566000000E+00 0. -1.
        994   -1    0    0    0    0 -0.00000000000E+00 -0.00000000000E+00  0.11368683772E-12  0.17120000000E+03  0.17120000000E+03 0.  0.
         13    1    1    2    0    0  0.43965141689E+01  0.15747880150E+02  0.97122419909E+02  0.98489089137E+02  0.10566000000E+00 0. -1.
        994    1    1    2    0    0 -0.10561011846E+02 -0.13632441242E+02  0.22992084586E+01  0.17208168056E+03  0.17120000000E+03 0.  0.
        998    1    1    2    0    0  0.61644976768E+01 -0.21154389075E+01  0.14005783679E+04  0.14006292303E+04  0.10000000000E+02 0. -1.
</event>
<event>
 5    1  0.1145138E-008  0.3824768E+03  0.7957747E-01  0.3440444E+00
         13   -1    0    0    0    0  0.00000000000E+00  0.00000000000E+00  0.14999999963E+04  0.15000000000E+04  0.10566000000E+00 0. -1.
        994   -1    0    0    0    0 -0.00000000000E+00 -0.00000000000E+00  0.11368683772E-12  0.17120000000E+03  0.17120000000E+03 0.  0.
         13    1    1    2    0    0  0.39396190402E+01  0.11658482213E+02  0.23870018306E+02  0.26855720874E+02  0.10566000000E+00 0. -1.
        994    1    1    2    0    0 -0.18849428234E+02 -0.19777040463E+02  0.53670202777E+01  0.17344935048E+03  0.17120000000E+03 0.  0.
        998    1    1    2    0    0  0.14909809194E+02  0.81185582501E+01  0.14707629577E+04  0.14708949286E+04  0.10000000000E+02 0. -1.
</event>
<event>
 5    1  0.1145138E-008  0.3848739E+03  0.7957747E-01  0.3430207E+00
         13   -1    0    0    0    0  0.00000000000E+00  0.00000000000E+00  0.14999999963E+04  0.15000000000E+04  0.10566000000E+00 0. -1.
        994   -1    0    0    0    0 -0.00000000000E+00 -0.00000000000E+00  0.11368683772E-12  0.17120000000E+03  0.17120000000E+03 0.  0.
         13    1    1    2    0    0  0.11053830458E+02 -0.52481032495E+01  0.42302693691E+02  0.44037016396E+02  0.10566000000E+00 0. -1.
        994    1    1    2    0    0 -0.14822086222E+02  0.68868995728E+01  0.25720960172E+01  0.17199761424E+03  0.17120000000E+03 0.  0.
        998    1    1    2    0    0  0.37682557643E+01 -0.16387963233E+01  0.14551252066E+04  0.14551653694E+04  0.10000000000E+02 0. -1.
</event>
<event>
 5    1  0.1145138E-008  0.3844355E+03  0.7957747E-01  0.3432070E+00
         13   -1    0    0    0    0  0.00000000000E+00  0.00000000000E+00  0.14999999963E+04  0.15000000000E+04  0.10566000000E+00 0. -1.
        994   -1    0    0    0    0 -0.00000000000E+00 -0.00000000000E+00  0.11368683772E-12  0.17120000000E+03  0.17120000000E+03 0.  0.
         13    1    1    2    0    0 -0.13666281321E+02 -0.10930068398E+02  0.77284571574E+02  0.79241086614E+02  0.10566000000E+00 0. -1.
        994    1    1    2    0    0  0.13321274437E+02  0.97779412764E+01  0.28108531360E+01  0.17201861929E+03  0.17120000000E+03 0.  0.
        998    1    1    2    0    0  0.34500688385E+00  0.11521271219E+01  0.14199045716E+04  0.14199402941E+04  0.10000000000E+02 0.  0.
</event>
<event>
 5    1  0.1145138E-008  0.3847183E+03  0.7957747E-01  0.3430868E+00
         13   -1    0    0    0    0  0.00000000000E+00  0.00000000000E+00  0.14999999963E+04  0.15000000000E+04  0.10566000000E+00 0.  1.
        994   -1    0    0    0    0 -0.00000000000E+00 -0.00000000000E+00  0.11368683772E-12  0.17120000000E+03  0.17120000000E+03 0.  0.
         13    1    1    2    0    0  0.11049449254E+02  0.77442823111E+01  0.49336223728E+02  0.51148200096E+02  0.10566000000E+00 0.  1.
        994    1    1    2    0    0 -0.15233941270E+02 -0.64231899148E+01  0.26703043587E+01  0.17201715281E+03  0.17120000000E+03 0.  0.
        998    1    1    2    0    0  0.41844920168E+01 -0.13210923962E+01  0.14479934682E+04  0.14480346471E+04  0.10000000000E+02 0.  1.
</event>
<event>
 5    1  0.1145138E-008  0.3760725E+03  0.7957747E-01  0.3468440E+00
         13   -1    0    0    0    0  0.00000000000E+00  0.00000000000E+00  0.14999999963E+04  0.15000000000E+04  0.10566000000E+00 0.  1.
        994   -1    0    0    0    0 -0.00000000000E+00 -0.00000000000E+00  0.11368683772E-12  0.17120000000E+03  0.17120000000E+03 0.  0.
         13    1    1    2    0    0 -0.32771563854E+02  0.30600371684E+02  0.64063934636E+02  0.78195633060E+02  0.10566000000E+00 0.  1.
        994    1    1    2    0    0  0.38949754461E+02 -0.16201077178E+02  0.20570327461E+02  0.17751658133E+03  0.17120000000E+03 0.  0.
        998    1    1    2    0    0 -0.61781906065E+01 -0.14399294506E+02  0.14153657342E+04  0.14154877856E+04  0.10000000000E+02 0.  1.
</event>
<event>
 5    1  0.1145138E-008  0.3748230E+03  0.7957747E-01  0.3474015E+00
         13   -1    0    0    0    0  0.00000000000E+00  0.00000000000E+00  0.14999999963E+04  0.15000000000E+04  0.10566000000E+00 0.  1.
        994   -1    0    0    0    0 -0.00000000000E+00 -0.00000000000E+00  0.11368683772E-12  0.17120000000E+03  0.17120000000E+03 0.  0.
         13    1    1    2    0    0  0.32834310540E+02  0.12580721163E+02  0.39213456746E+02  0.52669467889E+02  0.10566000000E+00 0.  1.
        994    1    1    2    0    0 -0.33578510272E+02 -0.17012863550E+02  0.18567803618E+02  0.17627012569E+03  0.17120000000E+03 0.  0.
        998    1    1    2    0    0  0.74419973203E+00  0.44321423864E+01  0.14422187359E+04  0.14422604064E+04  0.10000000000E+02 0.  1.
</event>
<event>
 5    1  0.1145138E-008  0.3710507E+03  0.7957747E-01  0.3491076E+00
         13   -1    0    0    0    0  0.00000000000E+00  0.00000000000E+00  0.14999999963E+04  0.15000000000E+04  0.10566000000E+00 0.  1.
        994   -1    0    0    0    0 -0.00000000000E+00 -0.00000000000E+00  0.11368683772E-12  0.17120000000E+03  0.17120000000E+03 0.  0.
         13    1    1    2    0    0  0.31656940361E+02 -0.14368167086E+02  0.63046446800E+02  0.71996331271E+02  0.10566000000E+00 0.  1.
        994    1    1    2    0    0 -0.32474575732E+02  0.18280266488E+02  0.13520556855E+02  0.17572993959E+03  0.17120000000E+03 0.  0.
        998    1    1    2    0    0  0.81763537138E+00 -0.39120994025E+01  0.14234329926E+04  0.14234737291E+04  0.10000000000E+02 0.  1.
</event>
<event>
 5    1  0.1145138E-008  0.3851358E+03  0.7957747E-01  0.3429097E+00
         13   -1    0    0    0    0  0.00000000000E+00  0.00000000000E+00  0.14999999963E+04  0.15000000000E+04  0.10566000000E+00 0. -1.
        994   -1    0    0    0    0 -0.00000000000E+00 -0.00000000000E+00  0.11368683772E-12  0.17120000000E+03  0.17120000000E+03 0.  0.
         13    1    1    2    0    0 -0.94867196431E+01  0.49327279269E+01  0.34997201213E+02  0.36594328948E+02  0.10566000000E+00 0. -1.
        994    1    1    2    0    0  0.12529031360E+02 -0.10319395805E+02  0.24292997737E+01  0.17198490647E+03  0.17120000000E+03 0.  0.
        998    1    1    2    0    0 -0.30423117164E+01  0.53866678779E+01  0.14625734953E+04  0.14626207646E+04  0.10000000000E+02 0. -1.
</event>
<event>
 5    1  0.1145138E-008  0.3814486E+03  0.7957747E-01  0.3444875E+00
         13   -1    0    0    0    0  0.00000000000E+00  0.00000000000E+00  0.14999999963E+04  0.15000000000E+04  0.10566000000E+00 0. -1.
        994   -1    0    0    0    0 -0.00000000000E+00 -0.00000000000E+00  0.11368683772E-12  0.17120000000E+03  0.17120000000E+03 0.  0.
         13    1    1    2    0    0 -0.26253299088E+02  0.31386635116E+01  0.11187294398E+03  0.11495500720E+03  0.10566000000E+00 0. -1.
        994    1    1    2    0    0  0.14998203548E+01  0.11085187269E+02  0.38201169845E+01  0.17160758763E+03  0.17120000000E+03 0.  0.
        998    1    1    2    0    0  0.24753478733E+02 -0.14223850780E+02  0.13843069353E+04  0.13846374052E+04  0.10000000000E+02 0. -1.
</event>
<event>
 5    1  0.1145138E-008  0.3818328E+03  0.7957747E-01  0.3443217E+00
         13   -1    0    0    0    0  0.00000000000E+00  0.00000000000E+00  0.14999999963E+04  0.15000000000E+04  0.10566000000E+00 0. -1.
        994   -1    0    0    0    0 -0.00000000000E+00 -0.00000000000E+00  0.11368683772E-12  0.17120000000E+03  0.17120000000E+03 0.  0.
         13    1    1    2    0    0 -0.62518641721E+01 -0.12426375615E+02  0.29254027968E+02  0.32393053776E+02  0.10566000000E+00 0. -1.
        994    1    1    2    0    0  0.47887423936E+01  0.44801098963E+01  0.33537094382E+01  0.17135836952E+03  0.17120000000E+03 0.  0.
        998    1    1    2    0    0  0.14631217785E+01  0.79462657190E+01  0.14673922589E+04  0.14674485767E+04  0.10000000000E+02 0. -1.
</event>
<event>
 5    1  0.1145138E-008  0.3840072E+03  0.7957747E-01  0.3433894E+00
         13   -1    0    0    0    0  0.00000000000E+00  0.00000000000E+00  0.14999999963E+04  0.15000000000E+04  0.10566000000E+00 0.  1.
        994   -1    0    0    0    0 -0.00000000000E+00 -0.00000000000E+00  0.11368683772E-12  0.17120000000E+03  0.17120000000E+03 0.  0.
         13    1    1    2    0    0 -0.71854922392E+01 -0.21646008507E+02  0.11665227693E+03  0.11886103592E+03  0.10566000000E+00 0.  1.
        994    1    1    2    0    0  0.16186139814E+02  0.15998963178E+02  0.38345854132E+01  0.17274866712E+03  0.17120000000E+03 0.  0.
        998    1    1    2    0    0 -0.90006475752E+01  0.56470453286E+01  0.13795131339E+04  0.13795902970E+04  0.10000000000E+02 0.  1.
</event>
<event>
 5    1  0.1145138E-008  0.3772955E+03  0.7957747E-01  0.3463020E+00
         13   -1    0    0    0    0  0.00000000000E+00  0.00000000000E+00  0.14999999963E+04  0.15000000000E+04  0.10566000000E+00 0. -1.
        994   -1    0    0    0    0 -0.00000000000E+00 -0.00000000000E+00  0.11368683772E-12  0.17120000000E+03  0.17120000000E+03 0.  0.
         13    1    1    2    0    0  0.76005002661E+01  0.15975740640E+02  0.38008566749E+01  0.18095567656E+02  0.10566000000E+00 0. -1.
        994    1    1    2    0    0 -0.10565344108E+02 -0.15092260113E+02  0.16068212715E+02  0.17293649202E+03  0.17120000000E+03 0.  0.
        998    1    1    2    0    0  0.29648438424E+01 -0.88348052721E+00  0.14801309269E+04  0.14801679403E+04  0.10000000000E+02 0. -1.
</event>
<event>
 5    1  0.1145138E-008  0.3847391E+03  0.7957747E-01  0.3430779E+00
         13   -1    0    0    0    0  0.00000000000E+00  0.00000000000E+00  0.14999999963E+04  0.15000000000E+04  0.10566000000E+00 0. -1.
        994   -1    0    0    0    0 -0.00000000000E+00 -0.00000000000E+00  0.11368683772E-12  0.17120000000E+03  0.17120000000E+03 0.  0.
         13    1    1    2    0    0  0.11492821346E+02  0.51185743730E+01  0.44293523999E+02  0.46045761785E+02  0.10566000000E+00 0. -1.
        994    1    1    2    0    0 -0.11632724254E+02  0.19019847876E+00  0.22053673896E+01  0.17160903267E+03  0.17120000000E+03 0.  0.
        998    1    1    2    0    0  0.13990290780E+00 -0.53087728517E+01  0.14535011049E+04  0.14535452055E+04  0.10000000000E+02 0. -1.
</event>
<event>
 5    1  0.1145138E-008  0.3715889E+03  0.7957747E-01  0.3488620E+00
         13   -1    0    0    0    0  0.00000000000E+00  0.00000000000E+00  0.14999999963E+04  0.15000000000E+04  0.10566000000E+00 0. -1.
        994   -1    0    0    0    0 -0.00000000000E+00 -0.00000000000E+00  0.11368683772E-12  0.17120000000E+03  0.17120000000E+03 0.  0.
         13    1    1    2    0    0  0.19664894745E+02 -0.77158649408E+01  0.23460965316E+02  0.31570092092E+02  0.10566000000E+00 0. -1.
        994    1    1    2    0    0 -0.17870352721E+01  0.71606990153E+01  0.86282444222E+01  0.17157609305E+03  0.17120000000E+03 0.  0.
        998    1    1    2    0    0 -0.17877859473E+02  0.55516592556E+00  0.14679107865E+04  0.14680538149E+04  0.10000000000E+02 0. -1.
</event>
<event>
 5    1  0.1145138E-008  0.3738731E+03  0.7957747E-01  0.3478278E+00
         13   -1    0    0    0    0  0.00000000000E+00  0.00000000000E+00  0.14999999963E+04  0.15000000000E+04  0.10566000000E+00 0.  1.
        994   -1    0    0    0    0 -0.00000000000E+00 -0.00000000000E+00  0.11368683772E-12  0.17120000000E+03  0.17120000000E+03 0.  0.
         13    1    1    2    0    0 -0.25805332103E+02 -0.10839268861E+02  0.49015467657E+02  0.56444062115E+02  0.10566000000E+00 0.  1.
        994    1    1    2    0    0  0.29994519306E+02  0.11925821013E+02  0.10821955555E+02  0.17455214441E+03  0.17120000000E+03 0.  0.
        998    1    1    2    0    0 -0.41891872030E+01 -0.10865521515E+01  0.14401625731E+04  0.14402037935E+04  0.10000000000E+02 0.  1.
</event>
<event>
 5    1  0.1145138E-008  0.3814298E+03  0.7957747E-01  0.3444957E+00
         13   -1    0    0    0    0  0.00000000000E+00  0.00000000000E+00  0.14999999963E+04  0.15000000000E+04  0.10566000000E+00 0.  1.
        994   -1    0    0    0    0 -0.00000000000E+00 -0.00000000000E+00  0.11368683772E-12  0.17120000000E+03  0.17120000000E+03 0.  0.
         13    1    1    2    0    0  0.14609231757E+02  0.84645416388E+01  0.38428515270E+02  0.41974278643E+02  0.10566000000E+00 0.  1.
        994    1    1    2    0    0 -0.24134616143E+02 -0.99957217044E+01  0.56869220561E+01  0.17327485458E+03  0.17120000000E+03 0.  0.
        998    1    1    2    0    0  0.95253843863E+01  0.15311800656E+01  0.14558845590E+04  0.14559508668E+04  0.10000000000E+02 0.  1.
</event>
<event>
 5    1  0.1145138E-008  0.3808921E+03  0.7957747E-01  0.3447283E+00
         13   -1    0    0    0    0  0.00000000000E+00  0.00000000000E+00  0.14999999963E+04  0.15000000000E+04  0.10566000000E+00 0.  1.
        994   -1    0    0    0    0 -0.00000000000E+00 -0.00000000000E+00  0.11368683772E-12  0.17120000000E+03  0.17120000000E+03 0.  0.
         13    1    1    2    0    0 -0.27212658601E+01  0.10453803393E+02  0.14246590019E+02  0.17879143840E+02  0.10566000000E+00 0.  1.
        994    1    1    2    0    0  0.27151172840E+01 -0.80119925292E+01  0.39220475957E+01  0.17145374403E+03  0.17120000000E+03 0.  0.
        998    1    1    2    0    0  0.61485760751E-02 -0.24418108635E+01  0.14818313587E+04  0.14818671121E+04  0.10000000000E+02 0.  1.
</event>
<event>
 5    1  0.1572985E-008  0.3858633E+03  0.7957747E-01  0.3426019E+00
         13   -1    0    0    0    0  0.00000000000E+00  0.00000000000E+00  0.14999999963E+04  0.15000000000E+04  0.10566000000E+00 0. -1.
        994   -1    0    0    0    0 -0.00000000000E+00 -0.00000000000E+00  0.11368683772E-12  0.17120000000E+03  0.17120000000E+03 0.  0.
         13    1    1    2    0    0 -0.10391111713E+02 -0.16264124283E+01  0.46173143402E+02  0.47356000208E+02  0.10566000000E+00 0. -1.
        994    1    1    2    0    0  0.83929455341E+01 -0.17777408055E+01  0.14435448529E+01  0.17142090222E+03  0.17120000000E+03 0.  0.
        998    1    1    2    0    0  0.19981661790E+01  0.34041532337E+01  0.14523833080E+04  0.14524230976E+04  0.10000000000E+02 0. -1.
</event>
<event>
 5    1  0.1145138E-008  0.3828022E+03  0.7957747E-01  0.3439047E+00
         13   -1    0    0    0    0  0.00000000000E+00  0.00000000000E+00  0.14999999963E+04  0.15000000000E+04  0.10566000000E+00 0.  1.
        994   -1    0    0    0    0 -0.00000000000E+00 -0.00000000000E+00  0.11368683772E-12  0.17120000000E+03  0.17120000000E+03 0.  0.
         13    1    1    2    0    0  0.12236469874E+02  0.25601789954E+02  0.16149450640E+03  0.16396850187E+03  0.10566000000E+00 0.  1.
        994    1    1    2    0    0  0.22846434298E+01 -0.68876876975E+01  0.28997126591E+01  0.17137826050E+03  0.17120000000E+03 0.  0.
        998    1    1    2    0    0 -0.14521113304E+02 -0.18714102256E+02  0.13356057772E+04  0.13358532376E+04  0.10000000000E+02 0.  1.
</event>
<event>
 5    1  0.1145138E-008  0.3859269E+03  0.7957747E-01  0.3425751E+00
         13   -1    0    0    0    0  0.00000000000E+00  0.00000000000E+00  0.14999999963E+04  0.15000000000E+04  0.10566000000E+00 0.  1.
        994   -1    0    0    0    0 -0.00000000000E+00 -0.00000000000E+00  0.11368683772E-12  0.17120000000E+03  0.17120000000E+03 0.  0.
         13    1    1    2    0    0 -0.11460552417E+02 -0.66010829601E+01  0.76046026808E+02  0.77187615038E+02  0.10566000000E+00 0.  1.
        994    1    1    2    0    0  0.39874482589E+01  0.88116756111E+01  0.14774333848E+01  0.17147935205E+03  0.17120000000E+03 0.  0.
        998    1    1    2    0    0  0.74731041585E+01 -0.22105926510E+01  0.14224765361E+04  0.14225330329E+04  0.10000000000E+02 0.  1.
</event>
<event>
 5    1  0.1145138E-008  0.3861956E+03  0.7957747E-01  0.3424617E+00
         13   -1    0    0    0    0  0.00000000000E+00  0.00000000000E+00  0.14999999963E+04  0.15000000000E+04  0.10566000000E+00 0. -1.
        994   -1    0    0    0    0 -0.00000000000E+00 -0.00000000000E+00  0.11368683772E-12  0.17120000000E+03  0.17120000000E+03 0.  0.
         13    1    1    2    0    0  0.22590636310E+02  0.18741418735E+02  0.13293831598E+02  0.32222891672E+02  0.10566000000E+00 0. -1.
        994    1    1    2    0    0 -0.22332810490E+02 -0.19054227921E+02  0.22974864677E+02  0.17521159332E+03  0.17120000000E+03 0.  0.
        998    1    1    2    0    0 -0.25782581970E+00  0.31280918603E+00  0.14637313000E+04  0.14637655150E+04  0.10000000000E+02 0. -1.
</event>
<event>
 5    1  0.1145138E-008  0.3815850E+03  0.7957747E-01  0.3444286E+00
         13   -1    0    0    0    0  0.00000000000E+00  0.00000000000E+00  0.14999999963E+04  0.15000000000E+04  0.10566000000E+00 0. -1.
        994   -1    0    0    0    0 -0.00000000000E+00 -0.00000000000E+00  0.11368683772E-12  0.17120000000E+03  0.17120000000E+03 0.  0.
         13    1    1    2    0    0  0.13730251166E+03 -0.17026623225E+03  0.11986332571E+04  0.12184269636E+04  0.10566000000E+00 0. -1.
        994    1    1    2    0    0 -0.12890369553E+03  0.16822119735E+03  0.17083132957E+03  0.32157008120E+03  0.17120000000E+03 0.  0.
        998    1    1    2    0    0 -0.83988161369E+01  0.20450348940E+01  0.13053540962E+03  0.13120295517E+03  0.10000000000E+02 0.  0.
</event>
<event>
 5    1  0.1145138E-008  0.3812326E+03  0.7957747E-01  0.3445809E+00
         13   -1    0    0    0    0  0.00000000000E+00  0.00000000000E+00  0.14999999963E+04  0.15000000000E+04  0.10566000000E+00 0. -1.
        994   -1    0    0    0    0 -0.00000000000E+00 -0.00000000000E+00  0.11368683772E-12  0.17120000000E+03  0.17120000000E+03 0.  0.
         13    1    1    2    0    0  0.14896972423E+02 -0.45740187308E+02  0.28518858602E+03  0.28921726311E+03  0.10566000000E+00 0. -1.
        994    1    1    2    0    0  0.15821878815E+02  0.51638949441E+02  0.13285292051E+02  0.18000792186E+03  0.17120000000E+03 0.  0.
        998    1    1    2    0    0 -0.30718851238E+02 -0.58987621333E+01  0.12015261182E+04  0.12019748150E+04  0.10000000000E+02 0. -1.
</event>
<event>
 5    1  0.1145138E-008  0.3725375E+03  0.7957747E-01  0.3484310E+00
         13   -1    0    0    0    0  0.00000000000E+00  0.00000000000E+00  0.14999999963E+04  0.15000000000E+04  0.10566000000E+00 0.  1.
        994   -1    0    0    0    0 -0.00000000000E+00 -0.00000000000E+00  0.11368683772E-12  0.17120000000E+03  0.17120000000E+03 0.  0.
         13    1    1    2    0    0 -0.92172702445E+02 -0.12882505523E+02  0.50806861670E+03  0.51652250334E+03  0.10566000000E+00 0.  1.
        994    1    1    2    0    0  0.10375883246E+02  0.98835580447E+01  0.13011506328E+02  0.17229069322E+03  0.17120000000E+03 0.  0.
        998    1    1    2    0    0  0.81796819199E+02  0.29989474782E+01  0.97891987325E+03  0.98238680344E+03  0.10000000000E+02 0.  1.
</event>
<event>
 5    1  0.1145138E-008  0.3824674E+03  0.7957747E-01  0.3440485E+00
         13   -1    0    0    0    0  0.00000000000E+00  0.00000000000E+00  0.14999999963E+04  0.15000000000E+04  0.10566000000E+00 0.  1.
        994   -1    0    0    0    0 -0.00000000000E+00 -0.00000000000E+00  0.11368683772E-12  0.17120000000E+03  0.17120000000E+03 0.  0.
         13    1    1    2    0    0 -0.21606973984E+02 -0.17022065915E+02  0.13722005055E+03  0.13994986777E+03  0.10566000000E+00 0.  1.
        994    1    1    2    0    0  0.15244396802E+02 -0.46806071735E+01  0.37364524035E+01  0.17198168738E+03  0.17120000000E+03 0.  0.
        998    1    1    2    0    0  0.63625771822E+01  0.21702673089E+02  0.13590434933E+04  0.13592684448E+04  0.10000000000E+02 0.  1.
</event>
<event>
 5    1  0.1145138E-008  0.2708778E+03  0.7957747E-01  0.4128699E+00
         13   -1    0    0    0    0  0.00000000000E+00  0.00000000000E+00  0.14999999963E+04  0.15000000000E+04  0.10566000000E+00 0. -1.
        994   -1    0    0    0    0 -0.00000000000E+00 -0.00000000000E+00  0.11368683772E-12  0.17120000000E+03  0.17120000000E+03 0.  0.
         13    1    1    2    0    0 -0.24986410748E+01  0.17275680085E+03  0.45777029703E+03  0.48929010970E+03  0.10566000000E+00 0. -1.
        994    1    1    2    0    0 -0.19099445514E+02 -0.16525776190E+03  0.13481517924E+03  0.27415231029E+03  0.17120000000E+03 0.  0.
        998    1    1    2    0    0  0.21598086589E+02 -0.74990389516E+01  0.90741452001E+03  0.90775758000E+03  0.10000000000E+02 0. -1.
</event>
<event>
 5    1  0.1145138E-008  0.3858118E+03  0.7957747E-01  0.3426237E+00
         13   -1    0    0    0    0  0.00000000000E+00  0.00000000000E+00  0.14999999963E+04  0.15000000000E+04  0.10566000000E+00 0. -1.
        994   -1    0    0    0    0 -0.00000000000E+00 -0.00000000000E+00  0.11368683772E-12  0.17120000000E+03  0.17120000000E+03 0.  0.
         13    1    1    2    0    0 -0.15652097885E+01 -0.13189701044E+02  0.71562387120E+02  0.72784644738E+02  0.10566000000E+00 0. -1.
        994    1    1    2    0    0  0.12919127104E+01  0.10387466807E+02  0.15871193134E+01  0.17152704583E+03  0.17120000000E+03 0.  0.
        998    1    1    2    0    0  0.27329707807E+00  0.28022342369E+01  0.14268504898E+04  0.14268883094E+04  0.10000000000E+02 0. -1.
</event>
<event>
 5    1  0.1145138E-008  0.3809855E+03  0.7957747E-01  0.3446879E+00
         13   -1    0    0    0    0  0.00000000000E+00  0.00000000000E+00  0.14999999963E+04  0.15000000000E+04  0.10566000000E+00 0.  1.
        994   -1    0    0    0    0 -0.00000000000E+00 -0.00000000000E+00  0.11368683772E-12  0.17120000000E+03  0.17120000000E+03 0.  0.
         13    1    1    2    0    0 -0.71072664154E+02 -0.46333374045E+02  0.50252552018E+03  0.50963714026E+03  0.10566000000E+00 0.  1.
        994    1    1    2    0    0  0.90351575454E+02  0.51242197454E+02  0.40464467823E+02  0.20429386467E+03  0.17120000000E+03 0.  0.
        998    1    1    2    0    0 -0.19278911300E+02 -0.49088234091E+01  0.95701000828E+03  0.95726899506E+03  0.10000000000E+02 0.  1.
</event>
<event>
 5    1  0.1145138E-008  0.3830876E+03  0.7957747E-01  0.3437824E+00
         13   -1    0    0    0    0  0.00000000000E+00  0.00000000000E+00  0.14999999963E+04  0.15000000000E+04  0.10566000000E+00 0.  1.
        994   -1    0    0    0    0 -0.00000000000E+00 -0.00000000000E+00  0.11368683772E-12  0.17120000000E+03  0.17120000000E+03 0.  0.
         13    1    1    2    0    0 -0.35974495668E+01  0.24813960096E+02  0.11199876326E+03  0.11477111307E+03  0.10566000000E+00 0.  1.
        994    1    1    2    0    0  0.18520351904E+00 -0.27225811501E+02  0.50394804389E+01  0.17342466801E+03  0.17120000000E+03 0.  0.
        998    1    1    2    0    0  0.34122460478E+01  0.24118514048E+01  0.13829617526E+04  0.13830042189E+04  0.10000000000E+02 0.  0.
</event>
<event>
 5    1  0.1145138E-008  0.3805694E+03  0.7957747E-01  0.3448683E+00
         13   -1    0    0    0    0  0.00000000000E+00  0.00000000000E+00  0.14999999963E+04  0.15000000000E+04  0.10566000000E+00 0.  1.
        994   -1    0    0    0    0 -0.00000000000E+00 -0.00000000000E+00  0.11368683772E-12  0.17120000000E+03  0.17120000000E+03 0.  0.
         13    1    1    2    0    0 -0.94436533180E+01  0.33013152006E+02  0.14036190197E+03  0.14450095322E+03  0.10566000000E+00 0.  1.
        994    1    1    2    0    0  0.83796478810E+01 -0.31961252079E+02  0.74973098449E+01  0.17452045665E+03  0.17120000000E+03 0.  0.
        998    1    1    2    0    0  0.10640054370E+01 -0.10518999267E+01  0.13521407845E+04  0.13521785901E+04  0.10000000000E+02 0.  0.
</event>
<event>
 5    1  0.1145138E-008  0.3847305E+03  0.7957747E-01  0.3430816E+00
         13   -1    0    0    0    0  0.00000000000E+00  0.00000000000E+00  0.14999999963E+04  0.15000000000E+04  0.10566000000E+00 0.  1.
        994   -1    0    0    0    0 -0.00000000000E+00 -0.00000000000E+00  0.11368683772E-12  0.17120000000E+03  0.17120000000E+03 0.  0.
         13    1    1    2    0    0  0.19909635160E+02  0.62856292764E+01  0.12119151010E+03  0.12297681079E+03  0.10566000000E+00 0.  1.
        994    1    1    2    0    0 -0.13954940378E+02 -0.64247913567E+01  0.25412229676E+01  0.17190670760E+03  0.17120000000E+03 0.  0.
        998    1    1    2    0    0 -0.59546947819E+01  0.13916208037E+00  0.13762672632E+04  0.13763164816E+04  0.10000000000E+02 0.  1.
</event>
<event>
 5    1  0.1145138E-008  0.3845119E+03  0.7957747E-01  0.3431745E+00
         13   -1    0    0    0    0  0.00000000000E+00  0.00000000000E+00  0.14999999963E+04  0.15000000000E+04  0.10566000000E+00 0.  1.
        994   -1    0    0    0    0 -0.00000000000E+00 -0.00000000000E+00  0.11368683772E-12  0.17120000000E+03  0.17120000000E+03 0.  0.
         13    1    1    2    0    0 -0.84980456593E+00 -0.14493596119E+02  0.58195157463E+02  0.59978946410E+02  0.10566000000E+00 0.  1.
        994    1    1    2    0    0 -0.69538413553E+01  0.33775626619E+01  0.20695222840E+01  0.17138695038E+03  0.17120000000E+03 0.  0.
        998    1    1    2    0    0  0.78036459212E+01  0.11116033457E+02  0.14397353165E+04  0.14398341032E+04  0.10000000000E+02 0.  1.
</event>
<event>
 5    1  0.1145138E-008  0.3684619E+03  0.7957747E-01  0.3502990E+00
         13   -1    0    0    0    0  0.00000000000E+00  0.00000000000E+00  0.14999999963E+04  0.15000000000E+04  0.10566000000E+00 0.  1.
        994   -1    0    0    0    0 -0.00000000000E+00 -0.00000000000E+00  0.11368683772E-12  0.17120000000E+03  0.17120000000E+03 0.  0.
         13    1    1    2    0    0  0.12038311597E+02  0.14643090569E+02  0.13162675709E+02  0.23078306770E+02  0.10566000000E+00 0.  1.
        994    1    1    2    0    0 -0.14265406416E+02 -0.16853164638E+02  0.11771777867E+02  0.17301891727E+03  0.17120000000E+03 0.  0.
        998    1    1    2    0    0  0.22270948196E+01  0.22100740689E+01  0.14750655427E+04  0.14751027760E+04  0.10000000000E+02 0.  1.
</event>
<event>
 5    1  0.1145138E-008  0.3802691E+03  0.7957747E-01  0.3449988E+00
         13   -1    0    0    0    0  0.00000000000E+00  0.00000000000E+00  0.14999999963E+04  0.15000000000E+04  0.10566000000E+00 0.  1.
        994   -1    0    0    0    0 -0.00000000000E+00 -0.00000000000E+00  0.11368683772E-12  0.17120000000E+03  0.17120000000E+03 0.  0.
         13    1    1    2    0    0 -0.23684960742E+02  0.30828820029E+02  0.18888102850E+03  0.19284047190E+03  0.10566000000E+00 0.  1.
        994    1    1    2    0    0  0.22073398691E+02 -0.10572965679E+02  0.60006245239E+01  0.17304470529E+03  0.17120000000E+03 0.  0.
        998    1    1    2    0    0  0.16115620507E+01 -0.20255854350E+02  0.13051183433E+04  0.13053148228E+04  0.10000000000E+02 0.  1.
</event>
<event>
 5    1  0.1145138E-008  0.3852083E+03  0.7957747E-01  0.3428789E+00
         13   -1    0    0    0    0  0.00000000000E+00  0.00000000000E+00  0.14999999963E+04  0.15000000000E+04  0.10566000000E+00 0. -1.
        994   -1    0    0    0    0 -0.00000000000E+00 -0.00000000000E+00  0.11368683772E-12  0.17120000000E+03  0.17120000000E+03 0.  0.
         13    1    1    2    0    0  0.10691224275E+02  0.13579324818E+02  0.93171250074E+02  0.94760716246E+02  0.10566000000E+00 0. -1.
        994    1    1    2    0    0 -0.95965540003E+01 -0.14937194596E+02  0.25633768204E+01  0.17213722587E+03  0.17120000000E+03 0.  0.
        998    1    1    2    0    0 -0.10946702748E+01  0.13578697775E+01  0.14042653694E+04  0.14043020579E+04  0.10000000000E+02 0. -1.
</event>
<event>
 5    1  0.1145138E-008  0.3722749E+03  0.7957747E-01  0.3485501E+00
         13   -1    0    0    0    0  0.00000000000E+00  0.00000000000E+00  0.14999999963E+04  0.15000000000E+04  0.10566000000E+00 0. -1.
        994   -1    0    0    0    0 -0.00000000000E+00 -0.00000000000E+00  0.11368683772E-12  0.17120000000E+03  0.17120000000E+03 0.  0.
         13    1    1    2    0    0 -0.10722779443E+02 -0.71063531237E+02  0.25881683349E+03  0.26860969441E+03  0.10566000000E+00 0. -1.
        994    1    1    2    0    0  0.11596748157E+02  0.72944658932E+02  0.27039598588E+02  0.18840378904E+03  0.17120000000E+03 0.  0.
        998    1    1    2    0    0 -0.87396871377E+00 -0.18811276949E+01  0.12141435642E+04  0.12141865165E+04  0.10000000000E+02 0.  0.
</event>
<event>
 5    1  0.1145138E-008  0.3845355E+03  0.7957747E-01  0.3431645E+00
         13   -1    0    0    0    0  0.00000000000E+00  0.00000000000E+00  0.14999999963E+04  0.15000000000E+04  0.10566000000E+00 0. -1.
        994   -1    0    0    0    0 -0.00000000000E+00 -0.00000000000E+00  0.11368683772E-12  0.17120000000E+03  0.17120000000E+03 0.  0.
         13    1    1    2    0    0  0.11810736370E+02  0.24866403896E+02  0.16312412815E+03  0.16543072232E+03  0.10566000000E+00 0. -1.
        994    1    1    2    0    0  0.29166841431E+01 -0.47513972409E+02  0.93605008605E+01  0.17794140495E+03  0.17120000000E+03 0.  0.
        998    1    1    2    0    0 -0.14727420513E+02  0.22647568513E+02  0.13275153673E+04  0.13278278727E+04  0.10000000000E+02 0. -1.
</event>
<event>
 5    1  0.1145138E-008  0.3693817E+03  0.7957747E-01  0.3498737E+00
         13   -1    0    0    0    0  0.00000000000E+00  0.00000000000E+00  0.14999999963E+04  0.15000000000E+04  0.10566000000E+00 0. -1.
        994   -1    0    0    0    0 -0.00000000000E+00 -0.00000000000E+00  0.11368683772E-12  0.17120000000E+03  0.17120000000E+03 0.  0.
         13    1    1    2    0    0 -0.61272779992E+00 -0.34043556091E+02  0.53558965806E+02  0.63465842221E+02  0.10566000000E+00 0. -1.
        994    1    1    2    0    0 -0.24004703244E+01  0.42499642363E+02  0.15897491173E+02  0.17712750234E+03  0.17120000000E+03 0.  0.
        998    1    1    2    0    0  0.30131981243E+01 -0.84560862719E+01  0.14305435393E+04  0.14306066554E+04  0.10000000000E+02 0. -1.
</event>
<event>
 5    1  0.1145138E-008  0.3847877E+03  0.7957747E-01  0.3430573E+00
         13   -1    0    0    0    0  0.00000000000E+00  0.00000000000E+00  0.14999999963E+04  0.15000000000E+04  0.10566000000E+00 0. -1.
        994   -1    0    0    0    0 -0.00000000000E+00 -0.00000000000E+00  0.11368683772E-12  0.17120000000E+03  0.17120000000E+03 0.  0.
         13    1    1    2    0    0 -0.13139980279E+02  0.12387924180E+02  0.93457803461E+02  0.95186616386E+02  0.10566000000E+00 0. -1.
        994    1    1    2    0    0  0.67325723930E+01 -0.10622274490E+02  0.22562635674E+01  0.17167612231E+03  0.17120000000E+03 0.  0.
        998    1    1    2    0    0  0.64074078859E+01 -0.17656496894E+01  0.14042859293E+04  0.14043372613E+04  0.10000000000E+02 0. -1.
</event>
<event>
 5    1  0.1145138E-008  0.3767217E+03  0.7957747E-01  0.3465558E+00
         13   -1    0    0    0    0  0.00000000000E+00  0.00000000000E+00  0.14999999963E+04  0.15000000000E+04  0.10566000000E+00 0.  1.
        994   -1    0    0    0    0 -0.00000000000E+00 -0.00000000000E+00  0.11368683772E-12  0.17120000000E+03  0.17120000000E+03 0.  0.
         13    1    1    2    0    0  0.54686181849E+02 -0.23294407720E+02  0.21903525554E+03  0.22695740184E+03  0.10566000000E+00 0.  1.
        994    1    1    2    0    0 -0.91335496273E+02  0.40959451770E+01  0.34590558187E+02  0.19714181789E+03  0.17120000000E+03 0.  0.
        998    1    1    2    0    0  0.36649314425E+02  0.19198462543E+02  0.12463741826E+04  0.12471007803E+04  0.10000000000E+02 0.  1.
</event>
<event>
 5    1  0.1145138E-008  0.3796261E+03  0.7957747E-01  0.3452788E+00
         13   -1    0    0    0    0  0.00000000000E+00  0.00000000000E+00  0.14999999963E+04  0.15000000000E+04  0.10566000000E+00 0.  1.
        994   -1    0    0    0    0 -0.00000000000E+00 -0.00000000000E+00  0.11368683772E-12  0.17120000000E+03  0.17120000000E+03 0.  0.
         13    1    1    2    0    0 -0.68923350083E+01 -0.13505527951E+02  0.24732592997E+02  0.29010616806E+02  0.10566000000E+00 0.  1.
        994    1    1    2    0    0  0.43426267805E+01  0.11098521693E+02  0.47975713379E+01  0.17168136848E+03  0.17120000000E+03 0.  0.
        998    1    1    2    0    0  0.25497082278E+01  0.24070062576E+01  0.14704698319E+04  0.14705080147E+04  0.10000000000E+02 0.  1.
</event>
<event>
 5    1  0.1145138E-008  0.3849256E+03  0.7957747E-01  0.3429988E+00
         13   -1    0    0    0    0  0.00000000000E+00  0.00000000000E+00  0.14999999963E+04  0.15000000000E+04  0.10566000000E+00 0.  1.
        994   -1    0    0    0    0 -0.00000000000E+00 -0.00000000000E+00  0.11368683772E-12  0.17120000000E+03  0.17120000000E+03 0.  0.
         13    1    1    2    0    0 -0.45273245331E+01 -0.12336750368E+02  0.50700354090E+02  0.52375845062E+02  0.10566000000E+00 0.  1.
        994    1    1    2    0    0  0.54099871870E+01  0.11154648428E+02  0.21728281362E+01  0.17166203810E+03  0.17120000000E+03 0.  0.
        998    1    1    2    0    0 -0.88266265383E+00  0.11821019406E+01  0.14471268141E+04  0.14471621168E+04  0.10000000000E+02 0.  1.
</event>
<event>
 5    1  0.1145138E-008  0.3832721E+03  0.7957747E-01  0.3437033E+00
         13   -1    0    0    0    0  0.00000000000E+00  0.00000000000E+00  0.14999999963E+04  0.15000000000E+04  0.10566000000E+00 0. -1.
        994   -1    0    0    0    0 -0.00000000000E+00 -0.00000000000E+00  0.11368683772E-12  0.17120000000E+03  0.17120000000E+03 0.  0.
         13    1    1    2    0    0  0.14557915123E+02 -0.49370689718E+01  0.48238374947E+02  0.50628643319E+02  0.10566000000E+00 0. -1.
        994    1    1    2    0    0 -0.67723410752E+00  0.81004503036E+01  0.27089790720E+01  0.17141427744E+03  0.17120000000E+03 0.  0.
        998    1    1    2    0    0 -0.13880681016E+02 -0.31633813318E+01  0.14490526423E+04  0.14491570792E+04  0.10000000000E+02 0. -1.
</event>
<event>
 5    1  0.1145138E-008  0.3745935E+03  0.7957747E-01  0.3475043E+00
         13   -1    0    0    0    0  0.00000000000E+00  0.00000000000E+00  0.14999999963E+04  0.15000000000E+04  0.10566000000E+00 0. -1.
        994   -1    0    0    0    0 -0.00000000000E+00 -0.00000000000E+00  0.11368683772E-12  0.17120000000E+03  0.17120000000E+03 0.  0.
         13    1    1    2    0    0 -0.85768516559E+01 -0.16362480045E+02  0.21725163148E+02  0.28518187449E+02  0.10566000000E+00 0. -1.
        994    1    1    2    0    0  0.75168305611E+01  0.13300615443E+02  0.76825304994E+01  0.17205194096E+03  0.17120000000E+03 0.  0.
        998    1    1    2    0    0  0.10600210948E+01  0.30618646018E+01  0.14705923026E+04  0.14706298716E+04  0.10000000000E+02 0. -1.
</event>
<event>
 5    1  0.1145138E-008  0.3810742E+03  0.7957747E-01  0.3446494E+00
         13   -1    0    0    0    0  0.00000000000E+00  0.00000000000E+00  0.14999999963E+04  0.15000000000E+04  0.10566000000E+00 0. -1.
        994   -1    0    0    0    0 -0.00000000000E+00 -0.00000000000E+00  0.11368683772E-12  0.17120000000E+03  0.17120000000E+03 0.  0.
         13    1    1    2    0    0  0.12752604298E+03 -0.91699653317E+02  0.91553689613E+03  0.92891309464E+03  0.10566000000E+00 0. -1.
        994    1    1    2    0    0 -0.13493594239E+03  0.96194268454E+02  0.10123935322E+03  0.25888200492E+03  0.17120000000E+03 0.  0.
        998    1    1    2    0    0  0.74098994027E+01 -0.44946151364E+01  0.48322374693E+03  0.48340490044E+03  0.10000000000E+02 0. -1.
</event>
<event>
 5    1  0.1145138E-008  0.3837663E+03  0.7957747E-01  0.3434921E+00
         13   -1    0    0    0    0  0.00000000000E+00  0.00000000000E+00  0.14999999963E+04  0.15000000000E+04  0.10566000000E+00 0. -1.
        994   -1    0    0    0    0 -0.00000000000E+00 -0.00000000000E+00  0.11368683772E-12  0.17120000000E+03  0.17120000000E+03 0.  0.
         13    1    1    2    0    0  0.16939810265E+02  0.34419882564E+01  0.64395310873E+02  0.66675120408E+02  0.10566000000E+00 0. -1.
        994    1    1    2    0    0 -0.15348621311E+02 -0.45989131646E+01  0.30920198045E+01  0.17197595985E+03  0.17120000000E+03 0.  0.
        998    1    1    2    0    0 -0.15911889545E+01  0.11569249082E+01  0.14325126656E+04  0.14325489197E+04  0.10000000000E+02 0. -1.
</event>
<event>
 5    1  0.1145138E-008  0.3815236E+03  0.7957747E-01  0.3444551E+00
         13   -1    0    0    0    0  0.00000000000E+00  0.00000000000E+00  0.14999999963E+04  0.15000000000E+04  0.10566000000E+00 0. -1.
        994   -1    0    0    0    0 -0.00000000000E+00 -0.00000000000E+00  0.11368683772E-12  0.17120000000E+03  0.17120000000E+03 0.  0.
         13    1    1    2    0    0  0.34604998126E+02 -0.49822697730E+02  0.26462797744E+03  0.27149177651E+03  0.10566000000E+00 0. -1.
        994    1    1    2    0    0 -0.50472685720E+02  0.11184931038E+03  0.55186016557E+02  0.21774456746E+03  0.17120000000E+03 0.  0.
        998    1    1    2    0    0  0.15867687594E+02 -0.62026612651E+02  0.11801860023E+04  0.11819636560E+04  0.10000000000E+02 0. -1.
</event>
<event>
 5    1  0.1145138E-008  0.3832793E+03  0.7957747E-01  0.3437003E+00
         13   -1    0    0    0    0  0.00000000000E+00  0.00000000000E+00  0.14999999963E+04  0.15000000000E+04  0.10566000000E+00 0. -1.
        994   -1    0    0    0    0 -0.00000000000E+00 -0.00000000000E+00  0.11368683772E-12  0.17120000000E+03  0.17120000000E+03 0.  0.
         13    1    1    2    0    0  0.17798182729E+02 -0.10327195489E+02  0.87561557182E+02  0.89947005149E+02  0.10566000000E+00 0. -1.
        994    1    1    2    0    0 -0.86278834699E+01 -0.74509573579E+00  0.27349232937E+01  0.17144070504E+03  0.17120000000E+03 0.  0.
        998    1    1    2    0    0 -0.91702992590E+01  0.11072291224E+02  0.14097035158E+04  0.14098122898E+04  0.10000000000E+02 0. -1.
</event>
<event>
 5    1  0.1145138E-008  0.3793133E+03  0.7957747E-01  0.3454154E+00
         13   -1    0    0    0    0  0.00000000000E+00  0.00000000000E+00  0.14999999963E+04  0.15000000000E+04  0.10566000000E+00 0.  1.
        994   -1    0    0    0    0 -0.00000000000E+00 -0.00000000000E+00  0.11368683772E-12  0.17120000000E+03  0.17120000000E+03 0.  0.
         13    1    1    2    0    0 -0.32287762664E+02 -0.25166515383E+02  0.17501897785E+03  0.17974289106E+03  0.10566000000E+00 0.  1.
        994    1    1    2    0    0  0.25539207049E+02  0.20324541761E+02  0.80578566130E+01  0.17446978864E+03  0.17120000000E+03 0.  0.
        998    1    1    2    0    0  0.67485556148E+01  0.48419736219E+01  0.13169231618E+04  0.13169873203E+04  0.10000000000E+02 0.  1.
</event>
<event>
 5    1  0.1145138E-008  0.3821749E+03  0.7957747E-01  0.3441743E+00
         13   -1    0    0    0    0  0.00000000000E+00  0.00000000000E+00  0.14999999963E+04  0.15000000000E+04  0.10566000000E+00 0.  1.
        994   -1    0    0    0    0 -0.00000000000E+00 -0.00000000000E+00  0.11368683772E-12  0.17120000000E+03  0.17120000000E+03 0.  0.
         13    1    1    2    0    0  0.88968535883E+01 -0.10361462372E+02  0.29271983589E+02  0.32301301731E+02  0.10566000000E+00 0.  1.
        994    1    1    2    0    0 -0.54528708487E+01  0.11565653891E+02  0.35821399646E+01  0.17171420989E+03  0.17120000000E+03 0.  0.
        998    1    1    2    0    0 -0.34439827396E+01 -0.12041915190E+01  0.14671458727E+04  0.14671844884E+04  0.10000000000E+02 0.  1.
</event>
<event>
 5    1  0.1145138E-008  0.3821526E+03  0.7957747E-01  0.3441839E+00
         13   -1    0    0    0    0  0.00000000000E+00  0.00000000000E+00  0.14999999963E+04  0.15000000000E+04  0.10566000000E+00 0.  1.
        994   -1    0    0    0    0 -0.00000000000E+00 -0.00000000000E+00  0.11368683772E-12  0.17120000000E+03  0.17120000000E+03 0.  0.
         13    1    1    2    0    0 -0.70017109697E+01  0.12312325444E+02  0.39998872897E+02  0.42432750457E+02  0.10566000000E+00 0.  1.
        994    1    1    2    0    0  0.40678312211E+01  0.58101135408E+02  0.14393343072E+02  0.18140809660E+03  0.17120000000E+03 0.  0.
        998    1    1    2    0    0  0.29338797486E+01 -0.70413460852E+02  0.14456077803E+04  0.14473591529E+04  0.10000000000E+02 0.  1.
</event>
<event>
 5    1  0.1145138E-008  0.3860359E+03  0.7957747E-01  0.3425291E+00
         13   -1    0    0    0    0  0.00000000000E+00  0.00000000000E+00  0.14999999963E+04  0.15000000000E+04  0.10566000000E+00 0. -1.
        994   -1    0    0    0    0 -0.00000000000E+00 -0.00000000000E+00  0.11368683772E-12  0.17120000000E+03  0.17120000000E+03 0.  0.
         13    1    1    2    0    0 -0.37825976745E+01  0.97518889200E+01  0.49701194898E+02  0.50790031709E+02  0.10566000000E+00 0. -1.
        994    1    1    2    0    0  0.10076899370E+02 -0.33811321496E+01  0.14871043191E+01  0.17153608202E+03  0.17120000000E+03 0.  0.
        998    1    1    2    0    0 -0.62943016958E+01 -0.63707567704E+01  0.14488116971E+04  0.14488738863E+04  0.10000000000E+02 0. -1.
</event>
<event>
 5    1  0.1145138E-008  0.3758761E+03  0.7957747E-01  0.3469314E+00
         13   -1    0    0    0    0  0.00000000000E+00  0.00000000000E+00  0.14999999963E+04  0.15000000000E+04  0.10566000000E+00 0. -1.
        994   -1    0    0    0    0 -0.00000000000E+00 -0.00000000000E+00  0.11368683772E-12  0.17120000000E+03  0.17120000000E+03 0.  0.
         13    1    1    2    0    0 -0.49407449898E+02 -0.12897430281E+02  0.21467477266E+03  0.22066424494E+03  0.10566000000E+00 0. -1.
        994    1    1    2    0    0  0.26416456810E+02 -0.56166765283E+01  0.87054432123E+01  0.17353558997E+03  0.17120000000E+03 0.  0.
        998    1    1    2    0    0  0.22990993089E+02  0.18514106810E+02  0.12766197804E+04  0.12770001651E+04  0.10000000000E+02 0. -1.
</event>
<event>
 5    1  0.1145138E-008  0.3904755E+03  0.7957747E-01  0.3406777E+00
         13   -1    0    0    0    0  0.00000000000E+00  0.00000000000E+00  0.14999999963E+04  0.15000000000E+04  0.10566000000E+00 0.  1.
        994   -1    0    0    0    0 -0.00000000000E+00 -0.00000000000E+00  0.11368683772E-12  0.17120000000E+03  0.17120000000E+03 0.  0.
         13    1    1    2    0    0 -0.42863280273E+02  0.51347213507E+02  0.93738139562E+02  0.11515488311E+03  0.10566000000E+00 0.  1.
        994    1    1    2    0    0  0.25703279609E+02 -0.38926112810E+02  0.30451194254E+02  0.18003504124E+03  0.17120000000E+03 0.  0.
        998    1    1    2    0    0  0.17160000664E+02 -0.12421100698E+02  0.13758106625E+04  0.13760100757E+04  0.10000000000E+02 0.  1.
</event>
<event>
 5    1  0.1145138E-008  0.3811591E+03  0.7957747E-01  0.3446127E+00
         13   -1    0    0    0    0  0.00000000000E+00  0.00000000000E+00  0.14999999963E+04  0.15000000000E+04  0.10566000000E+00 0.  1.
        994   -1    0    0    0    0 -0.00000000000E+00 -0.00000000000E+00  0.11368683772E-12  0.17120000000E+03  0.17120000000E+03 0.  0.
         13    1    1    2    0    0 -0.21609329948E+02 -0.23192228641E+02  0.14005174923E+03  0.14359438094E+03  0.10566000000E+00 0.  1.
        994    1    1    2    0    0  0.10024120418E+00  0.26633708177E+02  0.59150456863E+01  0.17336029599E+03  0.17120000000E+03 0.  0.
        998    1    1    2    0    0  0.21509088744E+02 -0.34414795357E+01  0.13540332014E+04  0.13542453231E+04  0.10000000000E+02 0.  1.
</event>
<event>
 5    1  0.1145138E-008  0.3820321E+03  0.7957747E-01  0.3442358E+00
         13   -1    0    0    0    0  0.00000000000E+00  0.00000000000E+00  0.14999999963E+04  0.15000000000E+04  0.10566000000E+00 0. -1.
        994   -1    0    0    0    0 -0.00000000000E+00 -0.00000000000E+00  0.11368683772E-12  0.17120000000E+03  0.17120000000E+03 0.  0.
         13    1    1    2    0    0  0.34690966755E+02 -0.18100303422E+02  0.20286565205E+03  0.20660485982E+03  0.10566000000E+00 0. -1.
        994    1    1    2    0    0 -0.40079678880E+02  0.21862272775E+02  0.10063274849E+02  0.17746844545E+03  0.17120000000E+03 0.  0.
        998    1    1    2    0    0  0.53887121250E+01 -0.37619693524E+01  0.12870710694E+04  0.12871266947E+04  0.10000000000E+02 0. -1.
</event>
<event>
 5    1  0.1145138E-008  0.3879306E+03  0.7957747E-01  0.3417338E+00
         13   -1    0    0    0    0  0.00000000000E+00  0.00000000000E+00  0.14999999963E+04  0.15000000000E+04  0.10566000000E+00 0. -1.
        994   -1    0    0    0    0 -0.00000000000E+00 -0.00000000000E+00  0.11368683772E-12  0.17120000000E+03  0.17120000000E+03 0.  0.
         13    1    1    2    0    0 -0.33870197979E+01  0.10586798125E+03  0.22570701141E+03  0.24932542494E+03  0.10566000000E+00 0. -1.
        994    1    1    2    0    0  0.71658729947E+02 -0.10092863291E+03  0.80498447129E+02  0.22607742591E+03  0.17120000000E+03 0.  0.
        998    1    1    2    0    0 -0.68271710149E+02 -0.49393483428E+01  0.11937945377E+04  0.11957971492E+04  0.10000000000E+02 0. -1.
</event>
<event>
 5    1  0.1145138E-008  0.3831939E+03  0.7957747E-01  0.3437369E+00
         13   -1    0    0    0    0  0.00000000000E+00  0.00000000000E+00  0.14999999963E+04  0.15000000000E+04  0.10566000000E+00 0.  1.
        994   -1    0    0    0    0 -0.00000000000E+00 -0.00000000000E+00  0.11368683772E-12  0.17120000000E+03  0.17120000000E+03 0.  0.
         13    1    1    2    0    0  0.11562520130E+02  0.82848897513E+01  0.35927772285E+02  0.38641263635E+02  0.10566000000E+00 0.  1.
        994    1    1    2    0    0 -0.10356394541E+02 -0.40409247288E+02  0.83074174980E+01  0.17640469200E+03  0.17120000000E+03 0.  0.
        998    1    1    2    0    0 -0.12061255891E+01  0.32124357537E+02  0.14557648065E+04  0.14561540444E+04  0.10000000000E+02 0.  1.
</event>
<event>
 5    1  0.1145138E-008  0.4229754E+03  0.7957747E-01  0.3283025E+00
         13   -1    0    0    0    0  0.00000000000E+00  0.00000000000E+00  0.14999999963E+04  0.15000000000E+04  0.10566000000E+00 0.  1.
        994   -1    0    0    0    0 -0.00000000000E+00 -0.00000000000E+00  0.11368683772E-12  0.17120000000E+03  0.17120000000E+03 0.  0.
         13    1    1    2    0    0 -0.49119959620E+02 -0.23373030157E+02  0.18671252467E+02  0.57512570838E+02  0.10566000000E+00 0.  1.
        994    1    1    2    0    0  0.62661324547E+02  0.12073571288E+02  0.60133874762E+02  0.19234795453E+03  0.17120000000E+03 0.  0.
        998    1    1    2    0    0 -0.13541364927E+02  0.11299458868E+02  0.14211948690E+04  0.14213394746E+04  0.10000000000E+02 0.  1.
</event>
<event>
 5    1  0.1145138E-008  0.3772097E+03  0.7957747E-01  0.3463399E+00
         13   -1    0    0    0    0  0.00000000000E+00  0.00000000000E+00  0.14999999963E+04  0.15000000000E+04  0.10566000000E+00 0.  1.
        994   -1    0    0    0    0 -0.00000000000E+00 -0.00000000000E+00  0.11368683772E-12  0.17120000000E+03  0.17120000000E+03 0.  0.
         13    1    1    2    0    0  0.36090640263E+02 -0.71270031937E+01  0.11243819289E+03  0.11830336797E+03  0.10566000000E+00 0.  1.
        994    1    1    2    0    0 -0.36302053833E+02  0.89361220436E+00  0.10010442120E+02  0.17529485619E+03  0.17120000000E+03 0.  0.
        998    1    1    2    0    0  0.21141356962E+00  0.62333909893E+01  0.13775513613E+04  0.13776017758E+04  0.10000000000E+02 0.  1.
</event>
<event>
 5    1  0.1145138E-008  0.3796611E+03  0.7957747E-01  0.3452636E+00
         13   -1    0    0    0    0  0.00000000000E+00  0.00000000000E+00  0.14999999963E+04  0.15000000000E+04  0.10566000000E+00 0. -1.
        994   -1    0    0    0    0 -0.00000000000E+00 -0.00000000000E+00  0.11368683772E-12  0.17120000000E+03  0.17120000000E+03 0.  0.
         13    1    1    2    0    0 -0.11890493621E+02 -0.87058637225E+01  0.23111892204E+02  0.27410702782E+02  0.10566000000E+00 0. -1.
        994    1    1    2    0    0  0.11131602238E+02  0.11088147350E+02  0.51309083126E+01  0.17199600519E+03  0.17120000000E+03 0.  0.
        998    1    1    2    0    0  0.75889138295E+00 -0.23822836272E+01  0.14717571958E+04  0.14717932920E+04  0.10000000000E+02 0. -1.
</event>
<event>
 5    1  0.1145138E-008  0.3693787E+03  0.7957747E-01  0.3498751E+00
         13   -1    0    0    0    0  0.00000000000E+00  0.00000000000E+00  0.14999999963E+04  0.15000000000E+04  0.10566000000E+00 0. -1.
        994   -1    0    0    0    0 -0.00000000000E+00 -0.00000000000E+00  0.11368683772E-12  0.17120000000E+03  0.17120000000E+03 0.  0.
         13    1    1    2    0    0  0.44968867342E+02  0.88419946878E+02  0.48303094079E+03  0.49311173882E+03  0.10566000000E+00 0. -1.
        994    1    1    2    0    0  0.29370292953E+02 -0.80879924744E+02  0.36905730380E+02  0.19512982670E+03  0.17120000000E+03 0.  0.
        998    1    1    2    0    0 -0.74339160295E+02 -0.75400221342E+01  0.98006332510E+03  0.98295843447E+03  0.10000000000E+02 0. -1.
</event>
<event>
 5    1  0.1145138E-008  0.3792126E+03  0.7957747E-01  0.3454594E+00
         13   -1    0    0    0    0  0.00000000000E+00  0.00000000000E+00  0.14999999963E+04  0.15000000000E+04  0.10566000000E+00 0. -1.
        994   -1    0    0    0    0 -0.00000000000E+00 -0.00000000000E+00  0.11368683772E-12  0.17120000000E+03  0.17120000000E+03 0.  0.
         13    1    1    2    0    0 -0.28847696312E+02  0.21386523490E+02  0.13556518566E+03  0.14024087741E+03  0.10566000000E+00 0. -1.
        994    1    1    2    0    0  0.28904010987E+02 -0.78651008179E+01  0.75444420818E+01  0.17396453739E+03  0.17120000000E+03 0.  0.
        998    1    1    2    0    0 -0.56314674881E-01 -0.13521422673E+02  0.13568903685E+04  0.13569945852E+04  0.10000000000E+02 0. -1.
</event>
<event>
 5    1  0.1145138E-008  0.3708107E+03  0.7957747E-01  0.3492173E+00
         13   -1    0    0    0    0  0.00000000000E+00  0.00000000000E+00  0.14999999963E+04  0.15000000000E+04  0.10566000000E+00 0. -1.
        994   -1    0    0    0    0 -0.00000000000E+00 -0.00000000000E+00  0.11368683772E-12  0.17120000000E+03  0.17120000000E+03 0.  0.
         13    1    1    2    0    0  0.72009201504E+02 -0.55225931753E+02  0.38468166549E+03  0.39524071598E+03  0.10566000000E+00 0. -1.
        994    1    1    2    0    0 -0.63149811188E+02  0.43054855346E+02  0.29265981109E+02  0.18975657267E+03  0.17120000000E+03 0.  0.
        998    1    1    2    0    0 -0.88593903162E+01  0.12171076408E+02  0.10860523497E+04  0.10862027113E+04  0.10000000000E+02 0. -1.
</event>
<event>
 5    1  0.1145138E-008  0.3857269E+03  0.7957747E-01  0.3426595E+00
         13   -1    0    0    0    0  0.00000000000E+00  0.00000000000E+00  0.14999999963E+04  0.15000000000E+04  0.10566000000E+00 0. -1.
        994   -1    0    0    0    0 -0.00000000000E+00 -0.00000000000E+00  0.11368683772E-12  0.17120000000E+03  0.17120000000E+03 0.  0.
         13    1    1    2    0    0  0.10180925573E+02  0.47981206704E+01  0.50957786973E+02  0.52186017521E+02  0.10566000000E+00 0. -1.
        994    1    1    2    0    0 -0.91445346572E+01  0.65077654934E+01  0.16830728471E+01  0.17157577411E+03  0.17120000000E+03 0.  0.
        998    1    1    2    0    0 -0.10363909158E+01 -0.11305886164E+02  0.14473591365E+04  0.14474382084E+04  0.10000000000E+02 0. -1.
</event>
<event>
 5    1  0.1145138E-008  0.3839547E+03  0.7957747E-01  0.3434118E+00
         13   -1    0    0    0    0  0.00000000000E+00  0.00000000000E+00  0.14999999963E+04  0.15000000000E+04  0.10566000000E+00 0. -1.
        994   -1    0    0    0    0 -0.00000000000E+00 -0.00000000000E+00  0.11368683772E-12  0.17120000000E+03  0.17120000000E+03 0.  0.
         13    1    1    2    0    0  0.11948227531E+02 -0.29227182147E+01  0.40029597505E+02  0.41876989664E+02  0.10566000000E+00 0. -1.
        994    1    1    2    0    0  0.22908988400E+02 -0.60306875354E+01  0.40040338778E+01  0.17287759609E+03  0.17120000000E+03 0.  0.
        998    1    1    2    0    0 -0.34857215931E+02  0.89534057501E+01  0.14559663649E+04  0.14564454142E+04  0.10000000000E+02 0. -1.
</event>
<event>
 5    1  0.1145138E-008  0.3784078E+03  0.7957747E-01  0.3458121E+00
         13   -1    0    0    0    0  0.00000000000E+00  0.00000000000E+00  0.14999999963E+04  0.15000000000E+04  0.10566000000E+00 0. -1.
        994   -1    0    0    0    0 -0.00000000000E+00 -0.00000000000E+00  0.11368683772E-12  0.17120000000E+03  0.17120000000E+03 0.  0.
         13    1    1    2    0    0  0.13357230655E+02  0.82921227474E+01  0.23329914317E+02  0.28133093973E+02  0.10566000000E+00 0. -1.
        994    1    1    2    0    0 -0.58367150724E+01 -0.29914974525E-01  0.50535562856E+01  0.17137399619E+03  0.17120000000E+03 0.  0.
        998    1    1    2    0    0 -0.75205155828E+01 -0.82622077729E+01  0.14716165257E+04  0.14716929098E+04  0.10000000000E+02 0. -1.
</event>
<event>
 5    1  0.1145138E-008  0.3817355E+03  0.7957747E-01  0.3443636E+00
         13   -1    0    0    0    0  0.00000000000E+00  0.00000000000E+00  0.14999999963E+04  0.15000000000E+04  0.10566000000E+00 0. -1.
        994   -1    0    0    0    0 -0.00000000000E+00 -0.00000000000E+00  0.11368683772E-12  0.17120000000E+03  0.17120000000E+03 0.  0.
         13    1    1    2    0    0  0.10037865178E+02  0.28504113232E+02  0.12627178425E+03  0.12983765968E+03  0.10566000000E+00 0. -1.
        994    1    1    2    0    0 -0.32596631990E+01 -0.34181160840E+02  0.71882891817E+01  0.17475722778E+03  0.17120000000E+03 0.  0.
        998    1    1    2    0    0 -0.67782019793E+01  0.56770476082E+01  0.13665399228E+04  0.13666051125E+04  0.10000000000E+02 0. -1.
</event>
<event>
 5    1  0.1145138E-008  0.3701606E+03  0.7957747E-01  0.3495153E+00
         13   -1    0    0    0    0  0.00000000000E+00  0.00000000000E+00  0.14999999963E+04  0.15000000000E+04  0.10566000000E+00 0. -1.
        994   -1    0    0    0    0 -0.00000000000E+00 -0.00000000000E+00  0.11368683772E-12  0.17120000000E+03  0.17120000000E+03 0.  0.
         13    1    1    2    0    0  0.19180229145E+01  0.42654765449E+02  0.10419602623E+03  0.11260519914E+03  0.10566000000E+00 0. -1.
        994    1    1    2    0    0 -0.76297938633E+00 -0.52900535347E+01  0.92838982027E+01  0.17153482903E+03  0.17120000000E+03 0.  0.
        998    1    1    2    0    0 -0.11550435282E+01 -0.37364711915E+02  0.13865200719E+04  0.13870599718E+04  0.10000000000E+02 0. -1.
</event>
<event>
 5    1  0.1145138E-008  0.3857917E+03  0.7957747E-01  0.3426321E+00
         13   -1    0    0    0    0  0.00000000000E+00  0.00000000000E+00  0.14999999963E+04  0.15000000000E+04  0.10566000000E+00 0. -1.
        994   -1    0    0    0    0 -0.00000000000E+00 -0.00000000000E+00  0.11368683772E-12  0.17120000000E+03  0.17120000000E+03 0.  0.
         13    1    1    2    0    0  0.84612218429E+01  0.95565811627E+01  0.63426737854E+02  0.64698398415E+02  0.10566000000E+00 0. -1.
        994    1    1    2    0    0 -0.12763952660E+02 -0.86820981562E+01  0.20196467641E+01  0.17190641724E+03  0.17120000000E+03 0.  0.
        998    1    1    2    0    0  0.43027308166E+01 -0.87448300649E+00  0.14345536117E+04  0.14345951843E+04  0.10000000000E+02 0. -1.
</event>
<event>
 5    1  0.1145138E-008  0.3807571E+03  0.7957747E-01  0.3447869E+00
         13   -1    0    0    0    0  0.00000000000E+00  0.00000000000E+00  0.14999999963E+04  0.15000000000E+04  0.10566000000E+00 0. -1.
        994   -1    0    0    0    0 -0.00000000000E+00 -0.00000000000E+00  0.11368683772E-12  0.17120000000E+03  0.17120000000E+03 0.  0.
         13    1    1    2    0    0  0.34488374165E+02  0.16763512790E+02  0.17327207899E+03  0.17746461009E+03  0.10566000000E+00 0. -1.
        994    1    1    2    0    0 -0.34020898761E+02 -0.19147996863E+02  0.88503269832E+01  0.17581762035E+03  0.17120000000E+03 0.  0.
        998    1    1    2    0    0 -0.46747540378E+00  0.23844840732E+01  0.13178775903E+04  0.13179177696E+04  0.10000000000E+02 0.  0.
</event>
<event>
 5    1  0.1145138E-008  0.3751062E+03  0.7957747E-01  0.3472748E+00
         13   -1    0    0    0    0  0.00000000000E+00  0.00000000000E+00  0.14999999963E+04  0.15000000000E+04  0.10566000000E+00 0. -1.
        994   -1    0    0    0    0 -0.00000000000E+00 -0.00000000000E+00  0.11368683772E-12  0.17120000000E+03  0.17120000000E+03 0.  0.
         13    1    1    2    0    0  0.34610451861E+01 -0.11397968356E+02  0.77496539858E+01  0.14211291896E+02  0.10566000000E+00 0. -1.
        994    1    1    2    0    0 -0.27784334240E+01  0.52195610104E+01  0.67430432193E+01  0.17143474602E+03  0.17120000000E+03 0.  0.
        998    1    1    2    0    0 -0.68261176212E+00  0.61784073457E+01  0.14855072991E+04  0.14855539621E+04  0.10000000000E+02 0. -1.
</event>
<event>
 5    1  0.1145138E-008  0.3851332E+03  0.7957747E-01  0.3429107E+00
         13   -1    0    0    0    0  0.00000000000E+00  0.00000000000E+00  0.14999999963E+04  0.15000000000E+04  0.10566000000E+00 0. -1.
        994   -1    0    0    0    0 -0.00000000000E+00 -0.00000000000E+00  0.11368683772E-12  0.17120000000E+03  0.17120000000E+03 0.  0.
         13    1    1    2    0    0 -0.78974895638E+01 -0.68472407100E+01  0.33614895203E+02  0.35202661694E+02  0.10566000000E+00 0. -1.
        994    1    1    2    0    0  0.52860181622E+01  0.16072297462E+02  0.25055691044E+01  0.17205225546E+03  0.17120000000E+03 0.  0.
        998    1    1    2    0    0  0.26114714016E+01 -0.92250567516E+01  0.14638795320E+04  0.14639450828E+04  0.10000000000E+02 0. -1.
</event>
<event>
 5    1  0.1145138E-008  0.3841713E+03  0.7957747E-01  0.3433194E+00
         13   -1    0    0    0    0  0.00000000000E+00  0.00000000000E+00  0.14999999963E+04  0.15000000000E+04  0.10566000000E+00 0. -1.
        994   -1    0    0    0    0 -0.00000000000E+00 -0.00000000000E+00  0.11368683772E-12  0.17120000000E+03  0.17120000000E+03 0.  0.
         13    1    1    2    0    0 -0.22040357388E+02 -0.62721915385E+01  0.13318431087E+03  0.13514136882E+03  0.10566000000E+00 0. -1.
        994    1    1    2    0    0  0.96468354198E+01  0.65949019740E+00  0.23504773579E+01  0.17148895330E+03  0.17120000000E+03 0.  0.
        998    1    1    2    0    0  0.12393521968E+02  0.56127013411E+01  0.13644652081E+04  0.13645696779E+04  0.10000000000E+02 0. -1.
</event>
<event>
 5    1  0.1145138E-008  0.3734766E+03  0.7957747E-01  0.3480064E+00
         13   -1    0    0    0    0  0.00000000000E+00  0.00000000000E+00  0.14999999963E+04  0.15000000000E+04  0.10566000000E+00 0. -1.
        994   -1    0    0    0    0 -0.00000000000E+00 -0.00000000000E+00  0.11368683772E-12  0.17120000000E+03  0.17120000000E+03 0.  0.
         13    1    1    2    0    0  0.76075426691E+02  0.43068873227E+02  0.43486050408E+03  0.44356066954E+03  0.10566000000E+00 0. -1.
        994    1    1    2    0    0 -0.49885192056E+02 -0.51180824496E+02  0.25122205855E+02  0.18721264490E+03  0.17120000000E+03 0.  0.
        998    1    1    2    0    0 -0.26190234636E+02  0.81119512686E+01  0.10400172863E+04  0.10404266856E+04  0.10000000000E+02 0. -1.
</event>
<event>
 5    1  0.1145138E-008  0.3686678E+03  0.7957747E-01  0.3502036E+00
         13   -1    0    0    0    0  0.00000000000E+00  0.00000000000E+00  0.14999999963E+04  0.15000000000E+04  0.10566000000E+00 0. -1.
        994   -1    0    0    0    0 -0.00000000000E+00 -0.00000000000E+00  0.11368683772E-12  0.17120000000E+03  0.17120000000E+03 0.  0.
         13    1    1    2    0    0 -0.59234563993E+02  0.37256121104E+02  0.34291754799E+03  0.34998458254E+03  0.10566000000E+00 0. -1.
        994    1    1    2    0    0 -0.94095244969E+00  0.18747599452E+02  0.11463130069E+02  0.17260707178E+03  0.17120000000E+03 0.  0.
        998    1    1    2    0    0  0.60175516443E+02 -0.56003720556E+02  0.11456193182E+04  0.11486083457E+04  0.10000000000E+02 0. -1.
</event>
<event>
 5    1  0.1145138E-008  0.3804096E+03  0.7957747E-01  0.3449377E+00
         13   -1    0    0    0    0  0.00000000000E+00  0.00000000000E+00  0.14999999963E+04  0.15000000000E+04  0.10566000000E+00 0. -1.
        994   -1    0    0    0    0 -0.00000000000E+00 -0.00000000000E+00  0.11368683772E-12  0.17120000000E+03  0.17120000000E+03 0.  0.
         13    1    1    2    0    0  0.20297640503E+02  0.94867200401E+01  0.67476912291E+02  0.71099486098E+02  0.10566000000E+00 0. -1.
        994    1    1    2    0    0  0.75256638680E+01 -0.90114930011E+01  0.43868259228E+01  0.17165816865E+03  0.17120000000E+03 0.  0.
        998    1    1    2    0    0 -0.27823304371E+02 -0.47522703908E+00  0.14281362581E+04  0.14284423453E+04  0.10000000000E+02 0. -1.
</event>
<event>
 5    1  0.1145138E-008  0.3851679E+03  0.7957747E-01  0.3428961E+00
         13   -1    0    0    0    0  0.00000000000E+00  0.00000000000E+00  0.14999999963E+04  0.15000000000E+04  0.10566000000E+00 0.  1.
        994   -1    0    0    0    0 -0.00000000000E+00 -0.00000000000E+00  0.11368683772E-12  0.17120000000E+03  0.17120000000E+03 0.  0.
         13    1    1    2    0    0 -0.12191001328E+02 -0.69753878295E+00  0.48278540974E+02  0.49798953366E+02  0.10566000000E+00 0.  1.
        994    1    1    2    0    0  0.72696501853E+01  0.16804323719E+02  0.26494484625E+01  0.17219666863E+03  0.17120000000E+03 0.  0.
        998    1    1    2    0    0  0.49213511427E+01 -0.16106784936E+02  0.14490720068E+04  0.14492043780E+04  0.10000000000E+02 0.  1.
</event>
<event>
 5    1  0.1145138E-008  0.3815269E+03  0.7957747E-01  0.3444537E+00
         13   -1    0    0    0    0  0.00000000000E+00  0.00000000000E+00  0.14999999963E+04  0.15000000000E+04  0.10566000000E+00 0.  1.
        994   -1    0    0    0    0 -0.00000000000E+00 -0.00000000000E+00  0.11368683772E-12  0.17120000000E+03  0.17120000000E+03 0.  0.
         13    1    1    2    0    0  0.29863892734E+02 -0.15966703523E+02  0.17997760787E+03  0.18313584632E+03  0.10566000000E+00 0.  1.
        994    1    1    2    0    0 -0.31905606588E+01  0.20155992308E+02  0.47507467767E+01  0.17247739938E+03  0.17120000000E+03 0.  0.
        998    1    1    2    0    0 -0.26673332075E+02 -0.41892887852E+01  0.13152716416E+04  0.13155867543E+04  0.10000000000E+02 0.  1.
</event>
<event>
 5    1  0.1145138E-008  0.3818835E+03  0.7957747E-01  0.3442998E+00
         13   -1    0    0    0    0  0.00000000000E+00  0.00000000000E+00  0.14999999963E+04  0.15000000000E+04  0.10566000000E+00 0.  1.
        994   -1    0    0    0    0 -0.00000000000E+00 -0.00000000000E+00  0.11368683772E-12  0.17120000000E+03  0.17120000000E+03 0.  0.
         13    1    1    2    0    0  0.19057759198E+02  0.95076600728E+01  0.69894334231E+02  0.73067249212E+02  0.10566000000E+00 0.  1.
        994    1    1    2    0    0 -0.16229751264E+02  0.44533123217E+00  0.40616121645E+01  0.17201610343E+03  0.17120000000E+03 0.  0.
        998    1    1    2    0    0 -0.28280079342E+01 -0.99529913050E+01  0.14260440499E+04  0.14261166474E+04  0.10000000000E+02 0.  1.
</event>
<event>
 5    1  0.1145138E-008  0.3696715E+03  0.7957747E-01  0.3497402E+00
         13   -1    0    0    0    0  0.00000000000E+00  0.00000000000E+00  0.14999999963E+04  0.15000000000E+04  0.10566000000E+00 0. -1.
        994   -1    0    0    0    0 -0.00000000000E+00 -0.00000000000E+00  0.11368683772E-12  0.17120000000E+03  0.17120000000E+03 0.  0.
         13    1    1    2    0    0 -0.26195158202E+03 -0.46878518929E+02  0.10701942858E+04  0.11027837718E+04  0.10566000000E+00 0. -1.
        994    1    1    2    0    0  0.24990363841E+03  0.45888177513E+02  0.27158866086E+03  0.40942324560E+03  0.17120000000E+03 0.  0.
        998    1    1    2    0    0  0.12047943607E+02  0.99034141643E+00  0.15821704965E+03  0.15899298262E+03  0.10000000000E+02 0.  0.
</event>
<event>
 5    1  0.1145138E-008  0.3766636E+03  0.7957747E-01  0.3465816E+00
         13   -1    0    0    0    0  0.00000000000E+00  0.00000000000E+00  0.14999999963E+04  0.15000000000E+04  0.10566000000E+00 0.  1.
        994   -1    0    0    0    0 -0.00000000000E+00 -0.00000000000E+00  0.11368683772E-12  0.17120000000E+03  0.17120000000E+03 0.  0.
         13    1    1    2    0    0 -0.18243606827E+02  0.84622401361E+02  0.43652047024E+03  0.44502124905E+03  0.10566000000E+00 0.  1.
        994    1    1    2    0    0  0.34220460348E+02 -0.84705802459E+02  0.34580982674E+02  0.19710757783E+03  0.17120000000E+03 0.  0.
        998    1    1    2    0    0 -0.15976853521E+02  0.83401097797E-01  0.10288985434E+04  0.10290711731E+04  0.10000000000E+02 0.  1.
</event>
<event>
 5    1  0.1145138E-008  0.3784813E+03  0.7957747E-01  0.3457798E+00
         13   -1    0    0    0    0  0.00000000000E+00  0.00000000000E+00  0.14999999963E+04  0.15000000000E+04  0.10566000000E+00 0.  1.
        994   -1    0    0    0    0 -0.00000000000E+00 -0.00000000000E+00  0.11368683772E-12  0.17120000000E+03  0.17120000000E+03 0.  0.
         13    1    1    2    0    0 -0.96927124282E+01  0.92528707029E+02  0.47183862644E+03  0.48092329000E+03  0.10566000000E+00 0.  1.
        994    1    1    2    0    0 -0.12587841463E+02 -0.11609783838E+03  0.52178031275E+02  0.21370341312E+03  0.17120000000E+03 0.  0.
        998    1    1    2    0    0  0.22280553891E+02  0.23569131354E+02  0.97598333856E+03  0.97657329688E+03  0.10000000000E+02 0.  1.
</event>
<event>
 5    1  0.1145138E-008  0.3825051E+03  0.7957747E-01  0.3440323E+00
         13   -1    0    0    0    0  0.00000000000E+00  0.00000000000E+00  0.14999999963E+04  0.15000000000E+04  0.10566000000E+00 0.  1.
        994   -1    0    0    0    0 -0.00000000000E+00 -0.00000000000E+00  0.11368683772E-12  0.17120000000E+03  0.17120000000E+03 0.  0.
         13    1    1    2    0    0 -0.44544843151E+01  0.22422374873E+02  0.64836423650E+02  0.68748660505E+02  0.10566000000E+00 0.  1.
        994    1    1    2    0    0  0.49477155455E+02 -0.75753553655E+02  0.30508178993E+02  0.19602749498E+03  0.17120000000E+03 0.  0.
        998    1    1    2    0    0 -0.45022671140E+02  0.53331178782E+02  0.14046553936E+04  0.14064238445E+04  0.10000000000E+02 0.  1.
</event>
<event>
 5    1  0.1145138E-008  0.3784235E+03  0.7957747E-01  0.3458052E+00
         13   -1    0    0    0    0  0.00000000000E+00  0.00000000000E+00  0.14999999963E+04  0.15000000000E+04  0.10566000000E+00 0.  1.
        994   -1    0    0    0    0 -0.00000000000E+00 -0.00000000000E+00  0.11368683772E-12  0.17120000000E+03  0.17120000000E+03 0.  0.
         13    1    1    2    0    0  0.24393956878E+02 -0.50992359159E+02  0.31744634299E+03  0.32243988225E+03  0.10566000000E+00 0.  1.
        994    1    1    2    0    0 -0.22992793936E+02  0.26693410646E+02  0.91133862708E+01  0.17502485696E+03  0.17120000000E+03 0.  0.
        998    1    1    2    0    0 -0.14011629414E+01  0.24298948513E+02  0.11734402670E+04  0.11737352608E+04  0.10000000000E+02 0.  1.
</event>
<event>
 5    1  0.1145138E-008  0.3726787E+03  0.7957747E-01  0.3483670E+00
         13   -1    0    0    0    0  0.00000000000E+00  0.00000000000E+00  0.14999999963E+04  0.15000000000E+04  0.10566000000E+00 0.  1.
        994   -1    0    0    0    0 -0.00000000000E+00 -0.00000000000E+00  0.11368683772E-12  0.17120000000E+03  0.17120000000E+03 0.  0.
         13    1    1    2    0    0  0.73005966919E+02 -0.16961486499E+02  0.34738138114E+03  0.35537501088E+03  0.10566000000E+00 0.  1.
        994    1    1    2    0    0 -0.46202235682E+02  0.21981736374E+01  0.15241323344E+02  0.17799218097E+03  0.17120000000E+03 0.  0.
        998    1    1    2    0    0 -0.26803731237E+02  0.14763312862E+02  0.11373772918E+04  0.11378328082E+04  0.10000000000E+02 0.  1.
</event>
<event>
 5    1  0.1145138E-008  0.3819638E+03  0.7957747E-01  0.3442652E+00
         13   -1    0    0    0    0  0.00000000000E+00  0.00000000000E+00  0.14999999963E+04  0.15000000000E+04  0.10566000000E+00 0.  1.
        994   -1    0    0    0    0 -0.00000000000E+00 -0.00000000000E+00  0.11368683772E-12  0.17120000000E+03  0.17120000000E+03 0.  0.
         13    1    1    2    0    0 -0.64499404403E+01  0.18254555437E+02  0.60150727591E+02  0.63189807087E+02  0.10566000000E+00 0.  1.
        994    1    1    2    0    0  0.10848780526E+02 -0.31825186739E+01  0.35697454666E+01  0.17161004501E+03  0.17120000000E+03 0.  0.
        998    1    1    2    0    0 -0.43988400861E+01 -0.15072036763E+02  0.14362795232E+04  0.14364001479E+04  0.10000000000E+02 0.  1.
</event>
<event>
 5    1  0.1145138E-008  0.3702649E+03  0.7957747E-01  0.3494674E+00
         13   -1    0    0    0    0  0.00000000000E+00  0.00000000000E+00  0.14999999963E+04  0.15000000000E+04  0.10566000000E+00 0.  1.
        994   -1    0    0    0    0 -0.00000000000E+00 -0.00000000000E+00  0.11368683772E-12  0.17120000000E+03  0.17120000000E+03 0.  0.
         13    1    1    2    0    0 -0.37907427040E+02  0.71410865620E+02  0.27353673292E+03  0.28523471068E+03  0.10566000000E+00 0.  1.
        994    1    1    2    0    0  0.19060246402E+02 -0.56002116411E+02  0.23426972991E+02  0.18264115938E+03  0.17120000000E+03 0.  0.
        998    1    1    2    0    0  0.18847180638E+02 -0.15408749209E+02  0.12030362904E+04  0.12033241299E+04  0.10000000000E+02 0.  1.
</event>
<event>
 5    1  0.1145138E-008  0.3701655E+03  0.7957747E-01  0.3495131E+00
         13   -1    0    0    0    0  0.00000000000E+00  0.00000000000E+00  0.14999999963E+04  0.15000000000E+04  0.10566000000E+00 0.  1.
        994   -1    0    0    0    0 -0.00000000000E+00 -0.00000000000E+00  0.11368683772E-12  0.17120000000E+03  0.17120000000E+03 0.  0.
         13    1    1    2    0    0  0.37920856846E+02  0.52307156403E+02  0.26622251574E+03  0.27394975642E+03  0.10566000000E+00 0.  1.
        994    1    1    2    0    0  0.26002438294E+02  0.81943785579E+01  0.13630691523E+02  0.17389223786E+03  0.17120000000E+03 0.  0.
        998    1    1    2    0    0 -0.63923295140E+02 -0.60501534961E+02  0.12201467890E+04  0.12233580057E+04  0.10000000000E+02 0.  1.
</event>
<event>
 5    1  0.1145138E-008  0.3800864E+03  0.7957747E-01  0.3450782E+00
         13   -1    0    0    0    0  0.00000000000E+00  0.00000000000E+00  0.14999999963E+04  0.15000000000E+04  0.10566000000E+00 0. -1.
        994   -1    0    0    0    0 -0.00000000000E+00 -0.00000000000E+00  0.11368683772E-12  0.17120000000E+03  0.17120000000E+03 0.  0.
         13    1    1    2    0    0 -0.18144799769E+02 -0.34226899238E+01  0.40618400691E+02  0.44618541031E+02  0.10566000000E+00 0. -1.
        994    1    1    2    0    0  0.86024224530E+01  0.16025131661E+01  0.43454765951E+01  0.17147854935E+03  0.17120000000E+03 0.  0.
        998    1    1    2    0    0  0.95423773162E+01  0.18201767577E+01  0.14550361190E+04  0.14551029096E+04  0.10000000000E+02 0. -1.
</event>
<event>
 5    1  0.1145138E-008  0.3783435E+03  0.7957747E-01  0.3458403E+00
         13   -1    0    0    0    0  0.00000000000E+00  0.00000000000E+00  0.14999999963E+04  0.15000000000E+04  0.10566000000E+00 0. -1.
        994   -1    0    0    0    0 -0.00000000000E+00 -0.00000000000E+00  0.11368683772E-12  0.17120000000E+03  0.17120000000E+03 0.  0.
         13    1    1    2    0    0  0.98180067949E+02 -0.75742434798E+01  0.56056169731E+03  0.56914508042E+03  0.10566000000E+00 0. -1.
        994    1    1    2    0    0 -0.10233705950E+03  0.17672411287E+02  0.42125065986E+02  0.20461952266E+03  0.17120000000E+03 0.  0.
        998    1    1    2    0    0  0.41569915519E+01 -0.10098167807E+02  0.89731323298E+03  0.89743539692E+03  0.10000000000E+02 0. -1.
</event>
<event>
 5    1  0.1145138E-008  0.3715978E+03  0.7957747E-01  0.3488580E+00
         13   -1    0    0    0    0  0.00000000000E+00  0.00000000000E+00  0.14999999963E+04  0.15000000000E+04  0.10566000000E+00 0. -1.
        994   -1    0    0    0    0 -0.00000000000E+00 -0.00000000000E+00  0.11368683772E-12  0.17120000000E+03  0.17120000000E+03 0.  0.
         13    1    1    2    0    0 -0.63620475439E+02 -0.42728927263E+02  0.41164836546E+03  0.41872152330E+03  0.10566000000E+00 0. -1.
        994    1    1    2    0    0  0.47584727175E+02 -0.22174335222E+02  0.17973643757E+02  0.17996805070E+03  0.17120000000E+03 0.  0.
        998    1    1    2    0    0  0.16035748264E+02  0.64903262485E+02  0.10703779871E+04  0.10725104260E+04  0.10000000000E+02 0.  1.
</event>
<event>
 5    1  0.1145138E-008  0.3842410E+03  0.7957747E-01  0.3432897E+00
         13   -1    0    0    0    0  0.00000000000E+00  0.00000000000E+00  0.14999999963E+04  0.15000000000E+04  0.10566000000E+00 0. -1.
        994   -1    0    0    0    0 -0.00000000000E+00 -0.00000000000E+00  0.11368683772E-12  0.17120000000E+03  0.17120000000E+03 0.  0.
         13    1    1    2    0    0 -0.11445750636E+02 -0.98233494620E+01  0.50878367862E+02  0.53067154461E+02  0.10566000000E+00 0. -1.
        994    1    1    2    0    0  0.11539583120E+02  0.33008484295E+02  0.60488840941E+01  0.17483921475E+03  0.17120000000E+03 0.  0.
        998    1    1    2    0    0 -0.93832484355E-01 -0.23185134833E+02  0.14430727443E+04  0.14432936308E+04  0.10000000000E+02 0. -1.
</event>
<event>
 5    1  0.1145138E-008  0.3766845E+03  0.7957747E-01  0.3465723E+00
         13   -1    0    0    0    0  0.00000000000E+00  0.00000000000E+00  0.14999999963E+04  0.15000000000E+04  0.10566000000E+00 0.  1.
        994   -1    0    0    0    0 -0.00000000000E+00 -0.00000000000E+00  0.11368683772E-12  0.17120000000E+03  0.17120000000E+03 0.  0.
         13    1    1    2    0    0 -0.46038545636E+01 -0.18734114106E+02  0.30106881557E+02  0.35757488576E+02  0.10566000000E+00 0.  1.
        994    1    1    2    0    0 -0.99587400818E+01  0.97543918986E+01  0.64733053976E+01  0.17188853466E+03  0.17120000000E+03 0.  0.
        998    1    1    2    0    0  0.14562594645E+02  0.89797222071E+01  0.14634198093E+04  0.14635539768E+04  0.10000000000E+02 0.  1.
</event>
<event>
 5    1  0.1145138E-008  0.3847279E+03  0.7957747E-01  0.3430827E+00
         13   -1    0    0    0    0  0.00000000000E+00  0.00000000000E+00  0.14999999963E+04  0.15000000000E+04  0.10566000000E+00 0.  1.
        994   -1    0    0    0    0 -0.00000000000E+00 -0.00000000000E+00  0.11368683772E-12  0.17120000000E+03  0.17120000000E+03 0.  0.
         13    1    1    2    0    0 -0.39296849663E+01  0.93023509223E+01  0.25609862088E+02  0.27529118345E+02  0.10566000000E+00 0.  1.
        994    1    1    2    0    0  0.15199634964E+02 -0.30621831147E+02  0.56217003794E+01  0.17467045818E+03  0.17120000000E+03 0.  0.
        998    1    1    2    0    0 -0.11269949997E+02  0.21319480225E+02  0.14687684338E+04  0.14690004235E+04  0.10000000000E+02 0.  1.
</event>
<event>
 5    1  0.1145138E-008  0.3712658E+03  0.7957747E-01  0.3490094E+00
         13   -1    0    0    0    0  0.00000000000E+00  0.00000000000E+00  0.14999999963E+04  0.15000000000E+04  0.10566000000E+00 0. -1.
        994   -1    0    0    0    0 -0.00000000000E+00 -0.00000000000E+00  0.11368683772E-12  0.17120000000E+03  0.17120000000E+03 0.  0.
         13    1    1    2    0    0  0.24898970893E+02 -0.47144597688E+02  0.19227905482E+03  0.19953400194E+03  0.10566000000E+00 0. -1.
        994    1    1    2    0    0 -0.12711168271E+02 -0.66705407330E+01  0.93186605716E+01  0.17205332705E+03  0.17120000000E+03 0.  0.
        998    1    1    2    0    0 -0.12187802622E+02  0.53815138421E+02  0.12984022809E+04  0.12996126710E+04  0.10000000000E+02 0. -1.
</event>
<event>
 5    1  0.1145138E-008  0.3736045E+03  0.7957747E-01  0.3479487E+00
         13   -1    0    0    0    0  0.00000000000E+00  0.00000000000E+00  0.14999999963E+04  0.15000000000E+04  0.10566000000E+00 0.  1.
        994   -1    0    0    0    0 -0.00000000000E+00 -0.00000000000E+00  0.11368683772E-12  0.17120000000E+03  0.17120000000E+03 0.  0.
         13    1    1    2    0    0 -0.26151468065E+02  0.27698605347E+02  0.10994191397E+03  0.11635440529E+03  0.10566000000E+00 0.  1.
        994    1    1    2    0    0  0.43320521288E+00  0.13474179368E+02  0.80180136001E+01  0.17191704313E+03  0.17120000000E+03 0.  0.
        998    1    1    2    0    0  0.25718262852E+02 -0.41172784715E+02  0.13820400687E+04  0.13829285516E+04  0.10000000000E+02 0.  1.
</event>
<event>
 5    1  0.1145138E-008  0.3849480E+03  0.7957747E-01  0.3429893E+00
         13   -1    0    0    0    0  0.00000000000E+00  0.00000000000E+00  0.14999999963E+04  0.15000000000E+04  0.10566000000E+00 0.  1.
        994   -1    0    0    0    0 -0.00000000000E+00 -0.00000000000E+00  0.11368683772E-12  0.17120000000E+03  0.17120000000E+03 0.  0.
         13    1    1    2    0    0  0.68825910271E+01  0.17857470089E+02  0.10676764221E+03  0.10846934998E+03  0.10566000000E+00 0.  1.
        994    1    1    2    0    0 -0.22059865838E+02 -0.97494033664E+01  0.35716079469E+01  0.17292739786E+03  0.17120000000E+03 0.  0.
        998    1    1    2    0    0  0.15177274811E+02 -0.81080667225E+01  0.13896607461E+04  0.13898032522E+04  0.10000000000E+02 0.  1.
</event>
<event>
 5    1  0.1145138E-008  0.3834527E+03  0.7957747E-01  0.3436261E+00
         13   -1    0    0    0    0  0.00000000000E+00  0.00000000000E+00  0.14999999963E+04  0.15000000000E+04  0.10566000000E+00 0.  1.
        994   -1    0    0    0    0 -0.00000000000E+00 -0.00000000000E+00  0.11368683772E-12  0.17120000000E+03  0.17120000000E+03 0.  0.
         13    1    1    2    0    0 -0.12539615230E+02  0.18956598795E+01  0.31900911626E+02  0.34329503391E+02  0.10566000000E+00 0.  1.
        994    1    1    2    0    0  0.15090939197E+02 -0.43088251824E+01  0.32148211525E+01  0.17194789180E+03  0.17120000000E+03 0.  0.
        998    1    1    2    0    0 -0.25513239661E+01  0.24131653029E+01  0.14648842635E+04  0.14649226048E+04  0.10000000000E+02 0.  1.
</event>
<event>
 5    1  0.1145138E-008  0.3814795E+03  0.7957747E-01  0.3444742E+00
         13   -1    0    0    0    0  0.00000000000E+00  0.00000000000E+00  0.14999999963E+04  0.15000000000E+04  0.10566000000E+00 0.  1.
        994   -1    0    0    0    0 -0.00000000000E+00 -0.00000000000E+00  0.11368683772E-12  0.17120000000E+03  0.17120000000E+03 0.  0.
         13    1    1    2    0    0  0.20658167679E+01 -0.21282185370E+02  0.66359733905E+02  0.69719613173E+02  0.10566000000E+00 0.  1.
        994    1    1    2    0    0 -0.13982477842E+02  0.12290794748E+02  0.45419264395E+01  0.17226909885E+03  0.17120000000E+03 0.  0.
        998    1    1    2    0    0  0.11916661074E+02  0.89913906212E+01  0.14290983359E+04  0.14292112880E+04  0.10000000000E+02 0.  1.
</event>
<event>
 5    1  0.1431066E-008  0.3860585E+03  0.7957747E-01  0.3425195E+00
         13   -1    0    0    0    0  0.00000000000E+00  0.00000000000E+00  0.14999999963E+04  0.15000000000E+04  0.10566000000E+00 0. -1.
        994   -1    0    0    0    0 -0.00000000000E+00 -0.00000000000E+00  0.11368683772E-12  0.17120000000E+03  0.17120000000E+03 0.  0.
         13    1    1    2    0    0 -0.60688695679E+01  0.82865367081E+01  0.48424898567E+02  0.49502321498E+02  0.10566000000E+00 0. -1.
        994    1    1    2    0    0  0.75309323218E+01 -0.26889329078E+01  0.13151347952E+01  0.17139170015E+03  0.17120000000E+03 0.  0.
        998    1    1    2    0    0 -0.14620627540E+01 -0.55976038003E+01  0.14502599629E+04  0.14503059783E+04  0.10000000000E+02 0. -1.
</event>
<event>
 5    1  0.1145138E-008  0.4111933E+03  0.7957747E-01  0.3325652E+00
         13   -1    0    0    0    0  0.00000000000E+00  0.00000000000E+00  0.14999999963E+04  0.15000000000E+04  0.10566000000E+00 0.  1.
        994   -1    0    0    0    0 -0.00000000000E+00 -0.00000000000E+00  0.11368683772E-12  0.17120000000E+03  0.17120000000E+03 0.  0.
         13    1    1    2    0    0 -0.49216793221E+02 -0.76536230407E+02  0.10584012385E+03  0.13957876013E+03  0.10566000000E+00 0.  1.
        994    1    1    2    0    0  0.54684259243E+02  0.58195153938E+02  0.61327657549E+02  0.19861411262E+03  0.17120000000E+03 0.  0.
        998    1    1    2    0    0 -0.54674660219E+01  0.18341076469E+02  0.13328322149E+04  0.13330071272E+04  0.10000000000E+02 0.  1.
</event>
<event>
 5    1  0.1145138E-008  0.3727498E+03  0.7957747E-01  0.3483348E+00
         13   -1    0    0    0    0  0.00000000000E+00  0.00000000000E+00  0.14999999963E+04  0.15000000000E+04  0.10566000000E+00 0. -1.
        994   -1    0    0    0    0 -0.00000000000E+00 -0.00000000000E+00  0.11368683772E-12  0.17120000000E+03  0.17120000000E+03 0.  0.
         13    1    1    2    0    0 -0.54449717093E+01  0.10349563936E+02 -0.26346742600E+00  0.11697938694E+02  0.10566000000E+00 0. -1.
        994    1    1    2    0    0  0.40702680070E+01 -0.10230120671E+02  0.12828292033E+02  0.17203263506E+03  0.17120000000E+03 0.  0.
        998    1    1    2    0    0  0.13747037023E+01 -0.11944326516E+00  0.14874351717E+04  0.14874694262E+04  0.10000000000E+02 0. -1.
</event>
<event>
 5    1  0.1145138E-008  0.3847631E+03  0.7957747E-01  0.3430677E+00
         13   -1    0    0    0    0  0.00000000000E+00  0.00000000000E+00  0.14999999963E+04  0.15000000000E+04  0.10566000000E+00 0.  1.
        994   -1    0    0    0    0 -0.00000000000E+00 -0.00000000000E+00  0.11368683772E-12  0.17120000000E+03  0.17120000000E+03 0.  0.
         13    1    1    2    0    0 -0.52292475839E+01 -0.16659131832E+02  0.92971901618E+02  0.94597343294E+02  0.10566000000E+00 0.  1.
        994    1    1    2    0    0 -0.85257124108E+01  0.54223798314E+01  0.20838484346E+01  0.17151056061E+03  0.17120000000E+03 0.  0.
        998    1    1    2    0    0  0.13754959995E+02  0.11236752000E+02  0.14049442462E+04  0.14050920961E+04  0.10000000000E+02 0.  1.
</event>
<event>
 5    1  0.1145138E-008  0.3810910E+03  0.7957747E-01  0.3446422E+00
         13   -1    0    0    0    0  0.00000000000E+00  0.00000000000E+00  0.14999999963E+04  0.15000000000E+04  0.10566000000E+00 0.  1.
        994   -1    0    0    0    0 -0.00000000000E+00 -0.00000000000E+00  0.11368683772E-12  0.17120000000E+03  0.17120000000E+03 0.  0.
         13    1    1    2    0    0 -0.16304365041E+02  0.17696643858E+02  0.75765903597E+02  0.79495200076E+02  0.10566000000E+00 0.  1.
        994    1    1    2    0    0  0.16032255738E+02 -0.19667726201E+02  0.57309932562E+01  0.17316505699E+03  0.17120000000E+03 0.  0.
        998    1    1    2    0    0  0.27210930232E+00  0.19710823434E+01  0.14185030994E+04  0.14185397429E+04  0.10000000000E+02 0.  1.
</event>
<event>
 5    1  0.1145138E-008  0.3746439E+03  0.7957747E-01  0.3474817E+00
         13   -1    0    0    0    0  0.00000000000E+00  0.00000000000E+00  0.14999999963E+04  0.15000000000E+04  0.10566000000E+00 0. -1.
        994   -1    0    0    0    0 -0.00000000000E+00 -0.00000000000E+00  0.11368683772E-12  0.17120000000E+03  0.17120000000E+03 0.  0.
         13    1    1    2    0    0 -0.68509948456E+02  0.33303291497E+02  0.22032761339E+03  0.23312441024E+03  0.10566000000E+00 0. -1.
        994    1    1    2    0    0  0.28604009501E+02 -0.28106866811E+02  0.19152783811E+02  0.17687412035E+03  0.17120000000E+03 0.  0.
        998    1    1    2    0    0  0.39905938955E+02 -0.51964246859E+01  0.12605195991E+04  0.12612014694E+04  0.10000000000E+02 0. -1.
</event>
<event>
 5    1  0.1145138E-008  0.4085472E+03  0.7957747E-01  0.3335559E+00
         13   -1    0    0    0    0  0.00000000000E+00  0.00000000000E+00  0.14999999963E+04  0.15000000000E+04  0.10566000000E+00 0. -1.
        994   -1    0    0    0    0 -0.00000000000E+00 -0.00000000000E+00  0.11368683772E-12  0.17120000000E+03  0.17120000000E+03 0.  0.
         13    1    1    2    0    0  0.52636060120E+02 -0.31283463593E+02  0.43880642210E+02  0.75330816032E+02  0.10566000000E+00 0. -1.
        994    1    1    2    0    0 -0.43308376523E+02  0.48494025898E+02  0.50347181139E+02  0.18992515545E+03  0.17120000000E+03 0.  0.
        998    1    1    2    0    0 -0.93276835965E+01 -0.17210562306E+02  0.14057721729E+04  0.14059440285E+04  0.10000000000E+02 0. -1.
</event>
<event>
 5    1  0.1145138E-008  0.3784810E+03  0.7957747E-01  0.3457800E+00
         13   -1    0    0    0    0  0.00000000000E+00  0.00000000000E+00  0.14999999963E+04  0.15000000000E+04  0.10566000000E+00 0.  1.
        994   -1    0    0    0    0 -0.00000000000E+00 -0.00000000000E+00  0.11368683772E-12  0.17120000000E+03  0.17120000000E+03 0.  0.
         13    1    1    2    0    0  0.39262858750E+02 -0.43429677859E+01  0.16847003352E+03  0.17303929267E+03  0.10566000000E+00 0.  1.
        994    1    1    2    0    0 -0.12795800548E+02 -0.29553544690E+01  0.54815764466E+01  0.17179043720E+03  0.17120000000E+03 0.  0.
        998    1    1    2    0    0 -0.26467058203E+02  0.72983222550E+01  0.13260483863E+04  0.13263702701E+04  0.10000000000E+02 0.  0.
</event>
<event>
 5    1  0.1145138E-008  0.3830246E+03  0.7957747E-01  0.3438094E+00
         13   -1    0    0    0    0  0.00000000000E+00  0.00000000000E+00  0.14999999963E+04  0.15000000000E+04  0.10566000000E+00 0. -1.
        994   -1    0    0    0    0 -0.00000000000E+00 -0.00000000000E+00  0.11368683772E-12  0.17120000000E+03  0.17120000000E+03 0.  0.
         13    1    1    2    0    0  0.18853599923E+02  0.66693154923E+01  0.74133036732E+02  0.76783177183E+02  0.10566000000E+00 0. -1.
        994    1    1    2    0    0 -0.14924409242E+02 -0.79850321775E+01  0.35629192363E+01  0.17207159302E+03  0.17120000000E+03 0.  0.
        998    1    1    2    0    0 -0.39291906816E+01  0.13157166852E+01  0.14223040403E+04  0.14223452298E+04  0.10000000000E+02 0. -1.
</event>
<event>
 5    1  0.1145138E-008  0.3752386E+03  0.7957747E-01  0.3472156E+00
         13   -1    0    0    0    0  0.00000000000E+00  0.00000000000E+00  0.14999999963E+04  0.15000000000E+04  0.10566000000E+00 0.  1.
        994   -1    0    0    0    0 -0.00000000000E+00 -0.00000000000E+00  0.11368683772E-12  0.17120000000E+03  0.17120000000E+03 0.  0.
         13    1    1    2    0    0  0.25011509420E+01 -0.14981611229E+02  0.14809665729E+02  0.21214188508E+02  0.10566000000E+00 0.  1.
        994    1    1    2    0    0 -0.14687781604E+02  0.57541994092E+01  0.74018903593E+01  0.17208448425E+03  0.17120000000E+03 0.  0.
        998    1    1    2    0    0  0.12186630662E+02  0.92274118195E+01  0.14777884402E+04  0.14779013272E+04  0.10000000000E+02 0.  1.
</event>
<event>
 5    1  0.1145138E-008  0.3840132E+03  0.7957747E-01  0.3433868E+00
         13   -1    0    0    0    0  0.00000000000E+00  0.00000000000E+00  0.14999999963E+04  0.15000000000E+04  0.10566000000E+00 0.  1.
        994   -1    0    0    0    0 -0.00000000000E+00 -0.00000000000E+00  0.11368683772E-12  0.17120000000E+03  0.17120000000E+03 0.  0.
         13    1    1    2    0    0 -0.23905447475E+02  0.11958710434E+02  0.15997308754E+03  0.16219087853E+03  0.10566000000E+00 0.  1.
        994    1    1    2    0    0  0.34882311364E+02  0.17320779358E+02  0.71411845713E+01  0.17571915536E+03  0.17120000000E+03 0.  0.
        998    1    1    2    0    0 -0.10976863889E+02 -0.29279489792E+02  0.13328857242E+04  0.13332899661E+04  0.10000000000E+02 0.  1.
</event>
<event>
 5    1  0.1145138E-008  0.3824468E+03  0.7957747E-01  0.3440573E+00
         13   -1    0    0    0    0  0.00000000000E+00  0.00000000000E+00  0.14999999963E+04  0.15000000000E+04  0.10566000000E+00 0. -1.
        994   -1    0    0    0    0 -0.00000000000E+00 -0.00000000000E+00  0.11368683772E-12  0.17120000000E+03  0.17120000000E+03 0.  0.
         13    1    1    2    0    0 -0.63618135734E+01  0.21601087685E+02  0.79562591711E+02  0.82687948487E+02  0.10566000000E+00 0. -1.
        994    1    1    2    0    0  0.30493226952E+02 -0.22451200842E+02  0.76726369610E+01  0.17550556307E+03  0.17120000000E+03 0.  0.
        998    1    1    2    0    0 -0.24131413378E+02  0.85011315680E+00  0.14127647676E+04  0.14130064884E+04  0.10000000000E+02 0. -1.
</event>
<event>
 5    1  0.1145138E-008  0.3775918E+03  0.7957747E-01  0.3461712E+00
         13   -1    0    0    0    0  0.00000000000E+00  0.00000000000E+00  0.14999999963E+04  0.15000000000E+04  0.10566000000E+00 0. -1.
        994   -1    0    0    0    0 -0.00000000000E+00 -0.00000000000E+00  0.11368683772E-12  0.17120000000E+03  0.17120000000E+03 0.  0.
         13    1    1    2    0    0 -0.65701456099E+00 -0.10476232749E+02  0.77402193383E+01  0.13042441496E+02  0.10566000000E+00 0. -1.
        994    1    1    2    0    0  0.37586562451E+01  0.14086897215E+02  0.60703798205E+01  0.17192689633E+03  0.17120000000E+03 0.  0.
        998    1    1    2    0    0 -0.31016416841E+01 -0.36106644659E+01  0.14861893971E+04  0.14862306622E+04  0.10000000000E+02 0. -1.
</event>
<event>
 5    1  0.1145138E-008  0.3803999E+03  0.7957747E-01  0.3449419E+00
         13   -1    0    0    0    0  0.00000000000E+00  0.00000000000E+00  0.14999999963E+04  0.15000000000E+04  0.10566000000E+00 0. -1.
        994   -1    0    0    0    0 -0.00000000000E+00 -0.00000000000E+00  0.11368683772E-12  0.17120000000E+03  0.17120000000E+03 0.  0.
         13    1    1    2    0    0 -0.16319748087E+02 -0.29764019593E+02  0.14156663100E+03  0.14557937084E+03  0.10566000000E+00 0. -1.
        994    1    1    2    0    0 -0.11116726831E+01  0.28389181561E+02  0.66308474191E+01  0.17366804422E+03  0.17120000000E+03 0.  0.
        998    1    1    2    0    0  0.17431420770E+02  0.13748380318E+01  0.13518025179E+04  0.13519525849E+04  0.10000000000E+02 0. -1.
</event>
<event>
 5    1  0.1145138E-008  0.3782961E+03  0.7957747E-01  0.3458612E+00
         13   -1    0    0    0    0  0.00000000000E+00  0.00000000000E+00  0.14999999963E+04  0.15000000000E+04  0.10566000000E+00 0. -1.
        994   -1    0    0    0    0 -0.00000000000E+00 -0.00000000000E+00  0.11368683772E-12  0.17120000000E+03  0.17120000000E+03 0.  0.
         13    1    1    2    0    0 -0.11385562964E+02 -0.12027262552E+02  0.25418024419E+02  0.30337653467E+02  0.10566000000E+00 0. -1.
        994    1    1    2    0    0  0.17615399379E+01  0.13400488321E+02  0.56101279417E+01  0.17182429876E+03  0.17120000000E+03 0.  0.
        998    1    1    2    0    0  0.96240230261E+01 -0.13732257682E+01  0.14689718439E+04  0.14690380478E+04  0.10000000000E+02 0. -1.
</event>
<event>
 5    1  0.1145138E-008  0.3767273E+03  0.7957747E-01  0.3465533E+00
         13   -1    0    0    0    0  0.00000000000E+00  0.00000000000E+00  0.14999999963E+04  0.15000000000E+04  0.10566000000E+00 0.  1.
        994   -1    0    0    0    0 -0.00000000000E+00 -0.00000000000E+00  0.11368683772E-12  0.17120000000E+03  0.17120000000E+03 0.  0.
         13    1    1    2    0    0  0.26742711969E+02 -0.73299456170E+01  0.64756905328E+02  0.70444082065E+02  0.10566000000E+00 0.  1.
        994    1    1    2    0    0 -0.23972131791E+02 -0.28977499253E+02  0.10589143617E+02  0.17560161881E+03  0.17120000000E+03 0.  0.
        998    1    1    2    0    0 -0.27705801785E+01  0.36307444870E+02  0.14246539473E+04  0.14251542991E+04  0.10000000000E+02 0.  1.
</event>
<event>
 5    1  0.1145138E-008  0.3701897E+03  0.7957747E-01  0.3495019E+00
         13   -1    0    0    0    0  0.00000000000E+00  0.00000000000E+00  0.14999999963E+04  0.15000000000E+04  0.10566000000E+00 0. -1.
        994   -1    0    0    0    0 -0.00000000000E+00 -0.00000000000E+00  0.11368683772E-12  0.17120000000E+03  0.17120000000E+03 0.  0.
         13    1    1    2    0    0  0.71213570501E+01 -0.83218362746E+02  0.43082003045E+03  0.43884156529E+03  0.10566000000E+00 0. -1.
        994    1    1    2    0    0  0.89777824346E+01  0.96609539089E+01  0.11647863582E+02  0.17210185163E+03  0.17120000000E+03 0.  0.
        998    1    1    2    0    0 -0.16099139485E+02  0.73557408837E+02  0.10575321022E+04  0.10602565831E+04  0.10000000000E+02 0. -1.
</event>
<event>
 5    1  0.1145138E-008  0.3808067E+03  0.7957747E-01  0.3447653E+00
         13   -1    0    0    0    0  0.00000000000E+00  0.00000000000E+00  0.14999999963E+04  0.15000000000E+04  0.10566000000E+00 0.  1.
        994   -1    0    0    0    0 -0.00000000000E+00 -0.00000000000E+00  0.11368683772E-12  0.17120000000E+03  0.17120000000E+03 0.  0.
         13    1    1    2    0    0 -0.52859888768E+01 -0.10325131645E+02  0.16639350941E+02  0.20283717255E+02  0.10566000000E+00 0.  1.
        994    1    1    2    0    0 -0.13534005192E+02  0.12161255276E+02  0.48310398373E+01  0.17223194934E+03  0.17120000000E+03 0.  0.
        998    1    1    2    0    0  0.18819994069E+02 -0.18361236306E+01  0.14785296055E+04  0.14786843334E+04  0.10000000000E+02 0.  1.
</event>
<event>
 5    1  0.1145138E-008  0.3845266E+03  0.7957747E-01  0.3431682E+00
         13   -1    0    0    0    0  0.00000000000E+00  0.00000000000E+00  0.14999999963E+04  0.15000000000E+04  0.10566000000E+00 0. -1.
        994   -1    0    0    0    0 -0.00000000000E+00 -0.00000000000E+00  0.11368683772E-12  0.17120000000E+03  0.17120000000E+03 0.  0.
         13    1    1    2    0    0 -0.20895299393E+02  0.51834349420E+01  0.11017526185E+03  0.11225899083E+03  0.10566000000E+00 0. -1.
        994    1    1    2    0    0  0.23849056549E+02 -0.27290162281E+02  0.62037340508E+01  0.17510413122E+03  0.17120000000E+03 0.  0.
        998    1    1    2    0    0 -0.29537571567E+01  0.22106727339E+02  0.13836210004E+04  0.13838368779E+04  0.10000000000E+02 0. -1.
</event>
<event>
 5    1  0.1145138E-008  0.3698256E+03  0.7957747E-01  0.3496693E+00
         13   -1    0    0    0    0  0.00000000000E+00  0.00000000000E+00  0.14999999963E+04  0.15000000000E+04  0.10566000000E+00 0.  1.
        994   -1    0    0    0    0 -0.00000000000E+00 -0.00000000000E+00  0.11368683772E-12  0.17120000000E+03  0.17120000000E+03 0.  0.
         13    1    1    2    0    0  0.99268177709E+01  0.14657486739E+02  0.93972660944E+01  0.20042539825E+02  0.10566000000E+00 0.  1.
        994    1    1    2    0    0  0.53642491804E+02 -0.52954748617E+02  0.30970719184E+02  0.18960576936E+03  0.17120000000E+03 0.  0.
        998    1    1    2    0    0 -0.63569309574E+02  0.38297261878E+02  0.14596320110E+04  0.14615516908E+04  0.10000000000E+02 0.  1.
</event>
<event>
 5    1  0.1145138E-008  0.2862064E+03  0.7957747E-01  0.3999696E+00
         13   -1    0    0    0    0  0.00000000000E+00  0.00000000000E+00  0.14999999963E+04  0.15000000000E+04  0.10566000000E+00 0. -1.
        994   -1    0    0    0    0 -0.00000000000E+00 -0.00000000000E+00  0.11368683772E-12  0.17120000000E+03  0.17120000000E+03 0.  0.
         13    1    1    2    0    0  0.86099335170E+01  0.12758082951E+03  0.69966496970E+03  0.71125387873E+03  0.10566000000E+00 0. -1.
        994    1    1    2    0    0 -0.10323480138E+03 -0.70391671162E+02  0.72969060612E+02  0.22415694366E+03  0.17120000000E+03 0.  0.
        998    1    1    2    0    0  0.94624867859E+02 -0.57189158344E+02  0.72736596597E+03  0.73578917762E+03  0.10000000000E+02 0. -1.
</event>
<event>
 5    1  0.1145138E-008  0.3833129E+03  0.7957747E-01  0.3436859E+00
         13   -1    0    0    0    0  0.00000000000E+00  0.00000000000E+00  0.14999999963E+04  0.15000000000E+04  0.10566000000E+00 0.  1.
        994   -1    0    0    0    0 -0.00000000000E+00 -0.00000000000E+00  0.11368683772E-12  0.17120000000E+03  0.17120000000E+03 0.  0.
         13    1    1    2    0    0  0.84351703675E+01  0.21674142198E+02  0.10740562594E+03  0.10989495069E+03  0.10566000000E+00 0.  1.
        994    1    1    2    0    0 -0.29358636111E+01 -0.16389697991E+02  0.33873932367E+01  0.17204114603E+03  0.17120000000E+03 0.  0.
        998    1    1    2    0    0 -0.54993067565E+01 -0.52844442068E+01  0.13892069771E+04  0.13892639033E+04  0.10000000000E+02 0.  1.
</event>
<event>
 5    1  0.1145138E-008  0.3212736E+03  0.7957747E-01  0.3754952E+00
         13   -1    0    0    0    0  0.00000000000E+00  0.00000000000E+00  0.14999999963E+04  0.15000000000E+04  0.10566000000E+00 0.  1.
        994   -1    0    0    0    0 -0.00000000000E+00 -0.00000000000E+00  0.11368683772E-12  0.17120000000E+03  0.17120000000E+03 0.  0.
         13    1    1    2    0    0  0.18359807463E+03 -0.18008631618E+03  0.80857299727E+03  0.84848667483E+03  0.10566000000E+00 0.  1.
        994    1    1    2    0    0 -0.10497381359E+03  0.15778062233E+03  0.19985262649E+03  0.32429113253E+03  0.17120000000E+03 0.  0.
        998    1    1    2    0    0 -0.78624261043E+02  0.22305693853E+02  0.49157437252E+03  0.49842219264E+03  0.10000000000E+02 0.  1.
</event>
<event>
 5    1  0.1145138E-008  0.3767429E+03  0.7957747E-01  0.3465465E+00
         13   -1    0    0    0    0  0.00000000000E+00  0.00000000000E+00  0.14999999963E+04  0.15000000000E+04  0.10566000000E+00 0. -1.
        994   -1    0    0    0    0 -0.00000000000E+00 -0.00000000000E+00  0.11368683772E-12  0.17120000000E+03  0.17120000000E+03 0.  0.
         13    1    1    2    0    0 -0.15166504095E+02 -0.18651060156E+02  0.48904365725E+02  0.54493422010E+02  0.10566000000E+00 0. -1.
        994    1    1    2    0    0  0.32858997258E+01  0.77793506219E+01  0.60274798191E+01  0.17151409839E+03  0.17120000000E+03 0.  0.
        998    1    1    2    0    0  0.11880604369E+02  0.10871709534E+02  0.14450681507E+04  0.14451924796E+04  0.10000000000E+02 0. -1.
</event>
<event>
 5    1  0.1145138E-008  0.3735343E+03  0.7957747E-01  0.3479804E+00
         13   -1    0    0    0    0  0.00000000000E+00  0.00000000000E+00  0.14999999963E+04  0.15000000000E+04  0.10566000000E+00 0. -1.
        994   -1    0    0    0    0 -0.00000000000E+00 -0.00000000000E+00  0.11368683772E-12  0.17120000000E+03  0.17120000000E+03 0.  0.
         13    1    1    2    0    0 -0.12344758493E+02  0.22326290643E+02  0.39234303638E+02  0.46799551944E+02  0.10566000000E+00 0. -1.
        994    1    1    2    0    0  0.19513125054E+02 -0.24689952230E+02  0.10823942689E+02  0.17440456853E+03  0.17120000000E+03 0.  0.
        998    1    1    2    0    0 -0.71683665606E+01  0.23636615868E+01  0.14499417500E+04  0.14499958795E+04  0.10000000000E+02 0. -1.
</event>
<event>
 5    1  0.1145138E-008  0.3856257E+03  0.7957747E-01  0.3427023E+00
         13   -1    0    0    0    0  0.00000000000E+00  0.00000000000E+00  0.14999999963E+04  0.15000000000E+04  0.10566000000E+00 0. -1.
        994   -1    0    0    0    0 -0.00000000000E+00 -0.00000000000E+00  0.11368683772E-12  0.17120000000E+03  0.17120000000E+03 0.  0.
         13    1    1    2    0    0  0.15646202744E+02  0.29912330132E+00  0.86302140245E+02  0.87709541727E+02  0.10566000000E+00 0. -1.
        994    1    1    2    0    0 -0.20100107587E+02  0.28781458901E+01  0.26741131785E+01  0.17242067431E+03  0.17120000000E+03 0.  0.
        998    1    1    2    0    0  0.44539048434E+01 -0.31772691914E+01  0.14110237429E+04  0.14110697840E+04  0.10000000000E+02 0. -1.
</event>
<event>
 5    1  0.1145138E-008  0.3851677E+03  0.7957747E-01  0.3428961E+00
         13   -1    0    0    0    0  0.00000000000E+00  0.00000000000E+00  0.14999999963E+04  0.15000000000E+04  0.10566000000E+00 0. -1.
        994   -1    0    0    0    0 -0.00000000000E+00 -0.00000000000E+00  0.11368683772E-12  0.17120000000E+03  0.17120000000E+03 0.  0.
         13    1    1    2    0    0  0.28004103222E+01  0.16100351973E+02  0.84292013639E+02  0.85861623319E+02  0.10566000000E+00 0. -1.
        994    1    1    2    0    0  0.19020948097E+01 -0.14658893180E+02  0.22654309793E+01  0.17185189348E+03  0.17120000000E+03 0.  0.
        998    1    1    2    0    0 -0.47025051319E+01 -0.14414587929E+01  0.14134425517E+04  0.14134864832E+04  0.10000000000E+02 0. -1.
</event>
<event>
 5    1  0.1145138E-008  0.3769016E+03  0.7957747E-01  0.3464762E+00
         13   -1    0    0    0    0  0.00000000000E+00  0.00000000000E+00  0.14999999963E+04  0.15000000000E+04  0.10566000000E+00 0. -1.
        994   -1    0    0    0    0 -0.00000000000E+00 -0.00000000000E+00  0.11368683772E-12  0.17120000000E+03  0.17120000000E+03 0.  0.
         13    1    1    2    0    0  0.91018693224E-01  0.24287150758E+02  0.52236949618E+02  0.57607152731E+02  0.10566000000E+00 0. -1.
        994    1    1    2    0    0 -0.97287892504E+01  0.90672376443E-01  0.60252179501E+01  0.17158205271E+03  0.17120000000E+03 0.  0.
        998    1    1    2    0    0  0.96377705572E+01 -0.24377823134E+02  0.14417378287E+04  0.14420107946E+04  0.10000000000E+02 0. -1.
</event>
<event>
 5    1  0.1145138E-008  0.3885145E+03  0.7957747E-01  0.3414902E+00
         13   -1    0    0    0    0  0.00000000000E+00  0.00000000000E+00  0.14999999963E+04  0.15000000000E+04  0.10566000000E+00 0. -1.
        994   -1    0    0    0    0 -0.00000000000E+00 -0.00000000000E+00  0.11368683772E-12  0.17120000000E+03  0.17120000000E+03 0.  0.
         13    1    1    2    0    0 -0.37790180957E+02 -0.31690202951E+02  0.47310377864E+02  0.68342152128E+02  0.10566000000E+00 0. -1.
        994    1    1    2    0    0  0.42704182004E+02  0.39370480083E+02  0.33816630185E+02  0.18392032606E+03  0.17120000000E+03 0.  0.
        998    1    1    2    0    0 -0.49140010469E+01 -0.76802771319E+01  0.14188729882E+04  0.14189375218E+04  0.10000000000E+02 0. -1.
</event>
<event>
 5    1  0.1145138E-008  0.3701123E+03  0.7957747E-01  0.3495375E+00
         13   -1    0    0    0    0  0.00000000000E+00  0.00000000000E+00  0.14999999963E+04  0.15000000000E+04  0.10566000000E+00 0.  1.
        994   -1    0    0    0    0 -0.00000000000E+00 -0.00000000000E+00  0.11368683772E-12  0.17120000000E+03  0.17120000000E+03 0.  0.
         13    1    1    2    0    0 -0.70911061385E+01 -0.18755806430E+02  0.17437097342E+02  0.26573061338E+02  0.10566000000E+00 0.  1.
        994    1    1    2    0    0  0.93146830324E+01  0.22748122309E+02  0.11301611806E+02  0.17332457073E+03  0.17120000000E+03 0.  0.
        998    1    1    2    0    0 -0.22235768939E+01 -0.39923158787E+01  0.14712612871E+04  0.14713023679E+04  0.10000000000E+02 0.  1.
</event>
<event>
 5    1  0.1145138E-008  0.3822196E+03  0.7957747E-01  0.3441550E+00
         13   -1    0    0    0    0  0.00000000000E+00  0.00000000000E+00  0.14999999963E+04  0.15000000000E+04  0.10566000000E+00 0. -1.
        994   -1    0    0    0    0 -0.00000000000E+00 -0.00000000000E+00  0.11368683772E-12  0.17120000000E+03  0.17120000000E+03 0.  0.
         13    1    1    2    0    0 -0.26854510656E+02 -0.55076051098E+01  0.12368871575E+03  0.12669020493E+03  0.10566000000E+00 0. -1.
        994    1    1    2    0    0  0.19065156306E+02 -0.10066596537E+02  0.45609054489E+01  0.17261245149E+03  0.17120000000E+03 0.  0.
        998    1    1    2    0    0  0.77893543503E+01  0.15574201647E+02  0.13717503751E+04  0.13718973436E+04  0.10000000000E+02 0. -1.
</event>
<event>
 5    1  0.1145138E-008  0.3964499E+03  0.7957747E-01  0.3382517E+00
         13   -1    0    0    0    0  0.00000000000E+00  0.00000000000E+00  0.14999999963E+04  0.15000000000E+04  0.10566000000E+00 0.  1.
        994   -1    0    0    0    0 -0.00000000000E+00 -0.00000000000E+00  0.11368683772E-12  0.17120000000E+03  0.17120000000E+03 0.  0.
         13    1    1    2    0    0  0.84864304789E+02 -0.61931625823E+02  0.26862188135E+03  0.28843578628E+03  0.10566000000E+00 0.  1.
        994    1    1    2    0    0  0.21512014055E+02  0.43882951889E+02  0.34947453719E+02  0.18143661355E+03  0.17120000000E+03 0.  0.
        998    1    1    2    0    0 -0.10637631884E+03  0.18048673934E+02  0.11964306612E+04  0.12013276002E+04  0.10000000000E+02 0.  1.
</event>
<event>
 5    1  0.1145138E-008  0.3844376E+03  0.7957747E-01  0.3432061E+00
         13   -1    0    0    0    0  0.00000000000E+00  0.00000000000E+00  0.14999999963E+04  0.15000000000E+04  0.10566000000E+00 0. -1.
        994   -1    0    0    0    0 -0.00000000000E+00 -0.00000000000E+00  0.11368683772E-12  0.17120000000E+03  0.17120000000E+03 0.  0.
         13    1    1    2    0    0 -0.17942790470E+02  0.75442087421E+01  0.10147422703E+03  0.10332419238E+03  0.10566000000E+00 0. -1.
        994    1    1    2    0    0  0.61748237526E+01 -0.83941216547E+01  0.22674560895E+01  0.17153183694E+03  0.17120000000E+03 0.  0.
        998    1    1    2    0    0  0.11767966718E+02  0.84991291263E+00  0.13962583132E+04  0.13963439707E+04  0.10000000000E+02 0. -1.
</event>
<event>
 5    1  0.1145138E-008  0.3754431E+03  0.7957747E-01  0.3471244E+00
         13   -1    0    0    0    0  0.00000000000E+00  0.00000000000E+00  0.14999999963E+04  0.15000000000E+04  0.10566000000E+00 0. -1.
        994   -1    0    0    0    0 -0.00000000000E+00 -0.00000000000E+00  0.11368683772E-12  0.17120000000E+03  0.17120000000E+03 0.  0.
         13    1    1    2    0    0 -0.19492854348E+02  0.13852739676E+02  0.42174122981E+02  0.48482342975E+02  0.10566000000E+00 0. -1.
        994    1    1    2    0    0  0.89696684305E+01 -0.93039801008E+01  0.70184642368E+01  0.17183049158E+03  0.17120000000E+03 0.  0.
        998    1    1    2    0    0  0.10523185918E+02 -0.45487595755E+01  0.14508074091E+04  0.14508871654E+04  0.10000000000E+02 0. -1.
</event>
<event>
 5    1  0.1145138E-008  0.3845064E+03  0.7957747E-01  0.3431768E+00
         13   -1    0    0    0    0  0.00000000000E+00  0.00000000000E+00  0.14999999963E+04  0.15000000000E+04  0.10566000000E+00 0.  1.
        994   -1    0    0    0    0 -0.00000000000E+00 -0.00000000000E+00  0.11368683772E-12  0.17120000000E+03  0.17120000000E+03 0.  0.
         13    1    1    2    0    0  0.11293178112E+02  0.37735894898E+01  0.39569545679E+02  0.41322342126E+02  0.10566000000E+00 0.  1.
        994    1    1    2    0    0  0.69083843798E+00  0.91317813966E+01  0.21516836957E+01  0.17145826440E+03  0.17120000000E+03 0.  0.
        998    1    1    2    0    0 -0.11984016550E+02 -0.12905370886E+02  0.14582787669E+04  0.14584193935E+04  0.10000000000E+02 0.  1.
</event>
<event>
 5    1  0.1145138E-008  0.3685061E+03  0.7957747E-01  0.3502785E+00
         13   -1    0    0    0    0  0.00000000000E+00  0.00000000000E+00  0.14999999963E+04  0.15000000000E+04  0.10566000000E+00 0.  1.
        994   -1    0    0    0    0 -0.00000000000E+00 -0.00000000000E+00  0.11368683772E-12  0.17120000000E+03  0.17120000000E+03 0.  0.
         13    1    1    2    0    0  0.90394968536E+01  0.10098418561E+02  0.44879260881E+01  0.14277366893E+02  0.10566000000E+00 0.  1.
        994    1    1    2    0    0 -0.16539382377E+02 -0.31706046897E+01  0.11038296671E+02  0.17238006815E+03  0.17120000000E+03 0.  0.
        998    1    1    2    0    0  0.74998855232E+01 -0.69278138713E+01  0.14844737735E+04  0.14845425650E+04  0.10000000000E+02 0.  1.
</event>
<event>
 5    1  0.1145138E-008  0.3778670E+03  0.7957747E-01  0.3460499E+00
         13   -1    0    0    0    0  0.00000000000E+00  0.00000000000E+00  0.14999999963E+04  0.15000000000E+04  0.10566000000E+00 0. -1.
        994   -1    0    0    0    0 -0.00000000000E+00 -0.00000000000E+00  0.11368683772E-12  0.17120000000E+03  0.17120000000E+03 0.  0.
         13    1    1    2    0    0  0.49361262564E+02  0.60954165420E+02  0.28022876408E+03  0.29099848094E+03  0.10566000000E+00 0. -1.
        994    1    1    2    0    0  0.16806092126E+02  0.83608511098E+01  0.16428336348E+02  0.17300774202E+03  0.17120000000E+03 0.  0.
        998    1    1    2    0    0 -0.66167354691E+02 -0.69315016530E+02  0.12033428958E+04  0.12071937770E+04  0.10000000000E+02 0. -1.
</event>
<event>
 5    1  0.1145138E-008  0.3826716E+03  0.7957747E-01  0.3439608E+00
         13   -1    0    0    0    0  0.00000000000E+00  0.00000000000E+00  0.14999999963E+04  0.15000000000E+04  0.10566000000E+00 0. -1.
        994   -1    0    0    0    0 -0.00000000000E+00 -0.00000000000E+00  0.11368683772E-12  0.17120000000E+03  0.17120000000E+03 0.  0.
         13    1    1    2    0    0  0.13458039971E+02 -0.41062791630E+01  0.35195027225E+02  0.37903581279E+02  0.10566000000E+00 0. -1.
        994    1    1    2    0    0 -0.63338781295E+01 -0.55146627774E+01  0.30243145852E+01  0.17143254066E+03  0.17120000000E+03 0.  0.
        998    1    1    2    0    0 -0.71241618411E+01  0.96209419404E+01  0.14617806545E+04  0.14618638781E+04  0.10000000000E+02 0. -1.
</event>
<event>
 5    1  0.1145138E-008  0.3805009E+03  0.7957747E-01  0.3448980E+00
         13   -1    0    0    0    0  0.00000000000E+00  0.00000000000E+00  0.14999999963E+04  0.15000000000E+04  0.10566000000E+00 0.  1.
        994   -1    0    0    0    0 -0.00000000000E+00 -0.00000000000E+00  0.11368683772E-12  0.17120000000E+03  0.17120000000E+03 0.  0.
         13    1    1    2    0    0 -0.13243410106E+02 -0.40156993495E+02  0.22191633044E+03  0.22590892174E+03  0.10566000000E+00 0.  1.
        994    1    1    2    0    0 -0.15136424341E+02  0.35871063409E+02  0.89560696047E+01  0.17579958963E+03  0.17120000000E+03 0.  0.
        998    1    1    2    0    0  0.28379834447E+02  0.42859300858E+01  0.12691275962E+04  0.12694914886E+04  0.10000000000E+02 0.  1.
</event>
<event>
 5    1  0.1145138E-008  0.3846295E+03  0.7957747E-01  0.3431245E+00
         13   -1    0    0    0    0  0.00000000000E+00  0.00000000000E+00  0.14999999963E+04  0.15000000000E+04  0.10566000000E+00 0. -1.
        994   -1    0    0    0    0 -0.00000000000E+00 -0.00000000000E+00  0.11368683772E-12  0.17120000000E+03  0.17120000000E+03 0.  0.
         13    1    1    2    0    0  0.69123479899E+00 -0.12046181323E+02  0.42779721673E+02  0.44448892455E+02  0.10566000000E+00 0. -1.
        994    1    1    2    0    0 -0.34678932725E+01 -0.63250937467E+01  0.19855303505E+01  0.17136340165E+03  0.17120000000E+03 0.  0.
        998    1    1    2    0    0  0.27766584735E+01  0.18371275070E+02  0.14552347443E+04  0.14553877059E+04  0.10000000000E+02 0. -1.
</event>
<event>
 5    1  0.1145138E-008  0.3785792E+03  0.7957747E-01  0.3457368E+00
         13   -1    0    0    0    0  0.00000000000E+00  0.00000000000E+00  0.14999999963E+04  0.15000000000E+04  0.10566000000E+00 0. -1.
        994   -1    0    0    0    0 -0.00000000000E+00 -0.00000000000E+00  0.11368683772E-12  0.17120000000E+03  0.17120000000E+03 0.  0.
         13    1    1    2    0    0  0.49405273653E+02  0.61044574758E+02  0.16783462741E+03  0.18529920262E+03  0.10566000000E+00 0. -1.
        994    1    1    2    0    0 -0.57338564360E+02 -0.62031509549E+02  0.41744778120E+02  0.19541669744E+03  0.17120000000E+03 0.  0.
        998    1    1    2    0    0  0.79332907065E+01  0.98693479081E+00  0.12904205908E+04  0.12904840999E+04  0.10000000000E+02 0. -1.
</event>
<event>
 5    1  0.1145138E-008  0.3845114E+03  0.7957747E-01  0.3431747E+00
         13   -1    0    0    0    0  0.00000000000E+00  0.00000000000E+00  0.14999999963E+04  0.15000000000E+04  0.10566000000E+00 0. -1.
        994   -1    0    0    0    0 -0.00000000000E+00 -0.00000000000E+00  0.11368683772E-12  0.17120000000E+03  0.17120000000E+03 0.  0.
         13    1    1    2    0    0  0.80766101076E+01  0.69861382927E+01  0.29974727685E+02  0.31820327197E+02  0.10566000000E+00 0. -1.
        994    1    1    2    0    0 -0.13927788425E+02  0.42307941474E+01  0.25711401412E+01  0.17183693919E+03  0.17120000000E+03 0.  0.
        998    1    1    2    0    0  0.58511783169E+01 -0.11216932440E+02  0.14674541285E+04  0.14675427336E+04  0.10000000000E+02 0. -1.
</event>
<event>
 5    1  0.1145138E-008  0.3765796E+03  0.7957747E-01  0.3466188E+00
         13   -1    0    0    0    0  0.00000000000E+00  0.00000000000E+00  0.14999999963E+04  0.15000000000E+04  0.10566000000E+00 0. -1.
        994   -1    0    0    0    0 -0.00000000000E+00 -0.00000000000E+00  0.11368683772E-12  0.17120000000E+03  0.17120000000E+03 0.  0.
         13    1    1    2    0    0  0.31547363749E+02 -0.27778721634E+02  0.13432339425E+03  0.14074686121E+03  0.10566000000E+00 0. -1.
        994    1    1    2    0    0 -0.29596166518E+02  0.33995247616E+02  0.12770125951E+02  0.17749401694E+03  0.17120000000E+03 0.  0.
        998    1    1    2    0    0 -0.19511972302E+01 -0.62165259817E+01  0.13529064761E+04  0.13529591218E+04  0.10000000000E+02 0. -1.
</event>
<event>
 5    1  0.1145138E-008  0.3848760E+03  0.7957747E-01  0.3430198E+00
         13   -1    0    0    0    0  0.00000000000E+00  0.00000000000E+00  0.14999999963E+04  0.15000000000E+04  0.10566000000E+00 0.  1.
        994   -1    0    0    0    0 -0.00000000000E+00 -0.00000000000E+00  0.11368683772E-12  0.17120000000E+03  0.17120000000E+03 0.  0.
         13    1    1    2    0    0 -0.10518994356E+02 -0.80446822601E+01  0.49876331928E+02  0.51604513423E+02  0.10566000000E+00 0.  1.
        994    1    1    2    0    0  0.13944632691E+02  0.73144498477E+01  0.25078842921E+01  0.17194093009E+03  0.17120000000E+03 0.  0.
        998    1    1    2    0    0 -0.34256383349E+01  0.73023241239E+00  0.14476157801E+04  0.14476545565E+04  0.10000000000E+02 0.  1.
</event>
<event>
 5    1  0.1145138E-008  0.3813799E+03  0.7957747E-01  0.3445172E+00
         13   -1    0    0    0    0  0.00000000000E+00  0.00000000000E+00  0.14999999963E+04  0.15000000000E+04  0.10566000000E+00 0.  1.
        994   -1    0    0    0    0 -0.00000000000E+00 -0.00000000000E+00  0.11368683772E-12  0.17120000000E+03  0.17120000000E+03 0.  0.
         13    1    1    2    0    0  0.93525188918E+01  0.18901047331E+02  0.60145625507E+02  0.63735599405E+02  0.10566000000E+00 0.  1.
        994    1    1    2    0    0 -0.14327313679E+02 -0.21829558464E+02  0.57103673954E+01  0.17327391562E+03  0.17120000000E+03 0.  0.
        998    1    1    2    0    0  0.49747947876E+01  0.29285111334E+01  0.14341440034E+04  0.14341904850E+04  0.10000000000E+02 0.  1.
</event>
<event>
 5    1  0.1145138E-008  0.3799556E+03  0.7957747E-01  0.3451352E+00
         13   -1    0    0    0    0  0.00000000000E+00  0.00000000000E+00  0.14999999963E+04  0.15000000000E+04  0.10566000000E+00 0. -1.
        994   -1    0    0    0    0 -0.00000000000E+00 -0.00000000000E+00  0.11368683772E-12  0.17120000000E+03  0.17120000000E+03 0.  0.
         13    1    1    2    0    0  0.14417623419E+02 -0.36444718877E+02  0.17294580586E+03  0.17733118262E+03  0.10566000000E+00 0. -1.
        994    1    1    2    0    0 -0.15182810943E+02  0.27888720856E+02  0.75340420723E+01  0.17428281696E+03  0.17120000000E+03 0.  0.
        998    1    1    2    0    0  0.76518752378E+00  0.85559980209E+01  0.13195201483E+04  0.13195860004E+04  0.10000000000E+02 0. -1.
</event>
<event>
 5    1  0.1145138E-008  0.3743301E+03  0.7957747E-01  0.3476224E+00
         13   -1    0    0    0    0  0.00000000000E+00  0.00000000000E+00  0.14999999963E+04  0.15000000000E+04  0.10566000000E+00 0. -1.
        994   -1    0    0    0    0 -0.00000000000E+00 -0.00000000000E+00  0.11368683772E-12  0.17120000000E+03  0.17120000000E+03 0.  0.
         13    1    1    2    0    0  0.20504146727E+02 -0.66251235094E+01  0.30745559847E+02  0.37544812010E+02  0.10566000000E+00 0. -1.
        994    1    1    2    0    0  0.22366467525E+01  0.30458728505E+02  0.10207432845E+02  0.17420209073E+03  0.17120000000E+03 0.  0.
        998    1    1    2    0    0 -0.22740793479E+02 -0.23833604996E+02  0.14590470036E+04  0.14594530973E+04  0.10000000000E+02 0. -1.
</event>
<event>
 5    1  0.1145138E-008  0.3700631E+03  0.7957747E-01  0.3495601E+00
         13   -1    0    0    0    0  0.00000000000E+00  0.00000000000E+00  0.14999999963E+04  0.15000000000E+04  0.10566000000E+00 0.  1.
        994   -1    0    0    0    0 -0.00000000000E+00 -0.00000000000E+00  0.11368683772E-12  0.17120000000E+03  0.17120000000E+03 0.  0.
         13    1    1    2    0    0  0.89520022023E+02  0.44045835237E+02  0.34435802098E+03  0.35851963366E+03  0.10566000000E+00 0.  1.
        994    1    1    2    0    0 -0.10778817477E+03 -0.56667155419E+02  0.62394877609E+02  0.21916208129E+03  0.17120000000E+03 0.  0.
        998    1    1    2    0    0  0.18268152744E+02  0.12621320183E+02  0.10932470977E+04  0.10935182851E+04  0.10000000000E+02 0.  1.
</event>
<event>
 5    1  0.1145138E-008  0.3718157E+03  0.7957747E-01  0.3487588E+00
         13   -1    0    0    0    0  0.00000000000E+00  0.00000000000E+00  0.14999999963E+04  0.15000000000E+04  0.10566000000E+00 0. -1.
        994   -1    0    0    0    0 -0.00000000000E+00 -0.00000000000E+00  0.11368683772E-12  0.17120000000E+03  0.17120000000E+03 0.  0.
         13    1    1    2    0    0 -0.25679016233E+02  0.45378157858E+02  0.10401378045E+03  0.11635061999E+03  0.10566000000E+00 0. -1.
        994    1    1    2    0    0  0.37711775126E+02 -0.35481582905E+02  0.21395716721E+02  0.18013422052E+03  0.17120000000E+03 0.  0.
        998    1    1    2    0    0 -0.12032758893E+02 -0.98965749528E+01  0.13745904991E+04  0.13747151595E+04  0.10000000000E+02 0. -1.
</event>
<event>
 5    1  0.1145138E-008  0.3834353E+03  0.7957747E-01  0.3436335E+00
         13   -1    0    0    0    0  0.00000000000E+00  0.00000000000E+00  0.14999999963E+04  0.15000000000E+04  0.10566000000E+00 0.  1.
        994   -1    0    0    0    0 -0.00000000000E+00 -0.00000000000E+00  0.11368683772E-12  0.17120000000E+03  0.17120000000E+03 0.  0.
         13    1    1    2    0    0 -0.86281633584E+01 -0.83490654613E+01  0.28528608034E+02  0.30952297773E+02  0.10566000000E+00 0.  1.
        994    1    1    2    0    0  0.45740740759E+01  0.15545298998E+02  0.32773676377E+01  0.17199639419E+03  0.17120000000E+03 0.  0.
        998    1    1    2    0    0  0.40540892825E+01 -0.71962335367E+01  0.14681940206E+04  0.14682513080E+04  0.10000000000E+02 0.  1.
</event>
<event>
 5    1  0.1145138E-008  0.3823570E+03  0.7957747E-01  0.3440959E+00
         13   -1    0    0    0    0  0.00000000000E+00  0.00000000000E+00  0.14999999963E+04  0.15000000000E+04  0.10566000000E+00 0.  1.
        994   -1    0    0    0    0 -0.00000000000E+00 -0.00000000000E+00  0.11368683772E-12  0.17120000000E+03  0.17120000000E+03 0.  0.
         13    1    1    2    0    0 -0.59060764308E+01 -0.22999606939E+02  0.97495724154E+02  0.10034585717E+03  0.10566000000E+00 0.  1.
        994    1    1    2    0    0 -0.33838148232E+01  0.11028182708E+02  0.33895972866E+01  0.17162167808E+03  0.17120000000E+03 0.  0.
        998    1    1    2    0    0  0.92898912540E+01  0.11971424231E+02  0.13991146748E+04  0.13992324648E+04  0.10000000000E+02 0.  1.
</event>
<event>
 5    1  0.1145138E-008  0.3796560E+03  0.7957747E-01  0.3452658E+00
         13   -1    0    0    0    0  0.00000000000E+00  0.00000000000E+00  0.14999999963E+04  0.15000000000E+04  0.10566000000E+00 0. -1.
        994   -1    0    0    0    0 -0.00000000000E+00 -0.00000000000E+00  0.11368683772E-12  0.17120000000E+03  0.17120000000E+03 0.  0.
         13    1    1    2    0    0 -0.47606828258E+02  0.15799146363E+02  0.24257830737E+03  0.24771005126E+03  0.10566000000E+00 0. -1.
        994    1    1    2    0    0  0.46867692087E+02 -0.23023777890E+02  0.13486897168E+02  0.17949376397E+03  0.17120000000E+03 0.  0.
        998    1    1    2    0    0  0.73913617128E+00  0.72246315274E+01  0.12439347917E+04  0.12439961848E+04  0.10000000000E+02 0. -1.
</event>
<event>
 5    1  0.1145138E-008  0.3846623E+03  0.7957747E-01  0.3431106E+00
         13   -1    0    0    0    0  0.00000000000E+00  0.00000000000E+00  0.14999999963E+04  0.15000000000E+04  0.10566000000E+00 0.  1.
        994   -1    0    0    0    0 -0.00000000000E+00 -0.00000000000E+00  0.11368683772E-12  0.17120000000E+03  0.17120000000E+03 0.  0.
         13    1    1    2    0    0 -0.19888192931E+02  0.93384570048E+01  0.11758472764E+03  0.11961992450E+03  0.10566000000E+00 0.  1.
        994    1    1    2    0    0  0.25154822192E+02 -0.17493244142E+02  0.48947076025E+01  0.17398901354E+03  0.17120000000E+03 0.  0.
        998    1    1    2    0    0 -0.52666292610E+01  0.81547871370E+01  0.13775205610E+04  0.13775910620E+04  0.10000000000E+02 0.  1.
</event>
<event>
 5    1  0.1145138E-008  0.3771286E+03  0.7957747E-01  0.3463757E+00
         13   -1    0    0    0    0  0.00000000000E+00  0.00000000000E+00  0.14999999963E+04  0.15000000000E+04  0.10566000000E+00 0.  1.
        994   -1    0    0    0    0 -0.00000000000E+00 -0.00000000000E+00  0.11368683772E-12  0.17120000000E+03  0.17120000000E+03 0.  0.
         13    1    1    2    0    0 -0.16251324817E+02 -0.12462376843E+02  0.35395291709E+02  0.40893205231E+02  0.10566000000E+00 0.  1.
        994    1    1    2    0    0  0.10906618722E+02  0.64957702485E+01  0.61337339096E+01  0.17177954493E+03  0.17120000000E+03 0.  0.
        998    1    1    2    0    0  0.53447060947E+01  0.59666065947E+01  0.14584709707E+04  0.14585272498E+04  0.10000000000E+02 0.  1.
</event>
<event>
 5    1  0.1145138E-008  0.3777729E+03  0.7957747E-01  0.3460914E+00
         13   -1    0    0    0    0  0.00000000000E+00  0.00000000000E+00  0.14999999963E+04  0.15000000000E+04  0.10566000000E+00 0. -1.
        994   -1    0    0    0    0 -0.00000000000E+00 -0.00000000000E+00  0.11368683772E-12  0.17120000000E+03  0.17120000000E+03 0.  0.
         13    1    1    2    0    0  0.69945868436E+02 -0.17545188086E+02  0.15663146854E+03  0.17243458539E+03  0.10566000000E+00 0. -1.
        994    1    1    2    0    0 -0.60945749566E+02  0.12407616328E+02  0.29146969279E+02  0.18446495372E+03  0.17120000000E+03 0.  0.
        998    1    1    2    0    0 -0.90001188703E+01  0.51375717585E+01  0.13142215585E+04  0.13143004609E+04  0.10000000000E+02 0.  1.
</event>
<event>
 5    1  0.1145138E-008  0.3811528E+03  0.7957747E-01  0.3446154E+00
         13   -1    0    0    0    0  0.00000000000E+00  0.00000000000E+00  0.14999999963E+04  0.15000000000E+04  0.10566000000E+00 0. -1.
        994   -1    0    0    0    0 -0.00000000000E+00 -0.00000000000E+00  0.11368683772E-12  0.17120000000E+03  0.17120000000E+03 0.  0.
         13    1    1    2    0    0 -0.22613650734E+02  0.62776971300E+01  0.75290038370E+02  0.78863094807E+02  0.10566000000E+00 0. -1.
        994    1    1    2    0    0  0.15928633585E+02 -0.82529504097E+01  0.46248520398E+01  0.17219948262E+03  0.17120000000E+03 0.  0.
        998    1    1    2    0    0  0.66850171495E+01  0.19752532797E+01  0.14200851059E+04  0.14201374226E+04  0.10000000000E+02 0. -1.
</event>
<event>
 5    1  0.1145138E-008  0.3756539E+03  0.7957747E-01  0.3470303E+00
         13   -1    0    0    0    0  0.00000000000E+00  0.00000000000E+00  0.14999999963E+04  0.15000000000E+04  0.10566000000E+00 0.  1.
        994   -1    0    0    0    0 -0.00000000000E+00 -0.00000000000E+00  0.11368683772E-12  0.17120000000E+03  0.17120000000E+03 0.  0.
         13    1    1    2    0    0 -0.91618653543E+01 -0.67293162049E+01  0.76300723561E+01  0.13691334542E+02  0.10566000000E+00 0.  1.
        994    1    1    2    0    0 -0.30720756284E+01 -0.15733883085E+02  0.72154184111E+01  0.17210024692E+03  0.17120000000E+03 0.  0.
        998    1    1    2    0    0  0.12233940983E+02  0.22463199290E+02  0.14851545055E+04  0.14854084185E+04  0.10000000000E+02 0.  1.
</event>
<event>
 5    1  0.1145138E-008  0.3713741E+03  0.7957747E-01  0.3489600E+00
         13   -1    0    0    0    0  0.00000000000E+00  0.00000000000E+00  0.14999999963E+04  0.15000000000E+04  0.10566000000E+00 0.  1.
        994   -1    0    0    0    0 -0.00000000000E+00 -0.00000000000E+00  0.11368683772E-12  0.17120000000E+03  0.17120000000E+03 0.  0.
         13    1    1    2    0    0  0.15304718381E+02 -0.35168434723E+00  0.97485187491E+01  0.18149459177E+02  0.10566000000E+00 0.  1.
        994    1    1    2    0    0 -0.16476995704E+02  0.12477188791E+01  0.94928081364E+01  0.17225737022E+03  0.17120000000E+03 0.  0.
        998    1    1    2    0    0  0.11722773232E+01 -0.89603453182E+00  0.14807586694E+04  0.14807931706E+04  0.10000000000E+02 0.  1.
</event>
<event>
 5    1  0.1145138E-008  0.3834089E+03  0.7957747E-01  0.3436448E+00
         13   -1    0    0    0    0  0.00000000000E+00  0.00000000000E+00  0.14999999963E+04  0.15000000000E+04  0.10566000000E+00 0.  1.
        994   -1    0    0    0    0 -0.00000000000E+00 -0.00000000000E+00  0.11368683772E-12  0.17120000000E+03  0.17120000000E+03 0.  0.
         13    1    1    2    0    0  0.18349083121E+01 -0.32841097557E+02  0.17880309554E+03  0.18180336278E+03  0.10566000000E+00 0.  1.
        994    1    1    2    0    0  0.41626415407E+01  0.45409306201E+02  0.93263600038E+01  0.17741407403E+03  0.17120000000E+03 0.  0.
        998    1    1    2    0    0 -0.59975498528E+01 -0.12568208644E+02  0.13118705407E+04  0.13119825632E+04  0.10000000000E+02 0.  1.
</event>
<event>
 5    1  0.1145138E-008  0.3810914E+03  0.7957747E-01  0.3446420E+00
         13   -1    0    0    0    0  0.00000000000E+00  0.00000000000E+00  0.14999999963E+04  0.15000000000E+04  0.10566000000E+00 0. -1.
        994   -1    0    0    0    0 -0.00000000000E+00 -0.00000000000E+00  0.11368683772E-12  0.17120000000E+03  0.17120000000E+03 0.  0.
         13    1    1    2    0    0 -0.19661362086E+02  0.26847785694E+02  0.16664534228E+03  0.16993544075E+03  0.10566000000E+00 0. -1.
        994    1    1    2    0    0  0.13291471183E+01 -0.89945289054E+01  0.38586195722E+01  0.17148468482E+03  0.17120000000E+03 0.  0.
        998    1    1    2    0    0  0.18332214967E+02 -0.17853256789E+02  0.13294960344E+04  0.13297798744E+04  0.10000000000E+02 0. -1.
</event>
<event>
 5    1  0.1145138E-008  0.3712670E+03  0.7957747E-01  0.3490088E+00
         13   -1    0    0    0    0  0.00000000000E+00  0.00000000000E+00  0.14999999963E+04  0.15000000000E+04  0.10566000000E+00 0. -1.
        994   -1    0    0    0    0 -0.00000000000E+00 -0.00000000000E+00  0.11368683772E-12  0.17120000000E+03  0.17120000000E+03 0.  0.
         13    1    1    2    0    0  0.84723742895E+02  0.30579826634E+02  0.39963350098E+03  0.40965861968E+03  0.10566000000E+00 0. -1.
        994    1    1    2    0    0 -0.64598624119E+02 -0.32645891908E+02  0.26865154954E+02  0.18780285687E+03  0.17120000000E+03 0.  0.
        998    1    1    2    0    0 -0.20125118776E+02  0.20660652744E+01  0.10735013403E+04  0.10737385235E+04  0.10000000000E+02 0.  0.
</event>
<event>
 5    1  0.1145138E-008  0.3828484E+03  0.7957747E-01  0.3438849E+00
         13   -1    0    0    0    0  0.00000000000E+00  0.00000000000E+00  0.14999999963E+04  0.15000000000E+04  0.10566000000E+00 0. -1.
        994   -1    0    0    0    0 -0.00000000000E+00 -0.00000000000E+00  0.11368683772E-12  0.17120000000E+03  0.17120000000E+03 0.  0.
         13    1    1    2    0    0  0.34614727858E+02 -0.84082144164E+02  0.21375594132E+03  0.23229205747E+03  0.10566000000E+00 0. -1.
        994    1    1    2    0    0 -0.59868946368E+02  0.50177731489E+02  0.40603683703E+02  0.19251024546E+03  0.17120000000E+03 0.  0.
        998    1    1    2    0    0  0.25254218510E+02  0.33904412675E+02  0.12456403713E+04  0.12463976971E+04  0.10000000000E+02 0. -1.
</event>
<event>
 5    1  0.1145138E-008  0.3845710E+03  0.7957747E-01  0.3431493E+00
         13   -1    0    0    0    0  0.00000000000E+00  0.00000000000E+00  0.14999999963E+04  0.15000000000E+04  0.10566000000E+00 0. -1.
        994   -1    0    0    0    0 -0.00000000000E+00 -0.00000000000E+00  0.11368683772E-12  0.17120000000E+03  0.17120000000E+03 0.  0.
         13    1    1    2    0    0 -0.78042931046E+01  0.12563863882E+02  0.70679911823E+02  0.72210932454E+02  0.10566000000E+00 0. -1.
        994    1    1    2    0    0 -0.25186128886E+02  0.50066259072E+01  0.40178502307E+01  0.17316174668E+03  0.17120000000E+03 0.  0.
        998    1    1    2    0    0  0.32990421991E+02 -0.17570489789E+02  0.14253022342E+04  0.14258273209E+04  0.10000000000E+02 0. -1.
</event>
<event>
 5    1  0.1145138E-008  0.3800812E+03  0.7957747E-01  0.3450805E+00
         13   -1    0    0    0    0  0.00000000000E+00  0.00000000000E+00  0.14999999963E+04  0.15000000000E+04  0.10566000000E+00 0.  1.
        994   -1    0    0    0    0 -0.00000000000E+00 -0.00000000000E+00  0.11368683772E-12  0.17120000000E+03  0.17120000000E+03 0.  0.
         13    1    1    2    0    0  0.17598547909E+02  0.30328371941E+02  0.13203778612E+03  0.13661444711E+03  0.10566000000E+00 0.  1.
        994    1    1    2    0    0 -0.29864258875E+02 -0.30468169201E+02  0.10199332969E+02  0.17673044357E+03  0.17120000000E+03 0.  0.
        998    1    1    2    0    0  0.12265710966E+02  0.13979726036E+00  0.13577628772E+04  0.13578551093E+04  0.10000000000E+02 0.  1.
</event>
<event>
 5    1  0.1145138E-008  0.3818356E+03  0.7957747E-01  0.3443204E+00
         13   -1    0    0    0    0  0.00000000000E+00  0.00000000000E+00  0.14999999963E+04  0.15000000000E+04  0.10566000000E+00 0.  1.
        994   -1    0    0    0    0 -0.00000000000E+00 -0.00000000000E+00  0.11368683772E-12  0.17120000000E+03  0.17120000000E+03 0.  0.
         13    1    1    2    0    0  0.32988253922E+02  0.32284165881E-02  0.14319225457E+03  0.14694304284E+03  0.10566000000E+00 0.  1.
        994    1    1    2    0    0 -0.43984242960E+02  0.16609897106E+02  0.10589421091E+02  0.17785409231E+03  0.17120000000E+03 0.  0.
        998    1    1    2    0    0  0.10995989038E+02 -0.16613125523E+02  0.13462183206E+04  0.13464028649E+04  0.10000000000E+02 0.  1.
</event>
<event>
 5    1  0.1145138E-008  0.3730145E+03  0.7957747E-01  0.3482150E+00
         13   -1    0    0    0    0  0.00000000000E+00  0.00000000000E+00  0.14999999963E+04  0.15000000000E+04  0.10566000000E+00 0. -1.
        994   -1    0    0    0    0 -0.00000000000E+00 -0.00000000000E+00  0.11368683772E-12  0.17120000000E+03  0.17120000000E+03 0.  0.
         13    1    1    2    0    0 -0.41406550065E+02 -0.24614814357E+01  0.11047616393E+03  0.11800658982E+03  0.10566000000E+00 0. -1.
        994    1    1    2    0    0  0.22225983831E+02  0.29069118667E-01  0.93941882918E+01  0.17289212237E+03  0.17120000000E+03 0.  0.
        998    1    1    2    0    0  0.19180566234E+02  0.24324123171E+01  0.13801296441E+04  0.13803012878E+04  0.10000000000E+02 0. -1.
</event>
<event>
 5    1  0.1145138E-008  0.3822206E+03  0.7957747E-01  0.3441546E+00
         13   -1    0    0    0    0  0.00000000000E+00  0.00000000000E+00  0.14999999963E+04  0.15000000000E+04  0.10566000000E+00 0. -1.
        994   -1    0    0    0    0 -0.00000000000E+00 -0.00000000000E+00  0.11368683772E-12  0.17120000000E+03  0.17120000000E+03 0.  0.
         13    1    1    2    0    0  0.74336473986E+01 -0.23792318814E+02  0.10770247342E+03  0.11054938939E+03  0.10566000000E+00 0. -1.
        994    1    1    2    0    0 -0.85859740539E+01  0.42405456217E+01  0.33207487431E+01  0.17149976254E+03  0.17120000000E+03 0.  0.
        998    1    1    2    0    0  0.11523266553E+01  0.19551773192E+02  0.13889767741E+04  0.13891508481E+04  0.10000000000E+02 0. -1.
</event>
<event>
 5    1  0.1145138E-008  0.3830043E+03  0.7957747E-01  0.3438181E+00
         13   -1    0    0    0    0  0.00000000000E+00  0.00000000000E+00  0.14999999963E+04  0.15000000000E+04  0.10566000000E+00 0.  1.
        994   -1    0    0    0    0 -0.00000000000E+00 -0.00000000000E+00  0.11368683772E-12  0.17120000000E+03  0.17120000000E+03 0.  0.
         13    1    1    2    0    0  0.10108503686E+02 -0.18237453568E+02  0.84011445728E+02  0.86560503330E+02  0.10566000000E+00 0.  1.
        994    1    1    2    0    0 -0.87829537227E+01  0.56511365940E+01  0.29853595295E+01  0.17154424500E+03  0.17120000000E+03 0.  0.
        998    1    1    2    0    0 -0.13255499629E+01  0.12586316974E+02  0.14130031910E+04  0.14130952517E+04  0.10000000000E+02 0.  1.
</event>
<event>
 5    1  0.1145138E-008  0.3793265E+03  0.7957747E-01  0.3454096E+00
         13   -1    0    0    0    0  0.00000000000E+00  0.00000000000E+00  0.14999999963E+04  0.15000000000E+04  0.10566000000E+00 0.  1.
        994   -1    0    0    0    0 -0.00000000000E+00 -0.00000000000E+00  0.11368683772E-12  0.17120000000E+03  0.17120000000E+03 0.  0.
         13    1    1    2    0    0  0.50735692973E+02 -0.10702770919E+03  0.47271637455E+03  0.48732927575E+03  0.10566000000E+00 0.  1.
        994    1    1    2    0    0 -0.10766269770E+03  0.24269491731E+02  0.61423403627E+02  0.21274994528E+03  0.17120000000E+03 0.  0.
        998    1    1    2    0    0  0.56927004722E+02  0.82758217462E+02  0.96586021811E+03  0.97112077897E+03  0.10000000000E+02 0.  1.
</event>
<event>
 5    1  0.1145138E-008  0.3826817E+03  0.7957747E-01  0.3439564E+00
         13   -1    0    0    0    0  0.00000000000E+00  0.00000000000E+00  0.14999999963E+04  0.15000000000E+04  0.10566000000E+00 0.  1.
        994   -1    0    0    0    0 -0.00000000000E+00 -0.00000000000E+00  0.11368683772E-12  0.17120000000E+03  0.17120000000E+03 0.  0.
         13    1    1    2    0    0 -0.26045441127E+02  0.80043930709E+01  0.14384427606E+03  0.14640226170E+03  0.10566000000E+00 0.  1.
        994    1    1    2    0    0  0.11678257714E+01 -0.15406694503E+02  0.35769814608E+01  0.17193302431E+03  0.17120000000E+03 0.  0.
        998    1    1    2    0    0  0.24877615356E+02  0.74023014320E+01  0.13525787388E+04  0.13528647140E+04  0.10000000000E+02 0.  1.
</event>
<event>
 5    1  0.1145138E-008  0.2740853E+03  0.7957747E-01  0.4100367E+00
         13   -1    0    0    0    0  0.00000000000E+00  0.00000000000E+00  0.14999999963E+04  0.15000000000E+04  0.10566000000E+00 0. -1.
        994   -1    0    0    0    0 -0.00000000000E+00 -0.00000000000E+00  0.11368683772E-12  0.17120000000E+03  0.17120000000E+03 0.  0.
         13    1    1    2    0    0  0.15718177027E+03  0.82871284323E+02  0.46460617565E+03  0.49742604303E+03  0.10566000000E+00 0. -1.
        994    1    1    2    0    0 -0.14870183372E+03 -0.90788105651E+02  0.14666233858E+03  0.28491050707E+03  0.17120000000E+03 0.  0.
        998    1    1    2    0    0 -0.84799365432E+01  0.79168213276E+01  0.88873148205E+03  0.88886344990E+03  0.10000000000E+02 0. -1.
</event>
<event>
 5    1  0.1145138E-008  0.3760134E+03  0.7957747E-01  0.3468703E+00
         13   -1    0    0    0    0  0.00000000000E+00  0.00000000000E+00  0.14999999963E+04  0.15000000000E+04  0.10566000000E+00 0.  1.
        994   -1    0    0    0    0 -0.00000000000E+00 -0.00000000000E+00  0.11368683772E-12  0.17120000000E+03  0.17120000000E+03 0.  0.
         13    1    1    2    0    0  0.11215667842E+03  0.35171144651E+02  0.60834344164E+03  0.61959493549E+03  0.10566000000E+00 0.  1.
        994    1    1    2    0    0 -0.11599944784E+03 -0.34944009534E+02  0.57621092888E+02  0.21750077252E+03  0.17120000000E+03 0.  0.
        998    1    1    2    0    0  0.38427694164E+01 -0.22713511712E+00  0.83403546175E+03  0.83410429199E+03  0.10000000000E+02 0.  1.
</event>
<event>
 5    1  0.1145138E-008  0.3756500E+03  0.7957747E-01  0.3470321E+00
         13   -1    0    0    0    0  0.00000000000E+00  0.00000000000E+00  0.14999999963E+04  0.15000000000E+04  0.10566000000E+00 0.  1.
        994   -1    0    0    0    0 -0.00000000000E+00 -0.00000000000E+00  0.11368683772E-12  0.17120000000E+03  0.17120000000E+03 0.  0.
         13    1    1    2    0    0 -0.33629356940E+02 -0.29653456985E+01  0.96134784378E+02  0.10189030795E+03  0.10566000000E+00 0.  1.
        994    1    1    2    0    0 -0.38931804783E+01  0.38734569039E+02  0.11502926231E+02  0.17594681300E+03  0.17120000000E+03 0.  0.
        998    1    1    2    0    0  0.37522537419E+02 -0.35769223340E+02  0.13923622857E+04  0.13933628790E+04  0.10000000000E+02 0.  1.
</event>
<event>
 5    1  0.1145138E-008  0.3794552E+03  0.7957747E-01  0.3453534E+00
         13   -1    0    0    0    0  0.00000000000E+00  0.00000000000E+00  0.14999999963E+04  0.15000000000E+04  0.10566000000E+00 0.  1.
        994   -1    0    0    0    0 -0.00000000000E+00 -0.00000000000E+00  0.11368683772E-12  0.17120000000E+03  0.17120000000E+03 0.  0.
         13    1    1    2    0    0 -0.11669750247E+02  0.13760220380E+02  0.34719716434E+02  0.39127951761E+02  0.10566000000E+00 0.  1.
        994    1    1    2    0    0  0.14324144519E+02 -0.92911343505E+01  0.53852492140E+01  0.17213351563E+03  0.17120000000E+03 0.  0.
        998    1    1    2    0    0 -0.26543942723E+01 -0.44690860294E+01  0.14598950306E+04  0.14599385326E+04  0.10000000000E+02 0.  1.
</event>
<event>
 5    1  0.1145138E-008  0.3847931E+03  0.7957747E-01  0.3430550E+00
         13   -1    0    0    0    0  0.00000000000E+00  0.00000000000E+00  0.14999999963E+04  0.15000000000E+04  0.10566000000E+00 0.  1.
        994   -1    0    0    0    0 -0.00000000000E+00 -0.00000000000E+00  0.11368683772E-12  0.17120000000E+03  0.17120000000E+03 0.  0.
         13    1    1    2    0    0 -0.50037973790E+01 -0.11630195138E+02  0.43639078485E+02  0.45438747366E+02  0.10566000000E+00 0.  1.
        994    1    1    2    0    0  0.49819060610E+00  0.20775696155E+02  0.31554099581E+01  0.17248557724E+03  0.17120000000E+03 0.  0.
        998    1    1    2    0    0  0.45056067729E+01 -0.91455010176E+01  0.14532055078E+04  0.14532756754E+04  0.10000000000E+02 0.  1.
</event>
<event>
 5    1  0.1145138E-008  0.3806254E+03  0.7957747E-01  0.3448440E+00
         13   -1    0    0    0    0  0.00000000000E+00  0.00000000000E+00  0.14999999963E+04  0.15000000000E+04  0.10566000000E+00 0. -1.
        994   -1    0    0    0    0 -0.00000000000E+00 -0.00000000000E+00  0.11368683772E-12  0.17120000000E+03  0.17120000000E+03 0.  0.
         13    1    1    2    0    0 -0.11036265805E+01 -0.31984372069E+02  0.15848323565E+03  0.16168229710E+03  0.10566000000E+00 0. -1.
        994    1    1    2    0    0  0.97577112597E+01 -0.66706376144E+01  0.42840127590E+01  0.17166101217E+03  0.17120000000E+03 0.  0.
        998    1    1    2    0    0 -0.86540846792E+01  0.38655009683E+02  0.13372327479E+04  0.13378566907E+04  0.10000000000E+02 0. -1.
</event>
<event>
 5    1  0.1145138E-008  0.3853371E+03  0.7957747E-01  0.3428244E+00
         13   -1    0    0    0    0  0.00000000000E+00  0.00000000000E+00  0.14999999963E+04  0.15000000000E+04  0.10566000000E+00 0.  1.
        994   -1    0    0    0    0 -0.00000000000E+00 -0.00000000000E+00  0.11368683772E-12  0.17120000000E+03  0.17120000000E+03 0.  0.
         13    1    1    2    0    0 -0.12807242083E+01 -0.14597585158E+02  0.72653020121E+02  0.74116140237E+02  0.10566000000E+00 0.  1.
        994    1    1    2    0    0 -0.30819495815E+01  0.11896058394E+02  0.19590911739E+01  0.17165166080E+03  0.17120000000E+03 0.  0.
        998    1    1    2    0    0  0.43626737898E+01  0.27015267640E+01  0.14253878850E+04  0.14254321990E+04  0.10000000000E+02 0.  1.
</event>
<event>
 5    1  0.1145138E-008  0.3708947E+03  0.7957747E-01  0.3491789E+00
         13   -1    0    0    0    0  0.00000000000E+00  0.00000000000E+00  0.14999999963E+04  0.15000000000E+04  0.10566000000E+00 0. -1.
        994   -1    0    0    0    0 -0.00000000000E+00 -0.00000000000E+00  0.11368683772E-12  0.17120000000E+03  0.17120000000E+03 0.  0.
         13    1    1    2    0    0 -0.39673260974E+02  0.46060816960E+02  0.18562023973E+03  0.19532140451E+03  0.10566000000E+00 0. -1.
        994    1    1    2    0    0  0.15273499476E+02  0.93881548772E+01  0.12540651135E+02  0.17259236707E+03  0.17120000000E+03 0.  0.
        998    1    1    2    0    0  0.24399761498E+02 -0.55448971837E+02  0.13018391054E+04  0.13032862284E+04  0.10000000000E+02 0. -1.
</event>
<event>
 5    1  0.1145138E-008  0.3830071E+03  0.7957747E-01  0.3438169E+00
         13   -1    0    0    0    0  0.00000000000E+00  0.00000000000E+00  0.14999999963E+04  0.15000000000E+04  0.10566000000E+00 0. -1.
        994   -1    0    0    0    0 -0.00000000000E+00 -0.00000000000E+00  0.11368683772E-12  0.17120000000E+03  0.17120000000E+03 0.  0.
         13    1    1    2    0    0  0.13563769392E+02 -0.83209696650E+01  0.51694224346E+02  0.54088061261E+02  0.10566000000E+00 0. -1.
        994    1    1    2    0    0  0.71532113458E+01 -0.33361766997E+01  0.28290700061E+01  0.17140519871E+03  0.17120000000E+03 0.  0.
        998    1    1    2    0    0 -0.20716980738E+02  0.11657146365E+02  0.14454767019E+04  0.14457067400E+04  0.10000000000E+02 0. -1.
</event>
<event>
 5    1  0.1145138E-008  0.3794455E+03  0.7957747E-01  0.3453576E+00
         13   -1    0    0    0    0  0.00000000000E+00  0.00000000000E+00  0.14999999963E+04  0.15000000000E+04  0.10566000000E+00 0. -1.
        994   -1    0    0    0    0 -0.00000000000E+00 -0.00000000000E+00  0.11368683772E-12  0.17120000000E+03  0.17120000000E+03 0.  0.
         13    1    1    2    0    0 -0.12815488450E+02 -0.44358985253E+02  0.20448924268E+03  0.20963734842E+03  0.10566000000E+00 0. -1.
        994    1    1    2    0    0  0.83798744618E+01  0.48811366606E+02  0.12671973177E+02  0.17866950134E+03  0.17120000000E+03 0.  0.
        998    1    1    2    0    0  0.44356139884E+01 -0.44523813523E+01  0.12828387804E+04  0.12828931502E+04  0.10000000000E+02 0. -1.
</event>
<event>
 5    1  0.1145138E-008  0.3747975E+03  0.7957747E-01  0.3474129E+00
         13   -1    0    0    0    0  0.00000000000E+00  0.00000000000E+00  0.14999999963E+04  0.15000000000E+04  0.10566000000E+00 0. -1.
        994   -1    0    0    0    0 -0.00000000000E+00 -0.00000000000E+00  0.11368683772E-12  0.17120000000E+03  0.17120000000E+03 0.  0.
         13    1    1    2    0    0  0.13134225547E+02  0.11508089632E+02  0.19553915252E+02  0.26216612547E+02  0.10566000000E+00 0. -1.
        994    1    1    2    0    0 -0.73353551906E+01 -0.10842844425E+02  0.73659058616E+01  0.17185770649E+03  0.17120000000E+03 0.  0.
        998    1    1    2    0    0 -0.57988703567E+01 -0.66524520659E+00  0.14730801752E+04  0.14731256810E+04  0.10000000000E+02 0. -1.
</event>
<event>
 5    1  0.1145138E-008  0.3837631E+03  0.7957747E-01  0.3434935E+00
         13   -1    0    0    0    0  0.00000000000E+00  0.00000000000E+00  0.14999999963E+04  0.15000000000E+04  0.10566000000E+00 0.  1.
        994   -1    0    0    0    0 -0.00000000000E+00 -0.00000000000E+00  0.11368683772E-12  0.17120000000E+03  0.17120000000E+03 0.  0.
         13    1    1    2    0    0 -0.39414157292E+02  0.23558604650E+02  0.22763264613E+03  0.23221782101E+03  0.10566000000E+00 0.  1.
        994    1    1    2    0    0  0.89496468660E+02 -0.54113575080E+02  0.39239289304E+02  0.20441883166E+03  0.17120000000E+03 0.  0.
        998    1    1    2    0    0 -0.50082311369E+02  0.30554970430E+02  0.12331280608E+04  0.12345633473E+04  0.10000000000E+02 0.  1.
</event>
<event>
 5    1  0.1145138E-008  0.3859323E+03  0.7957747E-01  0.3425728E+00
         13   -1    0    0    0    0  0.00000000000E+00  0.00000000000E+00  0.14999999963E+04  0.15000000000E+04  0.10566000000E+00 0. -1.
        994   -1    0    0    0    0 -0.00000000000E+00 -0.00000000000E+00  0.11368683772E-12  0.17120000000E+03  0.17120000000E+03 0.  0.
         13    1    1    2    0    0  0.90101139392E+01 -0.10236839471E+02  0.76315384120E+02  0.77524344905E+02  0.10566000000E+00 0. -1.
        994    1    1    2    0    0 -0.86281336623E+01  0.13158438088E+02  0.19801606245E+01  0.17193298177E+03  0.17120000000E+03 0.  0.
        998    1    1    2    0    0 -0.38198027684E+00 -0.29215986170E+01  0.14217044515E+04  0.14217426733E+04  0.10000000000E+02 0. -1.
</event>
<event>
 5    1  0.1145138E-008  0.3854872E+03  0.7957747E-01  0.3427609E+00
         13   -1    0    0    0    0  0.00000000000E+00  0.00000000000E+00  0.14999999963E+04  0.15000000000E+04  0.10566000000E+00 0. -1.
        994   -1    0    0    0    0 -0.00000000000E+00 -0.00000000000E+00  0.11368683772E-12  0.17120000000E+03  0.17120000000E+03 0.  0.
         13    1    1    2    0    0 -0.93315840381E+00  0.13944729444E+02  0.79443788204E+02  0.80663826540E+02  0.10566000000E+00 0. -1.
        994    1    1    2    0    0  0.83734700354E+01  0.63560455883E+01  0.17514072700E+01  0.17153140162E+03  0.17120000000E+03 0.  0.
        998    1    1    2    0    0 -0.74403116316E+01 -0.20300775032E+02  0.14188048008E+04  0.14190047718E+04  0.10000000000E+02 0. -1.
</event>
<event>
 5    1  0.1145138E-008  0.3833260E+03  0.7957747E-01  0.3436803E+00
         13   -1    0    0    0    0  0.00000000000E+00  0.00000000000E+00  0.14999999963E+04  0.15000000000E+04  0.10566000000E+00 0.  1.
        994   -1    0    0    0    0 -0.00000000000E+00 -0.00000000000E+00  0.11368683772E-12  0.17120000000E+03  0.17120000000E+03 0.  0.
         13    1    1    2    0    0  0.16073218796E+02  0.50651187754E+01  0.60511742818E+02  0.62814695523E+02  0.10566000000E+00 0.  1.
        994    1    1    2    0    0 -0.37204921984E+01  0.13875832423E+02  0.31462447932E+01  0.17183049684E+03  0.17120000000E+03 0.  0.
        998    1    1    2    0    0 -0.12352726597E+02 -0.18940951198E+02  0.14363420087E+04  0.14365548076E+04  0.10000000000E+02 0.  1.
</event>
<event>
 5    1  0.1145138E-008  0.2913136E+03  0.7957747E-01  0.3960053E+00
         13   -1    0    0    0    0  0.00000000000E+00  0.00000000000E+00  0.14999999963E+04  0.15000000000E+04  0.10566000000E+00 0.  1.
        994   -1    0    0    0    0 -0.00000000000E+00 -0.00000000000E+00  0.11368683772E-12  0.17120000000E+03  0.17120000000E+03 0.  0.
         13    1    1    2    0    0  0.46776264600E+02  0.23709461598E+03  0.23953440501E+03  0.34026257245E+03  0.10566000000E+00 0.  1.
        994    1    1    2    0    0 -0.66370551043E+02 -0.20001662529E+03  0.49762051721E+03  0.56687504759E+03  0.17120000000E+03 0.  0.
        998    1    1    2    0    0  0.19594286443E+02 -0.37077990694E+02  0.76284507406E+03  0.76406237996E+03  0.10000000000E+02 0.  1.
</event>
<event>
 5    1  0.1145138E-008  0.3995118E+03  0.7957747E-01  0.3370365E+00
         13   -1    0    0    0    0  0.00000000000E+00  0.00000000000E+00  0.14999999963E+04  0.15000000000E+04  0.10566000000E+00 0.  1.
        994   -1    0    0    0    0 -0.00000000000E+00 -0.00000000000E+00  0.11368683772E-12  0.17120000000E+03  0.17120000000E+03 0.  0.
         13    1    1    2    0    0  0.29722909923E+02 -0.18306322058E+02  0.10751986320E+02  0.36526554388E+02  0.10566000000E+00 0.  1.
        994    1    1    2    0    0 -0.31793497899E+02  0.16485092380E+02  0.32513602751E+02  0.17790210551E+03  0.17120000000E+03 0.  0.
        998    1    1    2    0    0  0.20705879761E+01  0.18212296788E+01  0.14567344072E+04  0.14567713401E+04  0.10000000000E+02 0.  1.
</event>
<event>
 5    1  0.1145138E-008  0.3834207E+03  0.7957747E-01  0.3436398E+00
         13   -1    0    0    0    0  0.00000000000E+00  0.00000000000E+00  0.14999999963E+04  0.15000000000E+04  0.10566000000E+00 0.  1.
        994   -1    0    0    0    0 -0.00000000000E+00 -0.00000000000E+00  0.11368683772E-12  0.17120000000E+03  0.17120000000E+03 0.  0.
         13    1    1    2    0    0  0.64502563716E+01  0.15806118188E+02  0.53904866547E+02  0.56543655532E+02  0.10566000000E+00 0.  1.
        994    1    1    2    0    0 -0.26342847656E+02 -0.24362863766E+02  0.66838452454E+01  0.17504744654E+03  0.17120000000E+03 0.  0.
        998    1    1    2    0    0  0.19892591284E+02  0.85567455779E+01  0.14394112845E+04  0.14396088979E+04  0.10000000000E+02 0.  1.
</event>
<event>
 5    1  0.1145138E-008  0.3899158E+03  0.7957747E-01  0.3409088E+00
         13   -1    0    0    0    0  0.00000000000E+00  0.00000000000E+00  0.14999999963E+04  0.15000000000E+04  0.10566000000E+00 0. -1.
        994   -1    0    0    0    0 -0.00000000000E+00 -0.00000000000E+00  0.11368683772E-12  0.17120000000E+03  0.17120000000E+03 0.  0.
         13    1    1    2    0    0 -0.44502457733E+02  0.22960448161E+02  0.39054323687E+02  0.63505135908E+02  0.10566000000E+00 0. -1.
        994    1    1    2    0    0  0.11272572383E+03 -0.41793152374E+02  0.78557857079E+02  0.22346036183E+03  0.17120000000E+03 0.  0.
        998    1    1    2    0    0 -0.68223266098E+02  0.18832704212E+02  0.13823878155E+04  0.13842345023E+04  0.10000000000E+02 0. -1.
</event>
<event>
 5    1  0.1145138E-008  0.3837247E+03  0.7957747E-01  0.3435099E+00
         13   -1    0    0    0    0  0.00000000000E+00  0.00000000000E+00  0.14999999963E+04  0.15000000000E+04  0.10566000000E+00 0. -1.
        994   -1    0    0    0    0 -0.00000000000E+00 -0.00000000000E+00  0.11368683772E-12  0.17120000000E+03  0.17120000000E+03 0.  0.
         13    1    1    2    0    0 -0.57416913967E+01  0.22436892048E+02  0.10639426963E+03  0.10888587107E+03  0.10566000000E+00 0. -1.
        994    1    1    2    0    0  0.49845965067E+01 -0.29014627964E+02  0.51319789018E+01  0.17378858434E+03  0.17120000000E+03 0.  0.
        998    1    1    2    0    0  0.75709489007E+00  0.65777359157E+01  0.13884737477E+04  0.13885255446E+04  0.10000000000E+02 0. -1.
</event>
<event>
 5    1  0.1145138E-008  0.3760416E+03  0.7957747E-01  0.3468577E+00
         13   -1    0    0    0    0  0.00000000000E+00  0.00000000000E+00  0.14999999963E+04  0.15000000000E+04  0.10566000000E+00 0.  1.
        994   -1    0    0    0    0 -0.00000000000E+00 -0.00000000000E+00  0.11368683772E-12  0.17120000000E+03  0.17120000000E+03 0.  0.
         13    1    1    2    0    0 -0.87958520393E+02  0.32980236461E+02  0.46625649572E+03  0.47562540751E+03  0.10566000000E+00 0.  1.
        994    1    1    2    0    0  0.89729310549E+02 -0.39398198945E+02  0.39401906232E+02  0.20116042719E+03  0.17120000000E+03 0.  0.
        998    1    1    2    0    0 -0.17707901558E+01  0.64179624844E+01  0.99434159432E+03  0.99441416530E+03  0.10000000000E+02 0.  1.
</event>
<event>
 5    1  0.1145138E-008  0.3790707E+03  0.7957747E-01  0.3455215E+00
         13   -1    0    0    0    0  0.00000000000E+00  0.00000000000E+00  0.14999999963E+04  0.15000000000E+04  0.10566000000E+00 0. -1.
        994   -1    0    0    0    0 -0.00000000000E+00 -0.00000000000E+00  0.11368683772E-12  0.17120000000E+03  0.17120000000E+03 0.  0.
         13    1    1    2    0    0 -0.98326634583E+01 -0.17839156975E+02  0.41884889389E+02  0.46575443266E+02  0.10566000000E+00 0. -1.
        994    1    1    2    0    0  0.12780403103E+02  0.19569764620E+02  0.64370562989E+01  0.17290803939E+03  0.17120000000E+03 0.  0.
        998    1    1    2    0    0 -0.29477396451E+01 -0.17306076448E+01  0.14516780506E+04  0.14517165173E+04  0.10000000000E+02 0. -1.
</event>
<event>
 5    1  0.1145138E-008  0.3786719E+03  0.7957747E-01  0.3456962E+00
         13   -1    0    0    0    0  0.00000000000E+00  0.00000000000E+00  0.14999999963E+04  0.15000000000E+04  0.10566000000E+00 0. -1.
        994   -1    0    0    0    0 -0.00000000000E+00 -0.00000000000E+00  0.11368683772E-12  0.17120000000E+03  0.17120000000E+03 0.  0.
         13    1    1    2    0    0 -0.17156420658E+02  0.28973102847E+02  0.12632098332E+03  0.13073173085E+03  0.10566000000E+00 0. -1.
        994    1    1    2    0    0  0.63438434198E+01 -0.21347607793E+01  0.49555133653E+01  0.17140244650E+03  0.17120000000E+03 0.  0.
        998    1    1    2    0    0  0.10812577238E+02 -0.26838342068E+02  0.13687234996E+04  0.13690658227E+04  0.10000000000E+02 0. -1.
</event>
<event>
 5    1  0.1145138E-008  0.3844367E+03  0.7957747E-01  0.3432065E+00
         13   -1    0    0    0    0  0.00000000000E+00  0.00000000000E+00  0.14999999963E+04  0.15000000000E+04  0.10566000000E+00 0.  1.
        994   -1    0    0    0    0 -0.00000000000E+00 -0.00000000000E+00  0.11368683772E-12  0.17120000000E+03  0.17120000000E+03 0.  0.
         13    1    1    2    0    0  0.21674562209E+02 -0.11055579888E+01  0.11944145986E+03  0.12139720920E+03  0.10566000000E+00 0.  1.
        994    1    1    2    0    0 -0.18794617599E+02 -0.18370730610E+02  0.41890708661E+01  0.17325619674E+03  0.17120000000E+03 0.  0.
        998    1    1    2    0    0 -0.28799446100E+01  0.19476288599E+02  0.13763694656E+04  0.13765465941E+04  0.10000000000E+02 0.  1.
</event>
<event>
 5    1  0.1145138E-008  0.3697629E+03  0.7957747E-01  0.3496981E+00
         13   -1    0    0    0    0  0.00000000000E+00  0.00000000000E+00  0.14999999963E+04  0.15000000000E+04  0.10566000000E+00 0. -1.
        994   -1    0    0    0    0 -0.00000000000E+00 -0.00000000000E+00  0.11368683772E-12  0.17120000000E+03  0.17120000000E+03 0.  0.
         13    1    1    2    0    0  0.81033473122E+02 -0.64079363025E+02  0.52243376219E+03  0.53255012494E+03  0.10566000000E+00 0. -1.
        994    1    1    2    0    0 -0.33104367411E+02  0.72468660839E+02  0.31691514977E+02  0.19147166387E+03  0.17120000000E+03 0.  0.
        998    1    1    2    0    0 -0.47929105711E+02 -0.83892978132E+01  0.94587471911E+03  0.94717821119E+03  0.10000000000E+02 0.  1.
</event>
<event>
 5    1  0.1145138E-008  0.3689113E+03  0.7957747E-01  0.3500909E+00
         13   -1    0    0    0    0  0.00000000000E+00  0.00000000000E+00  0.14999999963E+04  0.15000000000E+04  0.10566000000E+00 0. -1.
        994   -1    0    0    0    0 -0.00000000000E+00 -0.00000000000E+00  0.11368683772E-12  0.17120000000E+03  0.17120000000E+03 0.  0.
         13    1    1    2    0    0  0.10759934551E+01  0.32063089992E+02  0.45043528344E+02  0.55300362670E+02  0.10566000000E+00 0. -1.
        994    1    1    2    0    0 -0.55589320255E+01 -0.26338845519E+02  0.12892118168E+02  0.17378228684E+03  0.17120000000E+03 0.  0.
        998    1    1    2    0    0  0.44829385705E+01 -0.57242444735E+01  0.14420643498E+04  0.14421173505E+04  0.10000000000E+02 0. -1.
</event>
<event>
 5    1  0.2007467E-008  0.3867279E+03  0.7957747E-01  0.3422377E+00
         13   -1    0    0    0    0  0.00000000000E+00  0.00000000000E+00  0.14999999963E+04  0.15000000000E+04  0.10566000000E+00 0. -1.
        994   -1    0    0    0    0 -0.00000000000E+00 -0.00000000000E+00  0.11368683772E-12  0.17120000000E+03  0.17120000000E+03 0.  0.
         13    1    1    2    0    0  0.72128140438E+00  0.10260922321E+02  0.58862910414E+02  0.59755001131E+02  0.10566000000E+00 0. -1.
        994    1    1    2    0    0  0.95928317741E+01 -0.28985410234E+02  0.38291553895E+01  0.17394332082E+03  0.17120000000E+03 0.  0.
        998    1    1    2    0    0 -0.10314113178E+02  0.18724487913E+02  0.14373079305E+04  0.14375016780E+04  0.10000000000E+02 0. -1.
</event>
<event>
 5    1  0.1145138E-008  0.3736465E+03  0.7957747E-01  0.3479298E+00
         13   -1    0    0    0    0  0.00000000000E+00  0.00000000000E+00  0.14999999963E+04  0.15000000000E+04  0.10566000000E+00 0.  1.
        994   -1    0    0    0    0 -0.00000000000E+00 -0.00000000000E+00  0.11368683772E-12  0.17120000000E+03  0.17120000000E+03 0.  0.
         13    1    1    2    0    0 -0.55816856987E+02 -0.11235154080E+02  0.13431114274E+03  0.14588092555E+03  0.10566000000E+00 0.  1.
        994    1    1    2    0    0  0.35705156836E+01  0.32570482966E+02  0.16691372050E+02  0.17510461685E+03  0.17120000000E+03 0.  0.
        998    1    1    2    0    0  0.52246341303E+02 -0.21335328886E+02  0.13489974815E+04  0.13502144576E+04  0.10000000000E+02 0.  1.
</event>
<event>
 5    1  0.1145138E-008  0.3856680E+03  0.7957747E-01  0.3426844E+00
         13   -1    0    0    0    0  0.00000000000E+00  0.00000000000E+00  0.14999999963E+04  0.15000000000E+04  0.10566000000E+00 0. -1.
        994   -1    0    0    0    0 -0.00000000000E+00 -0.00000000000E+00  0.11368683772E-12  0.17120000000E+03  0.17120000000E+03 0.  0.
         13    1    1    2    0    0  0.15556333582E+02 -0.69170264547E+02  0.12353906230E+03  0.14243748134E+03  0.10566000000E+00 0. -1.
        994    1    1    2    0    0 -0.23559625326E+02  0.41549823172E+02  0.27967181632E+02  0.17992511498E+03  0.17120000000E+03 0.  0.
        998    1    1    2    0    0  0.80032917442E+01  0.27620441375E+02  0.13484937523E+04  0.13488374037E+04  0.10000000000E+02 0. -1.
</event>
<event>
 5    1  0.1145138E-008  0.3005331E+03  0.7957747E-01  0.3892221E+00
         13   -1    0    0    0    0  0.00000000000E+00  0.00000000000E+00  0.14999999963E+04  0.15000000000E+04  0.10566000000E+00 0.  1.
        994   -1    0    0    0    0 -0.00000000000E+00 -0.00000000000E+00  0.11368683772E-12  0.17120000000E+03  0.17120000000E+03 0.  0.
         13    1    1    2    0    0 -0.24261733943E+03  0.68961667224E+02  0.86460696067E+03  0.90064648589E+03  0.10566000000E+00 0.  1.
        994    1    1    2    0    0  0.96723001002E+02 -0.59579959789E+02  0.12718625351E+03  0.24164207749E+03  0.17120000000E+03 0.  0.
        998    1    1    2    0    0  0.14589433843E+03 -0.93817074348E+01  0.50820678210E+03  0.52891143662E+03  0.10000000000E+02 0. -1.
</event>
<event>
 5    1  0.1145138E-008  0.3846557E+03  0.7957747E-01  0.3431134E+00
         13   -1    0    0    0    0  0.00000000000E+00  0.00000000000E+00  0.14999999963E+04  0.15000000000E+04  0.10566000000E+00 0. -1.
        994   -1    0    0    0    0 -0.00000000000E+00 -0.00000000000E+00  0.11368683772E-12  0.17120000000E+03  0.17120000000E+03 0.  0.
         13    1    1    2    0    0 -0.10614012445E+02  0.10184825788E+02  0.58848081533E+02  0.60658847670E+02  0.10566000000E+00 0. -1.
        994    1    1    2    0    0  0.16121004373E+02 -0.18011313761E+01  0.26679586911E+01  0.17198746716E+03  0.17120000000E+03 0.  0.
        998    1    1    2    0    0 -0.55069919271E+01 -0.83836944115E+01  0.14384839561E+04  0.14385536852E+04  0.10000000000E+02 0. -1.
</event>
<event>
 5    1  0.1145138E-008  0.3824669E+03  0.7957747E-01  0.3440487E+00
         13   -1    0    0    0    0  0.00000000000E+00  0.00000000000E+00  0.14999999963E+04  0.15000000000E+04  0.10566000000E+00 0.  1.
        994   -1    0    0    0    0 -0.00000000000E+00 -0.00000000000E+00  0.11368683772E-12  0.17120000000E+03  0.17120000000E+03 0.  0.
         13    1    1    2    0    0 -0.16751565285E+02 -0.95523374966E+01  0.62265094969E+02  0.65182937236E+02  0.10566000000E+00 0.  1.
        994    1    1    2    0    0  0.98928374580E+01  0.15175389148E+02  0.39819324344E+01  0.17220178993E+03  0.17120000000E+03 0.  0.
        998    1    1    2    0    0  0.68587278274E+01 -0.56230516512E+01  0.14337529689E+04  0.14338152728E+04  0.10000000000E+02 0.  1.
</event>
<event>
 5    1  0.1145138E-008  0.3700739E+03  0.7957747E-01  0.3495551E+00
         13   -1    0    0    0    0  0.00000000000E+00  0.00000000000E+00  0.14999999963E+04  0.15000000000E+04  0.10566000000E+00 0.  1.
        994   -1    0    0    0    0 -0.00000000000E+00 -0.00000000000E+00  0.11368683772E-12  0.17120000000E+03  0.17120000000E+03 0.  0.
         13    1    1    2    0    0 -0.67789865146E+02 -0.64785561437E+01  0.18447978659E+03  0.19664750273E+03  0.10566000000E+00 0.  1.
        994    1    1    2    0    0  0.66052033717E+02  0.37132342578E+01  0.26443535050E+02  0.18543289841E+03  0.17120000000E+03 0.  0.
        998    1    1    2    0    0  0.17378314287E+01  0.27653218859E+01  0.12890766746E+04  0.12891195989E+04  0.10000000000E+02 0.  1.
</event>
<event>
 5    1  0.1145138E-008  0.3834562E+03  0.7957747E-01  0.3436246E+00
         13   -1    0    0    0    0  0.00000000000E+00  0.00000000000E+00  0.14999999963E+04  0.15000000000E+04  0.10566000000E+00 0. -1.
        994   -1    0    0    0    0 -0.00000000000E+00 -0.00000000000E+00  0.11368683772E-12  0.17120000000E+03  0.17120000000E+03 0.  0.
         13    1    1    2    0    0  0.16971455211E+02 -0.80004844080E+01  0.74352015122E+02  0.76682927432E+02  0.10566000000E+00 0. -1.
        994    1    1    2    0    0 -0.98368130562E+01 -0.14390855218E+01  0.27253039123E+01  0.17151006134E+03  0.17120000000E+03 0.  0.
        998    1    1    2    0    0 -0.71346421545E+01  0.94395699298E+01  0.14229226772E+04  0.14230070112E+04  0.10000000000E+02 0. -1.
</event>
<event>
 5    1  0.1145138E-008  0.3790456E+03  0.7957747E-01  0.3455325E+00
         13   -1    0    0    0    0  0.00000000000E+00  0.00000000000E+00  0.14999999963E+04  0.15000000000E+04  0.10566000000E+00 0. -1.
        994   -1    0    0    0    0 -0.00000000000E+00 -0.00000000000E+00  0.11368683772E-12  0.17120000000E+03  0.17120000000E+03 0.  0.
         13    1    1    2    0    0 -0.58167314579E+02  0.10035897766E+02  0.29690991459E+03  0.30272043914E+03  0.10566000000E+00 0. -1.
        994    1    1    2    0    0  0.60824181776E+02 -0.80261775897E+01  0.17343543766E+02  0.18268617661E+03  0.17120000000E+03 0.  0.
        998    1    1    2    0    0 -0.26568671970E+01 -0.20097201766E+01  0.11857465379E+04  0.11857933842E+04  0.10000000000E+02 0. -1.
</event>
<event>
 5    1  0.1145138E-008  0.3822558E+03  0.7957747E-01  0.3441395E+00
         13   -1    0    0    0    0  0.00000000000E+00  0.00000000000E+00  0.14999999963E+04  0.15000000000E+04  0.10566000000E+00 0.  1.
        994   -1    0    0    0    0 -0.00000000000E+00 -0.00000000000E+00  0.11368683772E-12  0.17120000000E+03  0.17120000000E+03 0.  0.
         13    1    1    2    0    0 -0.40809093906E+01 -0.13584332784E+02  0.32350691294E+02  0.35323735786E+02  0.10566000000E+00 0.  1.
        994    1    1    2    0    0  0.28449264624E+01  0.10309246589E+02  0.33783476761E+01  0.17156697644E+03  0.17120000000E+03 0.  0.
        998    1    1    2    0    0  0.12359829282E+01  0.32750861953E+01  0.14642709573E+04  0.14643092878E+04  0.10000000000E+02 0.  1.
</event>
<event>
 5    1  0.1145138E-008  0.3826252E+03  0.7957747E-01  0.3439807E+00
         13   -1    0    0    0    0  0.00000000000E+00  0.00000000000E+00  0.14999999963E+04  0.15000000000E+04  0.10566000000E+00 0.  1.
        994   -1    0    0    0    0 -0.00000000000E+00 -0.00000000000E+00  0.11368683772E-12  0.17120000000E+03  0.17120000000E+03 0.  0.
         13    1    1    2    0    0 -0.14048436325E+02 -0.77194435467E+01  0.46103560082E+02  0.48810836790E+02  0.10566000000E+00 0.  1.
        994    1    1    2    0    0  0.11262126752E+02 -0.12764545510E+02  0.37747046867E+01  0.17208561101E+03  0.17120000000E+03 0.  0.
        998    1    1    2    0    0  0.27863095726E+01  0.20483989057E+02  0.14501217315E+04  0.14503035522E+04  0.10000000000E+02 0.  1.
</event>
<event>
 5    1  0.1145138E-008  0.3777008E+03  0.7957747E-01  0.3461231E+00
         13   -1    0    0    0    0  0.00000000000E+00  0.00000000000E+00  0.14999999963E+04  0.15000000000E+04  0.10566000000E+00 0. -1.
        994   -1    0    0    0    0 -0.00000000000E+00 -0.00000000000E+00  0.11368683772E-12  0.17120000000E+03  0.17120000000E+03 0.  0.
         13    1    1    2    0    0 -0.25485090093E+01 -0.20661875000E+02  0.39099831342E+02  0.44296906796E+02  0.10566000000E+00 0. -1.
        994    1    1    2    0    0 -0.28198570070E+01  0.11882675641E+02  0.58008666002E+01  0.17173304757E+03  0.17120000000E+03 0.  0.
        998    1    1    2    0    0  0.53683660163E+01  0.87791993587E+01  0.14550992983E+04  0.14551700456E+04  0.10000000000E+02 0. -1.
</event>
<event>
 5    1  0.1145138E-008  0.3848117E+03  0.7957747E-01  0.3430471E+00
         13   -1    0    0    0    0  0.00000000000E+00  0.00000000000E+00  0.14999999963E+04  0.15000000000E+04  0.10566000000E+00 0.  1.
        994   -1    0    0    0    0 -0.00000000000E+00 -0.00000000000E+00  0.11368683772E-12  0.17120000000E+03  0.17120000000E+03 0.  0.
         13    1    1    2    0    0 -0.13704576857E+02 -0.15083181454E+02  0.12168985607E+03  0.12338456153E+03  0.10566000000E+00 0.  1.
        994    1    1    2    0    0  0.71098435667E+01  0.90891390704E+01  0.21619766486E+01  0.17160208760E+03  0.17120000000E+03 0.  0.
        998    1    1    2    0    0  0.65947332905E+01  0.59940423834E+01  0.13761481636E+04  0.13762133509E+04  0.10000000000E+02 0.  1.
</event>
<event>
 5    1  0.1145138E-008  0.3834080E+03  0.7957747E-01  0.3436452E+00
         13   -1    0    0    0    0  0.00000000000E+00  0.00000000000E+00  0.14999999963E+04  0.15000000000E+04  0.10566000000E+00 0.  1.
        994   -1    0    0    0    0 -0.00000000000E+00 -0.00000000000E+00  0.11368683772E-12  0.17120000000E+03  0.17120000000E+03 0.  0.
         13    1    1    2    0    0  0.24472298425E+02  0.14290040418E+02  0.15711996322E+03  0.15965523058E+03  0.10566000000E+00 0.  1.
        994    1    1    2    0    0 -0.17515983765E+02 -0.15529171758E+02  0.42361333318E+01  0.17284487174E+03  0.17120000000E+03 0.  0.
        998    1    1    2    0    0 -0.69563146602E+01  0.12391313403E+01  0.13386438997E+04  0.13386998977E+04  0.10000000000E+02 0.  1.
</event>
<event>
 5    1  0.1145138E-008  0.3769988E+03  0.7957747E-01  0.3464331E+00
         13   -1    0    0    0    0  0.00000000000E+00  0.00000000000E+00  0.14999999963E+04  0.15000000000E+04  0.10566000000E+00 0.  1.
        994   -1    0    0    0    0 -0.00000000000E+00 -0.00000000000E+00  0.11368683772E-12  0.17120000000E+03  0.17120000000E+03 0.  0.
         13    1    1    2    0    0  0.35299641213E+02 -0.12413556034E+03  0.67172542635E+03  0.68401079054E+03  0.10566000000E+00 0.  1.
        994    1    1    2    0    0 -0.41017618263E+02  0.13129744296E+03  0.72470819970E+02  0.23126375263E+03  0.17120000000E+03 0.  0.
        998    1    1    2    0    0  0.57179770503E+01 -0.71618826189E+01  0.75580374996E+03  0.75592545682E+03  0.10000000000E+02 0.  1.
</event>
<event>
 5    1  0.1145138E-008  0.3737624E+03  0.7957747E-01  0.3478776E+00
         13   -1    0    0    0    0  0.00000000000E+00  0.00000000000E+00  0.14999999963E+04  0.15000000000E+04  0.10566000000E+00 0.  1.
        994   -1    0    0    0    0 -0.00000000000E+00 -0.00000000000E+00  0.11368683772E-12  0.17120000000E+03  0.17120000000E+03 0.  0.
         13    1    1    2    0    0 -0.26546693241E+02 -0.63207224401E+01  0.25423575251E+02  0.37296753167E+02  0.10566000000E+00 0.  1.
        994    1    1    2    0    0 -0.25710179520E+02  0.32674163815E+02  0.19091301052E+02  0.17720759602E+03  0.17120000000E+03 0.  0.
        998    1    1    2    0    0  0.52256872762E+02 -0.26353441375E+02  0.14554851200E+04  0.14566956508E+04  0.10000000000E+02 0.  1.
</event>
<event>
 5    1  0.1145138E-008  0.3809476E+03  0.7957747E-01  0.3447043E+00
         13   -1    0    0    0    0  0.00000000000E+00  0.00000000000E+00  0.14999999963E+04  0.15000000000E+04  0.10566000000E+00 0.  1.
        994   -1    0    0    0    0 -0.00000000000E+00 -0.00000000000E+00  0.11368683772E-12  0.17120000000E+03  0.17120000000E+03 0.  0.
         13    1    1    2    0    0 -0.10391132359E+02  0.30700577099E+02  0.16320875290E+03  0.16639594121E+03  0.10566000000E+00 0.  1.
        994    1    1    2    0    0  0.18959544495E+02  0.57358325161E+01  0.49641815862E+01  0.17241359343E+03  0.17120000000E+03 0.  0.
        998    1    1    2    0    0 -0.85684121364E+01 -0.36436409615E+02  0.13318270618E+04  0.13323904654E+04  0.10000000000E+02 0.  1.
</event>
<event>
 5    1  0.1145138E-008  0.3822913E+03  0.7957747E-01  0.3441242E+00
         13   -1    0    0    0    0  0.00000000000E+00  0.00000000000E+00  0.14999999963E+04  0.15000000000E+04  0.10566000000E+00 0.  1.
        994   -1    0    0    0    0 -0.00000000000E+00 -0.00000000000E+00  0.11368683772E-12  0.17120000000E+03  0.17120000000E+03 0.  0.
         13    1    1    2    0    0 -0.12981986814E+02  0.16848051834E+02  0.80359476998E+02  0.83126683680E+02  0.10566000000E+00 0.  1.
        994    1    1    2    0    0 -0.15920070961E+02 -0.13354731756E+02  0.44149089930E+01  0.17251298195E+03  0.17120000000E+03 0.  0.
        998    1    1    2    0    0  0.28902057774E+02 -0.34933200781E+01  0.14152256103E+04  0.14155603344E+04  0.10000000000E+02 0.  1.
</event>
<event>
 5    1  0.1145138E-008  0.3828311E+03  0.7957747E-01  0.3438923E+00
         13   -1    0    0    0    0  0.00000000000E+00  0.00000000000E+00  0.14999999963E+04  0.15000000000E+04  0.10566000000E+00 0.  1.
        994   -1    0    0    0    0 -0.00000000000E+00 -0.00000000000E+00  0.11368683772E-12  0.17120000000E+03  0.17120000000E+03 0.  0.
         13    1    1    2    0    0 -0.57978885871E+01  0.32896761934E+02  0.18484640283E+03  0.18784040104E+03  0.10566000000E+00 0.  1.
        994    1    1    2    0    0 -0.28425609019E+01 -0.32924503495E+02  0.63361885388E+01  0.17447547211E+03  0.17120000000E+03 0.  0.
        998    1    1    2    0    0  0.86404494890E+01  0.27741561262E-01  0.13088174049E+04  0.13088841269E+04  0.10000000000E+02 0.  1.
</event>
<event>
 5    1  0.1145138E-008  0.3789058E+03  0.7957747E-01  0.3455937E+00
         13   -1    0    0    0    0  0.00000000000E+00  0.00000000000E+00  0.14999999963E+04  0.15000000000E+04  0.10566000000E+00 0. -1.
        994   -1    0    0    0    0 -0.00000000000E+00 -0.00000000000E+00  0.11368683772E-12  0.17120000000E+03  0.17120000000E+03 0.  0.
         13    1    1    2    0    0 -0.77744961381E+02  0.16894565910E+01  0.43074811204E+03  0.43771118386E+03  0.10566000000E+00 0. -1.
        994    1    1    2    0    0  0.83424893518E+02  0.87810744722E+01  0.28669914019E+02  0.19279062243E+03  0.17120000000E+03 0.  0.
        998    1    1    2    0    0 -0.56799321367E+01 -0.10470531063E+02  0.10405819702E+04  0.10406981937E+04  0.10000000000E+02 0. -1.
</event>
<event>
 5    1  0.1145138E-008  0.3835544E+03  0.7957747E-01  0.3435826E+00
         13   -1    0    0    0    0  0.00000000000E+00  0.00000000000E+00  0.14999999963E+04  0.15000000000E+04  0.10566000000E+00 0.  1.
        994   -1    0    0    0    0 -0.00000000000E+00 -0.00000000000E+00  0.11368683772E-12  0.17120000000E+03  0.17120000000E+03 0.  0.
         13    1    1    2    0    0 -0.46980890377E+01 -0.19134560478E+02  0.80608198569E+02  0.82981300821E+02  0.10566000000E+00 0.  1.
        994    1    1    2    0    0  0.85907482909E+01  0.13868317008E+02  0.32293596524E+01  0.17200581367E+03  0.17120000000E+03 0.  0.
        998    1    1    2    0    0 -0.38926592532E+01  0.52662434700E+01  0.14161624381E+04  0.14162128855E+04  0.10000000000E+02 0.  1.
</event>
<event>
 5    1  0.1145138E-008  0.3687026E+03  0.7957747E-01  0.3501875E+00
         13   -1    0    0    0    0  0.00000000000E+00  0.00000000000E+00  0.14999999963E+04  0.15000000000E+04  0.10566000000E+00 0. -1.
        994   -1    0    0    0    0 -0.00000000000E+00 -0.00000000000E+00  0.11368683772E-12  0.17120000000E+03  0.17120000000E+03 0.  0.
         13    1    1    2    0    0  0.34261004682E+02  0.18569110615E+02  0.70464764434E+02  0.80522807338E+02  0.10566000000E+00 0. -1.
        994    1    1    2    0    0 -0.29174610339E+02 -0.19760260182E+02  0.14273467323E+02  0.17537045829E+03  0.17120000000E+03 0.  0.
        998    1    1    2    0    0 -0.50863943429E+01  0.11911495677E+01  0.14152617645E+04  0.14153067344E+04  0.10000000000E+02 0. -1.
</event>
<event>
 5    1  0.1145138E-008  0.3845133E+03  0.7957747E-01  0.3431739E+00
         13   -1    0    0    0    0  0.00000000000E+00  0.00000000000E+00  0.14999999963E+04  0.15000000000E+04  0.10566000000E+00 0. -1.
        994   -1    0    0    0    0 -0.00000000000E+00 -0.00000000000E+00  0.11368683772E-12  0.17120000000E+03  0.17120000000E+03 0.  0.
         13    1    1    2    0    0 -0.27708372067E+01  0.15116325803E+02  0.60633873674E+02  0.62551248152E+02  0.10566000000E+00 0. -1.
        994    1    1    2    0    0  0.55762271466E+01 -0.15660500241E+02  0.27827159408E+01  0.17202769860E+03  0.17120000000E+03 0.  0.
        998    1    1    2    0    0 -0.28053899399E+01  0.54417443793E+00  0.14365834067E+04  0.14366210533E+04  0.10000000000E+02 0. -1.
</event>
<event>
 5    1  0.1145138E-008  0.3854201E+03  0.7957747E-01  0.3427892E+00
         13   -1    0    0    0    0  0.00000000000E+00  0.00000000000E+00  0.14999999963E+04  0.15000000000E+04  0.10566000000E+00 0.  1.
        994   -1    0    0    0    0 -0.00000000000E+00 -0.00000000000E+00  0.11368683772E-12  0.17120000000E+03  0.17120000000E+03 0.  0.
         13    1    1    2    0    0 -0.62051781950E+01  0.14453517478E+02  0.89793380477E+02  0.91160686403E+02  0.10566000000E+00 0.  1.
        994    1    1    2    0    0  0.10130004998E+02 -0.31461852724E+01  0.17913058071E+01  0.17153764677E+03  0.17120000000E+03 0.  0.
        998    1    1    2    0    0 -0.39248268026E+01 -0.11307332205E+02  0.14084153100E+04  0.14085016668E+04  0.10000000000E+02 0.  1.
</event>
<event>
 5    1  0.1145138E-008  0.3849279E+03  0.7957747E-01  0.3429978E+00
         13   -1    0    0    0    0  0.00000000000E+00  0.00000000000E+00  0.14999999963E+04  0.15000000000E+04  0.10566000000E+00 0. -1.
        994   -1    0    0    0    0 -0.00000000000E+00 -0.00000000000E+00  0.11368683772E-12  0.17120000000E+03  0.17120000000E+03 0.  0.
         13    1    1    2    0    0  0.10641970638E+02  0.40958647897E+01  0.41294854799E+02  0.42840446360E+02  0.10566000000E+00 0. -1.
        994    1    1    2    0    0  0.74766566668E+01 -0.78402061995E+01  0.20521177168E+01  0.17155471551E+03  0.17120000000E+03 0.  0.
        998    1    1    2    0    0 -0.18118627304E+02  0.37443414097E+01  0.14566530238E+04  0.14568048381E+04  0.10000000000E+02 0. -1.
</event>
<event>
 5    1  0.1157467E-008  0.3860651E+03  0.7957747E-01  0.3425167E+00
         13   -1    0    0    0    0  0.00000000000E+00  0.00000000000E+00  0.14999999963E+04  0.15000000000E+04  0.10566000000E+00 0.  1.
        994   -1    0    0    0    0 -0.00000000000E+00 -0.00000000000E+00  0.11368683772E-12  0.17120000000E+03  0.17120000000E+03 0.  0.
         13    1    1    2    0    0  0.83110422768E+01  0.70797474183E+01  0.53091223761E+02  0.54202264267E+02  0.10566000000E+00 0.  1.
        994    1    1    2    0    0 -0.90283630660E+01 -0.76914554969E+01  0.15634019194E+01  0.17161746430E+03  0.17120000000E+03 0.  0.
        998    1    1    2    0    0  0.71732078923E+00  0.61170807858E+00  0.14453453706E+04  0.14453802714E+04  0.10000000000E+02 0.  0.
</event>
<event>
 5    1  0.1145138E-008  0.3817710E+03  0.7957747E-01  0.3443483E+00
         13   -1    0    0    0    0  0.00000000000E+00  0.00000000000E+00  0.14999999963E+04  0.15000000000E+04  0.10566000000E+00 0. -1.
        994   -1    0    0    0    0 -0.00000000000E+00 -0.00000000000E+00  0.11368683772E-12  0.17120000000E+03  0.17120000000E+03 0.  0.
         13    1    1    2    0    0 -0.19816800985E+01 -0.12725418555E+02  0.24112945213E+02  0.27336946141E+02  0.10566000000E+00 0. -1.
        994    1    1    2    0    0 -0.19405524819E+01  0.12218892678E+02  0.37507067774E+01  0.17168743368E+03  0.17120000000E+03 0.  0.
        998    1    1    2    0    0  0.39222325804E+01  0.50652587640E+00  0.14721363443E+04  0.14721756202E+04  0.10000000000E+02 0. -1.
</event>
<event>
 5    1  0.1145138E-008  0.3811392E+03  0.7957747E-01  0.3446213E+00
         13   -1    0    0    0    0  0.00000000000E+00  0.00000000000E+00  0.14999999963E+04  0.15000000000E+04  0.10566000000E+00 0.  1.
        994   -1    0    0    0    0 -0.00000000000E+00 -0.00000000000E+00  0.11368683772E-12  0.17120000000E+03  0.17120000000E+03 0.  0.
         13    1    1    2    0    0 -0.19900286527E+02  0.20192252876E+02  0.10699689659E+03  0.11068918431E+03  0.10566000000E+00 0.  1.
        994    1    1    2    0    0  0.14758520493E+02 -0.20332629645E+02  0.56642683779E+01  0.17312640957E+03  0.17120000000E+03 0.  0.
        998    1    1    2    0    0  0.51417660347E+01  0.14037676904E+00  0.13873388313E+04  0.13873844061E+04  0.10000000000E+02 0.  1.
</event>
<event>
 5    1  0.1145138E-008  0.3883100E+03  0.7957747E-01  0.3415754E+00
         13   -1    0    0    0    0  0.00000000000E+00  0.00000000000E+00  0.14999999963E+04  0.15000000000E+04  0.10566000000E+00 0. -1.
        994   -1    0    0    0    0 -0.00000000000E+00 -0.00000000000E+00  0.11368683772E-12  0.17120000000E+03  0.17120000000E+03 0.  0.
         13    1    1    2    0    0 -0.93527656402E+02  0.77445122472E+02  0.31773222107E+03  0.34014547620E+03  0.10566000000E+00 0. -1.
        994    1    1    2    0    0  0.38512391976E+02 -0.96836846284E+02  0.62813739852E+02  0.21003710398E+03  0.17120000000E+03 0.  0.
        998    1    1    2    0    0  0.55015264426E+02  0.19391723812E+02  0.11194540354E+04  0.11210174198E+04  0.10000000000E+02 0. -1.
</event>
<event>
 5    1  0.1145138E-008  0.3852613E+03  0.7957747E-01  0.3428565E+00
         13   -1    0    0    0    0  0.00000000000E+00  0.00000000000E+00  0.14999999963E+04  0.15000000000E+04  0.10566000000E+00 0. -1.
        994   -1    0    0    0    0 -0.00000000000E+00 -0.00000000000E+00  0.11368683772E-12  0.17120000000E+03  0.17120000000E+03 0.  0.
         13    1    1    2    0    0  0.83488092598E+00 -0.15876837577E+02  0.83670514742E+02  0.85167700444E+02  0.10566000000E+00 0. -1.
        994    1    1    2    0    0 -0.22457243290E+01  0.11487943291E+02  0.19508316662E+01  0.17161078598E+03  0.17120000000E+03 0.  0.
        998    1    1    2    0    0  0.14108434030E+01  0.43888942865E+01  0.14143786499E+04  0.14144215136E+04  0.10000000000E+02 0. -1.
</event>
<event>
 5    1  0.1145138E-008  0.3800600E+03  0.7957747E-01  0.3450897E+00
         13   -1    0    0    0    0  0.00000000000E+00  0.00000000000E+00  0.14999999963E+04  0.15000000000E+04  0.10566000000E+00 0. -1.
        994   -1    0    0    0    0 -0.00000000000E+00 -0.00000000000E+00  0.11368683772E-12  0.17120000000E+03  0.17120000000E+03 0.  0.
         13    1    1    2    0    0  0.20017302725E+02 -0.13192849808E+02  0.65621589470E+02  0.69863780767E+02  0.10566000000E+00 0. -1.
        994    1    1    2    0    0 -0.19555323826E+02  0.16823949189E+02  0.63301724634E+01  0.17324828149E+03  0.17120000000E+03 0.  0.
        998    1    1    2    0    0 -0.46197889892E+00 -0.36310993804E+01  0.14280482343E+04  0.14280879377E+04  0.10000000000E+02 0. -1.
</event>
<event>
 5    1  0.1145138E-008  0.3828042E+03  0.7957747E-01  0.3439039E+00
         13   -1    0    0    0    0  0.00000000000E+00  0.00000000000E+00  0.14999999963E+04  0.15000000000E+04  0.10566000000E+00 0.  1.
        994   -1    0    0    0    0 -0.00000000000E+00 -0.00000000000E+00  0.11368683772E-12  0.17120000000E+03  0.17120000000E+03 0.  0.
         13    1    1    2    0    0  0.90723714708E+01  0.23542540255E+02  0.10036409752E+03  0.10348682216E+03  0.10566000000E+00 0.  1.
        994    1    1    2    0    0 -0.13644601855E+02 -0.36947655345E+02  0.78796017895E+01  0.17584889115E+03  0.17120000000E+03 0.  0.
        998    1    1    2    0    0  0.45722303846E+01  0.13405115090E+02  0.13917562970E+04  0.13918642867E+04  0.10000000000E+02 0.  1.
</event>
<event>
 5    1  0.1145138E-008  0.3783248E+03  0.7957747E-01  0.3458485E+00
         13   -1    0    0    0    0  0.00000000000E+00  0.00000000000E+00  0.14999999963E+04  0.15000000000E+04  0.10566000000E+00 0. -1.
        994   -1    0    0    0    0 -0.00000000000E+00 -0.00000000000E+00  0.11368683772E-12  0.17120000000E+03  0.17120000000E+03 0.  0.
         13    1    1    2    0    0 -0.16371796965E+02 -0.14390382829E+02  0.48820094807E+02  0.53465238004E+02  0.10566000000E+00 0. -1.
        994    1    1    2    0    0 -0.81393102447E+01  0.27642374201E+01  0.52295976158E+01  0.17149541706E+03  0.17120000000E+03 0.  0.
        998    1    1    2    0    0  0.24511107209E+02  0.11626145409E+02  0.14459503039E+04  0.14462393449E+04  0.10000000000E+02 0. -1.
</event>
<event>
 5    1  0.1145138E-008  0.3777880E+03  0.7957747E-01  0.3460847E+00
         13   -1    0    0    0    0  0.00000000000E+00  0.00000000000E+00  0.14999999963E+04  0.15000000000E+04  0.10566000000E+00 0.  1.
        994   -1    0    0    0    0 -0.00000000000E+00 -0.00000000000E+00  0.11368683772E-12  0.17120000000E+03  0.17120000000E+03 0.  0.
         13    1    1    2    0    0 -0.40834533280E+02  0.11747152295E+02  0.15429351479E+03  0.16003735366E+03  0.10566000000E+00 0.  1.
        994    1    1    2    0    0  0.35799345987E+02 -0.28098470651E+02  0.12260438355E+02  0.17756935427E+03  0.17120000000E+03 0.  0.
        998    1    1    2    0    0  0.50351872926E+01  0.16351318356E+02  0.13334460431E+04  0.13335932921E+04  0.10000000000E+02 0.  1.
</event>
<event>
 5    1  0.1145138E-008  0.3825666E+03  0.7957747E-01  0.3440058E+00
         13   -1    0    0    0    0  0.00000000000E+00  0.00000000000E+00  0.14999999963E+04  0.15000000000E+04  0.10566000000E+00 0. -1.
        994   -1    0    0    0    0 -0.00000000000E+00 -0.00000000000E+00  0.11368683772E-12  0.17120000000E+03  0.17120000000E+03 0.  0.
         13    1    1    2    0    0  0.15856508869E+02  0.34054088993E+02  0.22253836557E+03  0.22568660830E+03  0.10566000000E+00 0. -1.
        994    1    1    2    0    0  0.32759047215E+01 -0.39003204626E+02  0.79379916954E+01  0.17579656776E+03  0.17120000000E+03 0.  0.
        998    1    1    2    0    0 -0.19132413591E+02  0.49491156326E+01  0.12695236390E+04  0.12697168239E+04  0.10000000000E+02 0. -1.
</event>
<event>
 5    1  0.1145138E-008  0.3774382E+03  0.7957747E-01  0.3462390E+00
         13   -1    0    0    0    0  0.00000000000E+00  0.00000000000E+00  0.14999999963E+04  0.15000000000E+04  0.10566000000E+00 0. -1.
        994   -1    0    0    0    0 -0.00000000000E+00 -0.00000000000E+00  0.11368683772E-12  0.17120000000E+03  0.17120000000E+03 0.  0.
         13    1    1    2    0    0  0.24313524044E+02 -0.11626200310E+02  0.59607620959E+02  0.65417089705E+02  0.10566000000E+00 0. -1.
        994    1    1    2    0    0 -0.26631934907E+02  0.37609465268E+02  0.12625793394E+02  0.17774302375E+03  0.17120000000E+03 0.  0.
        998    1    1    2    0    0  0.23184108633E+01 -0.25983264958E+02  0.14277665819E+04  0.14280398865E+04  0.10000000000E+02 0. -1.
</event>
<event>
 5    1  0.1145138E-008  0.3843190E+03  0.7957747E-01  0.3432565E+00
         13   -1    0    0    0    0  0.00000000000E+00  0.00000000000E+00  0.14999999963E+04  0.15000000000E+04  0.10566000000E+00 0.  1.
        994   -1    0    0    0    0 -0.00000000000E+00 -0.00000000000E+00  0.11368683772E-12  0.17120000000E+03  0.17120000000E+03 0.  0.
         13    1    1    2    0    0 -0.14633169132E+02 -0.13158708417E+02  0.85549757438E+02  0.87784129589E+02  0.10566000000E+00 0.  1.
        994    1    1    2    0    0  0.18279012844E+02  0.30025362203E+02  0.60518463447E+01  0.17487626920E+03  0.17120000000E+03 0.  0.
        998    1    1    2    0    0 -0.36458437127E+01 -0.16866653786E+02  0.14083983925E+04  0.14085396012E+04  0.10000000000E+02 0.  1.
</event>
<event>
 5    1  0.1145138E-008  0.3838832E+03  0.7957747E-01  0.3434422E+00
         13   -1    0    0    0    0  0.00000000000E+00  0.00000000000E+00  0.14999999963E+04  0.15000000000E+04  0.10566000000E+00 0.  1.
        994   -1    0    0    0    0 -0.00000000000E+00 -0.00000000000E+00  0.11368683772E-12  0.17120000000E+03  0.17120000000E+03 0.  0.
         13    1    1    2    0    0 -0.55306927480E+01  0.11944944967E+02  0.38584378445E+02  0.40768072024E+02  0.10566000000E+00 0.  1.
        994    1    1    2    0    0  0.65187528931E+01 -0.99689116293E+01  0.26540084376E+01  0.17163437039E+03  0.17120000000E+03 0.  0.
        998    1    1    2    0    0 -0.98806014507E+00 -0.19760333381E+01  0.14587616094E+04  0.14587975576E+04  0.10000000000E+02 0.  1.
</event>
<event>
 5    1  0.1145138E-008  0.3854098E+03  0.7957747E-01  0.3427936E+00
         13   -1    0    0    0    0  0.00000000000E+00  0.00000000000E+00  0.14999999963E+04  0.15000000000E+04  0.10566000000E+00 0. -1.
        994   -1    0    0    0    0 -0.00000000000E+00 -0.00000000000E+00  0.11368683772E-12  0.17120000000E+03  0.17120000000E+03 0.  0.
         13    1    1    2    0    0 -0.15157118577E+02  0.16790967979E+01  0.82386426225E+02  0.83785989280E+02  0.10566000000E+00 0. -1.
        994    1    1    2    0    0  0.92642272805E+01  0.13426254106E+01  0.17146661647E+01  0.17146430716E+03  0.17120000000E+03 0.  0.
        998    1    1    2    0    0  0.58928912962E+01 -0.30217222085E+01  0.14158989039E+04  0.14159497036E+04  0.10000000000E+02 0. -1.
</event>
<event>
 5    1  0.1145138E-008  0.3831486E+03  0.7957747E-01  0.3437562E+00
         13   -1    0    0    0    0  0.00000000000E+00  0.00000000000E+00  0.14999999963E+04  0.15000000000E+04  0.10566000000E+00 0.  1.
        994   -1    0    0    0    0 -0.00000000000E+00 -0.00000000000E+00  0.11368683772E-12  0.17120000000E+03  0.17120000000E+03 0.  0.
         13    1    1    2    0    0  0.79602650128E+01  0.84017885713E+01  0.25167249876E+02  0.27701218396E+02  0.10566000000E+00 0.  1.
        994    1    1    2    0    0 -0.94180907659E+01 -0.51658930946E+01  0.29339657979E+01  0.17156175285E+03  0.17120000000E+03 0.  0.
        998    1    1    2    0    0  0.14578257530E+01 -0.32358954767E+01  0.14718987806E+04  0.14719370288E+04  0.10000000000E+02 0.  1.
</event>
<event>
 5    1  0.1145138E-008  0.3823461E+03  0.7957747E-01  0.3441006E+00
         13   -1    0    0    0    0  0.00000000000E+00  0.00000000000E+00  0.14999999963E+04  0.15000000000E+04  0.10566000000E+00 0. -1.
        994   -1    0    0    0    0 -0.00000000000E+00 -0.00000000000E+00  0.11368683772E-12  0.17120000000E+03  0.17120000000E+03 0.  0.
         13    1    1    2    0    0  0.18500409736E+01 -0.10624437909E+02  0.18779985362E+02  0.21656415833E+02  0.10566000000E+00 0. -1.
        994    1    1    2    0    0 -0.68541406533E+01  0.17965174698E+01  0.31200586604E+01  0.17137497333E+03  0.17120000000E+03 0.  0.
        998    1    1    2    0    0  0.50040996797E+01  0.88279204396E+01  0.14780999523E+04  0.14781686108E+04  0.10000000000E+02 0. -1.
</event>
<event>
 5    1  0.1145138E-008  0.4019867E+03  0.7957747E-01  0.3360677E+00
         13   -1    0    0    0    0  0.00000000000E+00  0.00000000000E+00  0.14999999963E+04  0.15000000000E+04  0.10566000000E+00 0. -1.
        994   -1    0    0    0    0 -0.00000000000E+00 -0.00000000000E+00  0.11368683772E-12  0.17120000000E+03  0.17120000000E+03 0.  0.
         13    1    1    2    0    0 -0.10207655689E+03 -0.26617683966E+02  0.17593483436E+03  0.20513703145E+03  0.10566000000E+00 0. -1.
        994    1    1    2    0    0  0.78644611999E+02  0.29932615153E+02  0.57504013052E+02  0.19924128077E+03  0.17120000000E+03 0.  0.
        998    1    1    2    0    0  0.23431944892E+02 -0.33149311871E+01  0.12665611489E+04  0.12668216878E+04  0.10000000000E+02 0.  0.
</event>
<event>
 5    1  0.1145138E-008  0.3756650E+03  0.7957747E-01  0.3470254E+00
         13   -1    0    0    0    0  0.00000000000E+00  0.00000000000E+00  0.14999999963E+04  0.15000000000E+04  0.10566000000E+00 0.  1.
        994   -1    0    0    0    0 -0.00000000000E+00 -0.00000000000E+00  0.11368683772E-12  0.17120000000E+03  0.17120000000E+03 0.  0.
         13    1    1    2    0    0  0.25902807663E+01 -0.12387880335E+02  0.98543194983E+01  0.16040196709E+02  0.10566000000E+00 0.  1.
        994    1    1    2    0    0 -0.10050772874E+02  0.41209521979E+01  0.67379300519E+01  0.17167655630E+03  0.17120000000E+03 0.  0.
        998    1    1    2    0    0  0.74604921081E+01  0.82669281371E+01  0.14834077467E+04  0.14834832470E+04  0.10000000000E+02 0.  1.
</event>
<event>
 5    1  0.1145138E-008  0.3815339E+03  0.7957747E-01  0.3444507E+00
         13   -1    0    0    0    0  0.00000000000E+00  0.00000000000E+00  0.14999999963E+04  0.15000000000E+04  0.10566000000E+00 0. -1.
        994   -1    0    0    0    0 -0.00000000000E+00 -0.00000000000E+00  0.11368683772E-12  0.17120000000E+03  0.17120000000E+03 0.  0.
         13    1    1    2    0    0  0.12487290478E+02 -0.96303916745E+01  0.35485326736E+02  0.38831642315E+02  0.10566000000E+00 0. -1.
        994    1    1    2    0    0 -0.19782625305E+02 -0.46601459318E+01  0.47359463818E+01  0.17246720967E+03  0.17120000000E+03 0.  0.
        998    1    1    2    0    0  0.72953348271E+01  0.14290537606E+02  0.14597787232E+04  0.14599011480E+04  0.10000000000E+02 0. -1.
</event>
<event>
 5    1  0.1145138E-008  0.3827173E+03  0.7957747E-01  0.3439412E+00
         13   -1    0    0    0    0  0.00000000000E+00  0.00000000000E+00  0.14999999963E+04  0.15000000000E+04  0.10566000000E+00 0. -1.
        994   -1    0    0    0    0 -0.00000000000E+00 -0.00000000000E+00  0.11368683772E-12  0.17120000000E+03  0.17120000000E+03 0.  0.
         13    1    1    2    0    0 -0.11867794021E+02  0.29533393322E+01  0.26244551046E+02  0.28954349790E+02  0.10566000000E+00 0. -1.
        994    1    1    2    0    0  0.45265554930E+01 -0.63679929628E+01  0.29699890435E+01  0.17140391441E+03  0.17120000000E+03 0.  0.
        998    1    1    2    0    0  0.73412385282E+01  0.34146536306E+01  0.14707854562E+04  0.14708417358E+04  0.10000000000E+02 0. -1.
</event>
<event>
 5    1  0.1145138E-008  0.3835784E+03  0.7957747E-01  0.3435724E+00
         13   -1    0    0    0    0  0.00000000000E+00  0.00000000000E+00  0.14999999963E+04  0.15000000000E+04  0.10566000000E+00 0. -1.
        994   -1    0    0    0    0 -0.00000000000E+00 -0.00000000000E+00  0.11368683772E-12  0.17120000000E+03  0.17120000000E+03 0.  0.
         13    1    1    2    0    0 -0.23123871012E+01  0.29373838069E+02  0.15415822748E+03  0.15694884441E+03  0.10566000000E+00 0. -1.
        994    1    1    2    0    0 -0.68190508249E+01 -0.41062540536E+02  0.80831397002E+01  0.17637292546E+03  0.17120000000E+03 0.  0.
        998    1    1    2    0    0  0.91314379261E+01  0.11688702468E+02  0.13377586291E+04  0.13378782301E+04  0.10000000000E+02 0. -1.
</event>
<event>
 5    1  0.1145138E-008  0.3852550E+03  0.7957747E-01  0.3428591E+00
         13   -1    0    0    0    0  0.00000000000E+00  0.00000000000E+00  0.14999999963E+04  0.15000000000E+04  0.10566000000E+00 0. -1.
        994   -1    0    0    0    0 -0.00000000000E+00 -0.00000000000E+00  0.11368683772E-12  0.17120000000E+03  0.17120000000E+03 0.  0.
         13    1    1    2    0    0 -0.13061588278E+02 -0.11173812898E+02  0.10130999459E+03  0.10275789678E+03  0.10566000000E+00 0. -1.
        994    1    1    2    0    0 -0.15968791801E+02  0.34005026613E+02  0.61549609807E+01  0.17538149187E+03  0.17120000000E+03 0.  0.
        998    1    1    2    0    0  0.29030380078E+02 -0.22831213715E+02  0.13925350407E+04  0.13930606114E+04  0.10000000000E+02 0. -1.
</event>
<event>
 5    1  0.1145138E-008  0.3842095E+03  0.7957747E-01  0.3433032E+00
         13   -1    0    0    0    0  0.00000000000E+00  0.00000000000E+00  0.14999999963E+04  0.15000000000E+04  0.10566000000E+00 0. -1.
        994   -1    0    0    0    0 -0.00000000000E+00 -0.00000000000E+00  0.11368683772E-12  0.17120000000E+03  0.17120000000E+03 0.  0.
         13    1    1    2    0    0  0.19405761200E+01  0.15263438939E+03  0.39793632974E+03  0.42620928703E+03  0.10566000000E+00 0. -1.
        994    1    1    2    0    0  0.40397721059E+02 -0.16371599410E+03  0.13254114342E+03  0.27442940311E+03  0.17120000000E+03 0.  0.
        998    1    1    2    0    0 -0.42338297179E+02  0.11081604712E+02  0.96952252312E+03  0.97056130987E+03  0.10000000000E+02 0. -1.
</event>
<event>
 5    1  0.1145138E-008  0.3772719E+03  0.7957747E-01  0.3463124E+00
         13   -1    0    0    0    0  0.00000000000E+00  0.00000000000E+00  0.14999999963E+04  0.15000000000E+04  0.10566000000E+00 0. -1.
        994   -1    0    0    0    0 -0.00000000000E+00 -0.00000000000E+00  0.11368683772E-12  0.17120000000E+03  0.17120000000E+03 0.  0.
         13    1    1    2    0    0 -0.27300976959E+02 -0.25014156764E+02  0.13513402278E+03  0.14011519067E+03  0.10566000000E+00 0. -1.
        994    1    1    2    0    0 -0.66403441178E+01  0.12634420702E+02  0.62041648825E+01  0.17190594643E+03  0.17120000000E+03 0.  0.
        998    1    1    2    0    0  0.33941321077E+02  0.12379736062E+02  0.13586618086E+04  0.13591788629E+04  0.10000000000E+02 0. -1.
</event>
<event>
 5    1  0.1145138E-008  0.3848949E+03  0.7957747E-01  0.3430118E+00
         13   -1    0    0    0    0  0.00000000000E+00  0.00000000000E+00  0.14999999963E+04  0.15000000000E+04  0.10566000000E+00 0.  1.
        994   -1    0    0    0    0 -0.00000000000E+00 -0.00000000000E+00  0.11368683772E-12  0.17120000000E+03  0.17120000000E+03 0.  0.
         13    1    1    2    0    0  0.10370458071E+02 -0.83273659914E+01  0.51737720649E+02  0.53419980597E+02  0.10566000000E+00 0.  1.
        994    1    1    2    0    0 -0.91528029364E+01  0.68481551622E+01  0.21123094190E+01  0.17159420993E+03  0.17120000000E+03 0.  0.
        998    1    1    2    0    0 -0.12176551342E+01  0.14792108292E+01  0.14461499662E+04  0.14461858095E+04  0.10000000000E+02 0.  1.
</event>
<event>
 5    1  0.1145138E-008  0.3715154E+03  0.7957747E-01  0.3488955E+00
         13   -1    0    0    0    0  0.00000000000E+00  0.00000000000E+00  0.14999999963E+04  0.15000000000E+04  0.10566000000E+00 0. -1.
        994   -1    0    0    0    0 -0.00000000000E+00 -0.00000000000E+00  0.11368683772E-12  0.17120000000E+03  0.17120000000E+03 0.  0.
         13    1    1    2    0    0  0.97536454629E-01 -0.33057687153E+02  0.58909291231E+02  0.67550987784E+02  0.10566000000E+00 0. -1.
        994    1    1    2    0    0 -0.25216339680E+02  0.33784887383E+02  0.14617214644E+02  0.17691914924E+03  0.17120000000E+03 0.  0.
        998    1    1    2    0    0  0.25118803226E+02 -0.72720023076E+00  0.14264734904E+04  0.14267298630E+04  0.10000000000E+02 0. -1.
</event>
<event>
 5    1  0.1145138E-008  0.3800378E+03  0.7957747E-01  0.3450994E+00
         13   -1    0    0    0    0  0.00000000000E+00  0.00000000000E+00  0.14999999963E+04  0.15000000000E+04  0.10566000000E+00 0. -1.
        994   -1    0    0    0    0 -0.00000000000E+00 -0.00000000000E+00  0.11368683772E-12  0.17120000000E+03  0.17120000000E+03 0.  0.
         13    1    1    2    0    0  0.10377369284E+02  0.14425286115E+02  0.38819276568E+02  0.42693396095E+02  0.10566000000E+00 0. -1.
        994    1    1    2    0    0  0.17159539835E+02 -0.75518813747E+01  0.52897474112E+01  0.17230467825E+03  0.17120000000E+03 0.  0.
        998    1    1    2    0    0 -0.27536909118E+02 -0.68734047407E+01  0.14558909723E+04  0.14562019257E+04  0.10000000000E+02 0. -1.
</event>
<event>
 5    1  0.1145138E-008  0.3750073E+03  0.7957747E-01  0.3473190E+00
         13   -1    0    0    0    0  0.00000000000E+00  0.00000000000E+00  0.14999999963E+04  0.15000000000E+04  0.10566000000E+00 0.  1.
        994   -1    0    0    0    0 -0.00000000000E+00 -0.00000000000E+00  0.11368683772E-12  0.17120000000E+03  0.17120000000E+03 0.  0.
         13    1    1    2    0    0 -0.49100911734E+01 -0.41535422348E+02  0.13263433466E+03  0.13907256451E+03  0.10566000000E+00 0.  1.
        994    1    1    2    0    0 -0.24396521633E+01  0.19296253401E+02  0.79619228103E+01  0.17248515737E+03  0.17120000000E+03 0.  0.
        998    1    1    2    0    0  0.73497433367E+01  0.22239168948E+02  0.13594037388E+04  0.13596422781E+04  0.10000000000E+02 0.  1.
</event>
<event>
 5    1  0.1145138E-008  0.3719984E+03  0.7957747E-01  0.3486757E+00
         13   -1    0    0    0    0  0.00000000000E+00  0.00000000000E+00  0.14999999963E+04  0.15000000000E+04  0.10566000000E+00 0. -1.
        994   -1    0    0    0    0 -0.00000000000E+00 -0.00000000000E+00  0.11368683772E-12  0.17120000000E+03  0.17120000000E+03 0.  0.
         13    1    1    2    0    0 -0.58182016637E+02 -0.18431739502E+02  0.31824165508E+03  0.32404110584E+03  0.10566000000E+00 0. -1.
        994    1    1    2    0    0 -0.11910767391E+02 -0.11438920430E+00  0.87156309794E+01  0.17183504208E+03  0.17120000000E+03 0.  0.
        998    1    1    2    0    0  0.70092784028E+02  0.18546128706E+02  0.11730427102E+04  0.11753238521E+04  0.10000000000E+02 0. -1.
</event>
<event>
 5    1  0.1145138E-008  0.3834005E+03  0.7957747E-01  0.3436484E+00
         13   -1    0    0    0    0  0.00000000000E+00  0.00000000000E+00  0.14999999963E+04  0.15000000000E+04  0.10566000000E+00 0. -1.
        994   -1    0    0    0    0 -0.00000000000E+00 -0.00000000000E+00  0.11368683772E-12  0.17120000000E+03  0.17120000000E+03 0.  0.
         13    1    1    2    0    0 -0.11861078447E+02 -0.23184970379E+01  0.29480586906E+02  0.31861838911E+02  0.10566000000E+00 0. -1.
        994    1    1    2    0    0  0.61042640184E+01  0.42405135492E+01  0.26089836208E+01  0.17138112729E+03  0.17120000000E+03 0.  0.
        998    1    1    2    0    0  0.57568144285E+01 -0.19220165113E+01  0.14679104258E+04  0.14679570338E+04  0.10000000000E+02 0. -1.
</event>
<event>
 5    1  0.1145138E-008  0.3707220E+03  0.7957747E-01  0.3492579E+00
         13   -1    0    0    0    0  0.00000000000E+00  0.00000000000E+00  0.14999999963E+04  0.15000000000E+04  0.10566000000E+00 0. -1.
        994   -1    0    0    0    0 -0.00000000000E+00 -0.00000000000E+00  0.11368683772E-12  0.17120000000E+03  0.17120000000E+03 0.  0.
         13    1    1    2    0    0  0.39938357039E+01  0.16857007512E+03  0.63993013451E+03  0.66177217316E+03  0.10566000000E+00 0. -1.
        994    1    1    2    0    0  0.16348597566E+01 -0.16839764737E+03  0.11853955148E+03  0.26780871097E+03  0.17120000000E+03 0.  0.
        998    1    1    2    0    0 -0.56286954605E+01 -0.17242774932E+00  0.74153031029E+03  0.74161911587E+03  0.10000000000E+02 0. -1.
</event>
<event>
 5    1  0.1145138E-008  0.2304993E+03  0.7957747E-01  0.4564522E+00
         13   -1    0    0    0    0  0.00000000000E+00  0.00000000000E+00  0.14999999963E+04  0.15000000000E+04  0.10566000000E+00 0.  1.
        994   -1    0    0    0    0 -0.00000000000E+00 -0.00000000000E+00  0.11368683772E-12  0.17120000000E+03  0.17120000000E+03 0.  0.
         13    1    1    2    0    0 -0.11874226411E+03 -0.10711961115E+03  0.14633056772E+03  0.21676480940E+03  0.10566000000E+00 0.  1.
        994    1    1    2    0    0  0.12836833218E+03  0.74108128830E+02  0.20576533167E+03  0.30597263796E+03  0.17120000000E+03 0.  0.
        998    1    1    2    0    0 -0.96260680719E+01  0.33011482324E+02  0.11479040969E+04  0.11484625526E+04  0.10000000000E+02 0.  1.
</event>
<event>
 5    1  0.1145138E-008  0.3924006E+03  0.7957747E-01  0.3398879E+00
         13   -1    0    0    0    0  0.00000000000E+00  0.00000000000E+00  0.14999999963E+04  0.15000000000E+04  0.10566000000E+00 0.  1.
        994   -1    0    0    0    0 -0.00000000000E+00 -0.00000000000E+00  0.11368683772E-12  0.17120000000E+03  0.17120000000E+03 0.  0.
         13    1    1    2    0    0  0.20690486739E+02  0.92403344742E+02  0.16393607141E+03  0.18931857023E+03  0.10566000000E+00 0.  1.
        994    1    1    2    0    0 -0.25355313762E+02 -0.92807793890E+02  0.59397771361E+02  0.20516752615E+03  0.17120000000E+03 0.  0.
        998    1    1    2    0    0  0.46648270233E+01  0.40444914863E+00  0.12766661535E+04  0.12767139036E+04  0.10000000000E+02 0.  1.
</event>
<event>
 5    1  0.1145138E-008  0.3819250E+03  0.7957747E-01  0.3442819E+00
         13   -1    0    0    0    0  0.00000000000E+00  0.00000000000E+00  0.14999999963E+04  0.15000000000E+04  0.10566000000E+00 0. -1.
        994   -1    0    0    0    0 -0.00000000000E+00 -0.00000000000E+00  0.11368683772E-12  0.17120000000E+03  0.17120000000E+03 0.  0.
         13    1    1    2    0    0 -0.23040767577E+02  0.47847590602E+01  0.87538477087E+02  0.90646384509E+02  0.10566000000E+00 0. -1.
        994    1    1    2    0    0  0.13586560564E+02  0.43144299228E+01  0.38398793351E+01  0.17183536774E+03  0.17120000000E+03 0.  0.
        998    1    1    2    0    0  0.94542070136E+01 -0.90991889830E+01  0.14086216399E+04  0.14087182477E+04  0.10000000000E+02 0. -1.
</event>
<event>
 5    1  0.1145138E-008  0.3827292E+03  0.7957747E-01  0.3439361E+00
         13   -1    0    0    0    0  0.00000000000E+00  0.00000000000E+00  0.14999999963E+04  0.15000000000E+04  0.10566000000E+00 0.  1.
        994   -1    0    0    0    0 -0.00000000000E+00 -0.00000000000E+00  0.11368683772E-12  0.17120000000E+03  0.17120000000E+03 0.  0.
         13    1    1    2    0    0 -0.83470197361E+01  0.17691298624E+02  0.65430650071E+02  0.68292283006E+02  0.10566000000E+00 0.  1.
        994    1    1    2    0    0  0.20866569780E+02 -0.14172383920E+02  0.48726202735E+01  0.17311687563E+03  0.17120000000E+03 0.  0.
        998    1    1    2    0    0 -0.12519550044E+02 -0.35189147037E+01  0.14296967259E+04  0.14297908414E+04  0.10000000000E+02 0.  1.
</event>
<event>
 5    1  0.1145138E-008  0.3768375E+03  0.7957747E-01  0.3465046E+00
         13   -1    0    0    0    0  0.00000000000E+00  0.00000000000E+00  0.14999999963E+04  0.15000000000E+04  0.10566000000E+00 0. -1.
        994   -1    0    0    0    0 -0.00000000000E+00 -0.00000000000E+00  0.11368683772E-12  0.17120000000E+03  0.17120000000E+03 0.  0.
         13    1    1    2    0    0 -0.23171646386E+02  0.29229317496E+02  0.40382681917E+02  0.54973178554E+02  0.10566000000E+00 0. -1.
        994    1    1    2    0    0  0.26447564979E+02 -0.32787001059E+02  0.20984017277E+02  0.17755064098E+03  0.17120000000E+03 0.  0.
        998    1    1    2    0    0 -0.32759185932E+01  0.35576835623E+01  0.14386332971E+04  0.14386761805E+04  0.10000000000E+02 0. -1.
</event>
<event>
 5    1  0.1145138E-008  0.3710286E+03  0.7957747E-01  0.3491177E+00
         13   -1    0    0    0    0  0.00000000000E+00  0.00000000000E+00  0.14999999963E+04  0.15000000000E+04  0.10566000000E+00 0. -1.
        994   -1    0    0    0    0 -0.00000000000E+00 -0.00000000000E+00  0.11368683772E-12  0.17120000000E+03  0.17120000000E+03 0.  0.
         13    1    1    2    0    0 -0.23481699021E+02  0.19580982890E+02  0.36039979219E+02  0.47261996847E+02  0.10566000000E+00 0. -1.
        994    1    1    2    0    0  0.21313814047E+02 -0.93634161769E+01  0.13387532033E+02  0.17329344548E+03  0.17120000000E+03 0.  0.
        998    1    1    2    0    0  0.21678849739E+01 -0.10217566713E+02  0.14505724850E+04  0.14506445577E+04  0.10000000000E+02 0. -1.
</event>
<event>
 5    1  0.1145138E-008  0.3773385E+03  0.7957747E-01  0.3462830E+00
         13   -1    0    0    0    0  0.00000000000E+00  0.00000000000E+00  0.14999999963E+04  0.15000000000E+04  0.10566000000E+00 0. -1.
        994   -1    0    0    0    0 -0.00000000000E+00 -0.00000000000E+00  0.11368683772E-12  0.17120000000E+03  0.17120000000E+03 0.  0.
         13    1    1    2    0    0  0.24050510036E+02  0.37572464242E+02  0.22134280046E+03  0.22579363052E+03  0.10566000000E+00 0. -1.
        994    1    1    2    0    0 -0.27365327468E+01  0.58716795341E+01  0.56242781155E+01  0.17141481189E+03  0.17120000000E+03 0.  0.
        998    1    1    2    0    0 -0.21313977289E+02 -0.43444143777E+02  0.12730329177E+04  0.12739915576E+04  0.10000000000E+02 0. -1.
</event>
<event>
 5    1  0.1145138E-008  0.3736031E+03  0.7957747E-01  0.3479494E+00
         13   -1    0    0    0    0  0.00000000000E+00  0.00000000000E+00  0.14999999963E+04  0.15000000000E+04  0.10566000000E+00 0. -1.
        994   -1    0    0    0    0 -0.00000000000E+00 -0.00000000000E+00  0.11368683772E-12  0.17120000000E+03  0.17120000000E+03 0.  0.
         13    1    1    2    0    0  0.26308240390E+01  0.35931282791E+02  0.81868715517E+02  0.89445380331E+02  0.10566000000E+00 0. -1.
        994    1    1    2    0    0  0.37376667512E+00 -0.32937266228E+02  0.11112404405E+02  0.17469381426E+03  0.17120000000E+03 0.  0.
        998    1    1    2    0    0 -0.30045907141E+01 -0.29940165626E+01  0.14070188764E+04  0.14070608054E+04  0.10000000000E+02 0. -1.
</event>
<event>
 5    1  0.1145138E-008  0.3814132E+03  0.7957747E-01  0.3445028E+00
         13   -1    0    0    0    0  0.00000000000E+00  0.00000000000E+00  0.14999999963E+04  0.15000000000E+04  0.10566000000E+00 0. -1.
        994   -1    0    0    0    0 -0.00000000000E+00 -0.00000000000E+00  0.11368683772E-12  0.17120000000E+03  0.17120000000E+03 0.  0.
         13    1    1    2    0    0 -0.29525561578E+02  0.11166818549E+02  0.15419520311E+03  0.15739322872E+03  0.10566000000E+00 0. -1.
        994    1    1    2    0    0  0.10853312926E+02  0.18857559773E+01  0.38253287803E+01  0.17159668883E+03  0.17120000000E+03 0.  0.
        998    1    1    2    0    0  0.18672248652E+02 -0.13052574526E+02  0.13419794644E+04  0.13422100824E+04  0.10000000000E+02 0. -1.
</event>
<event>
 5    1  0.1145138E-008  0.3741212E+03  0.7957747E-01  0.3477163E+00
         13   -1    0    0    0    0  0.00000000000E+00  0.00000000000E+00  0.14999999963E+04  0.15000000000E+04  0.10566000000E+00 0.  1.
        994   -1    0    0    0    0 -0.00000000000E+00 -0.00000000000E+00  0.11368683772E-12  0.17120000000E+03  0.17120000000E+03 0.  0.
         13    1    1    2    0    0  0.28162761979E+02  0.20800462703E+02  0.78659587845E+02  0.86099607054E+02  0.10566000000E+00 0.  1.
        994    1    1    2    0    0 -0.25466467740E+02 -0.28840082658E+02  0.12194248100E+02  0.17589323760E+03  0.17120000000E+03 0.  0.
        998    1    1    2    0    0 -0.26962942395E+01  0.80396199552E+01  0.14091461603E+04  0.14092071553E+04  0.10000000000E+02 0.  1.
</event>
<event>
 5    1  0.1145138E-008  0.3750884E+03  0.7957747E-01  0.3472828E+00
         13   -1    0    0    0    0  0.00000000000E+00  0.00000000000E+00  0.14999999963E+04  0.15000000000E+04  0.10566000000E+00 0.  1.
        994   -1    0    0    0    0 -0.00000000000E+00 -0.00000000000E+00  0.11368683772E-12  0.17120000000E+03  0.17120000000E+03 0.  0.
         13    1    1    2    0    0  0.41769353250E+02 -0.24952477099E+02  0.22938708273E+03  0.23449040465E+03  0.10566000000E+00 0.  1.
        994    1    1    2    0    0  0.59004331716E+01 -0.11301525083E+02  0.71858858334E+01  0.17182437701E+03  0.17120000000E+03 0.  0.
        998    1    1    2    0    0 -0.47669786422E+02  0.36254002182E+02  0.12634270277E+04  0.12648852183E+04  0.10000000000E+02 0.  1.
</event>
<event>
 5    1  0.1145138E-008  0.3796436E+03  0.7957747E-01  0.3452712E+00
         13   -1    0    0    0    0  0.00000000000E+00  0.00000000000E+00  0.14999999963E+04  0.15000000000E+04  0.10566000000E+00 0.  1.
        994   -1    0    0    0    0 -0.00000000000E+00 -0.00000000000E+00  0.11368683772E-12  0.17120000000E+03  0.17120000000E+03 0.  0.
         13    1    1    2    0    0  0.12783991382E+02  0.19315148808E+02  0.60867327965E+02  0.65125633869E+02  0.10566000000E+00 0.  1.
        994    1    1    2    0    0 -0.10601893576E+02 -0.95036832200E+01  0.49919357422E+01  0.17186354926E+03  0.17120000000E+03 0.  0.
        998    1    1    2    0    0 -0.21820978067E+01 -0.98114655882E+01  0.14341407326E+04  0.14342108169E+04  0.10000000000E+02 0.  1.
</event>
<event>
 5    1  0.1145138E-008  0.3863625E+03  0.7957747E-01  0.3423914E+00
         13   -1    0    0    0    0  0.00000000000E+00  0.00000000000E+00  0.14999999963E+04  0.15000000000E+04  0.10566000000E+00 0. -1.
        994   -1    0    0    0    0 -0.00000000000E+00 -0.00000000000E+00  0.11368683772E-12  0.17120000000E+03  0.17120000000E+03 0.  0.
         13    1    1    2    0    0  0.10718082668E+02 -0.39337508540E+01  0.64609321891E+02  0.65610420903E+02  0.10566000000E+00 0. -1.
        994    1    1    2    0    0 -0.99424444104E+01  0.22864830580E+02  0.29932425946E+01  0.17303193977E+03  0.17120000000E+03 0.  0.
        998    1    1    2    0    0 -0.77563825743E+00 -0.18931079726E+02  0.14323974318E+04  0.14325576393E+04  0.10000000000E+02 0. -1.
</event>
<event>
 5    1  0.1145138E-008  0.3852927E+03  0.7957747E-01  0.3428432E+00
         13   -1    0    0    0    0  0.00000000000E+00  0.00000000000E+00  0.14999999963E+04  0.15000000000E+04  0.10566000000E+00 0.  1.
        994   -1    0    0    0    0 -0.00000000000E+00 -0.00000000000E+00  0.11368683772E-12  0.17120000000E+03  0.17120000000E+03 0.  0.
         13    1    1    2    0    0  0.12049999739E+02 -0.11469852306E+01  0.46030670683E+02  0.47595712795E+02  0.10566000000E+00 0.  1.
        994    1    1    2    0    0 -0.20406428537E+02  0.71866965079E+01  0.30242446987E+01  0.17258811369E+03  0.17120000000E+03 0.  0.
        998    1    1    2    0    0  0.83564287982E+01 -0.60397112773E+01  0.14509450809E+04  0.14510161735E+04  0.10000000000E+02 0.  1.
</event>
<event>
 5    1  0.1145138E-008  0.3695029E+03  0.7957747E-01  0.3498179E+00
         13   -1    0    0    0    0  0.00000000000E+00  0.00000000000E+00  0.14999999963E+04  0.15000000000E+04  0.10566000000E+00 0. -1.
        994   -1    0    0    0    0 -0.00000000000E+00 -0.00000000000E+00  0.11368683772E-12  0.17120000000E+03  0.17120000000E+03 0.  0.
         13    1    1    2    0    0 -0.85683711312E+01  0.23108031146E+02  0.35472062161E+02  0.43193476884E+02  0.10566000000E+00 0. -1.
        994    1    1    2    0    0 -0.25649952127E+02  0.75569459087E+02  0.31923430684E+02  0.19156515502E+03  0.17120000000E+03 0.  0.
        998    1    1    2    0    0  0.34218323258E+02 -0.98677490233E+02  0.14326045034E+04  0.14364413681E+04  0.10000000000E+02 0. -1.
</event>
<event>
 5    1  0.1145138E-008  0.3819656E+03  0.7957747E-01  0.3442644E+00
         13   -1    0    0    0    0  0.00000000000E+00  0.00000000000E+00  0.14999999963E+04  0.15000000000E+04  0.10566000000E+00 0.  1.
        994   -1    0    0    0    0 -0.00000000000E+00 -0.00000000000E+00  0.11368683772E-12  0.17120000000E+03  0.17120000000E+03 0.  0.
         13    1    1    2    0    0  0.26087677521E+02  0.15075790431E+02  0.13783042199E+03  0.14108537403E+03  0.10566000000E+00 0.  1.
        994    1    1    2    0    0 -0.22043305882E+02 -0.92776164238E+01  0.50462783463E+01  0.17293607613E+03  0.17120000000E+03 0.  0.
        998    1    1    2    0    0 -0.40443716391E+01 -0.57981740069E+01  0.13571232959E+04  0.13571785498E+04  0.10000000000E+02 0.  1.
</event>
<event>
 5    1  0.1145138E-008  0.3737983E+03  0.7957747E-01  0.3478615E+00
         13   -1    0    0    0    0  0.00000000000E+00  0.00000000000E+00  0.14999999963E+04  0.15000000000E+04  0.10566000000E+00 0.  1.
        994   -1    0    0    0    0 -0.00000000000E+00 -0.00000000000E+00  0.11368683772E-12  0.17120000000E+03  0.17120000000E+03 0.  0.
         13    1    1    2    0    0  0.40533110044E+02 -0.85821452973E+02  0.45449103149E+03  0.46429555637E+03  0.10566000000E+00 0.  1.
        994    1    1    2    0    0 -0.13509748407E+03 -0.12750796733E+02  0.81421754860E+02  0.23313698802E+03  0.17120000000E+03 0.  0.
        998    1    1    2    0    0  0.94564374025E+02  0.98572249706E+02  0.96408720993E+03  0.97376745561E+03  0.10000000000E+02 0.  1.
</event>
<event>
 5    1  0.1145138E-008  0.3844178E+03  0.7957747E-01  0.3432145E+00
         13   -1    0    0    0    0  0.00000000000E+00  0.00000000000E+00  0.14999999963E+04  0.15000000000E+04  0.10566000000E+00 0. -1.
        994   -1    0    0    0    0 -0.00000000000E+00 -0.00000000000E+00  0.11368683772E-12  0.17120000000E+03  0.17120000000E+03 0.  0.
         13    1    1    2    0    0 -0.51416894254E+01  0.10352125395E+02  0.33528255698E+02  0.35464892000E+02  0.10566000000E+00 0. -1.
        994    1    1    2    0    0  0.83997259098E+01 -0.11165427972E+02  0.25629705969E+01  0.17178833195E+03  0.17120000000E+03 0.  0.
        998    1    1    2    0    0 -0.32580364844E+01  0.81330257693E+00  0.14639087700E+04  0.14639467760E+04  0.10000000000E+02 0. -1.
</event>
<event>
 5    1  0.1145138E-008  0.3757236E+03  0.7957747E-01  0.3469993E+00
         13   -1    0    0    0    0  0.00000000000E+00  0.00000000000E+00  0.14999999963E+04  0.15000000000E+04  0.10566000000E+00 0.  1.
        994   -1    0    0    0    0 -0.00000000000E+00 -0.00000000000E+00  0.11368683772E-12  0.17120000000E+03  0.17120000000E+03 0.  0.
         13    1    1    2    0    0  0.77506193036E+02 -0.22048660999E+02  0.41722017943E+03  0.42493063281E+03  0.10566000000E+00 0.  1.
        994    1    1    2    0    0 -0.67207898923E+02  0.13546387222E+02  0.22416701953E+02  0.18577501127E+03  0.17120000000E+03 0.  0.
        998    1    1    2    0    0 -0.10298294113E+02  0.85022737774E+01  0.10603631149E+04  0.10604943559E+04  0.10000000000E+02 0.  1.
</event>
<event>
 5    1  0.1145138E-008  0.3821797E+03  0.7957747E-01  0.3441722E+00
         13   -1    0    0    0    0  0.00000000000E+00  0.00000000000E+00  0.14999999963E+04  0.15000000000E+04  0.10566000000E+00 0.  1.
        994   -1    0    0    0    0 -0.00000000000E+00 -0.00000000000E+00  0.11368683772E-12  0.17120000000E+03  0.17120000000E+03 0.  0.
         13    1    1    2    0    0  0.16713834181E+02 -0.19697294944E+02  0.11019696717E+03  0.11318444424E+03  0.10566000000E+00 0.  1.
        994    1    1    2    0    0  0.19641112193E+01  0.20157167473E+02  0.43994269870E+01  0.17244988864E+03  0.17120000000E+03 0.  0.
        998    1    1    2    0    0 -0.18677945400E+02 -0.45987252873E+00  0.13854036021E+04  0.13855656671E+04  0.10000000000E+02 0.  1.
</event>
<event>
 5    1  0.1145138E-008  0.3788043E+03  0.7957747E-01  0.3456381E+00
         13   -1    0    0    0    0  0.00000000000E+00  0.00000000000E+00  0.14999999963E+04  0.15000000000E+04  0.10566000000E+00 0.  1.
        994   -1    0    0    0    0 -0.00000000000E+00 -0.00000000000E+00  0.11368683772E-12  0.17120000000E+03  0.17120000000E+03 0.  0.
         13    1    1    2    0    0 -0.73897922524E+02 -0.46886721782E+02  0.51827135392E+03  0.52560867106E+03  0.10566000000E+00 0.  1.
        994    1    1    2    0    0  0.76039532654E+02  0.44713433387E+02  0.31313429335E+02  0.19511861138E+03  0.17120000000E+03 0.  0.
        998    1    1    2    0    0 -0.21416101299E+01  0.21732883947E+01  0.95041521303E+03  0.95047271756E+03  0.10000000000E+02 0.  0.
</event>
<event>
 5    1  0.1145138E-008  0.4145671E+03  0.7957747E-01  0.3313202E+00
         13   -1    0    0    0    0  0.00000000000E+00  0.00000000000E+00  0.14999999963E+04  0.15000000000E+04  0.10566000000E+00 0. -1.
        994   -1    0    0    0    0 -0.00000000000E+00 -0.00000000000E+00  0.11368683772E-12  0.17120000000E+03  0.17120000000E+03 0.  0.
         13    1    1    2    0    0  0.56985226037E+02 -0.58403607868E+02  0.73838569184E+02  0.11004745732E+03  0.10566000000E+00 0. -1.
        994    1    1    2    0    0 -0.62275237918E+02  0.61940348252E+02  0.69718848752E+02  0.20465817812E+03  0.17120000000E+03 0.  0.
        998    1    1    2    0    0  0.52900118817E+01 -0.35367403843E+01  0.13564425783E+04  0.13564943646E+04  0.10000000000E+02 0. -1.
</event>
<event>
 5    1  0.1837484E-008  0.3867013E+03  0.7957747E-01  0.3422489E+00
         13   -1    0    0    0    0  0.00000000000E+00  0.00000000000E+00  0.14999999963E+04  0.15000000000E+04  0.10566000000E+00 0. -1.
        994   -1    0    0    0    0 -0.00000000000E+00 -0.00000000000E+00  0.11368683772E-12  0.17120000000E+03  0.17120000000E+03 0.  0.
         13    1    1    2    0    0 -0.51553981557E+01 -0.96001029842E+01  0.63496069344E+02  0.64424390518E+02  0.10566000000E+00 0. -1.
        994    1    1    2    0    0  0.16862154909E+02  0.25422009337E+02  0.38374053302E+01  0.17393900226E+03  0.17120000000E+03 0.  0.
        998    1    1    2    0    0 -0.11706756753E+02 -0.15821906352E+02  0.14326665216E+04  0.14328366072E+04  0.10000000000E+02 0. -1.
</event>
<event>
 5    1  0.1145138E-008  0.3719804E+03  0.7957747E-01  0.3486839E+00
         13   -1    0    0    0    0  0.00000000000E+00  0.00000000000E+00  0.14999999963E+04  0.15000000000E+04  0.10566000000E+00 0. -1.
        994   -1    0    0    0    0 -0.00000000000E+00 -0.00000000000E+00  0.11368683772E-12  0.17120000000E+03  0.17120000000E+03 0.  0.
         13    1    1    2    0    0  0.28516160723E+01  0.16737386153E+02  0.13740400170E+02  0.21842197012E+02  0.10566000000E+00 0. -1.
        994    1    1    2    0    0  0.32334456749E+02 -0.20819569137E+02  0.13333755009E+02  0.17597215852E+03  0.17120000000E+03 0.  0.
        998    1    1    2    0    0 -0.35186072822E+02  0.40821829845E+01  0.14729258411E+04  0.14733856445E+04  0.10000000000E+02 0. -1.
</event>
<event>
 5    1  0.1145138E-008  0.3737651E+03  0.7957747E-01  0.3478764E+00
         13   -1    0    0    0    0  0.00000000000E+00  0.00000000000E+00  0.14999999963E+04  0.15000000000E+04  0.10566000000E+00 0. -1.
        994   -1    0    0    0    0 -0.00000000000E+00 -0.00000000000E+00  0.11368683772E-12  0.17120000000E+03  0.17120000000E+03 0.  0.
         13    1    1    2    0    0  0.85388258890E+02  0.51628615025E+02  0.41732711222E+03  0.42909043150E+03  0.10566000000E+00 0. -1.
        994    1    1    2    0    0 -0.87455935887E+02  0.40570863509E+02  0.46648707297E+02  0.20194077741E+03  0.17120000000E+03 0.  0.
        998    1    1    2    0    0  0.20676769961E+01 -0.92199478534E+02  0.10360241768E+04  0.10401687911E+04  0.10000000000E+02 0. -1.
</event>
<event>
 5    1  0.1145138E-008  0.3791142E+03  0.7957747E-01  0.3455025E+00
         13   -1    0    0    0    0  0.00000000000E+00  0.00000000000E+00  0.14999999963E+04  0.15000000000E+04  0.10566000000E+00 0.  1.
        994   -1    0    0    0    0 -0.00000000000E+00 -0.00000000000E+00  0.11368683772E-12  0.17120000000E+03  0.17120000000E+03 0.  0.
         13    1    1    2    0    0 -0.11653684641E+03  0.31907181092E+02  0.66736618275E+03  0.67821570154E+03  0.10566000000E+00 0.  1.
        994    1    1    2    0    0  0.13724797839E+03 -0.15599473664E+02  0.71466092671E+02  0.23129460338E+03  0.17120000000E+03 0.  0.
        998    1    1    2    0    0 -0.20711131990E+02 -0.16307707428E+02  0.76116772086E+03  0.76168969508E+03  0.10000000000E+02 0.  1.
</event>
<event>
 5    1  0.1145138E-008  0.2929469E+03  0.7957747E-01  0.3947695E+00
         13   -1    0    0    0    0  0.00000000000E+00  0.00000000000E+00  0.14999999963E+04  0.15000000000E+04  0.10566000000E+00 0. -1.
        994   -1    0    0    0    0 -0.00000000000E+00 -0.00000000000E+00  0.11368683772E-12  0.17120000000E+03  0.17120000000E+03 0.  0.
         13    1    1    2    0    0  0.14921959835E+02 -0.21183723785E+03  0.70508863609E+03  0.73637468461E+03  0.10566000000E+00 0. -1.
        994    1    1    2    0    0 -0.54189719747E+02  0.11646063506E+03  0.10724766711E+03  0.23939738375E+03  0.17120000000E+03 0.  0.
        998    1    1    2    0    0  0.39267759912E+02  0.95376602793E+02  0.68766369308E+03  0.69542793164E+03  0.10000000000E+02 0. -1.
</event>
<event>
 5    1  0.1145138E-008  0.3859044E+03  0.7957747E-01  0.3425846E+00
         13   -1    0    0    0    0  0.00000000000E+00  0.00000000000E+00  0.14999999963E+04  0.15000000000E+04  0.10566000000E+00 0. -1.
        994   -1    0    0    0    0 -0.00000000000E+00 -0.00000000000E+00  0.11368683772E-12  0.17120000000E+03  0.17120000000E+03 0.  0.
         13    1    1    2    0    0  0.53712564679E+01 -0.13014537167E+02  0.81880968509E+02  0.83082686173E+02  0.10566000000E+00 0. -1.
        994    1    1    2    0    0  0.13787663229E-01  0.14461092482E+02  0.18678188716E+01  0.17181982462E+03  0.17120000000E+03 0.  0.
        998    1    1    2    0    0 -0.53850441312E+01 -0.14465553158E+01  0.14162512089E+04  0.14162974892E+04  0.10000000000E+02 0. -1.
</event>
<event>
 5    1  0.1145138E-008  0.3729763E+03  0.7957747E-01  0.3482323E+00
         13   -1    0    0    0    0  0.00000000000E+00  0.00000000000E+00  0.14999999963E+04  0.15000000000E+04  0.10566000000E+00 0. -1.
        994   -1    0    0    0    0 -0.00000000000E+00 -0.00000000000E+00  0.11368683772E-12  0.17120000000E+03  0.17120000000E+03 0.  0.
         13    1    1    2    0    0 -0.36806107181E+02 -0.11480100014E+03  0.53130421995E+03  0.54481019122E+03  0.10566000000E+00 0. -1.
        994    1    1    2    0    0  0.33037142778E+02  0.12472391741E+03  0.67036554167E+02  0.22461266209E+03  0.17120000000E+03 0.  0.
        998    1    1    2    0    0  0.37689644034E+01 -0.99229172724E+01  0.90165922216E+03  0.90177714669E+03  0.10000000000E+02 0. -1.
</event>
<event>
 5    1  0.1145138E-008  0.3813537E+03  0.7957747E-01  0.3445285E+00
         13   -1    0    0    0    0  0.00000000000E+00  0.00000000000E+00  0.14999999963E+04  0.15000000000E+04  0.10566000000E+00 0.  1.
        994   -1    0    0    0    0 -0.00000000000E+00 -0.00000000000E+00  0.11368683772E-12  0.17120000000E+03  0.17120000000E+03 0.  0.
         13    1    1    2    0    0 -0.35096805070E+01  0.33847830099E+02  0.16495242541E+03  0.16842596971E+03  0.10566000000E+00 0.  1.
        994    1    1    2    0    0 -0.82874638291E+01 -0.22460031127E+02  0.53611176419E+01  0.17294888446E+03  0.17120000000E+03 0.  0.
        998    1    1    2    0    0  0.11797144336E+02 -0.11387798972E+02  0.13296864532E+04  0.13298251458E+04  0.10000000000E+02 0.  1.
</event>
<event>
 5    1  0.1145138E-008  0.3806670E+03  0.7957747E-01  0.3448260E+00
         13   -1    0    0    0    0  0.00000000000E+00  0.00000000000E+00  0.14999999963E+04  0.15000000000E+04  0.10566000000E+00 0. -1.
        994   -1    0    0    0    0 -0.00000000000E+00 -0.00000000000E+00  0.11368683772E-12  0.17120000000E+03  0.17120000000E+03 0.  0.
         13    1    1    2    0    0  0.23295620956E+02 -0.30872867631E+02  0.17758817186E+03  0.18175090058E+03  0.10566000000E+00 0. -1.
        994    1    1    2    0    0 -0.18390773769E+02  0.31471162883E+02  0.82413787523E+01  0.17523131848E+03  0.17120000000E+03 0.  0.
        998    1    1    2    0    0 -0.49048471866E+01 -0.59829525156E+00  0.13141704457E+04  0.13142177809E+04  0.10000000000E+02 0.  0.
</event>
<event>
 5    1  0.1145138E-008  0.3791724E+03  0.7957747E-01  0.3454770E+00
         13   -1    0    0    0    0  0.00000000000E+00  0.00000000000E+00  0.14999999963E+04  0.15000000000E+04  0.10566000000E+00 0.  1.
        994   -1    0    0    0    0 -0.00000000000E+00 -0.00000000000E+00  0.11368683772E-12  0.17120000000E+03  0.17120000000E+03 0.  0.
         13    1    1    2    0    0 -0.34411718346E+02  0.84448116446E+01  0.13284614424E+03  0.13749032841E+03  0.10566000000E+00 0.  1.
        994    1    1    2    0    0  0.25433348723E+02 -0.38126201924E+01  0.67716930210E+01  0.17325324564E+03  0.17120000000E+03 0.  0.
        998    1    1    2    0    0  0.89783696227E+01 -0.46321914522E+01  0.13603821590E+04  0.13604564259E+04  0.10000000000E+02 0.  1.
</event>
<event>
 5    1  0.1145138E-008  0.3704484E+03  0.7957747E-01  0.3493832E+00
         13   -1    0    0    0    0  0.00000000000E+00  0.00000000000E+00  0.14999999963E+04  0.15000000000E+04  0.10566000000E+00 0. -1.
        994   -1    0    0    0    0 -0.00000000000E+00 -0.00000000000E+00  0.11368683772E-12  0.17120000000E+03  0.17120000000E+03 0.  0.
         13    1    1    2    0    0  0.20835773028E+02  0.28418500314E+02  0.66036025204E+02  0.74849905721E+02  0.10566000000E+00 0. -1.
        994    1    1    2    0    0 -0.35774600571E+00 -0.24127686485E+02  0.11047636548E+02  0.17324480803E+03  0.17120000000E+03 0.  0.
        998    1    1    2    0    0 -0.20478027022E+02 -0.42908138284E+01  0.14229163345E+04  0.14231052862E+04  0.10000000000E+02 0.  1.
</event>
<event>
 5    1  0.1145138E-008  0.3814200E+03  0.7957747E-01  0.3444999E+00
         13   -1    0    0    0    0  0.00000000000E+00  0.00000000000E+00  0.14999999963E+04  0.15000000000E+04  0.10566000000E+00 0.  1.
        994   -1    0    0    0    0 -0.00000000000E+00 -0.00000000000E+00  0.11368683772E-12  0.17120000000E+03  0.17120000000E+03 0.  0.
         13    1    1    2    0    0  0.73880861275E+01 -0.76699765995E+01  0.14984935998E+02  0.18384010133E+02  0.10566000000E+00 0.  1.
        994    1    1    2    0    0 -0.57778890725E+01  0.11164915069E+02  0.39440745243E+01  0.17170624641E+03  0.17120000000E+03 0.  0.
        998    1    1    2    0    0 -0.16101970550E+01 -0.34949384700E+01  0.14810709858E+04  0.14811097435E+04  0.10000000000E+02 0.  1.
</event>
<event>
 5    1  0.1145138E-008  0.3852774E+03  0.7957747E-01  0.3428496E+00
         13   -1    0    0    0    0  0.00000000000E+00  0.00000000000E+00  0.14999999963E+04  0.15000000000E+04  0.10566000000E+00 0. -1.
        994   -1    0    0    0    0 -0.00000000000E+00 -0.00000000000E+00  0.11368683772E-12  0.17120000000E+03  0.17120000000E+03 0.  0.
         13    1    1    2    0    0  0.86023907384E+01  0.95770204802E+01  0.55249499114E+02  0.56729522861E+02  0.10566000000E+00 0. -1.
        994    1    1    2    0    0 -0.32358159591E+01 -0.10243888445E+02  0.18717422521E+01  0.17154693578E+03  0.17120000000E+03 0.  0.
        998    1    1    2    0    0 -0.53665747794E+01  0.66686796445E+00  0.14428787549E+04  0.14429235414E+04  0.10000000000E+02 0. -1.
</event>
<event>
 5    1  0.1145138E-008  0.3728148E+03  0.7957747E-01  0.3483054E+00
         13   -1    0    0    0    0  0.00000000000E+00  0.00000000000E+00  0.14999999963E+04  0.15000000000E+04  0.10566000000E+00 0. -1.
        994   -1    0    0    0    0 -0.00000000000E+00 -0.00000000000E+00  0.11368683772E-12  0.17120000000E+03  0.17120000000E+03 0.  0.
         13    1    1    2    0    0  0.31007703318E+02 -0.66999582288E+01  0.59475656530E+02  0.67407210216E+02  0.10566000000E+00 0. -1.
        994    1    1    2    0    0 -0.23464383483E+02  0.37960278899E+02  0.14656087387E+02  0.17752690208E+03  0.17120000000E+03 0.  0.
        998    1    1    2    0    0 -0.75433198356E+01 -0.31260320670E+02  0.14258682524E+04  0.14262658877E+04  0.10000000000E+02 0. -1.
</event>
<event>
 5    1  0.1488346E-008  0.3865751E+03  0.7957747E-01  0.3423019E+00
         13   -1    0    0    0    0  0.00000000000E+00  0.00000000000E+00  0.14999999963E+04  0.15000000000E+04  0.10566000000E+00 0.  1.
        994   -1    0    0    0    0 -0.00000000000E+00 -0.00000000000E+00  0.11368683772E-12  0.17120000000E+03  0.17120000000E+03 0.  0.
         13    1    1    2    0    0  0.73323738707E+01  0.69081456779E+01  0.52959751412E+02  0.53909485408E+02  0.10566000000E+00 0.  1.
        994    1    1    2    0    0 -0.24520253165E+02 -0.11433712408E+02  0.32487872241E+01  0.17335503227E+03  0.17120000000E+03 0.  0.
        998    1    1    2    0    0  0.17187879294E+02  0.45255667304E+01  0.14437914576E+04  0.14439354823E+04  0.10000000000E+02 0.  1.
</event>
<event>
 5    1  0.1145138E-008  0.3737057E+03  0.7957747E-01  0.3479032E+00
         13   -1    0    0    0    0  0.00000000000E+00  0.00000000000E+00  0.14999999963E+04  0.15000000000E+04  0.10566000000E+00 0. -1.
        994   -1    0    0    0    0 -0.00000000000E+00 -0.00000000000E+00  0.11368683772E-12  0.17120000000E+03  0.17120000000E+03 0.  0.
         13    1    1    2    0    0  0.28066177510E+02 -0.37602355272E+02  0.16239326074E+03  0.16903617879E+03  0.10566000000E+00 0. -1.
        994    1    1    2    0    0 -0.57426970021E+01  0.71331137750E+01  0.76312510169E+01  0.17161449785E+03  0.17120000000E+03 0.  0.
        998    1    1    2    0    0 -0.22323480508E+02  0.30469241497E+02  0.13299754845E+04  0.13305493234E+04  0.10000000000E+02 0.  1.
</event>
<event>
 5    1  0.1145138E-008  0.3858905E+03  0.7957747E-01  0.3425904E+00
         13   -1    0    0    0    0  0.00000000000E+00  0.00000000000E+00  0.14999999963E+04  0.15000000000E+04  0.10566000000E+00 0. -1.
        994   -1    0    0    0    0 -0.00000000000E+00 -0.00000000000E+00  0.11368683772E-12  0.17120000000E+03  0.17120000000E+03 0.  0.
         13    1    1    2    0    0  0.10564470918E+02 -0.15609359250E+01  0.48045566779E+02  0.49218210227E+02  0.10566000000E+00 0. -1.
        994    1    1    2    0    0 -0.76304844184E+01  0.67083634755E+01  0.15272269091E+01  0.17150801397E+03  0.17120000000E+03 0.  0.
        998    1    1    2    0    0 -0.29339864995E+01 -0.51474275505E+01  0.14504272026E+04  0.14504737758E+04  0.10000000000E+02 0. -1.
</event>
<event>
 5    1  0.1145138E-008  0.3842850E+03  0.7957747E-01  0.3432710E+00
         13   -1    0    0    0    0  0.00000000000E+00  0.00000000000E+00  0.14999999963E+04  0.15000000000E+04  0.10566000000E+00 0.  1.
        994   -1    0    0    0    0 -0.00000000000E+00 -0.00000000000E+00  0.11368683772E-12  0.17120000000E+03  0.17120000000E+03 0.  0.
         13    1    1    2    0    0  0.76329874523E+01  0.67059052847E+01  0.26462721537E+02  0.28346401153E+02  0.10566000000E+00 0.  1.
        994    1    1    2    0    0  0.65431628384E+01 -0.27952620392E+01  0.21524537281E+01  0.17136131281E+03  0.17120000000E+03 0.  0.
        998    1    1    2    0    0 -0.14176150291E+02 -0.39106432455E+01  0.14713848210E+04  0.14714922860E+04  0.10000000000E+02 0.  1.
</event>
<event>
 5    1  0.1145138E-008  0.3775825E+03  0.7957747E-01  0.3461753E+00
         13   -1    0    0    0    0  0.00000000000E+00  0.00000000000E+00  0.14999999963E+04  0.15000000000E+04  0.10566000000E+00 0.  1.
        994   -1    0    0    0    0 -0.00000000000E+00 -0.00000000000E+00  0.11368683772E-12  0.17120000000E+03  0.17120000000E+03 0.  0.
         13    1    1    2    0    0 -0.39696913964E+02 -0.59877058160E+02  0.38061407895E+03  0.38733473292E+03  0.10566000000E+00 0.  1.
        994    1    1    2    0    0  0.42055072739E+02  0.51150127369E+02  0.20280623196E+02  0.18467730870E+03  0.17120000000E+03 0.  0.
        998    1    1    2    0    0 -0.23581587751E+01  0.87269307917E+01  0.10991052941E+04  0.10991879584E+04  0.10000000000E+02 0.  0.
</event>
<event>
 5    1  0.1145138E-008  0.3842244E+03  0.7957747E-01  0.3432968E+00
         13   -1    0    0    0    0  0.00000000000E+00  0.00000000000E+00  0.14999999963E+04  0.15000000000E+04  0.10566000000E+00 0. -1.
        994   -1    0    0    0    0 -0.00000000000E+00 -0.00000000000E+00  0.11368683772E-12  0.17120000000E+03  0.17120000000E+03 0.  0.
         13    1    1    2    0    0  0.24609072546E+02  0.46610094356E+00  0.13543124041E+03  0.13764975752E+03  0.10566000000E+00 0. -1.
        994    1    1    2    0    0 -0.27438309106E+02  0.55562756432E+00  0.45027851751E+01  0.17344418296E+03  0.17120000000E+03 0.  0.
        998    1    1    2    0    0  0.28292365597E+01 -0.10217285079E+01  0.13600659707E+04  0.13601060595E+04  0.10000000000E+02 0. -1.
</event>
<event>
 5    1  0.1145138E-008  0.3703098E+03  0.7957747E-01  0.3494469E+00
         13   -1    0    0    0    0  0.00000000000E+00  0.00000000000E+00  0.14999999963E+04  0.15000000000E+04  0.10566000000E+00 0. -1.
        994   -1    0    0    0    0 -0.00000000000E+00 -0.00000000000E+00  0.11368683772E-12  0.17120000000E+03  0.17120000000E+03 0.  0.
         13    1    1    2    0    0 -0.10614044811E+02  0.21966567494E+02  0.21706379818E+02  0.32655261805E+02  0.10566000000E+00 0. -1.
        994    1    1    2    0    0  0.25760785716E+02 -0.16004039361E+02  0.14328360494E+02  0.17445483447E+03  0.17120000000E+03 0.  0.
        998    1    1    2    0    0 -0.15146740905E+02 -0.59625281326E+01  0.14639652560E+04  0.14640899037E+04  0.10000000000E+02 0. -1.
</event>
<event>
 5    1  0.1145138E-008  0.3831023E+03  0.7957747E-01  0.3437760E+00
         13   -1    0    0    0    0  0.00000000000E+00  0.00000000000E+00  0.14999999963E+04  0.15000000000E+04  0.10566000000E+00 0. -1.
        994   -1    0    0    0    0 -0.00000000000E+00 -0.00000000000E+00  0.11368683772E-12  0.17120000000E+03  0.17120000000E+03 0.  0.
         13    1    1    2    0    0 -0.22812767502E+02  0.17386802042E+01  0.95906386376E+02  0.98597624118E+02  0.10566000000E+00 0. -1.
        994    1    1    2    0    0  0.22037854894E+02 -0.67464775005E+01  0.43348915314E+01  0.17279876531E+03  0.17120000000E+03 0.  0.
        998    1    1    2    0    0  0.77491260822E+00  0.50077972963E+01  0.13997587184E+04  0.13998036106E+04  0.10000000000E+02 0. -1.
</event>
<event>
 5    1  0.1145138E-008  0.3831709E+03  0.7957747E-01  0.3437467E+00
         13   -1    0    0    0    0  0.00000000000E+00  0.00000000000E+00  0.14999999963E+04  0.15000000000E+04  0.10566000000E+00 0.  1.
        994   -1    0    0    0    0 -0.00000000000E+00 -0.00000000000E+00  0.11368683772E-12  0.17120000000E+03  0.17120000000E+03 0.  0.
         13    1    1    2    0    0 -0.67145804349E+01  0.17358582360E+02  0.68330437617E+02  0.70819953692E+02  0.10566000000E+00 0.  1.
        994    1    1    2    0    0  0.72043664349E+01 -0.74851286942E+01  0.28981145343E+01  0.17153940980E+03  0.17120000000E+03 0.  0.
        998    1    1    2    0    0 -0.48978600001E+00 -0.98734536661E+01  0.14287714441E+04  0.14288406365E+04  0.10000000000E+02 0.  1.
</event>
<event>
 5    1  0.1145138E-008  0.3762095E+03  0.7957747E-01  0.3467831E+00
         13   -1    0    0    0    0  0.00000000000E+00  0.00000000000E+00  0.14999999963E+04  0.15000000000E+04  0.10566000000E+00 0. -1.
        994   -1    0    0    0    0 -0.00000000000E+00 -0.00000000000E+00  0.11368683772E-12  0.17120000000E+03  0.17120000000E+03 0.  0.
         13    1    1    2    0    0  0.80077098721E+01 -0.96976931295E+01  0.10257429899E+02  0.16229439349E+02  0.10566000000E+00 0. -1.
        994    1    1    2    0    0 -0.61905360244E+01  0.11053351042E+02  0.66024795002E+01  0.17179502915E+03  0.17120000000E+03 0.  0.
        998    1    1    2    0    0 -0.18171738477E+01 -0.13556579127E+01  0.14831400869E+04  0.14831755315E+04  0.10000000000E+02 0. -1.
</event>
<event>
 5    1  0.1145138E-008  0.3812218E+03  0.7957747E-01  0.3445856E+00
         13   -1    0    0    0    0  0.00000000000E+00  0.00000000000E+00  0.14999999963E+04  0.15000000000E+04  0.10566000000E+00 0. -1.
        994   -1    0    0    0    0 -0.00000000000E+00 -0.00000000000E+00  0.11368683772E-12  0.17120000000E+03  0.17120000000E+03 0.  0.
         13    1    1    2    0    0  0.38432969871E+02 -0.15742048441E+00  0.18552782534E+03  0.18946689182E+03  0.10566000000E+00 0. -1.
        994    1    1    2    0    0 -0.38067328275E+02  0.20436252775E+01  0.83715256382E+01  0.17559276844E+03  0.17120000000E+03 0.  0.
        998    1    1    2    0    0 -0.36564159616E+00 -0.18862047931E+01  0.13061006453E+04  0.13061403397E+04  0.10000000000E+02 0.  0.
</event>
<event>
 5    1  0.1145138E-008  0.3690834E+03  0.7957747E-01  0.3500114E+00
         13   -1    0    0    0    0  0.00000000000E+00  0.00000000000E+00  0.14999999963E+04  0.15000000000E+04  0.10566000000E+00 0. -1.
        994   -1    0    0    0    0 -0.00000000000E+00 -0.00000000000E+00  0.11368683772E-12  0.17120000000E+03  0.17120000000E+03 0.  0.
         13    1    1    2    0    0 -0.19401622485E+02  0.10098275050E+01  0.13343408392E+02  0.23569056371E+02  0.10566000000E+00 0. -1.
        994    1    1    2    0    0  0.18567842799E+02 -0.12829660813E+01  0.11663039870E+02  0.17260323661E+03  0.17120000000E+03 0.  0.
        998    1    1    2    0    0  0.83377968585E+00  0.27313857631E+00  0.14749935480E+04  0.14750277070E+04  0.10000000000E+02 0. -1.
</event>
<event>
 5    1  0.1145138E-008  0.3744330E+03  0.7957747E-01  0.3475763E+00
         13   -1    0    0    0    0  0.00000000000E+00  0.00000000000E+00  0.14999999963E+04  0.15000000000E+04  0.10566000000E+00 0. -1.
        994   -1    0    0    0    0 -0.00000000000E+00 -0.00000000000E+00  0.11368683772E-12  0.17120000000E+03  0.17120000000E+03 0.  0.
         13    1    1    2    0    0 -0.11007559566E+02  0.15058089905E+02  0.21683408079E+02  0.28602338876E+02  0.10566000000E+00 0. -1.
        994    1    1    2    0    0  0.12523146844E+02 -0.14241649138E+02  0.81960182727E+01  0.17244207286E+03  0.17120000000E+03 0.  0.
        998    1    1    2    0    0 -0.15155872781E+01 -0.81644076695E+00  0.14701205699E+04  0.14701555883E+04  0.10000000000E+02 0. -1.
</event>
<event>
 5    1  0.1145138E-008  0.3819658E+03  0.7957747E-01  0.3442643E+00
         13   -1    0    0    0    0  0.00000000000E+00  0.00000000000E+00  0.14999999963E+04  0.15000000000E+04  0.10566000000E+00 0.  1.
        994   -1    0    0    0    0 -0.00000000000E+00 -0.00000000000E+00  0.11368683772E-12  0.17120000000E+03  0.17120000000E+03 0.  0.
         13    1    1    2    0    0  0.35712541571E+02  0.16598732946E+02  0.20669235357E+03  0.21041065503E+03  0.10566000000E+00 0.  1.
        994    1    1    2    0    0 -0.33706880494E+02 -0.31763299469E+02  0.10301545922E+02  0.17765309689E+03  0.17120000000E+03 0.  0.
        998    1    1    2    0    0 -0.20056610769E+01  0.15164566524E+02  0.12830060968E+04  0.12831362481E+04  0.10000000000E+02 0.  1.
</event>
<event>
 5    1  0.1145138E-008  0.3843249E+03  0.7957747E-01  0.3432541E+00
         13   -1    0    0    0    0  0.00000000000E+00  0.00000000000E+00  0.14999999963E+04  0.15000000000E+04  0.10566000000E+00 0.  1.
        994   -1    0    0    0    0 -0.00000000000E+00 -0.00000000000E+00  0.11368683772E-12  0.17120000000E+03  0.17120000000E+03 0.  0.
         13    1    1    2    0    0 -0.21481393301E+02  0.10460487017E+02  0.13671490307E+03  0.13878705967E+03  0.10566000000E+00 0.  1.
        994    1    1    2    0    0  0.18558715891E+02 -0.11065694615E+02  0.35059624254E+01  0.17259376381E+03  0.17120000000E+03 0.  0.
        998    1    1    2    0    0  0.29226774097E+01  0.60520759810E+00  0.13597791308E+04  0.13598191765E+04  0.10000000000E+02 0.  1.
</event>
<event>
 5    1  0.1145138E-008  0.3823686E+03  0.7957747E-01  0.3440910E+00
         13   -1    0    0    0    0  0.00000000000E+00  0.00000000000E+00  0.14999999963E+04  0.15000000000E+04  0.10566000000E+00 0.  1.
        994   -1    0    0    0    0 -0.00000000000E+00 -0.00000000000E+00  0.11368683772E-12  0.17120000000E+03  0.17120000000E+03 0.  0.
         13    1    1    2    0    0  0.23892851225E+02 -0.10644315972E+02  0.11720267753E+03  0.12008600495E+03  0.10566000000E+00 0.  1.
        994    1    1    2    0    0 -0.62972147910E+01  0.19580647886E+02  0.43467694358E+01  0.17248591563E+03  0.17120000000E+03 0.  0.
        998    1    1    2    0    0 -0.17595636434E+02 -0.89363319131E+01  0.13784505493E+04  0.13786280794E+04  0.10000000000E+02 0.  1.
</event>
<event>
 5    1  0.1145138E-008  0.3783428E+03  0.7957747E-01  0.3458406E+00
         13   -1    0    0    0    0  0.00000000000E+00  0.00000000000E+00  0.14999999963E+04  0.15000000000E+04  0.10566000000E+00 0. -1.
        994   -1    0    0    0    0 -0.00000000000E+00 -0.00000000000E+00  0.11368683772E-12  0.17120000000E+03  0.17120000000E+03 0.  0.
         13    1    1    2    0    0  0.89390505095E+01  0.38110061963E+02  0.18148132015E+03  0.18565496001E+03  0.10566000000E+00 0. -1.
        994    1    1    2    0    0  0.48475820418E+01  0.24459294549E+01  0.50711203135E+01  0.17136113294E+03  0.17120000000E+03 0.  0.
        998    1    1    2    0    0 -0.13786632551E+02 -0.40555991418E+02  0.13134475558E+04  0.13141839070E+04  0.10000000000E+02 0. -1.
</event>
<event>
 5    1  0.1145138E-008  0.3819310E+03  0.7957747E-01  0.3442794E+00
         13   -1    0    0    0    0  0.00000000000E+00  0.00000000000E+00  0.14999999963E+04  0.15000000000E+04  0.10566000000E+00 0.  1.
        994   -1    0    0    0    0 -0.00000000000E+00 -0.00000000000E+00  0.11368683772E-12  0.17120000000E+03  0.17120000000E+03 0.  0.
         13    1    1    2    0    0  0.19393370899E+02  0.15560709122E+01  0.56911584999E+02  0.60145356119E+02  0.10566000000E+00 0.  1.
        994    1    1    2    0    0 -0.20045485888E+02 -0.25596356005E+00  0.44976668940E+01  0.17242840842E+03  0.17120000000E+03 0.  0.
        998    1    1    2    0    0  0.65211498863E+00 -0.13001073521E+01  0.14385907444E+04  0.14386262355E+04  0.10000000000E+02 0.  1.
</event>
<event>
 5    1  0.1145138E-008  0.3835567E+03  0.7957747E-01  0.3435817E+00
         13   -1    0    0    0    0  0.00000000000E+00  0.00000000000E+00  0.14999999963E+04  0.15000000000E+04  0.10566000000E+00 0. -1.
        994   -1    0    0    0    0 -0.00000000000E+00 -0.00000000000E+00  0.11368683772E-12  0.17120000000E+03  0.17120000000E+03 0.  0.
         13    1    1    2    0    0 -0.98172930220E+01  0.11942895903E+02  0.49409147783E+02  0.51771488809E+02  0.10566000000E+00 0. -1.
        994    1    1    2    0    0  0.98232435180E+01 -0.99193228602E+01  0.29926005858E+01  0.17179430939E+03  0.17120000000E+03 0.  0.
        998    1    1    2    0    0 -0.59504960368E-02 -0.20235730427E+01  0.14475982479E+04  0.14476342018E+04  0.10000000000E+02 0. -1.
</event>
<event>
 5    1  0.1145138E-008  0.3058579E+03  0.7957747E-01  0.3855066E+00
         13   -1    0    0    0    0  0.00000000000E+00  0.00000000000E+00  0.14999999963E+04  0.15000000000E+04  0.10566000000E+00 0. -1.
        994   -1    0    0    0    0 -0.00000000000E+00 -0.00000000000E+00  0.11368683772E-12  0.17120000000E+03  0.17120000000E+03 0.  0.
         13    1    1    2    0    0 -0.90892866994E+02  0.17584590261E+03  0.67308721561E+03  0.70159083925E+03  0.10566000000E+00 0. -1.
        994    1    1    2    0    0  0.84477543358E+02 -0.16845101511E+03  0.15608868138E+03  0.29863910708E+03  0.17120000000E+03 0.  0.
        998    1    1    2    0    0  0.64153236358E+01 -0.73948874973E+01  0.67082409929E+03  0.67097005367E+03  0.10000000000E+02 0.  1.
</event>
<event>
 5    1  0.1145138E-008  0.3852352E+03  0.7957747E-01  0.3428675E+00
         13   -1    0    0    0    0  0.00000000000E+00  0.00000000000E+00  0.14999999963E+04  0.15000000000E+04  0.10566000000E+00 0. -1.
        994   -1    0    0    0    0 -0.00000000000E+00 -0.00000000000E+00  0.11368683772E-12  0.17120000000E+03  0.17120000000E+03 0.  0.
         13    1    1    2    0    0  0.16833493817E+02  0.38160315566E+01  0.10132779546E+03  0.10278745988E+03  0.10566000000E+00 0. -1.
        994    1    1    2    0    0 -0.79271400388E+01 -0.42718363386E+00  0.17205503026E+01  0.17139259706E+03  0.17120000000E+03 0.  0.
        998    1    1    2    0    0 -0.89063537778E+01 -0.33888479228E+01  0.13969516505E+04  0.13970199431E+04  0.10000000000E+02 0. -1.
</event>
<event>
 5    1  0.1145138E-008  0.3850154E+03  0.7957747E-01  0.3429607E+00
         13   -1    0    0    0    0  0.00000000000E+00  0.00000000000E+00  0.14999999963E+04  0.15000000000E+04  0.10566000000E+00 0. -1.
        994   -1    0    0    0    0 -0.00000000000E+00 -0.00000000000E+00  0.11368683772E-12  0.17120000000E+03  0.17120000000E+03 0.  0.
         13    1    1    2    0    0 -0.11733447825E+02  0.17169399224E+02  0.12367700387E+03  0.12541321509E+03  0.10566000000E+00 0. -1.
        994    1    1    2    0    0  0.13562778609E+02 -0.16961298714E+02  0.31749989028E+01  0.17260114494E+03  0.17120000000E+03 0.  0.
        998    1    1    2    0    0 -0.18293307842E+01 -0.20810050964E+00  0.13731479935E+04  0.13731856400E+04  0.10000000000E+02 0. -1.
</event>
<event>
 5    1  0.1145138E-008  0.3819867E+03  0.7957747E-01  0.3442553E+00
         13   -1    0    0    0    0  0.00000000000E+00  0.00000000000E+00  0.14999999963E+04  0.15000000000E+04  0.10566000000E+00 0.  1.
        994   -1    0    0    0    0 -0.00000000000E+00 -0.00000000000E+00  0.11368683772E-12  0.17120000000E+03  0.17120000000E+03 0.  0.
         13    1    1    2    0    0 -0.13550491625E+02  0.11074273807E+02  0.46346411604E+02  0.49540452119E+02  0.10566000000E+00 0.  1.
        994    1    1    2    0    0  0.13043592769E+02 -0.14260182809E+02  0.43750081660E+01  0.17234288155E+03  0.17120000000E+03 0.  0.
        998    1    1    2    0    0  0.50689885581E+00  0.31859090029E+01  0.14492785765E+04  0.14493166663E+04  0.10000000000E+02 0.  1.
</event>
<event>
 5    1  0.1145138E-008  0.3789343E+03  0.7957747E-01  0.3455812E+00
         13   -1    0    0    0    0  0.00000000000E+00  0.00000000000E+00  0.14999999963E+04  0.15000000000E+04  0.10566000000E+00 0.  1.
        994   -1    0    0    0    0 -0.00000000000E+00 -0.00000000000E+00  0.11368683772E-12  0.17120000000E+03  0.17120000000E+03 0.  0.
         13    1    1    2    0    0  0.34461375650E+01 -0.24761475195E+02  0.63219652553E+02  0.67983396141E+02  0.10566000000E+00 0.  1.
        994    1    1    2    0    0 -0.57913971087E+01  0.22989244395E+02  0.65598575052E+01  0.17295813762E+03  0.17120000000E+03 0.  0.
        998    1    1    2    0    0  0.23452595438E+01  0.17722307994E+01  0.14302204862E+04  0.14302584662E+04  0.10000000000E+02 0.  1.
</event>
<event>
 5    1  0.1145138E-008  0.3861769E+03  0.7957747E-01  0.3424696E+00
         13   -1    0    0    0    0  0.00000000000E+00  0.00000000000E+00  0.14999999963E+04  0.15000000000E+04  0.10566000000E+00 0.  1.
        994   -1    0    0    0    0 -0.00000000000E+00 -0.00000000000E+00  0.11368683772E-12  0.17120000000E+03  0.17120000000E+03 0.  0.
         13    1    1    2    0    0  0.33762711862E+01  0.12123545871E+02  0.68354371571E+02  0.69503315378E+02  0.10566000000E+00 0.  1.
        994    1    1    2    0    0 -0.16789199708E+02 -0.19462249381E+02  0.32143369184E+01  0.17314857302E+03  0.17120000000E+03 0.  0.
        998    1    1    2    0    0  0.13412928522E+02  0.73387035107E+01  0.14284312878E+04  0.14285481116E+04  0.10000000000E+02 0.  1.
</event>
<event>
 5    1  0.1145138E-008  0.3748422E+03  0.7957747E-01  0.3473929E+00
         13   -1    0    0    0    0  0.00000000000E+00  0.00000000000E+00  0.14999999963E+04  0.15000000000E+04  0.10566000000E+00 0. -1.
        994   -1    0    0    0    0 -0.00000000000E+00 -0.00000000000E+00  0.11368683772E-12  0.17120000000E+03  0.17120000000E+03 0.  0.
         13    1    1    2    0    0  0.18196491183E+02 -0.37887486402E+01  0.22497641106E+02  0.29182562037E+02  0.10566000000E+00 0. -1.
        994    1    1    2    0    0 -0.20669951634E+02 -0.20588903860E+02  0.96599720001E+01  0.17393649681E+03  0.17120000000E+03 0.  0.
        998    1    1    2    0    0  0.24734604509E+01  0.24377652500E+02  0.14678423832E+04  0.14680809412E+04  0.10000000000E+02 0. -1.
</event>
<event>
 5    1  0.1145138E-008  0.3826481E+03  0.7957747E-01  0.3439708E+00
         13   -1    0    0    0    0  0.00000000000E+00  0.00000000000E+00  0.14999999963E+04  0.15000000000E+04  0.10566000000E+00 0. -1.
        994   -1    0    0    0    0 -0.00000000000E+00 -0.00000000000E+00  0.11368683772E-12  0.17120000000E+03  0.17120000000E+03 0.  0.
         13    1    1    2    0    0  0.14618425966E+02  0.22513516521E+02  0.12332925370E+03  0.12621676903E+03  0.10566000000E+00 0. -1.
        994    1    1    2    0    0 -0.20222039489E+02 -0.12528387137E+02  0.46798937319E+01  0.17290816282E+03  0.17120000000E+03 0.  0.
        998    1    1    2    0    0  0.56036135230E+01 -0.99851293833E+01  0.13719908489E+04  0.13720750681E+04  0.10000000000E+02 0. -1.
</event>
<event>
 5    1  0.1145138E-008  0.3814209E+03  0.7957747E-01  0.3444995E+00
         13   -1    0    0    0    0  0.00000000000E+00  0.00000000000E+00  0.14999999963E+04  0.15000000000E+04  0.10566000000E+00 0.  1.
        994   -1    0    0    0    0 -0.00000000000E+00 -0.00000000000E+00  0.11368683772E-12  0.17120000000E+03  0.17120000000E+03 0.  0.
         13    1    1    2    0    0  0.16021092008E+01  0.24245191879E+02  0.82923240364E+02  0.86409901282E+02  0.10566000000E+00 0.  1.
        994    1    1    2    0    0  0.76932430709E+00 -0.20617291111E+02  0.48351861990E+01  0.17250647402E+03  0.17120000000E+03 0.  0.
        998    1    1    2    0    0 -0.23714335079E+01 -0.36279007675E+01  0.14122415697E+04  0.14122836247E+04  0.10000000000E+02 0.  1.
</event>
<event>
 5    1  0.1145138E-008  0.3754686E+03  0.7957747E-01  0.3471130E+00
         13   -1    0    0    0    0  0.00000000000E+00  0.00000000000E+00  0.14999999963E+04  0.15000000000E+04  0.10566000000E+00 0. -1.
        994   -1    0    0    0    0 -0.00000000000E+00 -0.00000000000E+00  0.11368683772E-12  0.17120000000E+03  0.17120000000E+03 0.  0.
         13    1    1    2    0    0  0.12724026555E+02 -0.75767925034E+01  0.13794166905E+02  0.20238548393E+02  0.10566000000E+00 0. -1.
        994    1    1    2    0    0 -0.16881971732E+02  0.16455186234E+02  0.83267633722E+01  0.17301603715E+03  0.17120000000E+03 0.  0.
        998    1    1    2    0    0  0.41579451777E+01 -0.88783937304E+01  0.14778790660E+04  0.14779454145E+04  0.10000000000E+02 0. -1.
</event>
<event>
 5    1  0.1145138E-008  0.3750809E+03  0.7957747E-01  0.3472861E+00
         13   -1    0    0    0    0  0.00000000000E+00  0.00000000000E+00  0.14999999963E+04  0.15000000000E+04  0.10566000000E+00 0. -1.
        994   -1    0    0    0    0 -0.00000000000E+00 -0.00000000000E+00  0.11368683772E-12  0.17120000000E+03  0.17120000000E+03 0.  0.
         13    1    1    2    0    0  0.20444158148E+02  0.46249257995E+02  0.16178465904E+03  0.16950293370E+03  0.10566000000E+00 0. -1.
        994    1    1    2    0    0 -0.13408033611E+02 -0.60341118884E+02  0.19734133671E+02  0.18308386610E+03  0.17120000000E+03 0.  0.
        998    1    1    2    0    0 -0.70361245377E+01  0.14091860888E+02  0.13184812036E+04  0.13186132002E+04  0.10000000000E+02 0. -1.
</event>
<event>
 5    1  0.1145138E-008  0.4191265E+03  0.7957747E-01  0.3296691E+00
         13   -1    0    0    0    0  0.00000000000E+00  0.00000000000E+00  0.14999999963E+04  0.15000000000E+04  0.10566000000E+00 0. -1.
        994   -1    0    0    0    0 -0.00000000000E+00 -0.00000000000E+00  0.11368683772E-12  0.17120000000E+03  0.17120000000E+03 0.  0.
         13    1    1    2    0    0 -0.70747276111E+02 -0.83306603026E+02  0.13697447464E+03  0.17523465711E+03  0.10566000000E+00 0. -1.
        994    1    1    2    0    0  0.33659439352E+02  0.83595331942E+02  0.75205812854E+02  0.20757285870E+03  0.17120000000E+03 0.  0.
        998    1    1    2    0    0  0.37087836759E+02 -0.28872891544E+00  0.12878197088E+04  0.12883924842E+04  0.10000000000E+02 0. -1.
</event>
<event>
 5    1  0.1145138E-008  0.3815070E+03  0.7957747E-01  0.3444623E+00
         13   -1    0    0    0    0  0.00000000000E+00  0.00000000000E+00  0.14999999963E+04  0.15000000000E+04  0.10566000000E+00 0. -1.
        994   -1    0    0    0    0 -0.00000000000E+00 -0.00000000000E+00  0.11368683772E-12  0.17120000000E+03  0.17120000000E+03 0.  0.
         13    1    1    2    0    0  0.11587047044E+02 -0.36672831322E+02  0.20957485003E+03  0.21307459996E+03  0.10566000000E+00 0. -1.
        994    1    1    2    0    0  0.59572003744E+01  0.30598567605E+02  0.66135011060E+01  0.17414057245E+03  0.17120000000E+03 0.  0.
        998    1    1    2    0    0 -0.17544247418E+02  0.60742637167E+01  0.12838116451E+04  0.12839848276E+04  0.10000000000E+02 0. -1.
</event>
<event>
 5    1  0.1145138E-008  0.3828946E+03  0.7957747E-01  0.3438651E+00
         13   -1    0    0    0    0  0.00000000000E+00  0.00000000000E+00  0.14999999963E+04  0.15000000000E+04  0.10566000000E+00 0. -1.
        994   -1    0    0    0    0 -0.00000000000E+00 -0.00000000000E+00  0.11368683772E-12  0.17120000000E+03  0.17120000000E+03 0.  0.
         13    1    1    2    0    0  0.31805793582E+02 -0.14850605339E+02  0.20730378645E+03  0.21025465518E+03  0.10566000000E+00 0. -1.
        994    1    1    2    0    0 -0.34284097903E+02  0.17507275819E+01  0.65910545129E+01  0.17473221345E+03  0.17120000000E+03 0.  0.
        998    1    1    2    0    0  0.24783043212E+01  0.13099877757E+02  0.12861051553E+04  0.12862131314E+04  0.10000000000E+02 0. -1.
</event>
<event>
 5    1  0.1145138E-008  0.3724712E+03  0.7957747E-01  0.3484610E+00
         13   -1    0    0    0    0  0.00000000000E+00  0.00000000000E+00  0.14999999963E+04  0.15000000000E+04  0.10566000000E+00 0. -1.
        994   -1    0    0    0    0 -0.00000000000E+00 -0.00000000000E+00  0.11368683772E-12  0.17120000000E+03  0.17120000000E+03 0.  0.
         13    1    1    2    0    0  0.18714705393E+02 -0.12086643881E+02  0.27194865736E+02  0.35155355847E+02  0.10566000000E+00 0. -1.
        994    1    1    2    0    0 -0.21781664561E+02  0.10036437022E+02  0.99575203082E+01  0.17315820278E+03  0.17120000000E+03 0.  0.
        998    1    1    2    0    0  0.30669591678E+01  0.20502068594E+01  0.14628476102E+04  0.14628864414E+04  0.10000000000E+02 0. -1.
</event>
<event>
 5    1  0.1145138E-008  0.3812431E+03  0.7957747E-01  0.3445764E+00
         13   -1    0    0    0    0  0.00000000000E+00  0.00000000000E+00  0.14999999963E+04  0.15000000000E+04  0.10566000000E+00 0. -1.
        994   -1    0    0    0    0 -0.00000000000E+00 -0.00000000000E+00  0.11368683772E-12  0.17120000000E+03  0.17120000000E+03 0.  0.
         13    1    1    2    0    0 -0.15451937684E+02 -0.39258393408E+02  0.21451830978E+03  0.21862776637E+03  0.10566000000E+00 0. -1.
        994    1    1    2    0    0  0.16992309861E+02  0.41189866602E+02  0.10145026754E+02  0.17719397640E+03  0.17120000000E+03 0.  0.
        998    1    1    2    0    0 -0.15403721768E+01 -0.19314731938E+01  0.12753366597E+04  0.12753782572E+04  0.10000000000E+02 0. -1.
</event>
<event>
 5    1  0.1145138E-008  0.3849983E+03  0.7957747E-01  0.3429680E+00
         13   -1    0    0    0    0  0.00000000000E+00  0.00000000000E+00  0.14999999963E+04  0.15000000000E+04  0.10566000000E+00 0.  1.
        994   -1    0    0    0    0 -0.00000000000E+00 -0.00000000000E+00  0.11368683772E-12  0.17120000000E+03  0.17120000000E+03 0.  0.
         13    1    1    2    0    0  0.20660739380E+02  0.29394348380E+01  0.12370351134E+03  0.12545148987E+03  0.10566000000E+00 0.  1.
        994    1    1    2    0    0 -0.22111416675E+02 -0.88263015342E-01  0.32405521104E+01  0.17265243617E+03  0.17120000000E+03 0.  0.
        998    1    1    2    0    0  0.14506772947E+01 -0.28511718227E+01  0.13730559328E+04  0.13730960740E+04  0.10000000000E+02 0.  1.
</event>
<event>
 5    1  0.1145138E-008  0.3790002E+03  0.7957747E-01  0.3455524E+00
         13   -1    0    0    0    0  0.00000000000E+00  0.00000000000E+00  0.14999999963E+04  0.15000000000E+04  0.10566000000E+00 0. -1.
        994   -1    0    0    0    0 -0.00000000000E+00 -0.00000000000E+00  0.11368683772E-12  0.17120000000E+03  0.17120000000E+03 0.  0.
         13    1    1    2    0    0 -0.20425595531E+02 -0.70694305737E+01  0.47031283940E+02  0.51760357751E+02  0.10566000000E+00 0. -1.
        994    1    1    2    0    0  0.19801997863E+02  0.14447541473E+02  0.66565672551E+01  0.17307397396E+03  0.17120000000E+03 0.  0.
        998    1    1    2    0    0  0.62359766868E+00 -0.73781108991E+01  0.14463121451E+04  0.14463656683E+04  0.10000000000E+02 0. -1.
</event>
<event>
 5    1  0.1145138E-008  0.3841587E+03  0.7957747E-01  0.3433248E+00
         13   -1    0    0    0    0  0.00000000000E+00  0.00000000000E+00  0.14999999963E+04  0.15000000000E+04  0.10566000000E+00 0. -1.
        994   -1    0    0    0    0 -0.00000000000E+00 -0.00000000000E+00  0.11368683772E-12  0.17120000000E+03  0.17120000000E+03 0.  0.
         13    1    1    2    0    0 -0.15898958258E+02  0.69450668736E+01  0.67406183533E+02  0.69603272696E+02  0.10566000000E+00 0. -1.
        994    1    1    2    0    0  0.24824486697E+02 -0.67424639935E+01  0.42335416941E+01  0.17317355120E+03  0.17120000000E+03 0.  0.
        998    1    1    2    0    0 -0.89255284391E+01 -0.20260288006E+00  0.14283602711E+04  0.14284231761E+04  0.10000000000E+02 0. -1.
</event>
<event>
 5    1  0.1145138E-008  0.3855650E+03  0.7957747E-01  0.3427280E+00
         13   -1    0    0    0    0  0.00000000000E+00  0.00000000000E+00  0.14999999963E+04  0.15000000000E+04  0.10566000000E+00 0. -1.
        994   -1    0    0    0    0 -0.00000000000E+00 -0.00000000000E+00  0.11368683772E-12  0.17120000000E+03  0.17120000000E+03 0.  0.
         13    1    1    2    0    0 -0.16252306105E+01 -0.13284248439E+02  0.66776947496E+02  0.68104952184E+02  0.10566000000E+00 0. -1.
        994    1    1    2    0    0 -0.18023685296E+01  0.90592436379E+01  0.16300090555E+01  0.17145674486E+03  0.17120000000E+03 0.  0.
        998    1    1    2    0    0  0.34275991402E+01  0.42250048009E+01  0.14315930397E+04  0.14316383030E+04  0.10000000000E+02 0. -1.
</event>
<event>
 5    1  0.1145138E-008  0.3783074E+03  0.7957747E-01  0.3458562E+00
         13   -1    0    0    0    0  0.00000000000E+00  0.00000000000E+00  0.14999999963E+04  0.15000000000E+04  0.10566000000E+00 0.  1.
        994   -1    0    0    0    0 -0.00000000000E+00 -0.00000000000E+00  0.11368683772E-12  0.17120000000E+03  0.17120000000E+03 0.  0.
         13    1    1    2    0    0 -0.22421826891E+02  0.11872525588E+02  0.71870701436E+02  0.76217478795E+02  0.10566000000E+00 0.  1.
        994    1    1    2    0    0 -0.19145235343E+02  0.56391667993E+00  0.62242327021E+01  0.17238050676E+03  0.17120000000E+03 0.  0.
        998    1    1    2    0    0  0.41567062234E+02 -0.12436442268E+02  0.14219050621E+04  0.14226020144E+04  0.10000000000E+02 0.  1.
</event>
<event>
 5    1  0.1145138E-008  0.3854988E+03  0.7957747E-01  0.3427559E+00
         13   -1    0    0    0    0  0.00000000000E+00  0.00000000000E+00  0.14999999963E+04  0.15000000000E+04  0.10566000000E+00 0.  1.
        994   -1    0    0    0    0 -0.00000000000E+00 -0.00000000000E+00  0.11368683772E-12  0.17120000000E+03  0.17120000000E+03 0.  0.
         13    1    1    2    0    0 -0.91110756361E+01 -0.11173460143E+02  0.70937978813E+02  0.72388299558E+02  0.10566000000E+00 0.  1.
        994    1    1    2    0    0  0.11179444236E+02  0.14609999082E+02  0.24946492173E+01  0.17220364491E+03  0.17120000000E+03 0.  0.
        998    1    1    2    0    0 -0.20683686001E+01 -0.34365389393E+01  0.14265673682E+04  0.14266080555E+04  0.10000000000E+02 0.  1.
</event>
<event>
 5    1  0.1145138E-008  0.3802600E+03  0.7957747E-01  0.3450027E+00
         13   -1    0    0    0    0  0.00000000000E+00  0.00000000000E+00  0.14999999963E+04  0.15000000000E+04  0.10566000000E+00 0.  1.
        994   -1    0    0    0    0 -0.00000000000E+00 -0.00000000000E+00  0.11368683772E-12  0.17120000000E+03  0.17120000000E+03 0.  0.
         13    1    1    2    0    0  0.26262253685E+02 -0.16410774729E+01  0.83443515613E+02  0.87494174468E+02  0.10566000000E+00 0.  1.
        994    1    1    2    0    0 -0.19904947026E+02  0.10044269525E+02  0.56640138651E+01  0.17273857508E+03  0.17120000000E+03 0.  0.
        998    1    1    2    0    0 -0.63573066588E+01 -0.84031920519E+01  0.14108924668E+04  0.14109672505E+04  0.10000000000E+02 0.  1.
</event>
<event>
 5    1  0.1145138E-008  0.3786917E+03  0.7957747E-01  0.3456875E+00
         13   -1    0    0    0    0  0.00000000000E+00  0.00000000000E+00  0.14999999963E+04  0.15000000000E+04  0.10566000000E+00 0.  1.
        994   -1    0    0    0    0 -0.00000000000E+00 -0.00000000000E+00  0.11368683772E-12  0.17120000000E+03  0.17120000000E+03 0.  0.
         13    1    1    2    0    0  0.19220745452E+02 -0.25884019750E+02  0.11916144565E+03  0.12344586193E+03  0.10566000000E+00 0.  1.
        994    1    1    2    0    0  0.71280368680E+01  0.37950361870E+01  0.50139750568E+01  0.17146367299E+03  0.17120000000E+03 0.  0.
        998    1    1    2    0    0 -0.26348782320E+02  0.22088983563E+02  0.13758245756E+04  0.13762904651E+04  0.10000000000E+02 0.  1.
</event>
<event>
 5    1  0.1145138E-008  0.3816805E+03  0.7957747E-01  0.3443874E+00
         13   -1    0    0    0    0  0.00000000000E+00  0.00000000000E+00  0.14999999963E+04  0.15000000000E+04  0.10566000000E+00 0. -1.
        994   -1    0    0    0    0 -0.00000000000E+00 -0.00000000000E+00  0.11368683772E-12  0.17120000000E+03  0.17120000000E+03 0.  0.
         13    1    1    2    0    0  0.36105478771E+01 -0.12915079907E+02  0.26355679622E+02  0.29571411149E+02  0.10566000000E+00 0. -1.
        994    1    1    2    0    0  0.35259335248E+01  0.72650799969E+01  0.35040863980E+01  0.17142617133E+03  0.17120000000E+03 0.  0.
        998    1    1    2    0    0 -0.71364814019E+01  0.56499999104E+01  0.14701402303E+04  0.14702024175E+04  0.10000000000E+02 0. -1.
</event>
<event>
 5    1  0.1145138E-008  0.3786334E+03  0.7957747E-01  0.3457131E+00
         13   -1    0    0    0    0  0.00000000000E+00  0.00000000000E+00  0.14999999963E+04  0.15000000000E+04  0.10566000000E+00 0.  1.
        994   -1    0    0    0    0 -0.00000000000E+00 -0.00000000000E+00  0.11368683772E-12  0.17120000000E+03  0.17120000000E+03 0.  0.
         13    1    1    2    0    0 -0.20084676091E+02 -0.11707056621E+02  0.53067194530E+02  0.57936065518E+02  0.10566000000E+00 0.  1.
        994    1    1    2    0    0  0.12259762067E+02  0.20315733306E+02  0.67176078608E+01  0.17296704033E+03  0.17120000000E+03 0.  0.
        998    1    1    2    0    0  0.78249140239E+01 -0.86086766851E+01  0.14402151939E+04  0.14402968942E+04  0.10000000000E+02 0.  1.
</event>
<event>
 5    1  0.1145138E-008  0.3810467E+03  0.7957747E-01  0.3446613E+00
         13   -1    0    0    0    0  0.00000000000E+00  0.00000000000E+00  0.14999999963E+04  0.15000000000E+04  0.10566000000E+00 0. -1.
        994   -1    0    0    0    0 -0.00000000000E+00 -0.00000000000E+00  0.11368683772E-12  0.17120000000E+03  0.17120000000E+03 0.  0.
         13    1    1    2    0    0 -0.16716350552E+02 -0.65719755845E+01  0.44092866964E+02  0.47611126011E+02  0.10566000000E+00 0. -1.
        994    1    1    2    0    0  0.85458991066E+01 -0.46691362621E+00  0.38497586040E+01  0.17145702389E+03  0.17120000000E+03 0.  0.
        998    1    1    2    0    0  0.81704514455E+01  0.70388892107E+01  0.14520573707E+04  0.14521318501E+04  0.10000000000E+02 0. -1.
</event>
<event>
 5    1  0.1145138E-008  0.3827268E+03  0.7957747E-01  0.3439371E+00
         13   -1    0    0    0    0  0.00000000000E+00  0.00000000000E+00  0.14999999963E+04  0.15000000000E+04  0.10566000000E+00 0.  1.
        994   -1    0    0    0    0 -0.00000000000E+00 -0.00000000000E+00  0.11368683772E-12  0.17120000000E+03  0.17120000000E+03 0.  0.
         13    1    1    2    0    0  0.58180906867E+01  0.34683061954E+02  0.17154687315E+03  0.17511455055E+03  0.10566000000E+00 0.  1.
        994    1    1    2    0    0 -0.89207899468E+01 -0.53429757854E+02  0.12546083777E+02  0.18000323257E+03  0.17120000000E+03 0.  0.
        998    1    1    2    0    0  0.31026992601E+01  0.18746695900E+02  0.13159070394E+04  0.13160822169E+04  0.10000000000E+02 0.  1.
</event>
<event>
 5    1  0.1145138E-008  0.3847593E+03  0.7957747E-01  0.3430694E+00
         13   -1    0    0    0    0  0.00000000000E+00  0.00000000000E+00  0.14999999963E+04  0.15000000000E+04  0.10566000000E+00 0.  1.
        994   -1    0    0    0    0 -0.00000000000E+00 -0.00000000000E+00  0.11368683772E-12  0.17120000000E+03  0.17120000000E+03 0.  0.
         13    1    1    2    0    0  0.13172315261E+02  0.14463778954E+02  0.10315134538E+03  0.10499010434E+03  0.10566000000E+00 0.  1.
        994    1    1    2    0    0 -0.78765338301E+01 -0.19898011587E+02  0.32584027675E+01  0.17256311263E+03  0.17120000000E+03 0.  0.
        998    1    1    2    0    0 -0.52957814311E+01  0.54342326332E+01  0.13935902481E+04  0.13936467830E+04  0.10000000000E+02 0.  1.
</event>
<event>
 5    1  0.1145138E-008  0.3802562E+03  0.7957747E-01  0.3450044E+00
         13   -1    0    0    0    0  0.00000000000E+00  0.00000000000E+00  0.14999999963E+04  0.15000000000E+04  0.10566000000E+00 0. -1.
        994   -1    0    0    0    0 -0.00000000000E+00 -0.00000000000E+00  0.11368683772E-12  0.17120000000E+03  0.17120000000E+03 0.  0.
         13    1    1    2    0    0  0.20684982190E+02  0.88003709374E+01  0.60932344345E+02  0.64946722537E+02  0.10566000000E+00 0. -1.
        994    1    1    2    0    0 -0.18651833464E+02 -0.24553093493E+00  0.51669124024E+01  0.17229070828E+03  0.17120000000E+03 0.  0.
        998    1    1    2    0    0 -0.20331487263E+01 -0.85548400025E+01  0.14339007395E+04  0.14339625692E+04  0.10000000000E+02 0. -1.
</event>
<event>
 5    1  0.1145138E-008  0.3852443E+03  0.7957747E-01  0.3428637E+00
         13   -1    0    0    0    0  0.00000000000E+00  0.00000000000E+00  0.14999999963E+04  0.15000000000E+04  0.10566000000E+00 0. -1.
        994   -1    0    0    0    0 -0.00000000000E+00 -0.00000000000E+00  0.11368683772E-12  0.17120000000E+03  0.17120000000E+03 0.  0.
         13    1    1    2    0    0  0.13224942440E+02  0.92741428503E+01  0.85661983560E+02  0.87171643438E+02  0.10566000000E+00 0. -1.
        994    1    1    2    0    0 -0.99632052879E+01 -0.67632482481E+01  0.19855199357E+01  0.17163446413E+03  0.17120000000E+03 0.  0.
        998    1    1    2    0    0 -0.32617371519E+01 -0.25108946022E+01  0.14123524928E+04  0.14123938924E+04  0.10000000000E+02 0. -1.
</event>
<event>
 5    1  0.1145138E-008  0.3833369E+03  0.7957747E-01  0.3436756E+00
         13   -1    0    0    0    0  0.00000000000E+00  0.00000000000E+00  0.14999999963E+04  0.15000000000E+04  0.10566000000E+00 0.  1.
        994   -1    0    0    0    0 -0.00000000000E+00 -0.00000000000E+00  0.11368683772E-12  0.17120000000E+03  0.17120000000E+03 0.  0.
         13    1    1    2    0    0 -0.13118542917E+02  0.53470484635E-01  0.33039652668E+02  0.35548963977E+02  0.10566000000E+00 0.  1.
        994    1    1    2    0    0  0.18142298282E+02 -0.10399325638E+02  0.39052942267E+01  0.17251660872E+03  0.17120000000E+03 0.  0.
        998    1    1    2    0    0 -0.50237553641E+01  0.10345855153E+02  0.14630550494E+04  0.14631344273E+04  0.10000000000E+02 0.  1.
</event>
<event>
 5    1  0.1145138E-008  0.3761183E+03  0.7957747E-01  0.3468237E+00
         13   -1    0    0    0    0  0.00000000000E+00  0.00000000000E+00  0.14999999963E+04  0.15000000000E+04  0.10566000000E+00 0. -1.
        994   -1    0    0    0    0 -0.00000000000E+00 -0.00000000000E+00  0.11368683772E-12  0.17120000000E+03  0.17120000000E+03 0.  0.
         13    1    1    2    0    0 -0.58645751429E+02  0.67884322535E+02  0.48068641446E+03  0.48898573151E+03  0.10566000000E+00 0. -1.
        994    1    1    2    0    0  0.71511774723E+02 -0.48363926772E+02  0.31777475445E+02  0.19435084585E+03  0.17120000000E+03 0.  0.
        998    1    1    2    0    0 -0.12866023293E+02 -0.19520395764E+02  0.98753610637E+03  0.98786342264E+03  0.10000000000E+02 0. -1.
</event>
<event>
 5    1  0.1145138E-008  0.3821361E+03  0.7957747E-01  0.3441910E+00
         13   -1    0    0    0    0  0.00000000000E+00  0.00000000000E+00  0.14999999963E+04  0.15000000000E+04  0.10566000000E+00 0.  1.
        994   -1    0    0    0    0 -0.00000000000E+00 -0.00000000000E+00  0.11368683772E-12  0.17120000000E+03  0.17120000000E+03 0.  0.
         13    1    1    2    0    0  0.97576109064E+01  0.25606857211E+02  0.13916052631E+03  0.14183294876E+03  0.10566000000E+00 0.  1.
        994    1    1    2    0    0  0.27106111130E+02 -0.91681504598E+01  0.57814392318E+01  0.17367112968E+03  0.17120000000E+03 0.  0.
        998    1    1    2    0    0 -0.36863722037E+02 -0.16438706751E+02  0.13550580307E+04  0.13556959216E+04  0.10000000000E+02 0.  1.
</event>
<event>
 5    1  0.1145138E-008  0.3831257E+03  0.7957747E-01  0.3437661E+00
         13   -1    0    0    0    0  0.00000000000E+00  0.00000000000E+00  0.14999999963E+04  0.15000000000E+04  0.10566000000E+00 0.  1.
        994   -1    0    0    0    0 -0.00000000000E+00 -0.00000000000E+00  0.11368683772E-12  0.17120000000E+03  0.17120000000E+03 0.  0.
         13    1    1    2    0    0 -0.15627457308E+02 -0.29460047606E+01  0.47066020084E+02  0.49680154755E+02  0.10566000000E+00 0.  1.
        994    1    1    2    0    0  0.16795834435E+02  0.60169198778E+01  0.36174766749E+01  0.17216512282E+03  0.17120000000E+03 0.  0.
        998    1    1    2    0    0 -0.11683771268E+01 -0.30709151172E+01  0.14493164995E+04  0.14493547224E+04  0.10000000000E+02 0.  1.
</event>
<event>
 5    1  0.1145138E-008  0.3793480E+03  0.7957747E-01  0.3454002E+00
         13   -1    0    0    0    0  0.00000000000E+00  0.00000000000E+00  0.14999999963E+04  0.15000000000E+04  0.10566000000E+00 0. -1.
        994   -1    0    0    0    0 -0.00000000000E+00 -0.00000000000E+00  0.11368683772E-12  0.17120000000E+03  0.17120000000E+03 0.  0.
         13    1    1    2    0    0 -0.42276334651E+02 -0.80385651478E+01  0.18193278626E+03  0.18695308738E+03  0.10566000000E+00 0. -1.
        994    1    1    2    0    0  0.50585521042E+02 -0.25104258727E+02  0.15221697486E+02  0.18091505968E+03  0.17120000000E+03 0.  0.
        998    1    1    2    0    0 -0.83091863904E+01  0.33142823875E+02  0.13028455125E+04  0.13033318529E+04  0.10000000000E+02 0. -1.
</event>
<event>
 5    1  0.1145138E-008  0.3771037E+03  0.7957747E-01  0.3463867E+00
         13   -1    0    0    0    0  0.00000000000E+00  0.00000000000E+00  0.14999999963E+04  0.15000000000E+04  0.10566000000E+00 0. -1.
        994   -1    0    0    0    0 -0.00000000000E+00 -0.00000000000E+00  0.11368683772E-12  0.17120000000E+03  0.17120000000E+03 0.  0.
         13    1    1    2    0    0  0.25697397445E+02  0.35833315049E+01  0.56541051290E+02  0.62210112885E+02  0.10566000000E+00 0. -1.
        994    1    1    2    0    0 -0.22213504987E+02 -0.12551599770E+02  0.78026928388E+01  0.17326657057E+03  0.17120000000E+03 0.  0.
        998    1    1    2    0    0 -0.34838924581E+01  0.89682682649E+01  0.14356562521E+04  0.14357233165E+04  0.10000000000E+02 0. -1.
</event>
<event>
 5    1  0.1145138E-008  0.3818709E+03  0.7957747E-01  0.3443052E+00
         13   -1    0    0    0    0  0.00000000000E+00  0.00000000000E+00  0.14999999963E+04  0.15000000000E+04  0.10566000000E+00 0.  1.
        994   -1    0    0    0    0 -0.00000000000E+00 -0.00000000000E+00  0.11368683772E-12  0.17120000000E+03  0.17120000000E+03 0.  0.
         13    1    1    2    0    0  0.21277164778E+02 -0.16117939787E+03  0.45235253772E+03  0.48068112672E+03  0.10566000000E+00 0.  1.
        994    1    1    2    0    0 -0.97985457727E+01  0.17154651514E+03  0.13482253424E+03  0.27750815140E+03  0.17120000000E+03 0.  0.
        998    1    1    2    0    0 -0.11478619006E+02 -0.10367117262E+02  0.91282492431E+03  0.91301072188E+03  0.10000000000E+02 0.  1.
</event>
<event>
 5    1  0.1145138E-008  0.3853653E+03  0.7957747E-01  0.3428124E+00
         13   -1    0    0    0    0  0.00000000000E+00  0.00000000000E+00  0.14999999963E+04  0.15000000000E+04  0.10566000000E+00 0. -1.
        994   -1    0    0    0    0 -0.00000000000E+00 -0.00000000000E+00  0.11368683772E-12  0.17120000000E+03  0.17120000000E+03 0.  0.
         13    1    1    2    0    0  0.11044557790E+02  0.37823138932E+01  0.47379499869E+02  0.48796683566E+02  0.10566000000E+00 0. -1.
        994    1    1    2    0    0 -0.58612818255E+01 -0.44850739845E+01  0.16278086145E+01  0.17136674203E+03  0.17120000000E+03 0.  0.
        998    1    1    2    0    0 -0.51832759648E+01  0.70276009128E+00  0.14509926878E+04  0.14510365744E+04  0.10000000000E+02 0. -1.
</event>
<event>
 5    1  0.1145138E-008  0.3804682E+03  0.7957747E-01  0.3449123E+00
         13   -1    0    0    0    0  0.00000000000E+00  0.00000000000E+00  0.14999999963E+04  0.15000000000E+04  0.10566000000E+00 0. -1.
        994   -1    0    0    0    0 -0.00000000000E+00 -0.00000000000E+00  0.11368683772E-12  0.17120000000E+03  0.17120000000E+03 0.  0.
         13    1    1    2    0    0  0.96561479365E+01 -0.33399519688E+02  0.16220985978E+03  0.16589399893E+03  0.10566000000E+00 0. -1.
        994    1    1    2    0    0 -0.13210077033E+02  0.93921576980E+01  0.47743793873E+01  0.17203183851E+03  0.17120000000E+03 0.  0.
        998    1    1    2    0    0  0.35539290961E+01  0.24007361990E+02  0.13330157571E+04  0.13332741626E+04  0.10000000000E+02 0. -1.
</event>
<event>
 5    1  0.1145138E-008  0.3845305E+03  0.7957747E-01  0.3431666E+00
         13   -1    0    0    0    0  0.00000000000E+00  0.00000000000E+00  0.14999999963E+04  0.15000000000E+04  0.10566000000E+00 0.  1.
        994   -1    0    0    0    0 -0.00000000000E+00 -0.00000000000E+00  0.11368683772E-12  0.17120000000E+03  0.17120000000E+03 0.  0.
         13    1    1    2    0    0  0.15570299968E+02 -0.42160472126E+01  0.71547261811E+02  0.73343241896E+02  0.10566000000E+00 0.  1.
        994    1    1    2    0    0 -0.49271193968E+01  0.53629859557E+01  0.20381472114E+01  0.17136695180E+03  0.17120000000E+03 0.  0.
        998    1    1    2    0    0 -0.10643180571E+02 -0.11469387431E+01  0.14264145873E+04  0.14264898063E+04  0.10000000000E+02 0.  1.
</event>
<event>
 5    1  0.1145138E-008  0.3777967E+03  0.7957747E-01  0.3460809E+00
         13   -1    0    0    0    0  0.00000000000E+00  0.00000000000E+00  0.14999999963E+04  0.15000000000E+04  0.10566000000E+00 0. -1.
        994   -1    0    0    0    0 -0.00000000000E+00 -0.00000000000E+00  0.11368683772E-12  0.17120000000E+03  0.17120000000E+03 0.  0.
         13    1    1    2    0    0  0.33042771873E+02 -0.23644125374E+02  0.17549115090E+03  0.18013335239E+03  0.10566000000E+00 0. -1.
        994    1    1    2    0    0  0.58328720817E+01  0.16368562349E+02  0.62669760086E+01  0.17219369099E+03  0.17120000000E+03 0.  0.
        998    1    1    2    0    0 -0.38875643955E+02  0.72755630252E+01  0.13182418694E+04  0.13188729566E+04  0.10000000000E+02 0. -1.
</event>
<event>
 5    1  0.1145138E-008  0.3685799E+03  0.7957747E-01  0.3502443E+00
         13   -1    0    0    0    0  0.00000000000E+00  0.00000000000E+00  0.14999999963E+04  0.15000000000E+04  0.10566000000E+00 0. -1.
        994   -1    0    0    0    0 -0.00000000000E+00 -0.00000000000E+00  0.11368683772E-12  0.17120000000E+03  0.17120000000E+03 0.  0.
         13    1    1    2    0    0  0.98740717955E+02 -0.28836584181E+03  0.86636110307E+03  0.91841502610E+03  0.10566000000E+00 0. -1.
        994    1    1    2    0    0 -0.84666790037E+02  0.29707946658E+03  0.46948034036E+03  0.58749119549E+03  0.17120000000E+03 0.  0.
        998    1    1    2    0    0 -0.14073927918E+02 -0.87136247747E+01  0.16415855285E+03  0.16529377840E+03  0.10000000000E+02 0. -1.
</event>
<event>
 5    1  0.1145138E-008  0.3857755E+03  0.7957747E-01  0.3426390E+00
         13   -1    0    0    0    0  0.00000000000E+00  0.00000000000E+00  0.14999999963E+04  0.15000000000E+04  0.10566000000E+00 0. -1.
        994   -1    0    0    0    0 -0.00000000000E+00 -0.00000000000E+00  0.11368683772E-12  0.17120000000E+03  0.17120000000E+03 0.  0.
         13    1    1    2    0    0  0.19199692826E+01  0.13355439180E+02  0.69107031719E+02  0.70411980762E+02  0.10566000000E+00 0. -1.
        994    1    1    2    0    0  0.22966349660E-01 -0.17863750248E+02  0.22931216485E+01  0.17214474290E+03  0.17120000000E+03 0.  0.
        998    1    1    2    0    0 -0.19429356323E+01  0.45083110678E+01  0.14285998429E+04  0.14286432763E+04  0.10000000000E+02 0. -1.
</event>
<event>
 5    1  0.1145138E-008  0.3845108E+03  0.7957747E-01  0.3431750E+00
         13   -1    0    0    0    0  0.00000000000E+00  0.00000000000E+00  0.14999999963E+04  0.15000000000E+04  0.10566000000E+00 0.  1.
        994   -1    0    0    0    0 -0.00000000000E+00 -0.00000000000E+00  0.11368683772E-12  0.17120000000E+03  0.17120000000E+03 0.  0.
         13    1    1    2    0    0 -0.21976729344E+02  0.96773777256E+00  0.11799879089E+03  0.12003182480E+03  0.10566000000E+00 0.  1.
        994    1    1    2    0    0  0.25175507660E+02  0.45894233779E+01  0.40332322654E+01  0.17314899929E+03  0.17120000000E+03 0.  0.
        998    1    1    2    0    0 -0.31987783164E+01 -0.55571611505E+01  0.13779679731E+04  0.13780191759E+04  0.10000000000E+02 0.  1.
</event>
<event>
 5    1  0.1145138E-008  0.3819067E+03  0.7957747E-01  0.3442898E+00
         13   -1    0    0    0    0  0.00000000000E+00  0.00000000000E+00  0.14999999963E+04  0.15000000000E+04  0.10566000000E+00 0.  1.
        994   -1    0    0    0    0 -0.00000000000E+00 -0.00000000000E+00  0.11368683772E-12  0.17120000000E+03  0.17120000000E+03 0.  0.
         13    1    1    2    0    0  0.16064861446E+02 -0.22899096329E+02  0.11177837414E+03  0.11522527707E+03  0.10566000000E+00 0.  1.
        994    1    1    2    0    0 -0.15058677563E+02  0.28247603430E+02  0.65852171879E+01  0.17429141102E+03  0.17120000000E+03 0.  0.
        998    1    1    2    0    0 -0.10061838824E+01 -0.53485071010E+01  0.13816364050E+04  0.13816833119E+04  0.10000000000E+02 0.  1.
</event>
<event>
 5    1  0.1145138E-008  0.3833038E+03  0.7957747E-01  0.3436898E+00
         13   -1    0    0    0    0  0.00000000000E+00  0.00000000000E+00  0.14999999963E+04  0.15000000000E+04  0.10566000000E+00 0.  1.
        994   -1    0    0    0    0 -0.00000000000E+00 -0.00000000000E+00  0.11368683772E-12  0.17120000000E+03  0.17120000000E+03 0.  0.
         13    1    1    2    0    0 -0.41816553744E+00 -0.14038691820E+02  0.37062411525E+02  0.39634495613E+02  0.10566000000E+00 0.  1.
        994    1    1    2    0    0  0.25677544512E+02  0.22224266678E+02  0.62976210246E+01  0.17464923233E+03  0.17120000000E+03 0.  0.
        998    1    1    2    0    0 -0.25259378975E+02 -0.81855748574E+01  0.14566399637E+04  0.14569162721E+04  0.10000000000E+02 0.  1.
</event>
<event>
 5    1  0.1145138E-008  0.3752823E+03  0.7957747E-01  0.3471961E+00
         13   -1    0    0    0    0  0.00000000000E+00  0.00000000000E+00  0.14999999963E+04  0.15000000000E+04  0.10566000000E+00 0. -1.
        994   -1    0    0    0    0 -0.00000000000E+00 -0.00000000000E+00  0.11368683772E-12  0.17120000000E+03  0.17120000000E+03 0.  0.
         13    1    1    2    0    0 -0.23778123858E+02  0.44428451190E+02  0.16196716171E+03  0.16962505442E+03  0.10566000000E+00 0. -1.
        994    1    1    2    0    0  0.42218289593E+02 -0.47542958046E+02  0.20388880536E+02  0.18376034198E+03  0.17120000000E+03 0.  0.
        998    1    1    2    0    0 -0.18440165735E+02  0.31145068564E+01  0.13176439540E+04  0.13178146036E+04  0.10000000000E+02 0. -1.
</event>
<event>
 5    1  0.1145138E-008  0.3849495E+03  0.7957747E-01  0.3429887E+00
         13   -1    0    0    0    0  0.00000000000E+00  0.00000000000E+00  0.14999999963E+04  0.15000000000E+04  0.10566000000E+00 0.  1.
        994   -1    0    0    0    0 -0.00000000000E+00 -0.00000000000E+00  0.11368683772E-12  0.17120000000E+03  0.17120000000E+03 0.  0.
         13    1    1    2    0    0 -0.12025794996E+02 -0.14631515650E+02  0.10069904512E+03  0.10246467610E+03  0.10566000000E+00 0.  1.
        994    1    1    2    0    0  0.11562317251E+02  0.18409319467E+02  0.32112123546E+01  0.17260458310E+03  0.17120000000E+03 0.  0.
        998    1    1    2    0    0  0.46347774469E+00 -0.37778038170E+01  0.13960897388E+04  0.13961307408E+04  0.10000000000E+02 0.  1.
</event>
<event>
 5    1  0.1389969E-008  0.3863312E+03  0.7957747E-01  0.3424046E+00
         13   -1    0    0    0    0  0.00000000000E+00  0.00000000000E+00  0.14999999963E+04  0.15000000000E+04  0.10566000000E+00 0. -1.
        994   -1    0    0    0    0 -0.00000000000E+00 -0.00000000000E+00  0.11368683772E-12  0.17120000000E+03  0.17120000000E+03 0.  0.
         13    1    1    2    0    0  0.11220840329E+02 -0.84100826175E+00  0.67895290480E+02  0.68821480556E+02  0.10566000000E+00 0. -1.
        994    1    1    2    0    0 -0.82578802523E+01 -0.27185156674E+02  0.36184128607E+01  0.17357925637E+03  0.17120000000E+03 0.  0.
        998    1    1    2    0    0 -0.29629600768E+01  0.28026164936E+02  0.14284862929E+04  0.14287992631E+04  0.10000000000E+02 0. -1.
</event>
<event>
 5    1  0.1145138E-008  0.3817420E+03  0.7957747E-01  0.3443609E+00
         13   -1    0    0    0    0  0.00000000000E+00  0.00000000000E+00  0.14999999963E+04  0.15000000000E+04  0.10566000000E+00 0.  1.
        994   -1    0    0    0    0 -0.00000000000E+00 -0.00000000000E+00  0.11368683772E-12  0.17120000000E+03  0.17120000000E+03 0.  0.
         13    1    1    2    0    0  0.45858046155E+01 -0.25227975701E+02  0.11180264355E+03  0.11470537316E+03  0.10566000000E+00 0.  1.
        994    1    1    2    0    0  0.12719789643E+02 -0.20421712005E+00  0.37944830417E+01  0.17171392738E+03  0.17120000000E+03 0.  0.
        998    1    1    2    0    0 -0.17305594259E+02  0.25432192821E+02  0.13844028697E+04  0.13847806995E+04  0.10000000000E+02 0.  1.
</event>
<event>
 5    1  0.1145138E-008  0.3821294E+03  0.7957747E-01  0.3441939E+00
         13   -1    0    0    0    0  0.00000000000E+00  0.00000000000E+00  0.14999999963E+04  0.15000000000E+04  0.10566000000E+00 0.  1.
        994   -1    0    0    0    0 -0.00000000000E+00 -0.00000000000E+00  0.11368683772E-12  0.17120000000E+03  0.17120000000E+03 0.  0.
         13    1    1    2    0    0  0.15414877636E+02 -0.11006997139E+02  0.52715390650E+02  0.56015140935E+02  0.10566000000E+00 0.  1.
        994    1    1    2    0    0 -0.36225969408E+02  0.58702316432E+01  0.75457360597E+01  0.17525170074E+03  0.17120000000E+03 0.  0.
        998    1    1    2    0    0  0.20811091772E+02  0.51367654956E+01  0.14397388696E+04  0.14399331583E+04  0.10000000000E+02 0.  1.
</event>
<event>
 5    1  0.1145138E-008  0.3851640E+03  0.7957747E-01  0.3428977E+00
         13   -1    0    0    0    0  0.00000000000E+00  0.00000000000E+00  0.14999999963E+04  0.15000000000E+04  0.10566000000E+00 0. -1.
        994   -1    0    0    0    0 -0.00000000000E+00 -0.00000000000E+00  0.11368683772E-12  0.17120000000E+03  0.17120000000E+03 0.  0.
         13    1    1    2    0    0 -0.10012231525E+02  0.14798271145E+02  0.10286498939E+03  0.10440522408E+03  0.10566000000E+00 0. -1.
        994    1    1    2    0    0  0.18350637220E+01 -0.13138619003E+02  0.21274259332E+01  0.17172640073E+03  0.17120000000E+03 0.  0.
        998    1    1    2    0    0  0.81771678035E+01 -0.16596521419E+01  0.13950075810E+04  0.13950683752E+04  0.10000000000E+02 0. -1.
</event>
<event>
 5    1  0.1145138E-008  0.3731350E+03  0.7957747E-01  0.3481606E+00
         13   -1    0    0    0    0  0.00000000000E+00  0.00000000000E+00  0.14999999963E+04  0.15000000000E+04  0.10566000000E+00 0.  1.
        994   -1    0    0    0    0 -0.00000000000E+00 -0.00000000000E+00  0.11368683772E-12  0.17120000000E+03  0.17120000000E+03 0.  0.
         13    1    1    2    0    0  0.55609873028E+02  0.24648356954E+02  0.20080908065E+03  0.20981967856E+03  0.10566000000E+00 0.  1.
        994    1    1    2    0    0 -0.59008012638E+02 -0.32633510587E+02  0.23356699282E+02  0.18547740286E+03  0.17120000000E+03 0.  0.
        998    1    1    2    0    0  0.33981396093E+01  0.79851536331E+01  0.12758342163E+04  0.12759029186E+04  0.10000000000E+02 0.  1.
</event>
<event>
 5    1  0.1145138E-008  0.3827590E+03  0.7957747E-01  0.3439232E+00
         13   -1    0    0    0    0  0.00000000000E+00  0.00000000000E+00  0.14999999963E+04  0.15000000000E+04  0.10566000000E+00 0. -1.
        994   -1    0    0    0    0 -0.00000000000E+00 -0.00000000000E+00  0.11368683772E-12  0.17120000000E+03  0.17120000000E+03 0.  0.
         13    1    1    2    0    0 -0.64949218395E+01 -0.87742311591E+01  0.20483387887E+02  0.23211020776E+02  0.10566000000E+00 0. -1.
        994    1    1    2    0    0  0.69584103197E+01  0.78000168205E+01  0.31088643407E+01  0.17154697542E+03  0.17120000000E+03 0.  0.
        998    1    1    2    0    0 -0.46348848020E+00  0.97421433867E+00  0.14764077441E+04  0.14764420038E+04  0.10000000000E+02 0. -1.
</event>
<event>
 5    1  0.1145138E-008  0.3703720E+03  0.7957747E-01  0.3494183E+00
         13   -1    0    0    0    0  0.00000000000E+00  0.00000000000E+00  0.14999999963E+04  0.15000000000E+04  0.10566000000E+00 0. -1.
        994   -1    0    0    0    0 -0.00000000000E+00 -0.00000000000E+00  0.11368683772E-12  0.17120000000E+03  0.17120000000E+03 0.  0.
         13    1    1    2    0    0  0.17347537754E+02  0.31148742692E+02  0.51359845908E+02  0.62522205441E+02  0.10566000000E+00 0. -1.
        994    1    1    2    0    0 -0.18724944260E+02 -0.28870484432E+02  0.15292084786E+02  0.17529237367E+03  0.17120000000E+03 0.  0.
        998    1    1    2    0    0  0.13774065057E+01 -0.22782582593E+01  0.14333480656E+04  0.14333854209E+04  0.10000000000E+02 0. -1.
</event>
<event>
 5    1  0.1145138E-008  0.3763181E+03  0.7957747E-01  0.3467349E+00
         13   -1    0    0    0    0  0.00000000000E+00  0.00000000000E+00  0.14999999963E+04  0.15000000000E+04  0.10566000000E+00 0.  1.
        994   -1    0    0    0    0 -0.00000000000E+00 -0.00000000000E+00  0.11368683772E-12  0.17120000000E+03  0.17120000000E+03 0.  0.
         13    1    1    2    0    0  0.24473986758E+02  0.23964898863E+02  0.92868551391E+02  0.98984197763E+02  0.10566000000E+00 0.  1.
        994    1    1    2    0    0 -0.44172671439E+02  0.47057941811E+01  0.12710934446E+02  0.17732562493E+03  0.17120000000E+03 0.  0.
        998    1    1    2    0    0  0.19698684681E+02 -0.28670693044E+02  0.13944205104E+04  0.13948901773E+04  0.10000000000E+02 0.  1.
</event>
<event>
 5    1  0.1145138E-008  0.3740459E+03  0.7957747E-01  0.3477501E+00
         13   -1    0    0    0    0  0.00000000000E+00  0.00000000000E+00  0.14999999963E+04  0.15000000000E+04  0.10566000000E+00 0. -1.
        994   -1    0    0    0    0 -0.00000000000E+00 -0.00000000000E+00  0.11368683772E-12  0.17120000000E+03  0.17120000000E+03 0.  0.
         13    1    1    2    0    0 -0.99616881512E+02  0.41404177913E+02  0.57100969652E+03  0.58111093065E+03  0.10566000000E+00 0. -1.
        994    1    1    2    0    0  0.10804896427E+03  0.86249752297E+00  0.48092539224E+02  0.20808088550E+03  0.17120000000E+03 0.  0.
        998    1    1    2    0    0 -0.84320827570E+01 -0.42266675436E+02  0.88089776053E+03  0.88200818385E+03  0.10000000000E+02 0. -1.
</event>
<event>
 5    1  0.1145138E-008  0.3859406E+03  0.7957747E-01  0.3425693E+00
         13   -1    0    0    0    0  0.00000000000E+00  0.00000000000E+00  0.14999999963E+04  0.15000000000E+04  0.10566000000E+00 0.  1.
        994   -1    0    0    0    0 -0.00000000000E+00 -0.00000000000E+00  0.11368683772E-12  0.17120000000E+03  0.17120000000E+03 0.  0.
         13    1    1    2    0    0  0.13262401923E+02 -0.20471456237E+01  0.74897392831E+02  0.76090161827E+02  0.10566000000E+00 0.  1.
        994    1    1    2    0    0 -0.16824808312E+02 -0.12972430798E+02  0.26451266743E+01  0.17253346003E+03  0.17120000000E+03 0.  0.
        998    1    1    2    0    0  0.35624063892E+01  0.15019576422E+02  0.14224574768E+04  0.14225763781E+04  0.10000000000E+02 0.  1.
</event>
<event>
 5    1  0.1145138E-008  0.3734603E+03  0.7957747E-01  0.3480138E+00
         13   -1    0    0    0    0  0.00000000000E+00  0.00000000000E+00  0.14999999963E+04  0.15000000000E+04  0.10566000000E+00 0. -1.
        994   -1    0    0    0    0 -0.00000000000E+00 -0.00000000000E+00  0.11368683772E-12  0.17120000000E+03  0.17120000000E+03 0.  0.
         13    1    1    2    0    0 -0.30585473098E+02  0.63007447397E+02  0.26965202185E+03  0.27859941429E+03  0.10566000000E+00 0. -1.
        994    1    1    2    0    0  0.32917420283E+02 -0.60641378351E+02  0.23918245675E+02  0.18612483929E+03  0.17120000000E+03 0.  0.
        998    1    1    2    0    0 -0.23319471847E+01 -0.23660690459E+01  0.12064297288E+04  0.12064757464E+04  0.10000000000E+02 0. -1.
</event>
<event>
 5    1  0.1145138E-008  0.3817272E+03  0.7957747E-01  0.3443672E+00
         13   -1    0    0    0    0  0.00000000000E+00  0.00000000000E+00  0.14999999963E+04  0.15000000000E+04  0.10566000000E+00 0. -1.
        994   -1    0    0    0    0 -0.00000000000E+00 -0.00000000000E+00  0.11368683772E-12  0.17120000000E+03  0.17120000000E+03 0.  0.
         13    1    1    2    0    0  0.23111304498E+02 -0.42742374479E+00  0.93123661645E+02  0.95949687903E+02  0.10566000000E+00 0. -1.
        994    1    1    2    0    0  0.10835787081E+02  0.19525234486E+02  0.49230130343E+01  0.17272036684E+03  0.17120000000E+03 0.  0.
        998    1    1    2    0    0 -0.33947091578E+02 -0.19097810741E+02  0.14019533216E+04  0.14025299453E+04  0.10000000000E+02 0. -1.
</event>
<event>
 5    1  0.1145138E-008  0.3772526E+03  0.7957747E-01  0.3463209E+00
         13   -1    0    0    0    0  0.00000000000E+00  0.00000000000E+00  0.14999999963E+04  0.15000000000E+04  0.10566000000E+00 0.  1.
        994   -1    0    0    0    0 -0.00000000000E+00 -0.00000000000E+00  0.11368683772E-12  0.17120000000E+03  0.17120000000E+03 0.  0.
         13    1    1    2    0    0 -0.22320699828E+02  0.84910525863E+00  0.43502791696E+02  0.48902338082E+02  0.10566000000E+00 0.  1.
        994    1    1    2    0    0  0.11029998970E+02  0.19810746631E+01  0.59502534203E+01  0.17166954025E+03  0.17120000000E+03 0.  0.
        998    1    1    2    0    0  0.11290700858E+02 -0.28301799217E+01  0.14505469512E+04  0.14506281217E+04  0.10000000000E+02 0.  1.
</event>
<event>
 5    1  0.1145138E-008  0.3824869E+03  0.7957747E-01  0.3440401E+00
         13   -1    0    0    0    0  0.00000000000E+00  0.00000000000E+00  0.14999999963E+04  0.15000000000E+04  0.10566000000E+00 0. -1.
        994   -1    0    0    0    0 -0.00000000000E+00 -0.00000000000E+00  0.11368683772E-12  0.17120000000E+03  0.17120000000E+03 0.  0.
         13    1    1    2    0    0 -0.19726463004E+02 -0.23838940730E+02  0.18263232054E+03  0.18523499698E+03  0.10566000000E+00 0. -1.
        994    1    1    2    0    0  0.16697089459E+01  0.67875825773E+01  0.30450226902E+01  0.17136969209E+03  0.17120000000E+03 0.  0.
        998    1    1    2    0    0  0.18056754058E+02  0.17051358152E+02  0.13143226530E+04  0.13145953109E+04  0.10000000000E+02 0. -1.
</event>
<event>
 5    1  0.1145138E-008  0.3750945E+03  0.7957747E-01  0.3472800E+00
         13   -1    0    0    0    0  0.00000000000E+00  0.00000000000E+00  0.14999999963E+04  0.15000000000E+04  0.10566000000E+00 0.  1.
        994   -1    0    0    0    0 -0.00000000000E+00 -0.00000000000E+00  0.11368683772E-12  0.17120000000E+03  0.17120000000E+03 0.  0.
         13    1    1    2    0    0  0.35772461639E+02  0.50107216528E+02  0.23689164972E+03  0.24476124495E+03  0.10566000000E+00 0.  1.
        994    1    1    2    0    0 -0.37679941277E+02 -0.50922695430E+02  0.20390981237E+02  0.18367942454E+03  0.17120000000E+03 0.  0.
        998    1    1    2    0    0  0.19074796386E+01  0.81547890256E+00  0.12427173653E+04  0.12427593305E+04  0.10000000000E+02 0.  0.
</event>
<event>
 5    1  0.1145138E-008  0.3762279E+03  0.7957747E-01  0.3467749E+00
         13   -1    0    0    0    0  0.00000000000E+00  0.00000000000E+00  0.14999999963E+04  0.15000000000E+04  0.10566000000E+00 0. -1.
        994   -1    0    0    0    0 -0.00000000000E+00 -0.00000000000E+00  0.11368683772E-12  0.17120000000E+03  0.17120000000E+03 0.  0.
         13    1    1    2    0    0 -0.47576798916E+01  0.10921855818E+02  0.89629523712E+01  0.14908659621E+02  0.10566000000E+00 0. -1.
        994    1    1    2    0    0  0.35587927519E+01 -0.97898161182E+01  0.64168962903E+01  0.17163659885E+03  0.17120000000E+03 0.  0.
        998    1    1    2    0    0  0.11988871398E+01 -0.11320396997E+01  0.14846201476E+04  0.14846547415E+04  0.10000000000E+02 0. -1.
</event>
<event>
 5    1  0.1145138E-008  0.3993513E+03  0.7957747E-01  0.3370997E+00
         13   -1    0    0    0    0  0.00000000000E+00  0.00000000000E+00  0.14999999963E+04  0.15000000000E+04  0.10566000000E+00 0.  1.
        994   -1    0    0    0    0 -0.00000000000E+00 -0.00000000000E+00  0.11368683772E-12  0.17120000000E+03  0.17120000000E+03 0.  0.
         13    1    1    2    0    0 -0.13623790804E+02  0.21752613741E+02  0.25162263755E+00  0.25668236372E+02  0.10566000000E+00 0.  1.
        994    1    1    2    0    0  0.17347096344E+02 -0.17630415679E+02  0.29783993977E+02  0.17552287488E+03  0.17120000000E+03 0.  0.
        998    1    1    2    0    0 -0.37233055393E+01 -0.41221980618E+01  0.14699643797E+04  0.14700088887E+04  0.10000000000E+02 0.  1.
</event>
<event>
 5    1  0.1145138E-008  0.3836620E+03  0.7957747E-01  0.3435367E+00
         13   -1    0    0    0    0  0.00000000000E+00  0.00000000000E+00  0.14999999963E+04  0.15000000000E+04  0.10566000000E+00 0. -1.
        994   -1    0    0    0    0 -0.00000000000E+00 -0.00000000000E+00  0.11368683772E-12  0.17120000000E+03  0.17120000000E+03 0.  0.
         13    1    1    2    0    0 -0.24149310359E+01 -0.14289518625E+02  0.38207876078E+02  0.40864106412E+02  0.10566000000E+00 0. -1.
        994    1    1    2    0    0  0.14063272506E+02  0.47722499307E+02  0.10514755690E+02  0.17859230852E+03  0.17120000000E+03 0.  0.
        998    1    1    2    0    0 -0.11648341470E+02 -0.33432980683E+02  0.14512773645E+04  0.14517435851E+04  0.10000000000E+02 0. -1.
</event>
<event>
 5    1  0.1145138E-008  0.3965455E+03  0.7957747E-01  0.3382135E+00
         13   -1    0    0    0    0  0.00000000000E+00  0.00000000000E+00  0.14999999963E+04  0.15000000000E+04  0.10566000000E+00 0.  1.
        994   -1    0    0    0    0 -0.00000000000E+00 -0.00000000000E+00  0.11368683772E-12  0.17120000000E+03  0.17120000000E+03 0.  0.
         13    1    1    2    0    0 -0.78203584127E+02  0.20324215896E+02  0.15206708028E+03  0.17220128452E+03  0.10566000000E+00 0.  1.
        994    1    1    2    0    0 -0.63581793933E+02 -0.15394332848E+03  0.14302500218E+03  0.27840040257E+03  0.17120000000E+03 0.  0.
        998    1    1    2    0    0  0.14178537806E+03  0.13361911259E+03  0.12049079138E+04  0.12205983129E+04  0.10000000000E+02 0.  1.
</event>
<event>
 5    1  0.1145138E-008  0.3833536E+03  0.7957747E-01  0.3436685E+00
         13   -1    0    0    0    0  0.00000000000E+00  0.00000000000E+00  0.14999999963E+04  0.15000000000E+04  0.10566000000E+00 0. -1.
        994   -1    0    0    0    0 -0.00000000000E+00 -0.00000000000E+00  0.11368683772E-12  0.17120000000E+03  0.17120000000E+03 0.  0.
         13    1    1    2    0    0 -0.64640045978E+00  0.27064855893E+02  0.12533159872E+03  0.12822224870E+03  0.10566000000E+00 0. -1.
        994    1    1    2    0    0 -0.17171516036E+02 -0.41578953523E+02  0.91695834453E+01  0.17724895373E+03  0.17120000000E+03 0.  0.
        998    1    1    2    0    0  0.17817916495E+02  0.14514097630E+02  0.13654988141E+04  0.13657287976E+04  0.10000000000E+02 0. -1.
</event>
<event>
 5    1  0.1145138E-008  0.3820511E+03  0.7957747E-01  0.3442276E+00
         13   -1    0    0    0    0  0.00000000000E+00  0.00000000000E+00  0.14999999963E+04  0.15000000000E+04  0.10566000000E+00 0.  1.
        994   -1    0    0    0    0 -0.00000000000E+00 -0.00000000000E+00  0.11368683772E-12  0.17120000000E+03  0.17120000000E+03 0.  0.
         13    1    1    2    0    0 -0.11898787864E+00 -0.20775688711E+02  0.84072587993E+02  0.86601700996E+02  0.10566000000E+00 0.  1.
        994    1    1    2    0    0 -0.20155669332E+02 -0.23143060977E+02  0.62349567283E+01  0.17404070490E+03  0.17120000000E+03 0.  0.
        998    1    1    2    0    0  0.20274657211E+02  0.43918749688E+02  0.14096924516E+04  0.14105575941E+04  0.10000000000E+02 0.  1.
</event>
<event>
 5    1  0.1145138E-008  0.3691094E+03  0.7957747E-01  0.3499994E+00
         13   -1    0    0    0    0  0.00000000000E+00  0.00000000000E+00  0.14999999963E+04  0.15000000000E+04  0.10566000000E+00 0.  1.
        994   -1    0    0    0    0 -0.00000000000E+00 -0.00000000000E+00  0.11368683772E-12  0.17120000000E+03  0.17120000000E+03 0.  0.
         13    1    1    2    0    0  0.14822443963E+02 -0.15423280539E+02  0.19553348794E+02  0.28981494798E+02  0.10566000000E+00 0.  1.
        994    1    1    2    0    0 -0.98307575590E+01  0.55208529972E+01  0.10176368843E+02  0.17187240062E+03  0.17120000000E+03 0.  0.
        998    1    1    2    0    0 -0.49916864042E+01  0.99024275419E+01  0.14702702786E+04  0.14703461046E+04  0.10000000000E+02 0.  1.
</event>
<event>
 5    1  0.1145138E-008  0.3800595E+03  0.7957747E-01  0.3450900E+00
         13   -1    0    0    0    0  0.00000000000E+00  0.00000000000E+00  0.14999999963E+04  0.15000000000E+04  0.10566000000E+00 0. -1.
        994   -1    0    0    0    0 -0.00000000000E+00 -0.00000000000E+00  0.11368683772E-12  0.17120000000E+03  0.17120000000E+03 0.  0.
         13    1    1    2    0    0  0.71568119147E+00  0.43988823694E+02  0.21561146555E+03  0.22005418435E+03  0.10566000000E+00 0. -1.
        994    1    1    2    0    0 -0.90920577594E+01 -0.36225973029E+02  0.87796290553E+01  0.17544659735E+03  0.17120000000E+03 0.  0.
        998    1    1    2    0    0  0.83763765680E+01 -0.77628506653E+01  0.12756089017E+04  0.12756992183E+04  0.10000000000E+02 0. -1.
</event>
<event>
 5    1  0.1145138E-008  0.3782762E+03  0.7957747E-01  0.3458699E+00
         13   -1    0    0    0    0  0.00000000000E+00  0.00000000000E+00  0.14999999963E+04  0.15000000000E+04  0.10566000000E+00 0. -1.
        994   -1    0    0    0    0 -0.00000000000E+00 -0.00000000000E+00  0.11368683772E-12  0.17120000000E+03  0.17120000000E+03 0.  0.
         13    1    1    2    0    0  0.72541586111E+02 -0.34898125941E+02  0.41079551168E+03  0.41860855759E+03  0.10566000000E+00 0. -1.
        994    1    1    2    0    0 -0.83841456258E+02  0.38748025194E+02  0.34244949403E+02  0.19751697599E+03  0.17120000000E+03 0.  0.
        998    1    1    2    0    0  0.11299870146E+02 -0.38498992523E+01  0.10549595352E+04  0.10550744664E+04  0.10000000000E+02 0. -1.
</event>
<event>
 5    1  0.1145138E-008  0.3847244E+03  0.7957747E-01  0.3430842E+00
         13   -1    0    0    0    0  0.00000000000E+00  0.00000000000E+00  0.14999999963E+04  0.15000000000E+04  0.10566000000E+00 0. -1.
        994   -1    0    0    0    0 -0.00000000000E+00 -0.00000000000E+00  0.11368683772E-12  0.17120000000E+03  0.17120000000E+03 0.  0.
         13    1    1    2    0    0  0.14754529191E+02 -0.12498709399E+01  0.60750439346E+02  0.62529076067E+02  0.10566000000E+00 0. -1.
        994    1    1    2    0    0 -0.13113608963E+02 -0.11208831317E+01  0.23373939225E+01  0.17172107189E+03  0.17120000000E+03 0.  0.
        998    1    1    2    0    0 -0.16409202282E+01  0.23707540716E+01  0.14369121630E+04  0.14369498520E+04  0.10000000000E+02 0. -1.
</event>
<event>
 5    1  0.1145138E-008  0.3790062E+03  0.7957747E-01  0.3455497E+00
         13   -1    0    0    0    0  0.00000000000E+00  0.00000000000E+00  0.14999999963E+04  0.15000000000E+04  0.10566000000E+00 0.  1.
        994   -1    0    0    0    0 -0.00000000000E+00 -0.00000000000E+00  0.11368683772E-12  0.17120000000E+03  0.17120000000E+03 0.  0.
         13    1    1    2    0    0  0.22078677368E+02 -0.42230726953E+02  0.26624840621E+03  0.27047943964E+03  0.10566000000E+00 0.  1.
        994    1    1    2    0    0 -0.32210665739E+02  0.32373991553E+01  0.81586084272E+01  0.17442479936E+03  0.17120000000E+03 0.  0.
        998    1    1    2    0    0  0.10131988371E+02  0.38993327798E+02  0.12255929816E+04  0.12262957610E+04  0.10000000000E+02 0.  1.
</event>
<event>
 5    1  0.1145138E-008  0.3825772E+03  0.7957747E-01  0.3440013E+00
         13   -1    0    0    0    0  0.00000000000E+00  0.00000000000E+00  0.14999999963E+04  0.15000000000E+04  0.10566000000E+00 0. -1.
        994   -1    0    0    0    0 -0.00000000000E+00 -0.00000000000E+00  0.11368683772E-12  0.17120000000E+03  0.17120000000E+03 0.  0.
         13    1    1    2    0    0  0.10498820804E+00 -0.37517346166E+02  0.20664623828E+03  0.21002438251E+03  0.10566000000E+00 0. -1.
        994    1    1    2    0    0 -0.47610305820E+01  0.42396422900E+02  0.88945495083E+01  0.17665977782E+03  0.17120000000E+03 0.  0.
        998    1    1    2    0    0  0.46560423739E+01 -0.48790767340E+01  0.12844592085E+04  0.12845158397E+04  0.10000000000E+02 0. -1.
</event>
<event>
 5    1  0.1145138E-008  0.4261587E+03  0.7957747E-01  0.3271905E+00
         13   -1    0    0    0    0  0.00000000000E+00  0.00000000000E+00  0.14999999963E+04  0.15000000000E+04  0.10566000000E+00 0. -1.
        994   -1    0    0    0    0 -0.00000000000E+00 -0.00000000000E+00  0.11368683772E-12  0.17120000000E+03  0.17120000000E+03 0.  0.
         13    1    1    2    0    0  0.10849662748E+03  0.17506697881E+02  0.10641395546E+03  0.15297693854E+03  0.10566000000E+00 0. -1.
        994    1    1    2    0    0 -0.12501152563E+03 -0.32704984259E+02  0.12271630403E+03  0.24711582064E+03  0.17120000000E+03 0.  0.
        998    1    1    2    0    0  0.16514898145E+02  0.15198286379E+02  0.12708697368E+04  0.12711072408E+04  0.10000000000E+02 0. -1.
</event>
<event>
 5    1  0.1145138E-008  0.3757392E+03  0.7957747E-01  0.3469923E+00
         13   -1    0    0    0    0  0.00000000000E+00  0.00000000000E+00  0.14999999963E+04  0.15000000000E+04  0.10566000000E+00 0.  1.
        994   -1    0    0    0    0 -0.00000000000E+00 -0.00000000000E+00  0.11368683772E-12  0.17120000000E+03  0.17120000000E+03 0.  0.
         13    1    1    2    0    0 -0.11583775333E+01  0.60940159556E+02  0.11252879003E+03  0.12797571893E+03  0.10566000000E+00 0.  1.
        994    1    1    2    0    0  0.14298164302E+02 -0.75535295374E+02  0.35405615107E+02  0.19097909815E+03  0.17120000000E+03 0.  0.
        998    1    1    2    0    0 -0.13139786769E+02  0.14595135818E+02  0.13520655911E+04  0.13522451829E+04  0.10000000000E+02 0.  1.
</event>
<event>
 5    1  0.1145138E-008  0.3734853E+03  0.7957747E-01  0.3480025E+00
         13   -1    0    0    0    0  0.00000000000E+00  0.00000000000E+00  0.14999999963E+04  0.15000000000E+04  0.10566000000E+00 0.  1.
        994   -1    0    0    0    0 -0.00000000000E+00 -0.00000000000E+00  0.11368683772E-12  0.17120000000E+03  0.17120000000E+03 0.  0.
         13    1    1    2    0    0  0.29816290673E+02  0.93550010313E+02  0.42345193756E+03  0.43468628942E+03  0.10566000000E+00 0.  1.
        994    1    1    2    0    0 -0.52306870738E+01 -0.40157160531E+02  0.18620389235E+02  0.17690708444E+03  0.17120000000E+03 0.  0.
        998    1    1    2    0    0 -0.24585603599E+02 -0.53392849781E+02  0.10579276695E+04  0.10596066261E+04  0.10000000000E+02 0.  1.
</event>
<event>
 5    1  0.1145138E-008  0.3819680E+03  0.7957747E-01  0.3442634E+00
         13   -1    0    0    0    0  0.00000000000E+00  0.00000000000E+00  0.14999999963E+04  0.15000000000E+04  0.10566000000E+00 0. -1.
        994   -1    0    0    0    0 -0.00000000000E+00 -0.00000000000E+00  0.11368683772E-12  0.17120000000E+03  0.17120000000E+03 0.  0.
         13    1    1    2    0    0 -0.49503189179E+01  0.10242731587E+02  0.19285532725E+02  0.22391117530E+02  0.10566000000E+00 0. -1.
        994    1    1    2    0    0  0.86663093510E+01 -0.57476534191E+01  0.35022337879E+01  0.17155129285E+03  0.17120000000E+03 0.  0.
        998    1    1    2    0    0 -0.37159904331E+01 -0.44950781680E+01  0.14772122298E+04  0.14772575896E+04  0.10000000000E+02 0. -1.
</event>
<event>
 5    1  0.1145138E-008  0.3837682E+03  0.7957747E-01  0.3434913E+00
         13   -1    0    0    0    0  0.00000000000E+00  0.00000000000E+00  0.14999999963E+04  0.15000000000E+04  0.10566000000E+00 0.  1.
        994   -1    0    0    0    0 -0.00000000000E+00 -0.00000000000E+00  0.11368683772E-12  0.17120000000E+03  0.17120000000E+03 0.  0.
         13    1    1    2    0    0 -0.51220588207E+01 -0.10827220803E+02  0.31294347492E+02  0.33508380233E+02  0.10566000000E+00 0.  1.
        994    1    1    2    0    0  0.87032929415E+01  0.52401746975E+01  0.25837696983E+01  0.17152061860E+03  0.17120000000E+03 0.  0.
        998    1    1    2    0    0 -0.35812341207E+01  0.55870461055E+01  0.14661218791E+04  0.14661710012E+04  0.10000000000E+02 0.  1.
</event>
<event>
 5    1  0.1145138E-008  0.3840707E+03  0.7957747E-01  0.3433623E+00
         13   -1    0    0    0    0  0.00000000000E+00  0.00000000000E+00  0.14999999963E+04  0.15000000000E+04  0.10566000000E+00 0.  1.
        994   -1    0    0    0    0 -0.00000000000E+00 -0.00000000000E+00  0.11368683772E-12  0.17120000000E+03  0.17120000000E+03 0.  0.
         13    1    1    2    0    0  0.13007912000E+02  0.21720427003E+00  0.38597061059E+02  0.40730789812E+02  0.10566000000E+00 0.  1.
        994    1    1    2    0    0 -0.16527678553E+02 -0.34751766989E+01  0.30336893261E+01  0.17205779344E+03  0.17120000000E+03 0.  0.
        998    1    1    2    0    0  0.35197665531E+01  0.32579724289E+01  0.14583692459E+04  0.14584114168E+04  0.10000000000E+02 0.  1.
</event>
<event>
 5    1  0.1145138E-008  0.3827253E+03  0.7957747E-01  0.3439377E+00
         13   -1    0    0    0    0  0.00000000000E+00  0.00000000000E+00  0.14999999963E+04  0.15000000000E+04  0.10566000000E+00 0.  1.
        994   -1    0    0    0    0 -0.00000000000E+00 -0.00000000000E+00  0.11368683772E-12  0.17120000000E+03  0.17120000000E+03 0.  0.
         13    1    1    2    0    0  0.16908036814E+02  0.33850703250E+02  0.21392443607E+03  0.21724508586E+03  0.10566000000E+00 0.  1.
        994    1    1    2    0    0  0.14601460968E+02 -0.58709490836E+02  0.14985692330E+02  0.18219225546E+03  0.17120000000E+03 0.  0.
        998    1    1    2    0    0 -0.31509497782E+02  0.24858787586E+02  0.12710898679E+04  0.12717626587E+04  0.10000000000E+02 0.  1.
</event>
<event>
 5    1  0.1145138E-008  0.3721151E+03  0.7957747E-01  0.3486226E+00
         13   -1    0    0    0    0  0.00000000000E+00  0.00000000000E+00  0.14999999963E+04  0.15000000000E+04  0.10566000000E+00 0. -1.
        994   -1    0    0    0    0 -0.00000000000E+00 -0.00000000000E+00  0.11368683772E-12  0.17120000000E+03  0.17120000000E+03 0.  0.
         13    1    1    2    0    0 -0.26061238555E+02 -0.23602060389E+01  0.23251365959E+02  0.35005655408E+02  0.10566000000E+00 0. -1.
        994    1    1    2    0    0  0.21622553966E+02 -0.60524407882E+01  0.13839282262E+02  0.17321989670E+03  0.17120000000E+03 0.  0.
        998    1    1    2    0    0  0.44386845890E+01  0.84126468271E+01  0.14629093481E+04  0.14629744479E+04  0.10000000000E+02 0. -1.
</event>
<event>
 5    1  0.1145138E-008  0.3740630E+03  0.7957747E-01  0.3477424E+00
         13   -1    0    0    0    0  0.00000000000E+00  0.00000000000E+00  0.14999999963E+04  0.15000000000E+04  0.10566000000E+00 0.  1.
        994   -1    0    0    0    0 -0.00000000000E+00 -0.00000000000E+00  0.11368683772E-12  0.17120000000E+03  0.17120000000E+03 0.  0.
         13    1    1    2    0    0  0.23188245502E+02 -0.99693378696E+01  0.41202450812E+02  0.48319101233E+02  0.10566000000E+00 0.  1.
        994    1    1    2    0    0 -0.19041511817E+02  0.77430088577E+01  0.86028536377E+01  0.17264409185E+03  0.17120000000E+03 0.  0.
        998    1    1    2    0    0 -0.41467336850E+01  0.22263290119E+01  0.14501946918E+04  0.14502368069E+04  0.10000000000E+02 0.  1.
</event>
<event>
 5    1  0.1145138E-008  0.3831191E+03  0.7957747E-01  0.3437689E+00
         13   -1    0    0    0    0  0.00000000000E+00  0.00000000000E+00  0.14999999963E+04  0.15000000000E+04  0.10566000000E+00 0. -1.
        994   -1    0    0    0    0 -0.00000000000E+00 -0.00000000000E+00  0.11368683772E-12  0.17120000000E+03  0.17120000000E+03 0.  0.
         13    1    1    2    0    0 -0.47256732662E+01  0.95735210150E+01  0.21203127475E+02  0.23739588691E+02  0.10566000000E+00 0. -1.
        994    1    1    2    0    0  0.48317315016E+01 -0.70648056061E+01  0.28093061693E+01  0.17143683767E+03  0.17120000000E+03 0.  0.
        998    1    1    2    0    0 -0.10605823533E+00 -0.25087154088E+01  0.14759875626E+04  0.14760235736E+04  0.10000000000E+02 0. -1.
</event>
<event>
 5    1  0.1145138E-008  0.3710823E+03  0.7957747E-01  0.3490932E+00
         13   -1    0    0    0    0  0.00000000000E+00  0.00000000000E+00  0.14999999963E+04  0.15000000000E+04  0.10566000000E+00 0.  1.
        994   -1    0    0    0    0 -0.00000000000E+00 -0.00000000000E+00  0.11368683772E-12  0.17120000000E+03  0.17120000000E+03 0.  0.
         13    1    1    2    0    0 -0.30168607168E+02  0.12922461940E+02  0.60269827612E+02  0.68626512118E+02  0.10566000000E+00 0.  1.
        994    1    1    2    0    0  0.11634995601E+02 -0.43035731107E+01  0.92347530773E+01  0.17189710448E+03  0.17120000000E+03 0.  0.
        998    1    1    2    0    0  0.18533611567E+02 -0.86188888296E+01  0.14304954156E+04  0.14306763834E+04  0.10000000000E+02 0.  1.
</event>
<event>
 5    1  0.1145138E-008  0.3812317E+03  0.7957747E-01  0.3445813E+00
         13   -1    0    0    0    0  0.00000000000E+00  0.00000000000E+00  0.14999999963E+04  0.15000000000E+04  0.10566000000E+00 0.  1.
        994   -1    0    0    0    0 -0.00000000000E+00 -0.00000000000E+00  0.11368683772E-12  0.17120000000E+03  0.17120000000E+03 0.  0.
         13    1    1    2    0    0  0.93215033876E+01  0.66247702597E+01  0.17545906124E+02  0.20943924946E+02  0.10566000000E+00 0.  1.
        994    1    1    2    0    0  0.59943170540E+01 -0.82277169476E+01  0.38577842709E+01  0.17154576550E+03  0.17120000000E+03 0.  0.
        998    1    1    2    0    0 -0.15315820442E+02  0.16029466879E+01  0.14785963059E+04  0.14787103095E+04  0.10000000000E+02 0.  1.
</event>
<event>
 5    1  0.1145138E-008  0.3798299E+03  0.7957747E-01  0.3451900E+00
         13   -1    0    0    0    0  0.00000000000E+00  0.00000000000E+00  0.14999999963E+04  0.15000000000E+04  0.10566000000E+00 0.  1.
        994   -1    0    0    0    0 -0.00000000000E+00 -0.00000000000E+00  0.11368683772E-12  0.17120000000E+03  0.17120000000E+03 0.  0.
         13    1    1    2    0    0 -0.55603108397E+01  0.13547392188E+02  0.24205409654E+02  0.28290668289E+02  0.10566000000E+00 0.  1.
        994    1    1    2    0    0 -0.75635701660E+01 -0.57951099856E+01  0.45227860969E+01  0.17152459441E+03  0.17120000000E+03 0.  0.
        998    1    1    2    0    0  0.13123881006E+02 -0.77522822024E+01  0.14712718005E+04  0.14713847373E+04  0.10000000000E+02 0.  1.
</event>
<event>
 5    1  0.1145138E-008  0.3815120E+03  0.7957747E-01  0.3444601E+00
         13   -1    0    0    0    0  0.00000000000E+00  0.00000000000E+00  0.14999999963E+04  0.15000000000E+04  0.10566000000E+00 0.  1.
        994   -1    0    0    0    0 -0.00000000000E+00 -0.00000000000E+00  0.11368683772E-12  0.17120000000E+03  0.17120000000E+03 0.  0.
         13    1    1    2    0    0 -0.11928197424E+01  0.15346101967E+02  0.33672468272E+02  0.37023937501E+02  0.10566000000E+00 0.  1.
        994    1    1    2    0    0 -0.49880469911E+01 -0.12603243590E+02  0.39832118204E+01  0.17178192087E+03  0.17120000000E+03 0.  0.
        998    1    1    2    0    0  0.61808667335E+01 -0.27428583770E+01  0.14623443162E+04  0.14623941416E+04  0.10000000000E+02 0.  1.
</event>
<event>
 5    1  0.1145138E-008  0.3844387E+03  0.7957747E-01  0.3432056E+00
         13   -1    0    0    0    0  0.00000000000E+00  0.00000000000E+00  0.14999999963E+04  0.15000000000E+04  0.10566000000E+00 0. -1.
        994   -1    0    0    0    0 -0.00000000000E+00 -0.00000000000E+00  0.11368683772E-12  0.17120000000E+03  0.17120000000E+03 0.  0.
         13    1    1    2    0    0 -0.11804351542E+02 -0.18183550935E+02  0.12083352113E+03  0.12276292288E+03  0.10566000000E+00 0. -1.
        994    1    1    2    0    0  0.96207656070E+01  0.12240887045E+02  0.27080935575E+01  0.17192781106E+03  0.17120000000E+03 0.  0.
        998    1    1    2    0    0  0.21835859353E+01  0.59426638899E+01  0.13764583816E+04  0.13765092661E+04  0.10000000000E+02 0. -1.
</event>
<event>
 5    1  0.1145138E-008  0.3381718E+03  0.7957747E-01  0.3656308E+00
         13   -1    0    0    0    0  0.00000000000E+00  0.00000000000E+00  0.14999999963E+04  0.15000000000E+04  0.10566000000E+00 0.  1.
        994   -1    0    0    0    0 -0.00000000000E+00 -0.00000000000E+00  0.11368683772E-12  0.17120000000E+03  0.17120000000E+03 0.  0.
         13    1    1    2    0    0  0.18313754624E+03 -0.55257359098E+02  0.10061547171E+04  0.10241777495E+04  0.10566000000E+00 0.  1.
        994    1    1    2    0    0 -0.13788750337E+03  0.48167361502E+02  0.93087824821E+02  0.24353201315E+03  0.17120000000E+03 0.  0.
        998    1    1    2    0    0 -0.45250042871E+02  0.70899975961E+01  0.40075745433E+03  0.40349023736E+03  0.10000000000E+02 0.  1.
</event>
<event>
 5    1  0.1145138E-008  0.3768565E+03  0.7957747E-01  0.3464961E+00
         13   -1    0    0    0    0  0.00000000000E+00  0.00000000000E+00  0.14999999963E+04  0.15000000000E+04  0.10566000000E+00 0.  1.
        994   -1    0    0    0    0 -0.00000000000E+00 -0.00000000000E+00  0.11368683772E-12  0.17120000000E+03  0.17120000000E+03 0.  0.
         13    1    1    2    0    0 -0.33210622977E+02 -0.24273116932E+01  0.10145536538E+03  0.10678033362E+03  0.10566000000E+00 0.  1.
        994    1    1    2    0    0  0.47752713461E+01  0.77646498486E+01  0.60091674405E+01  0.17154778663E+03  0.17120000000E+03 0.  0.
        998    1    1    2    0    0  0.28435351631E+02 -0.53373381554E+01  0.13925354635E+04  0.13928718798E+04  0.10000000000E+02 0.  1.
</event>
<event>
 5    1  0.1145138E-008  0.3824270E+03  0.7957747E-01  0.3440658E+00
         13   -1    0    0    0    0  0.00000000000E+00  0.00000000000E+00  0.14999999963E+04  0.15000000000E+04  0.10566000000E+00 0. -1.
        994   -1    0    0    0    0 -0.00000000000E+00 -0.00000000000E+00  0.11368683772E-12  0.17120000000E+03  0.17120000000E+03 0.  0.
         13    1    1    2    0    0  0.42731445488E+00 -0.13993752954E+02  0.33400248344E+02  0.36215956054E+02  0.10566000000E+00 0. -1.
        994    1    1    2    0    0  0.11327386178E+02  0.33682089477E+01  0.33762598049E+01  0.17164059438E+03  0.17120000000E+03 0.  0.
        998    1    1    2    0    0 -0.11754700633E+02  0.10625544007E+02  0.14632234881E+04  0.14633434496E+04  0.10000000000E+02 0. -1.
</event>
<event>
 5    1  0.1145138E-008  0.3849349E+03  0.7957747E-01  0.3429948E+00
         13   -1    0    0    0    0  0.00000000000E+00  0.00000000000E+00  0.14999999963E+04  0.15000000000E+04  0.10566000000E+00 0.  1.
        994   -1    0    0    0    0 -0.00000000000E+00 -0.00000000000E+00  0.11368683772E-12  0.17120000000E+03  0.17120000000E+03 0.  0.
         13    1    1    2    0    0 -0.66370252405E+01  0.77709343705E+01  0.30363722189E+02  0.32037545384E+02  0.10566000000E+00 0.  1.
        994    1    1    2    0    0 -0.12449396339E+02 -0.28102035423E+02  0.47761228765E+01  0.17400276783E+03  0.17120000000E+03 0.  0.
        998    1    1    2    0    0  0.19086421580E+02  0.20331101053E+02  0.14648601512E+04  0.14651596868E+04  0.10000000000E+02 0.  1.
</event>
<event>
 5    1  0.1145138E-008  0.4118260E+03  0.7957747E-01  0.3323302E+00
         13   -1    0    0    0    0  0.00000000000E+00  0.00000000000E+00  0.14999999963E+04  0.15000000000E+04  0.10566000000E+00 0.  1.
        994   -1    0    0    0    0 -0.00000000000E+00 -0.00000000000E+00  0.11368683772E-12  0.17120000000E+03  0.17120000000E+03 0.  0.
         13    1    1    2    0    0  0.18734838712E+02 -0.96456324087E+02  0.10760688337E+03  0.14571914476E+03  0.10566000000E+00 0.  1.
        994    1    1    2    0    0 -0.11181151274E+03  0.97987982278E+02  0.13352993188E+03  0.26314091617E+03  0.17120000000E+03 0.  0.
        998    1    1    2    0    0  0.93076674030E+02 -0.15316581913E+01  0.12588631810E+04  0.12623399391E+04  0.10000000000E+02 0.  1.
</event>
<event>
 5    1  0.1145138E-008  0.3732357E+03  0.7957747E-01  0.3481151E+00
         13   -1    0    0    0    0  0.00000000000E+00  0.00000000000E+00  0.14999999963E+04  0.15000000000E+04  0.10566000000E+00 0.  1.
        994   -1    0    0    0    0 -0.00000000000E+00 -0.00000000000E+00  0.11368683772E-12  0.17120000000E+03  0.17120000000E+03 0.  0.
         13    1    1    2    0    0 -0.11298265449E+02  0.46541808600E+02  0.13881818600E+03  0.14684784873E+03  0.10566000000E+00 0.  1.
        994    1    1    2    0    0  0.50509216776E+01 -0.43211254520E+02  0.14087592324E+02  0.17720221382E+03  0.17120000000E+03 0.  0.
        998    1    1    2    0    0  0.62473437714E+01 -0.33305540803E+01  0.13470942180E+04  0.13471499374E+04  0.10000000000E+02 0.  1.
</event>
<event>
 5    1  0.1145138E-008  0.3843911E+03  0.7957747E-01  0.3432259E+00
         13   -1    0    0    0    0  0.00000000000E+00  0.00000000000E+00  0.14999999963E+04  0.15000000000E+04  0.10566000000E+00 0.  1.
        994   -1    0    0    0    0 -0.00000000000E+00 -0.00000000000E+00  0.11368683772E-12  0.17120000000E+03  0.17120000000E+03 0.  0.
         13    1    1    2    0    0 -0.24464875079E+02  0.59766137439E+01  0.14994753260E+03  0.15204776789E+03  0.10566000000E+00 0.  1.
        994    1    1    2    0    0  0.24894849049E+02 -0.45226562532E+01  0.40451679572E+01  0.17310693606E+03  0.17120000000E+03 0.  0.
        998    1    1    2    0    0 -0.42997397016E+00 -0.14539574907E+01  0.13460072957E+04  0.13460452960E+04  0.10000000000E+02 0.  0.
</event>
<event>
 5    1  0.1145138E-008  0.3749569E+03  0.7957747E-01  0.3473415E+00
         13   -1    0    0    0    0  0.00000000000E+00  0.00000000000E+00  0.14999999963E+04  0.15000000000E+04  0.10566000000E+00 0. -1.
        994   -1    0    0    0    0 -0.00000000000E+00 -0.00000000000E+00  0.11368683772E-12  0.17120000000E+03  0.17120000000E+03 0.  0.
         13    1    1    2    0    0 -0.31580193123E+02 -0.28390198530E+02  0.11830354577E+03  0.12569428020E+03  0.10566000000E+00 0. -1.
        994    1    1    2    0    0  0.38890083613E+02  0.31671837468E+02  0.15301415409E+02  0.17905059957E+03  0.17120000000E+03 0.  0.
        998    1    1    2    0    0 -0.73098904895E+01 -0.32816389376E+01  0.13663950351E+04  0.13664551202E+04  0.10000000000E+02 0. -1.
</event>
<event>
 5    1  0.1145138E-008  0.3784265E+03  0.7957747E-01  0.3458039E+00
         13   -1    0    0    0    0  0.00000000000E+00  0.00000000000E+00  0.14999999963E+04  0.15000000000E+04  0.10566000000E+00 0.  1.
        994   -1    0    0    0    0 -0.00000000000E+00 -0.00000000000E+00  0.11368683772E-12  0.17120000000E+03  0.17120000000E+03 0.  0.
         13    1    1    2    0    0  0.87238842501E+02  0.74526097805E+02  0.61113147330E+03  0.62180900903E+03  0.10566000000E+00 0.  1.
        994    1    1    2    0    0 -0.95926727670E+02 -0.87334407285E+02  0.63740114723E+02  0.22405686332E+03  0.17120000000E+03 0.  0.
        998    1    1    2    0    0  0.86878851690E+01  0.12808309481E+02  0.82512840826E+03  0.82533412764E+03  0.10000000000E+02 0.  1.
</event>
<event>
 5    1  0.1145138E-008  0.3846786E+03  0.7957747E-01  0.3431036E+00
         13   -1    0    0    0    0  0.00000000000E+00  0.00000000000E+00  0.14999999963E+04  0.15000000000E+04  0.10566000000E+00 0. -1.
        994   -1    0    0    0    0 -0.00000000000E+00 -0.00000000000E+00  0.11368683772E-12  0.17120000000E+03  0.17120000000E+03 0.  0.
         13    1    1    2    0    0  0.10147448549E+02  0.17873590765E+02  0.11295399160E+03  0.11480875986E+03  0.10566000000E+00 0. -1.
        994    1    1    2    0    0 -0.95621065006E+01 -0.15554900837E+02  0.28881037339E+01  0.17219515081E+03  0.17120000000E+03 0.  0.
        998    1    1    2    0    0 -0.58534204874E+00 -0.23186899273E+01  0.13841579009E+04  0.13841960893E+04  0.10000000000E+02 0. -1.
</event>
<event>
 5    1  0.1145138E-008  0.2692139E+03  0.7957747E-01  0.4143696E+00
         13   -1    0    0    0    0  0.00000000000E+00  0.00000000000E+00  0.14999999963E+04  0.15000000000E+04  0.10566000000E+00 0. -1.
        994   -1    0    0    0    0 -0.00000000000E+00 -0.00000000000E+00  0.11368683772E-12  0.17120000000E+03  0.17120000000E+03 0.  0.
         13    1    1    2    0    0  0.17596416676E+03 -0.72885198466E+02  0.47334477845E+03  0.51022635231E+03  0.10566000000E+00 0. -1.
        994    1    1    2    0    0 -0.18200650772E+03 -0.53357159646E+02  0.19951752039E+03  0.32417593415E+03  0.17120000000E+03 0.  0.
        998    1    1    2    0    0  0.60423409587E+01  0.12624235811E+03  0.82713769744E+03  0.83679771354E+03  0.10000000000E+02 0. -1.
</event>
<event>
 5    1  0.1145138E-008  0.3783791E+03  0.7957747E-01  0.3458247E+00
         13   -1    0    0    0    0  0.00000000000E+00  0.00000000000E+00  0.14999999963E+04  0.15000000000E+04  0.10566000000E+00 0. -1.
        994   -1    0    0    0    0 -0.00000000000E+00 -0.00000000000E+00  0.11368683772E-12  0.17120000000E+03  0.17120000000E+03 0.  0.
         13    1    1    2    0    0 -0.11706453240E+02  0.85996529641E+01  0.18983980208E+02  0.23903927442E+02  0.10566000000E+00 0. -1.
        994    1    1    2    0    0  0.52092634808E+01 -0.17198510549E+02  0.60396750114E+01  0.17224645966E+03  0.17120000000E+03 0.  0.
        998    1    1    2    0    0  0.64971897596E+01  0.85988575853E+01  0.14749763411E+04  0.14750496129E+04  0.10000000000E+02 0. -1.
</event>
<event>
 5    1  0.1145138E-008  0.3834190E+03  0.7957747E-01  0.3436405E+00
         13   -1    0    0    0    0  0.00000000000E+00  0.00000000000E+00  0.14999999963E+04  0.15000000000E+04  0.10566000000E+00 0. -1.
        994   -1    0    0    0    0 -0.00000000000E+00 -0.00000000000E+00  0.11368683772E-12  0.17120000000E+03  0.17120000000E+03 0.  0.
         13    1    1    2    0    0 -0.17904728932E+02  0.14673641168E+00  0.74537724615E+02  0.76658231160E+02  0.10566000000E+00 0. -1.
        994    1    1    2    0    0 -0.10337294054E+02 -0.10111503352E+02  0.31086337805E+01  0.17183773088E+03  0.17120000000E+03 0.  0.
        998    1    1    2    0    0  0.28242022986E+02  0.99647669402E+01  0.14223536379E+04  0.14227040380E+04  0.10000000000E+02 0. -1.
</event>
<event>
 5    1  0.1145138E-008  0.3818853E+03  0.7957747E-01  0.3442990E+00
         13   -1    0    0    0    0  0.00000000000E+00  0.00000000000E+00  0.14999999963E+04  0.15000000000E+04  0.10566000000E+00 0. -1.
        994   -1    0    0    0    0 -0.00000000000E+00 -0.00000000000E+00  0.11368683772E-12  0.17120000000E+03  0.17120000000E+03 0.  0.
         13    1    1    2    0    0 -0.31376964377E+02  0.51101856814E+01  0.14803718538E+03  0.15141217689E+03  0.10566000000E+00 0. -1.
        994    1    1    2    0    0  0.27479364960E+02 -0.41349226940E+01  0.57541827534E+01  0.17353605880E+03  0.17120000000E+03 0.  0.
        998    1    1    2    0    0  0.38975994166E+01 -0.97526298737E+00  0.13462086281E+04  0.13462517643E+04  0.10000000000E+02 0. -1.
</event>
<event>
 5    1  0.1145138E-008  0.3860707E+03  0.7957747E-01  0.3425144E+00
         13   -1    0    0    0    0  0.00000000000E+00  0.00000000000E+00  0.14999999963E+04  0.15000000000E+04  0.10566000000E+00 0. -1.
        994   -1    0    0    0    0 -0.00000000000E+00 -0.00000000000E+00  0.11368683772E-12  0.17120000000E+03  0.17120000000E+03 0.  0.
         13    1    1    2    0    0  0.83506719330E+01  0.11109251811E+02  0.83659410722E+02  0.84805998396E+02  0.10566000000E+00 0. -1.
        994    1    1    2    0    0 -0.11325829307E+02 -0.11720559670E+02  0.19705707176E+01  0.17198537460E+03  0.17120000000E+03 0.  0.
        998    1    1    2    0    0  0.29751573740E+01  0.61130785813E+00  0.14143700148E+04  0.14144086270E+04  0.10000000000E+02 0. -1.
</event>
<event>
 5    1  0.1145138E-008  0.3858702E+03  0.7957747E-01  0.3425990E+00
         13   -1    0    0    0    0  0.00000000000E+00  0.00000000000E+00  0.14999999963E+04  0.15000000000E+04  0.10566000000E+00 0. -1.
        994   -1    0    0    0    0 -0.00000000000E+00 -0.00000000000E+00  0.11368683772E-12  0.17120000000E+03  0.17120000000E+03 0.  0.
         13    1    1    2    0    0 -0.13620426571E+02  0.45276938496E+01  0.84589970922E+02  0.85799128062E+02  0.10566000000E+00 0. -1.
        994    1    1    2    0    0  0.85580463423E+01 -0.14126031161E+02  0.20937720294E+01  0.17200758354E+03  0.17120000000E+03 0.  0.
        998    1    1    2    0    0  0.50623802291E+01  0.95983373118E+01  0.14133162533E+04  0.14133932884E+04  0.10000000000E+02 0. -1.
</event>
<event>
 5    1  0.1145138E-008  0.3777982E+03  0.7957747E-01  0.3460802E+00
         13   -1    0    0    0    0  0.00000000000E+00  0.00000000000E+00  0.14999999963E+04  0.15000000000E+04  0.10566000000E+00 0.  1.
        994   -1    0    0    0    0 -0.00000000000E+00 -0.00000000000E+00  0.11368683772E-12  0.17120000000E+03  0.17120000000E+03 0.  0.
         13    1    1    2    0    0  0.11519696943E+02  0.64012871285E+01  0.14317178014E+02  0.19459512967E+02  0.10566000000E+00 0.  1.
        994    1    1    2    0    0  0.23124088000E+01 -0.18921647687E+02  0.64733675098E+01  0.17237958253E+03  0.17120000000E+03 0.  0.
        998    1    1    2    0    0 -0.13832105743E+02  0.12520360559E+02  0.14792094508E+04  0.14793609045E+04  0.10000000000E+02 0.  1.
</event>
<event>
 5    1  0.1145138E-008  0.3761934E+03  0.7957747E-01  0.3467902E+00
         13   -1    0    0    0    0  0.00000000000E+00  0.00000000000E+00  0.14999999963E+04  0.15000000000E+04  0.10566000000E+00 0.  1.
        994   -1    0    0    0    0 -0.00000000000E+00 -0.00000000000E+00  0.11368683772E-12  0.17120000000E+03  0.17120000000E+03 0.  0.
         13    1    1    2    0    0 -0.12842029601E+02 -0.28500410092E+02  0.80215542995E+02  0.86091437447E+02  0.10566000000E+00 0.  1.
        994    1    1    2    0    0  0.35300349980E+02 -0.72755055345E+00  0.10299379285E+02  0.17510614282E+03  0.17120000000E+03 0.  0.
        998    1    1    2    0    0 -0.22458320379E+02  0.29227960645E+02  0.14094850740E+04  0.14100024197E+04  0.10000000000E+02 0.  1.
</event>
<event>
 5    1  0.1145138E-008  0.3803843E+03  0.7957747E-01  0.3449487E+00
         13   -1    0    0    0    0  0.00000000000E+00  0.00000000000E+00  0.14999999963E+04  0.15000000000E+04  0.10566000000E+00 0.  1.
        994   -1    0    0    0    0 -0.00000000000E+00 -0.00000000000E+00  0.11368683772E-12  0.17120000000E+03  0.17120000000E+03 0.  0.
         13    1    1    2    0    0  0.41547615888E+01 -0.15132509877E+02  0.30015826491E+02  0.33870575770E+02  0.10566000000E+00 0.  1.
        994    1    1    2    0    0 -0.25362509886E+01  0.69391361507E+01  0.41215467556E+01  0.17140890096E+03  0.17120000000E+03 0.  0.
        998    1    1    2    0    0 -0.16185106002E+01  0.81933737265E+01  0.14658626230E+04  0.14659205233E+04  0.10000000000E+02 0.  1.
</event>
<event>
 5    1  0.1145138E-008  0.3850338E+03  0.7957747E-01  0.3429529E+00
         13   -1    0    0    0    0  0.00000000000E+00  0.00000000000E+00  0.14999999963E+04  0.15000000000E+04  0.10566000000E+00 0. -1.
        994   -1    0    0    0    0 -0.00000000000E+00 -0.00000000000E+00  0.11368683772E-12  0.17120000000E+03  0.17120000000E+03 0.  0.
         13    1    1    2    0    0  0.15314923693E+02 -0.27371634677E+01  0.75443705587E+02  0.77031180883E+02  0.10566000000E+00 0. -1.
        994    1    1    2    0    0 -0.10792338573E+02 -0.62411130077E+01  0.21246249410E+01  0.17166647924E+03  0.17120000000E+03 0.  0.
        998    1    1    2    0    0 -0.45225851196E+01  0.89782764753E+01  0.14224316658E+04  0.14225023399E+04  0.10000000000E+02 0. -1.
</event>
<event>
 5    1  0.1145138E-008  0.3745588E+03  0.7957747E-01  0.3475198E+00
         13   -1    0    0    0    0  0.00000000000E+00  0.00000000000E+00  0.14999999963E+04  0.15000000000E+04  0.10566000000E+00 0.  1.
        994   -1    0    0    0    0 -0.00000000000E+00 -0.00000000000E+00  0.11368683772E-12  0.17120000000E+03  0.17120000000E+03 0.  0.
         13    1    1    2    0    0 -0.13637462308E+02 -0.12507661409E+02  0.21952840902E+02  0.28711676367E+02  0.10566000000E+00 0.  1.
        994    1    1    2    0    0  0.92253129273E+01  0.66180396737E+01  0.73444200302E+01  0.17173318070E+03  0.17120000000E+03 0.  0.
        998    1    1    2    0    0  0.44121493811E+01  0.58896217354E+01  0.14707027353E+04  0.14707551429E+04  0.10000000000E+02 0.  1.
</event>
<event>
 5    1  0.1145138E-008  0.3769761E+03  0.7957747E-01  0.3464432E+00
         13   -1    0    0    0    0  0.00000000000E+00  0.00000000000E+00  0.14999999963E+04  0.15000000000E+04  0.10566000000E+00 0.  1.
        994   -1    0    0    0    0 -0.00000000000E+00 -0.00000000000E+00  0.11368683772E-12  0.17120000000E+03  0.17120000000E+03 0.  0.
         13    1    1    2    0    0 -0.69833962768E+01  0.28392199510E+02  0.83523995305E+02  0.88493806407E+02  0.10566000000E+00 0.  1.
        994    1    1    2    0    0  0.72241622460E+01  0.14840408783E+02  0.65878767380E+01  0.17211991858E+03  0.17120000000E+03 0.  0.
        998    1    1    2    0    0 -0.24076596914E+00 -0.43232608293E+02  0.14098881242E+04  0.14105862750E+04  0.10000000000E+02 0.  1.
</event>
<event>
 5    1  0.1145138E-008  0.3844092E+03  0.7957747E-01  0.3432182E+00
         13   -1    0    0    0    0  0.00000000000E+00  0.00000000000E+00  0.14999999963E+04  0.15000000000E+04  0.10566000000E+00 0. -1.
        994   -1    0    0    0    0 -0.00000000000E+00 -0.00000000000E+00  0.11368683772E-12  0.17120000000E+03  0.17120000000E+03 0.  0.
         13    1    1    2    0    0 -0.15593587675E+02 -0.12946409124E+02  0.10380771400E+03  0.10576777456E+03  0.10566000000E+00 0. -1.
        994    1    1    2    0    0  0.14162319777E+02  0.83521215678E+01  0.28149857209E+01  0.17201073624E+03  0.17120000000E+03 0.  0.
        998    1    1    2    0    0  0.14312678973E+01  0.45942875566E+01  0.13933772966E+04  0.13934214892E+04  0.10000000000E+02 0. -1.
</event>
<event>
 5    1  0.1145138E-008  0.3711739E+03  0.7957747E-01  0.3490513E+00
         13   -1    0    0    0    0  0.00000000000E+00  0.00000000000E+00  0.14999999963E+04  0.15000000000E+04  0.10566000000E+00 0.  1.
        994   -1    0    0    0    0 -0.00000000000E+00 -0.00000000000E+00  0.11368683772E-12  0.17120000000E+03  0.17120000000E+03 0.  0.
         13    1    1    2    0    0 -0.15761784877E+02 -0.60650188545E+02  0.15428550223E+03  0.16652599375E+03  0.10566000000E+00 0.  1.
        994    1    1    2    0    0  0.17953736196E+02  0.52924928221E+02  0.22607220644E+02  0.18150457596E+03  0.17120000000E+03 0.  0.
        998    1    1    2    0    0 -0.21919513195E+01  0.77252603241E+01  0.13231072734E+04  0.13231694303E+04  0.10000000000E+02 0.  1.
</event>
<event>
 5    1  0.1145138E-008  0.3767270E+03  0.7957747E-01  0.3465535E+00
         13   -1    0    0    0    0  0.00000000000E+00  0.00000000000E+00  0.14999999963E+04  0.15000000000E+04  0.10566000000E+00 0. -1.
        994   -1    0    0    0    0 -0.00000000000E+00 -0.00000000000E+00  0.11368683772E-12  0.17120000000E+03  0.17120000000E+03 0.  0.
         13    1    1    2    0    0  0.91148092500E+02  0.27340695159E+01  0.49947148524E+03  0.50772751121E+03  0.10566000000E+00 0. -1.
        994    1    1    2    0    0 -0.86549777247E+02 -0.21391143447E+02  0.33146940746E+02  0.19584842261E+03  0.17120000000E+03 0.  0.
        998    1    1    2    0    0 -0.45983152529E+01  0.18657073931E+02  0.96738157029E+03  0.96762406618E+03  0.10000000000E+02 0. -1.
</event>
<event>
 5    1  0.1145138E-008  0.3830942E+03  0.7957747E-01  0.3437796E+00
         13   -1    0    0    0    0  0.00000000000E+00  0.00000000000E+00  0.14999999963E+04  0.15000000000E+04  0.10566000000E+00 0. -1.
        994   -1    0    0    0    0 -0.00000000000E+00 -0.00000000000E+00  0.11368683772E-12  0.17120000000E+03  0.17120000000E+03 0.  0.
         13    1    1    2    0    0 -0.15383446218E+02 -0.65101962591E+01  0.48396276016E+02  0.51198083647E+02  0.10566000000E+00 0. -1.
        994    1    1    2    0    0  0.25932123856E+02  0.23179421287E+02  0.65928577759E+01  0.17482181326E+03  0.17120000000E+03 0.  0.
        998    1    1    2    0    0 -0.10548677638E+02 -0.16669225028E+02  0.14450108625E+04  0.14451801031E+04  0.10000000000E+02 0. -1.
</event>
<event>
 5    1  0.1145138E-008  0.3819196E+03  0.7957747E-01  0.3442843E+00
         13   -1    0    0    0    0  0.00000000000E+00  0.00000000000E+00  0.14999999963E+04  0.15000000000E+04  0.10566000000E+00 0. -1.
        994   -1    0    0    0    0 -0.00000000000E+00 -0.00000000000E+00  0.11368683772E-12  0.17120000000E+03  0.17120000000E+03 0.  0.
         13    1    1    2    0    0 -0.21959362197E+02 -0.20618441292E+01  0.77312105846E+02  0.80396751574E+02  0.10566000000E+00 0. -1.
        994    1    1    2    0    0  0.10680179428E+02 -0.69141726506E+01  0.37051775573E+01  0.17171208565E+03  0.17120000000E+03 0.  0.
        998    1    1    2    0    0  0.11279182769E+02  0.89760167798E+01  0.14189827129E+04  0.14190911628E+04  0.10000000000E+02 0. -1.
</event>
<event>
 5    1  0.1145138E-008  0.3808419E+03  0.7957747E-01  0.3447501E+00
         13   -1    0    0    0    0  0.00000000000E+00  0.00000000000E+00  0.14999999963E+04  0.15000000000E+04  0.10566000000E+00 0. -1.
        994   -1    0    0    0    0 -0.00000000000E+00 -0.00000000000E+00  0.11368683772E-12  0.17120000000E+03  0.17120000000E+03 0.  0.
         13    1    1    2    0    0 -0.13627221862E+02 -0.19879058000E+02  0.83056767246E+02  0.86483038060E+02  0.10566000000E+00 0. -1.
        994    1    1    2    0    0 -0.75130383618E+01  0.51231043821E+01  0.39844571844E+01  0.17148763175E+03  0.17120000000E+03 0.  0.
        998    1    1    2    0    0  0.21140260224E+02  0.14755953618E+02  0.14129587718E+04  0.14132293302E+04  0.10000000000E+02 0. -1.
</event>
<event>
 5    1  0.1145138E-008  0.3744258E+03  0.7957747E-01  0.3475795E+00
         13   -1    0    0    0    0  0.00000000000E+00  0.00000000000E+00  0.14999999963E+04  0.15000000000E+04  0.10566000000E+00 0. -1.
        994   -1    0    0    0    0 -0.00000000000E+00 -0.00000000000E+00  0.11368683772E-12  0.17120000000E+03  0.17120000000E+03 0.  0.
         13    1    1    2    0    0  0.70434101188E+00  0.29045373209E+02  0.59611451412E+02  0.66314901075E+02  0.10566000000E+00 0. -1.
        994    1    1    2    0    0  0.74356829193E+01 -0.10094211304E+02  0.75093958826E+01  0.17182262223E+03  0.17120000000E+03 0.  0.
        998    1    1    2    0    0 -0.81400239312E+01 -0.18951161905E+02  0.14328791490E+04  0.14330624767E+04  0.10000000000E+02 0. -1.
</event>
<event>
 5    1  0.1145138E-008  0.3745890E+03  0.7957747E-01  0.3475063E+00
         13   -1    0    0    0    0  0.00000000000E+00  0.00000000000E+00  0.14999999963E+04  0.15000000000E+04  0.10566000000E+00 0. -1.
        994   -1    0    0    0    0 -0.00000000000E+00 -0.00000000000E+00  0.11368683772E-12  0.17120000000E+03  0.17120000000E+03 0.  0.
         13    1    1    2    0    0 -0.55710646744E+02 -0.40391070852E+02  0.39148040351E+03  0.39748211565E+03  0.10566000000E+00 0. -1.
        994    1    1    2    0    0  0.43597291393E+02 -0.14524941876E+02  0.14112181554E+02  0.17782095327E+03  0.17120000000E+03 0.  0.
        998    1    1    2    0    0  0.12113355351E+02  0.54916012728E+02  0.10944074112E+04  0.10958969311E+04  0.10000000000E+02 0. -1.
</event>
<event>
 5    1  0.1145138E-008  0.3770641E+03  0.7957747E-01  0.3464043E+00
         13   -1    0    0    0    0  0.00000000000E+00  0.00000000000E+00  0.14999999963E+04  0.15000000000E+04  0.10566000000E+00 0. -1.
        994   -1    0    0    0    0 -0.00000000000E+00 -0.00000000000E+00  0.11368683772E-12  0.17120000000E+03  0.17120000000E+03 0.  0.
         13    1    1    2    0    0 -0.62134949451E+02 -0.11290854018E+02  0.30192261217E+03  0.30845665860E+03  0.10566000000E+00 0. -1.
        994    1    1    2    0    0  0.54211590959E+02  0.11922320450E+02  0.16094857487E+02  0.18069178940E+03  0.17120000000E+03 0.  0.
        998    1    1    2    0    0  0.79233584920E+01 -0.63146643207E+00  0.11819825266E+04  0.11820515520E+04  0.10000000000E+02 0. -1.
</event>
<event>
 5    1  0.1145138E-008  0.3848492E+03  0.7957747E-01  0.3430312E+00
         13   -1    0    0    0    0  0.00000000000E+00  0.00000000000E+00  0.14999999963E+04  0.15000000000E+04  0.10566000000E+00 0.  1.
        994   -1    0    0    0    0 -0.00000000000E+00 -0.00000000000E+00  0.11368683772E-12  0.17120000000E+03  0.17120000000E+03 0.  0.
         13    1    1    2    0    0  0.11050265848E+02 -0.38314946423E+01  0.39776465016E+02  0.41460427636E+02  0.10566000000E+00 0.  1.
        994    1    1    2    0    0 -0.68378402497E+01  0.65888347317E+01  0.20017635544E+01  0.17147482573E+03  0.17120000000E+03 0.  0.
        998    1    1    2    0    0 -0.42124255986E+01 -0.27573400894E+01  0.14582217677E+04  0.14582647466E+04  0.10000000000E+02 0.  1.
</event>
<event>
 5    1  0.1145138E-008  0.3719632E+03  0.7957747E-01  0.3486917E+00
         13   -1    0    0    0    0  0.00000000000E+00  0.00000000000E+00  0.14999999963E+04  0.15000000000E+04  0.10566000000E+00 0. -1.
        994   -1    0    0    0    0 -0.00000000000E+00 -0.00000000000E+00  0.11368683772E-12  0.17120000000E+03  0.17120000000E+03 0.  0.
         13    1    1    2    0    0 -0.51324897720E+02  0.43324496541E+01  0.14236333269E+03  0.15139466603E+03  0.10566000000E+00 0. -1.
        994    1    1    2    0    0  0.54153346613E+02  0.24678636965E+01  0.18407475224E+02  0.18051855983E+03  0.17120000000E+03 0.  0.
        998    1    1    2    0    0 -0.28284488932E+01 -0.68003133506E+01  0.13392291884E+04  0.13392867741E+04  0.10000000000E+02 0. -1.
</event>
<event>
 5    1  0.1145138E-008  0.3780408E+03  0.7957747E-01  0.3459734E+00
         13   -1    0    0    0    0  0.00000000000E+00  0.00000000000E+00  0.14999999963E+04  0.15000000000E+04  0.10566000000E+00 0. -1.
        994   -1    0    0    0    0 -0.00000000000E+00 -0.00000000000E+00  0.11368683772E-12  0.17120000000E+03  0.17120000000E+03 0.  0.
         13    1    1    2    0    0  0.15498465943E+02  0.64714147520E+02  0.39211440597E+03  0.39772080894E+03  0.10566000000E+00 0. -1.
        994    1    1    2    0    0 -0.16072552602E+02 -0.44795863673E+02  0.12784618247E+02  0.17815129192E+03  0.17120000000E+03 0.  0.
        998    1    1    2    0    0  0.57408665989E+00 -0.19918283847E+02  0.10951009721E+04  0.10953278991E+04  0.10000000000E+02 0. -1.
</event>
<event>
 5    1  0.1145138E-008  0.3696245E+03  0.7957747E-01  0.3497619E+00
         13   -1    0    0    0    0  0.00000000000E+00  0.00000000000E+00  0.14999999963E+04  0.15000000000E+04  0.10566000000E+00 0. -1.
        994   -1    0    0    0    0 -0.00000000000E+00 -0.00000000000E+00  0.11368683772E-12  0.17120000000E+03  0.17120000000E+03 0.  0.
         13    1    1    2    0    0 -0.21182925116E+02  0.27204508450E+02  0.64675868935E+02  0.73292433328E+02  0.10566000000E+00 0. -1.
        994    1    1    2    0    0 -0.40038104027E+01  0.39972996552E+01  0.95763289773E+01  0.17156093663E+03  0.17120000000E+03 0.  0.
        998    1    1    2    0    0  0.25186735519E+02 -0.31201808105E+02  0.14257477984E+04  0.14263466300E+04  0.10000000000E+02 0. -1.
</event>
<event>
 5    1  0.1145138E-008  0.3845795E+03  0.7957747E-01  0.3431458E+00
         13   -1    0    0    0    0  0.00000000000E+00  0.00000000000E+00  0.14999999963E+04  0.15000000000E+04  0.10566000000E+00 0. -1.
        994   -1    0    0    0    0 -0.00000000000E+00 -0.00000000000E+00  0.11368683772E-12  0.17120000000E+03  0.17120000000E+03 0.  0.
         13    1    1    2    0    0 -0.28407735832E+01  0.17975523743E+02  0.94391560571E+02  0.96129950169E+02  0.10566000000E+00 0. -1.
        994    1    1    2    0    0 -0.11834361086E+02 -0.70544280952E+01  0.24644114988E+01  0.17177115701E+03  0.17120000000E+03 0.  0.
        998    1    1    2    0    0  0.14675134669E+02 -0.10921095648E+02  0.14031440242E+04  0.14032988928E+04  0.10000000000E+02 0. -1.
</event>
<event>
 5    1  0.1145138E-008  0.3743674E+03  0.7957747E-01  0.3476057E+00
         13   -1    0    0    0    0  0.00000000000E+00  0.00000000000E+00  0.14999999963E+04  0.15000000000E+04  0.10566000000E+00 0.  1.
        994   -1    0    0    0    0 -0.00000000000E+00 -0.00000000000E+00  0.11368683772E-12  0.17120000000E+03  0.17120000000E+03 0.  0.
         13    1    1    2    0    0 -0.20191599481E+02 -0.24725064576E+02  0.62816939745E+02  0.70462817080E+02  0.10566000000E+00 0.  1.
        994    1    1    2    0    0  0.67884059730E+02  0.12312143471E+02  0.23395277753E+02  0.18605540428E+03  0.17120000000E+03 0.  0.
        998    1    1    2    0    0 -0.47692460249E+02  0.12412921104E+02  0.14137877788E+04  0.14146817786E+04  0.10000000000E+02 0.  1.
</event>
<event>
 5    1  0.1145138E-008  0.3774305E+03  0.7957747E-01  0.3462424E+00
         13   -1    0    0    0    0  0.00000000000E+00  0.00000000000E+00  0.14999999963E+04  0.15000000000E+04  0.10566000000E+00 0. -1.
        994   -1    0    0    0    0 -0.00000000000E+00 -0.00000000000E+00  0.11368683772E-12  0.17120000000E+03  0.17120000000E+03 0.  0.
         13    1    1    2    0    0 -0.10631087246E+02 -0.63956526164E+01  0.11622848421E+02  0.17000769331E+02  0.10566000000E+00 0. -1.
        994    1    1    2    0    0  0.12920040488E+02  0.45799825352E+01  0.60696533452E+01  0.17185512613E+03  0.17120000000E+03 0.  0.
        998    1    1    2    0    0 -0.22889532420E+01  0.18156700813E+01  0.14823074945E+04  0.14823441045E+04  0.10000000000E+02 0. -1.
</event>
<event>
 5    1  0.1145138E-008  0.3828076E+03  0.7957747E-01  0.3439024E+00
         13   -1    0    0    0    0  0.00000000000E+00  0.00000000000E+00  0.14999999963E+04  0.15000000000E+04  0.10566000000E+00 0.  1.
        994   -1    0    0    0    0 -0.00000000000E+00 -0.00000000000E+00  0.11368683772E-12  0.17120000000E+03  0.17120000000E+03 0.  0.
         13    1    1    2    0    0  0.13877732019E+02 -0.45097938914E+01  0.37926550935E+02  0.40636979671E+02  0.10566000000E+00 0.  1.
        994    1    1    2    0    0 -0.11684112183E+02  0.19694148417E+01  0.31877104476E+01  0.17163915221E+03  0.17120000000E+03 0.  0.
        998    1    1    2    0    0 -0.21936198351E+01  0.25403790497E+01  0.14588857349E+04  0.14589238681E+04  0.10000000000E+02 0.  1.
</event>
<event>
 5    1  0.1145138E-008  0.3804796E+03  0.7957747E-01  0.3449073E+00
         13   -1    0    0    0    0  0.00000000000E+00  0.00000000000E+00  0.14999999963E+04  0.15000000000E+04  0.10566000000E+00 0. -1.
        994   -1    0    0    0    0 -0.00000000000E+00 -0.00000000000E+00  0.11368683772E-12  0.17120000000E+03  0.17120000000E+03 0.  0.
         13    1    1    2    0    0  0.10124017242E+02 -0.53863413857E+00  0.11430507974E+02  0.15279186118E+02  0.10566000000E+00 0. -1.
        994    1    1    2    0    0 -0.10425154536E+02 -0.51639250543E+01  0.43431439810E+01  0.17164979717E+03  0.17120000000E+03 0.  0.
        998    1    1    2    0    0  0.30113729436E+00  0.57025591928E+01  0.14842263443E+04  0.14842710167E+04  0.10000000000E+02 0. -1.
</event>
<event>
 5    1  0.1145138E-008  0.3772258E+03  0.7957747E-01  0.3463328E+00
         13   -1    0    0    0    0  0.00000000000E+00  0.00000000000E+00  0.14999999963E+04  0.15000000000E+04  0.10566000000E+00 0. -1.
        994   -1    0    0    0    0 -0.00000000000E+00 -0.00000000000E+00  0.11368683772E-12  0.17120000000E+03  0.17120000000E+03 0.  0.
         13    1    1    2    0    0 -0.15045738366E+02  0.36932475951E+01  0.19026451296E+02  0.24536326818E+02  0.10566000000E+00 0. -1.
        994    1    1    2    0    0  0.15841332611E+02 -0.44541337626E+01  0.64542871425E+01  0.17211009543E+03  0.17120000000E+03 0.  0.
        998    1    1    2    0    0 -0.79559424434E+00  0.76088616755E+00  0.14745192578E+04  0.14745535778E+04  0.10000000000E+02 0. -1.
</event>
<event>
 5    1  0.1145138E-008  0.3856926E+03  0.7957747E-01  0.3426740E+00
         13   -1    0    0    0    0  0.00000000000E+00  0.00000000000E+00  0.14999999963E+04  0.15000000000E+04  0.10566000000E+00 0. -1.
        994   -1    0    0    0    0 -0.00000000000E+00 -0.00000000000E+00  0.11368683772E-12  0.17120000000E+03  0.17120000000E+03 0.  0.
         13    1    1    2    0    0  0.91352713641E+01  0.53957410304E+01  0.41325773360E+02  0.42666121361E+02  0.10566000000E+00 0. -1.
        994    1    1    2    0    0 -0.18624433396E+02 -0.46551148537E+01  0.24968588741E+01  0.17229107324E+03  0.17120000000E+03 0.  0.
        998    1    1    2    0    0  0.94891620318E+01 -0.74062617669E+00  0.14561773640E+04  0.14562428054E+04  0.10000000000E+02 0. -1.
</event>
<event>
 5    1  0.1145138E-008  0.3823657E+03  0.7957747E-01  0.3440922E+00
         13   -1    0    0    0    0  0.00000000000E+00  0.00000000000E+00  0.14999999963E+04  0.15000000000E+04  0.10566000000E+00 0.  1.
        994   -1    0    0    0    0 -0.00000000000E+00 -0.00000000000E+00  0.11368683772E-12  0.17120000000E+03  0.17120000000E+03 0.  0.
         13    1    1    2    0    0  0.10623011177E+02 -0.13701269078E+01  0.17943438254E+02  0.20897458089E+02  0.10566000000E+00 0.  1.
        994    1    1    2    0    0 -0.14896734601E+02  0.85718099500E+00  0.36825807774E+01  0.17188847798E+03  0.17120000000E+03 0.  0.
        998    1    1    2    0    0  0.42737234247E+01  0.51294591280E+00  0.14783739772E+04  0.14784140639E+04  0.10000000000E+02 0.  1.
</event>
<event>
 5    1  0.1145138E-008  0.3851340E+03  0.7957747E-01  0.3429104E+00
         13   -1    0    0    0    0  0.00000000000E+00  0.00000000000E+00  0.14999999963E+04  0.15000000000E+04  0.10566000000E+00 0.  1.
        994   -1    0    0    0    0 -0.00000000000E+00 -0.00000000000E+00  0.11368683772E-12  0.17120000000E+03  0.17120000000E+03 0.  0.
         13    1    1    2    0    0  0.77795013942E+01  0.14333722914E+02  0.82329957481E+02  0.83929788022E+02  0.10566000000E+00 0.  1.
        994    1    1    2    0    0 -0.10851418777E+02 -0.11559889738E+02  0.23904394753E+01  0.17194923245E+03  0.17120000000E+03 0.  0.
        998    1    1    2    0    0  0.30719173826E+01 -0.27738331762E+01  0.14152795993E+04  0.14153209795E+04  0.10000000000E+02 0.  1.
</event>
<event>
 5    1  0.1145138E-008  0.3847804E+03  0.7957747E-01  0.3430604E+00
         13   -1    0    0    0    0  0.00000000000E+00  0.00000000000E+00  0.14999999963E+04  0.15000000000E+04  0.10566000000E+00 0.  1.
        994   -1    0    0    0    0 -0.00000000000E+00 -0.00000000000E+00  0.11368683772E-12  0.17120000000E+03  0.17120000000E+03 0.  0.
         13    1    1    2    0    0 -0.60251855862E+01 -0.11979480388E+02  0.49682398777E+02  0.51460302409E+02  0.10566000000E+00 0.  1.
        994    1    1    2    0    0  0.65390499988E+01  0.14378403213E+02  0.25607120161E+01  0.17194619769E+03  0.17120000000E+03 0.  0.
        998    1    1    2    0    0 -0.51386441269E+00 -0.23989228248E+01  0.14477568855E+04  0.14477934999E+04  0.10000000000E+02 0.  1.
</event>
<event>
 5    1  0.1399345E-008  0.3852576E+03  0.7957747E-01  0.3428581E+00
         13   -1    0    0    0    0  0.00000000000E+00  0.00000000000E+00  0.14999999963E+04  0.15000000000E+04  0.10566000000E+00 0.  1.
        994   -1    0    0    0    0 -0.00000000000E+00 -0.00000000000E+00  0.11368683772E-12  0.17120000000E+03  0.17120000000E+03 0.  0.
         13    1    1    2    0    0  0.14543458369E+02  0.10445818963E-01  0.79992261692E+02  0.81303661573E+02  0.10566000000E+00 0.  1.
        994    1    1    2    0    0  0.71865258524E+01  0.90545493697E+00  0.16747359658E+01  0.17136134553E+03  0.17120000000E+03 0.  0.
        998    1    1    2    0    0 -0.21729984222E+02 -0.91590075594E+00  0.14183329986E+04  0.14185349929E+04  0.10000000000E+02 0.  1.
</event>
<event>
 5    1  0.1145138E-008  0.3768198E+03  0.7957747E-01  0.3465124E+00
         13   -1    0    0    0    0  0.00000000000E+00  0.00000000000E+00  0.14999999963E+04  0.15000000000E+04  0.10566000000E+00 0.  1.
        994   -1    0    0    0    0 -0.00000000000E+00 -0.00000000000E+00  0.11368683772E-12  0.17120000000E+03  0.17120000000E+03 0.  0.
         13    1    1    2    0    0 -0.13436551515E+02 -0.45484034366E+00  0.13010711745E+02  0.18709291288E+02  0.10566000000E+00 0.  1.
        994    1    1    2    0    0  0.15457804779E+02  0.10433183916E+01  0.65585139854E+01  0.17202466785E+03  0.17120000000E+03 0.  0.
        998    1    1    2    0    0 -0.20212532640E+01 -0.58847804790E+00  0.14804307705E+04  0.14804660409E+04  0.10000000000E+02 0.  1.
</event>
<event>
 5    1  0.1145138E-008  0.3840451E+03  0.7957747E-01  0.3433732E+00
         13   -1    0    0    0    0  0.00000000000E+00  0.00000000000E+00  0.14999999963E+04  0.15000000000E+04  0.10566000000E+00 0.  1.
        994   -1    0    0    0    0 -0.00000000000E+00 -0.00000000000E+00  0.11368683772E-12  0.17120000000E+03  0.17120000000E+03 0.  0.
         13    1    1    2    0    0  0.11117034639E+02  0.10799619016E+02  0.55689415990E+02  0.57806076216E+02  0.10566000000E+00 0.  1.
        994    1    1    2    0    0 -0.86099775642E+01 -0.10388534899E+02  0.27057675477E+01  0.17175218936E+03  0.17120000000E+03 0.  0.
        998    1    1    2    0    0 -0.25070570747E+01 -0.41108411716E+00  0.14416048127E+04  0.14416417344E+04  0.10000000000E+02 0.  1.
</event>
<event>
 5    1  0.1145138E-008  0.3845550E+03  0.7957747E-01  0.3431562E+00
         13   -1    0    0    0    0  0.00000000000E+00  0.00000000000E+00  0.14999999963E+04  0.15000000000E+04  0.10566000000E+00 0.  1.
        994   -1    0    0    0    0 -0.00000000000E+00 -0.00000000000E+00  0.11368683772E-12  0.17120000000E+03  0.17120000000E+03 0.  0.
         13    1    1    2    0    0 -0.10868310146E+02 -0.12058460716E+02  0.76085369943E+02  0.77797951925E+02  0.10566000000E+00 0.  1.
        994    1    1    2    0    0  0.62475586585E+01 -0.56089970768E+01  0.20834274496E+01  0.17141841648E+03  0.17120000000E+03 0.  0.
        998    1    1    2    0    0  0.46207514876E+01  0.17667457793E+02  0.14218311989E+04  0.14219836316E+04  0.10000000000E+02 0.  1.
</event>
<event>
 5    1  0.1145138E-008  0.3726461E+03  0.7957747E-01  0.3483818E+00
         13   -1    0    0    0    0  0.00000000000E+00  0.00000000000E+00  0.14999999963E+04  0.15000000000E+04  0.10566000000E+00 0. -1.
        994   -1    0    0    0    0 -0.00000000000E+00 -0.00000000000E+00  0.11368683772E-12  0.17120000000E+03  0.17120000000E+03 0.  0.
         13    1    1    2    0    0  0.13537374883E+03 -0.73701392988E+02  0.68715973187E+03  0.70423465938E+03  0.10566000000E+00 0. -1.
        994    1    1    2    0    0 -0.13899585244E+03  0.77169042405E+02  0.10016037288E+03  0.25419765616E+03  0.17120000000E+03 0.  0.
        998    1    1    2    0    0  0.36221036085E+01 -0.34676494171E+01  0.71267989153E+03  0.71276768446E+03  0.10000000000E+02 0.  0.
</event>
<event>
 5    1  0.1145138E-008  0.3796944E+03  0.7957747E-01  0.3452490E+00
         13   -1    0    0    0    0  0.00000000000E+00  0.00000000000E+00  0.14999999963E+04  0.15000000000E+04  0.10566000000E+00 0.  1.
        994   -1    0    0    0    0 -0.00000000000E+00 -0.00000000000E+00  0.11368683772E-12  0.17120000000E+03  0.17120000000E+03 0.  0.
         13    1    1    2    0    0  0.24789515592E+03 -0.58513979652E+02  0.10329124909E+04  0.10638534294E+04  0.10566000000E+00 0.  1.
        994    1    1    2    0    0 -0.24938126826E+03  0.55243244011E+02  0.26775643293E+03  0.40773248625E+03  0.17120000000E+03 0.  0.
        998    1    1    2    0    0  0.14861123382E+01  0.32707356409E+01  0.19933107244E+03  0.19961408438E+03  0.10000000000E+02 0. -1.
</event>
<event>
 5    1  0.1145138E-008  0.3775048E+03  0.7957747E-01  0.3462096E+00
         13   -1    0    0    0    0  0.00000000000E+00  0.00000000000E+00  0.14999999963E+04  0.15000000000E+04  0.10566000000E+00 0. -1.
        994   -1    0    0    0    0 -0.00000000000E+00 -0.00000000000E+00  0.11368683772E-12  0.17120000000E+03  0.17120000000E+03 0.  0.
         13    1    1    2    0    0 -0.17675364753E+02 -0.10301835529E+02  0.72888152804E+01  0.21718294745E+02  0.10566000000E+00 0. -1.
        994    1    1    2    0    0  0.16400396946E+02  0.12257637614E+02  0.16470056877E+02  0.17320486562E+03  0.17120000000E+03 0.  0.
        998    1    1    2    0    0  0.12749678065E+01 -0.19558020853E+01  0.14762411241E+04  0.14762768396E+04  0.10000000000E+02 0. -1.
</event>
<event>
 5    1  0.1145138E-008  0.3853463E+03  0.7957747E-01  0.3428205E+00
         13   -1    0    0    0    0  0.00000000000E+00  0.00000000000E+00  0.14999999963E+04  0.15000000000E+04  0.10566000000E+00 0.  1.
        994   -1    0    0    0    0 -0.00000000000E+00 -0.00000000000E+00  0.11368683772E-12  0.17120000000E+03  0.17120000000E+03 0.  0.
         13    1    1    2    0    0 -0.64679971279E+02  0.47001828047E+02  0.13653271809E+03  0.15822093666E+03  0.10566000000E+00 0.  1.
        994    1    1    2    0    0  0.76164344900E+02 -0.59420026938E+02  0.54670013945E+02  0.20403430462E+03  0.17120000000E+03 0.  0.
        998    1    1    2    0    0 -0.11484373621E+02  0.12418198891E+02  0.13087972642E+04  0.13089447587E+04  0.10000000000E+02 0.  1.
</event>
<event>
 5    1  0.1145138E-008  0.3846270E+03  0.7957747E-01  0.3431256E+00
         13   -1    0    0    0    0  0.00000000000E+00  0.00000000000E+00  0.14999999963E+04  0.15000000000E+04  0.10566000000E+00 0. -1.
        994   -1    0    0    0    0 -0.00000000000E+00 -0.00000000000E+00  0.11368683772E-12  0.17120000000E+03  0.17120000000E+03 0.  0.
         13    1    1    2    0    0 -0.11884783563E+02  0.14017728116E+02  0.85949975177E+02  0.87892856245E+02  0.10566000000E+00 0. -1.
        994    1    1    2    0    0  0.12782346138E+02 -0.19484087292E+02  0.36054579436E+01  0.17281625316E+03  0.17120000000E+03 0.  0.
        998    1    1    2    0    0 -0.89756257471E+00  0.54663591758E+01  0.14104445632E+04  0.14104908906E+04  0.10000000000E+02 0. -1.
</event>
<event>
 5    1  0.1145138E-008  0.3836454E+03  0.7957747E-01  0.3435438E+00
         13   -1    0    0    0    0  0.00000000000E+00  0.00000000000E+00  0.14999999963E+04  0.15000000000E+04  0.10566000000E+00 0. -1.
        994   -1    0    0    0    0 -0.00000000000E+00 -0.00000000000E+00  0.11368683772E-12  0.17120000000E+03  0.17120000000E+03 0.  0.
         13    1    1    2    0    0 -0.10055584740E+01  0.13028815519E+02  0.36028068840E+02  0.38324849511E+02  0.10566000000E+00 0. -1.
        994    1    1    2    0    0  0.10478314871E+02 -0.10584003217E+02  0.30372007027E+01  0.17187344412E+03  0.17120000000E+03 0.  0.
        998    1    1    2    0    0 -0.94727563969E+01 -0.24448123014E+01  0.14609347267E+04  0.14610017064E+04  0.10000000000E+02 0. -1.
</event>
<event>
 5    1  0.1145138E-008  0.3050523E+03  0.7957747E-01  0.3860598E+00
         13   -1    0    0    0    0  0.00000000000E+00  0.00000000000E+00  0.14999999963E+04  0.15000000000E+04  0.10566000000E+00 0. -1.
        994   -1    0    0    0    0 -0.00000000000E+00 -0.00000000000E+00  0.11368683772E-12  0.17120000000E+03  0.17120000000E+03 0.  0.
         13    1    1    2    0    0  0.13039445229E+03 -0.14310074295E+03  0.83806881444E+03  0.86013945655E+03  0.10566000000E+00 0. -1.
        994    1    1    2    0    0 -0.11914892549E+02  0.13593245625E+03  0.10734764991E+03  0.24382894674E+03  0.17120000000E+03 0.  0.
        998    1    1    2    0    0 -0.11847955975E+03  0.71682866956E+01  0.55458353193E+03  0.56723159671E+03  0.10000000000E+02 0. -1.
</event>
<event>
 5    1  0.1145138E-008  0.3775623E+03  0.7957747E-01  0.3461842E+00
         13   -1    0    0    0    0  0.00000000000E+00  0.00000000000E+00  0.14999999963E+04  0.15000000000E+04  0.10566000000E+00 0. -1.
        994   -1    0    0    0    0 -0.00000000000E+00 -0.00000000000E+00  0.11368683772E-12  0.17120000000E+03  0.17120000000E+03 0.  0.
         13    1    1    2    0    0 -0.16109750646E+02  0.10857957141E+02  0.54498038433E+01  0.20177483122E+02  0.10566000000E+00 0. -1.
        994    1    1    2    0    0  0.48029526315E+02  0.62600696764E+01  0.23468427378E+02  0.17946094548E+03  0.17120000000E+03 0.  0.
        998    1    1    2    0    0 -0.31919775669E+02 -0.17118026818E+02  0.14710817651E+04  0.14715615714E+04  0.10000000000E+02 0. -1.
</event>
<event>
 5    1  0.1145138E-008  0.3854301E+03  0.7957747E-01  0.3427850E+00
         13   -1    0    0    0    0  0.00000000000E+00  0.00000000000E+00  0.14999999963E+04  0.15000000000E+04  0.10566000000E+00 0.  1.
        994   -1    0    0    0    0 -0.00000000000E+00 -0.00000000000E+00  0.11368683772E-12  0.17120000000E+03  0.17120000000E+03 0.  0.
         13    1    1    2    0    0  0.98093242352E+01 -0.30518330772E+01  0.36945135163E+02  0.38346977760E+02  0.10566000000E+00 0.  1.
        994    1    1    2    0    0 -0.11774582691E+02 -0.79587429760E+01  0.20803578445E+01  0.17180148508E+03  0.17120000000E+03 0.  0.
        998    1    1    2    0    0  0.19652584559E+01  0.11010576053E+02  0.14609745033E+04  0.14610515372E+04  0.10000000000E+02 0.  1.
</event>
<event>
 5    1  0.1145138E-008  0.3852297E+03  0.7957747E-01  0.3428699E+00
         13   -1    0    0    0    0  0.00000000000E+00  0.00000000000E+00  0.14999999963E+04  0.15000000000E+04  0.10566000000E+00 0.  1.
        994   -1    0    0    0    0 -0.00000000000E+00 -0.00000000000E+00  0.11368683772E-12  0.17120000000E+03  0.17120000000E+03 0.  0.
         13    1    1    2    0    0  0.15807877687E+02  0.35376387843E+01  0.93902659139E+02  0.95289686969E+02  0.10566000000E+00 0.  1.
        994    1    1    2    0    0  0.12157926533E+01 -0.86453250743E+01  0.17666549755E+01  0.17143156322E+03  0.17120000000E+03 0.  0.
        998    1    1    2    0    0 -0.17023670341E+02  0.51076862900E+01  0.14043306822E+04  0.14044787498E+04  0.10000000000E+02 0.  1.
</event>
<event>
 5    1  0.1145138E-008  0.3846668E+03  0.7957747E-01  0.3431087E+00
         13   -1    0    0    0    0  0.00000000000E+00  0.00000000000E+00  0.14999999963E+04  0.15000000000E+04  0.10566000000E+00 0. -1.
        994   -1    0    0    0    0 -0.00000000000E+00 -0.00000000000E+00  0.11368683772E-12  0.17120000000E+03  0.17120000000E+03 0.  0.
         13    1    1    2    0    0 -0.55046767256E+01  0.14506366887E+02  0.71751405785E+02  0.73409887224E+02  0.10566000000E+00 0. -1.
        994    1    1    2    0    0  0.77246790655E+01  0.36531497714E+01  0.20360724615E+01  0.17142520748E+03  0.17120000000E+03 0.  0.
        998    1    1    2    0    0 -0.22200023399E+01 -0.18159516659E+02  0.14262125180E+04  0.14263649053E+04  0.10000000000E+02 0. -1.
</event>
<event>
 5    1  0.1145138E-008  0.3690670E+03  0.7957747E-01  0.3500190E+00
         13   -1    0    0    0    0  0.00000000000E+00  0.00000000000E+00  0.14999999963E+04  0.15000000000E+04  0.10566000000E+00 0. -1.
        994   -1    0    0    0    0 -0.00000000000E+00 -0.00000000000E+00  0.11368683772E-12  0.17120000000E+03  0.17120000000E+03 0.  0.
         13    1    1    2    0    0 -0.10778034215E+03 -0.53393007013E+02  0.46870984142E+03  0.48389703653E+03  0.10566000000E+00 0. -1.
        994    1    1    2    0    0  0.10445713077E+03  0.54213102131E+02  0.60394698538E+02  0.21634997625E+03  0.17120000000E+03 0.  0.
        998    1    1    2    0    0  0.33232113815E+01 -0.82009511834E+00  0.97089545632E+03  0.97095298722E+03  0.10000000000E+02 0. -1.
</event>
<event>
 5    1  0.1145138E-008  0.3862068E+03  0.7957747E-01  0.3424570E+00
         13   -1    0    0    0    0  0.00000000000E+00  0.00000000000E+00  0.14999999963E+04  0.15000000000E+04  0.10566000000E+00 0. -1.
        994   -1    0    0    0    0 -0.00000000000E+00 -0.00000000000E+00  0.11368683772E-12  0.17120000000E+03  0.17120000000E+03 0.  0.
         13    1    1    2    0    0 -0.86938700030E+01 -0.58123636006E+01  0.54048100263E+02  0.55050660780E+02  0.10566000000E+00 0. -1.
        994    1    1    2    0    0 -0.35587010806E+01  0.17589034591E+02  0.20878189848E+01  0.17215062439E+03  0.17120000000E+03 0.  0.
        998    1    1    2    0    0  0.12252571084E+02 -0.11776670991E+02  0.14438640770E+04  0.14439987148E+04  0.10000000000E+02 0. -1.
</event>
<event>
 5    1  0.1145138E-008  0.3821669E+03  0.7957747E-01  0.3441777E+00
         13   -1    0    0    0    0  0.00000000000E+00  0.00000000000E+00  0.14999999963E+04  0.15000000000E+04  0.10566000000E+00 0. -1.
        994   -1    0    0    0    0 -0.00000000000E+00 -0.00000000000E+00  0.11368683772E-12  0.17120000000E+03  0.17120000000E+03 0.  0.
         13    1    1    2    0    0  0.58425443700E+01 -0.23323416013E+02  0.11322309606E+03  0.11574799222E+03  0.10566000000E+00 0. -1.
        994    1    1    2    0    0 -0.72797264112E+01 -0.16031277751E+02  0.40728990937E+01  0.17215116842E+03  0.17120000000E+03 0.  0.
        998    1    1    2    0    0  0.14371820411E+01  0.39354693764E+02  0.13827040011E+04  0.13833008394E+04  0.10000000000E+02 0. -1.
</event>
<event>
 5    1  0.1145138E-008  0.3794538E+03  0.7957747E-01  0.3453540E+00
         13   -1    0    0    0    0  0.00000000000E+00  0.00000000000E+00  0.14999999963E+04  0.15000000000E+04  0.10566000000E+00 0.  1.
        994   -1    0    0    0    0 -0.00000000000E+00 -0.00000000000E+00  0.11368683772E-12  0.17120000000E+03  0.17120000000E+03 0.  0.
         13    1    1    2    0    0 -0.12372317639E+03 -0.35828096165E+02  0.44004520066E+03  0.45850939646E+03  0.10566000000E+00 0.  1.
        994    1    1    2    0    0  0.87830918980E+02  0.53615681236E+02  0.55397756393E+02  0.20728546263E+03  0.17120000000E+03 0.  0.
        998    1    1    2    0    0  0.35892257407E+02 -0.17787585071E+02  0.10045570392E+04  0.10054051409E+04  0.10000000000E+02 0.  1.
</event>
<event>
 5    1  0.1145138E-008  0.3705770E+03  0.7957747E-01  0.3493243E+00
         13   -1    0    0    0    0  0.00000000000E+00  0.00000000000E+00  0.14999999963E+04  0.15000000000E+04  0.10566000000E+00 0. -1.
        994   -1    0    0    0    0 -0.00000000000E+00 -0.00000000000E+00  0.11368683772E-12  0.17120000000E+03  0.17120000000E+03 0.  0.
         13    1    1    2    0    0 -0.84406245579E+01  0.14047514475E+02  0.10730023334E+02  0.19588807280E+02  0.10566000000E+00 0. -1.
        994    1    1    2    0    0  0.15493409317E+02 -0.16207268722E+02  0.10704483256E+02  0.17299348905E+03  0.17120000000E+03 0.  0.
        998    1    1    2    0    0 -0.70527847587E+01  0.21597542470E+01  0.14785654897E+04  0.14786177037E+04  0.10000000000E+02 0. -1.
</event>
<event>
 5    1  0.1145138E-008  0.3778121E+03  0.7957747E-01  0.3460741E+00
         13   -1    0    0    0    0  0.00000000000E+00  0.00000000000E+00  0.14999999963E+04  0.15000000000E+04  0.10566000000E+00 0.  1.
        994   -1    0    0    0    0 -0.00000000000E+00 -0.00000000000E+00  0.11368683772E-12  0.17120000000E+03  0.17120000000E+03 0.  0.
         13    1    1    2    0    0 -0.10727974430E+02 -0.70023257258E+02  0.37755845925E+03  0.38414677834E+03  0.10566000000E+00 0.  1.
        994    1    1    2    0    0 -0.29173743680E+01  0.66876175044E+02  0.20481781752E+02  0.18495912317E+03  0.17120000000E+03 0.  0.
        998    1    1    2    0    0  0.13645348798E+02  0.31470822141E+01  0.11019597553E+04  0.11020940985E+04  0.10000000000E+02 0.  1.
</event>
<event>
 5    1  0.1145138E-008  0.3730612E+03  0.7957747E-01  0.3481940E+00
         13   -1    0    0    0    0  0.00000000000E+00  0.00000000000E+00  0.14999999963E+04  0.15000000000E+04  0.10566000000E+00 0. -1.
        994   -1    0    0    0    0 -0.00000000000E+00 -0.00000000000E+00  0.11368683772E-12  0.17120000000E+03  0.17120000000E+03 0.  0.
         13    1    1    2    0    0 -0.63509352050E+01  0.43097200388E+02  0.11647516714E+03  0.12435505130E+03  0.10566000000E+00 0. -1.
        994    1    1    2    0    0 -0.98002587802E+00 -0.35760946525E+02  0.12069309786E+02  0.17531375869E+03  0.17120000000E+03 0.  0.
        998    1    1    2    0    0  0.73309610830E+01 -0.73362538637E+01  0.13714555194E+04  0.13715311900E+04  0.10000000000E+02 0. -1.
</event>
<event>
 5    1  0.1145138E-008  0.3741988E+03  0.7957747E-01  0.3476814E+00
         13   -1    0    0    0    0  0.00000000000E+00  0.00000000000E+00  0.14999999963E+04  0.15000000000E+04  0.10566000000E+00 0.  1.
        994   -1    0    0    0    0 -0.00000000000E+00 -0.00000000000E+00  0.11368683772E-12  0.17120000000E+03  0.17120000000E+03 0.  0.
         13    1    1    2    0    0 -0.30545846825E+02 -0.28654220028E+02  0.15403148111E+03  0.15962400014E+03  0.10566000000E+00 0.  1.
        994    1    1    2    0    0 -0.10451589294E+02 -0.19078626728E+02  0.87053745226E+01  0.17279598740E+03  0.17120000000E+03 0.  0.
        998    1    1    2    0    0  0.40997436118E+02  0.47732846756E+02  0.13372631406E+04  0.13387800125E+04  0.10000000000E+02 0.  1.
</event>
<event>
 5    1  0.1145138E-008  0.3810529E+03  0.7957747E-01  0.3446587E+00
         13   -1    0    0    0    0  0.00000000000E+00  0.00000000000E+00  0.14999999963E+04  0.15000000000E+04  0.10566000000E+00 0.  1.
        994   -1    0    0    0    0 -0.00000000000E+00 -0.00000000000E+00  0.11368683772E-12  0.17120000000E+03  0.17120000000E+03 0.  0.
         13    1    1    2    0    0 -0.22262511035E+02 -0.30386715648E+02  0.17037502596E+03  0.17448963442E+03  0.10566000000E+00 0.  1.
        994    1    1    2    0    0  0.10901786562E+02  0.44130025030E+02  0.10516962276E+02  0.17744394764E+03  0.17120000000E+03 0.  0.
        998    1    1    2    0    0  0.11360724473E+02 -0.13743309381E+02  0.13191080080E+04  0.13192664179E+04  0.10000000000E+02 0.  1.
</event>
<event>
 5    1  0.1145138E-008  0.3816106E+03  0.7957747E-01  0.3444176E+00
         13   -1    0    0    0    0  0.00000000000E+00  0.00000000000E+00  0.14999999963E+04  0.15000000000E+04  0.10566000000E+00 0. -1.
        994   -1    0    0    0    0 -0.00000000000E+00 -0.00000000000E+00  0.11368683772E-12  0.17120000000E+03  0.17120000000E+03 0.  0.
         13    1    1    2    0    0 -0.29877371370E+02  0.36856680492E+01  0.13093346958E+03  0.13434964120E+03  0.10566000000E+00 0. -1.
        994    1    1    2    0    0  0.22040708096E+02 -0.10026873837E+02  0.52744522542E+01  0.17298436594E+03  0.17120000000E+03 0.  0.
        998    1    1    2    0    0  0.78366632735E+01  0.63412057880E+01  0.13637920744E+04  0.13638659929E+04  0.10000000000E+02 0. -1.
</event>
<event>
 5    1  0.1145138E-008  0.3738968E+03  0.7957747E-01  0.3478171E+00
         13   -1    0    0    0    0  0.00000000000E+00  0.00000000000E+00  0.14999999963E+04  0.15000000000E+04  0.10566000000E+00 0. -1.
        994   -1    0    0    0    0 -0.00000000000E+00 -0.00000000000E+00  0.11368683772E-12  0.17120000000E+03  0.17120000000E+03 0.  0.
         13    1    1    2    0    0  0.28550785999E+02 -0.41635299258E+01  0.58179601508E+02  0.64941200776E+02  0.10566000000E+00 0. -1.
        994    1    1    2    0    0  0.14201739711E+01  0.74915487280E+01  0.74447408190E+01  0.17153135096E+03  0.17120000000E+03 0.  0.
        998    1    1    2    0    0 -0.29970959970E+02 -0.33280188022E+01  0.14343756540E+04  0.14347274483E+04  0.10000000000E+02 0. -1.
</event>
<event>
 5    1  0.1145138E-008  0.3826365E+03  0.7957747E-01  0.3439758E+00
         13   -1    0    0    0    0  0.00000000000E+00  0.00000000000E+00  0.14999999963E+04  0.15000000000E+04  0.10566000000E+00 0. -1.
        994   -1    0    0    0    0 -0.00000000000E+00 -0.00000000000E+00  0.11368683772E-12  0.17120000000E+03  0.17120000000E+03 0.  0.
         13    1    1    2    0    0  0.60670980803E+02  0.16232313151E+02  0.89298812260E+02  0.10917300462E+03  0.10566000000E+00 0. -1.
        994    1    1    2    0    0 -0.89677082263E+02 -0.29679020860E+02  0.51213170384E+02  0.20212632729E+03  0.17120000000E+03 0.  0.
        998    1    1    2    0    0  0.29006101460E+02  0.13446707709E+02  0.13594880136E+04  0.13599006681E+04  0.10000000000E+02 0. -1.
</event>
<event>
 5    1  0.1145138E-008  0.3787890E+03  0.7957747E-01  0.3456449E+00
         13   -1    0    0    0    0  0.00000000000E+00  0.00000000000E+00  0.14999999963E+04  0.15000000000E+04  0.10566000000E+00 0. -1.
        994   -1    0    0    0    0 -0.00000000000E+00 -0.00000000000E+00  0.11368683772E-12  0.17120000000E+03  0.17120000000E+03 0.  0.
         13    1    1    2    0    0 -0.77785328491E+01  0.92980022400E+01  0.13164970237E+02  0.17896536657E+02  0.10566000000E+00 0. -1.
        994    1    1    2    0    0  0.11342333748E+02 -0.11738180430E+02  0.56404634165E+01  0.17206884739E+03  0.17120000000E+03 0.  0.
        998    1    1    2    0    0 -0.35638008991E+01  0.24401781897E+01  0.14811945626E+04  0.14812346160E+04  0.10000000000E+02 0. -1.
</event>
<event>
 5    1  0.1145138E-008  0.3736716E+03  0.7957747E-01  0.3479185E+00
         13   -1    0    0    0    0  0.00000000000E+00  0.00000000000E+00  0.14999999963E+04  0.15000000000E+04  0.10566000000E+00 0. -1.
        994   -1    0    0    0    0 -0.00000000000E+00 -0.00000000000E+00  0.11368683772E-12  0.17120000000E+03  0.17120000000E+03 0.  0.
         13    1    1    2    0    0 -0.16937985021E+02  0.12939670647E+02  0.27998178538E+02  0.35188628540E+02  0.10566000000E+00 0. -1.
        994    1    1    2    0    0  0.94880734126E+01 -0.73044475389E+01  0.78521657685E+01  0.17179777355E+03  0.17120000000E+03 0.  0.
        998    1    1    2    0    0  0.74499116085E+01 -0.56352231083E+01  0.14641496520E+04  0.14642135979E+04  0.10000000000E+02 0. -1.
</event>
<event>
 5    1  0.1145138E-008  0.3778116E+03  0.7957747E-01  0.3460743E+00
         13   -1    0    0    0    0  0.00000000000E+00  0.00000000000E+00  0.14999999963E+04  0.15000000000E+04  0.10566000000E+00 0.  1.
        994   -1    0    0    0    0 -0.00000000000E+00 -0.00000000000E+00  0.11368683772E-12  0.17120000000E+03  0.17120000000E+03 0.  0.
         13    1    1    2    0    0 -0.25221453843E+02  0.29206980159E+01  0.58119825503E+02  0.63423792786E+02  0.10566000000E+00 0.  1.
        994    1    1    2    0    0  0.22934439591E+02 -0.13359773027E+00  0.70151368887E+01  0.17287179791E+03  0.17120000000E+03 0.  0.
        998    1    1    2    0    0  0.22870142519E+01 -0.27871002857E+01  0.14348650339E+04  0.14349044093E+04  0.10000000000E+02 0.  1.
</event>
<event>
 5    1  0.1145138E-008  0.3821295E+03  0.7957747E-01  0.3441938E+00
         13   -1    0    0    0    0  0.00000000000E+00  0.00000000000E+00  0.14999999963E+04  0.15000000000E+04  0.10566000000E+00 0.  1.
        994   -1    0    0    0    0 -0.00000000000E+00 -0.00000000000E+00  0.11368683772E-12  0.17120000000E+03  0.17120000000E+03 0.  0.
         13    1    1    2    0    0  0.68085179162E+01  0.31406926611E+02  0.15869023149E+03  0.16191155514E+03  0.10566000000E+00 0.  1.
        994    1    1    2    0    0 -0.42094167961E+01 -0.26060197596E+02  0.53787064689E+01  0.17330673262E+03  0.17120000000E+03 0.  0.
        998    1    1    2    0    0 -0.25991011201E+01 -0.53467290155E+01  0.13359310583E+04  0.13359817122E+04  0.10000000000E+02 0.  0.
</event>
<event>
 5    1  0.1145138E-008  0.3827374E+03  0.7957747E-01  0.3439325E+00
         13   -1    0    0    0    0  0.00000000000E+00  0.00000000000E+00  0.14999999963E+04  0.15000000000E+04  0.10566000000E+00 0. -1.
        994   -1    0    0    0    0 -0.00000000000E+00 -0.00000000000E+00  0.11368683772E-12  0.17120000000E+03  0.17120000000E+03 0.  0.
         13    1    1    2    0    0  0.10602049929E+02  0.59604189159E+02  0.33036451518E+03  0.33586572746E+03  0.10566000000E+00 0. -1.
        994    1    1    2    0    0 -0.32864795965E+02 -0.97099029478E+02  0.38388424995E+02  0.20320292201E+03  0.17120000000E+03 0.  0.
        998    1    1    2    0    0  0.22262746036E+02  0.37494840319E+02  0.11312470561E+04  0.11321313505E+04  0.10000000000E+02 0. -1.
</event>
<event>
 5    1  0.1145138E-008  0.3797033E+03  0.7957747E-01  0.3452452E+00
         13   -1    0    0    0    0  0.00000000000E+00  0.00000000000E+00  0.14999999963E+04  0.15000000000E+04  0.10566000000E+00 0. -1.
        994   -1    0    0    0    0 -0.00000000000E+00 -0.00000000000E+00  0.11368683772E-12  0.17120000000E+03  0.17120000000E+03 0.  0.
         13    1    1    2    0    0 -0.33184658840E+02  0.12729339748E+02  0.13953956104E+03  0.14399499273E+03  0.10566000000E+00 0. -1.
        994    1    1    2    0    0  0.24058933039E+02 -0.17280849290E+02  0.72247224474E+01  0.17389392349E+03  0.17120000000E+03 0.  0.
        998    1    1    2    0    0  0.91257258008E+01  0.45515095429E+01  0.13532357128E+04  0.13533110838E+04  0.10000000000E+02 0. -1.
</event>
<event>
 5    1  0.1145138E-008  0.3794414E+03  0.7957747E-01  0.3453594E+00
         13   -1    0    0    0    0  0.00000000000E+00  0.00000000000E+00  0.14999999963E+04  0.15000000000E+04  0.10566000000E+00 0. -1.
        994   -1    0    0    0    0 -0.00000000000E+00 -0.00000000000E+00  0.11368683772E-12  0.17120000000E+03  0.17120000000E+03 0.  0.
         13    1    1    2    0    0  0.10152208665E+01 -0.18441215285E+02  0.35377298551E+02  0.39908313813E+02  0.10566000000E+00 0. -1.
        994    1    1    2    0    0 -0.18509740739E+02  0.24526942361E+02  0.75839999409E+01  0.17410094330E+03  0.17120000000E+03 0.  0.
        998    1    1    2    0    0  0.17494519872E+02 -0.60857270763E+01  0.14570386978E+04  0.14571907429E+04  0.10000000000E+02 0. -1.
</event>
<event>
 5    1  0.1145138E-008  0.3783230E+03  0.7957747E-01  0.3458493E+00
         13   -1    0    0    0    0  0.00000000000E+00  0.00000000000E+00  0.14999999963E+04  0.15000000000E+04  0.10566000000E+00 0.  1.
        994   -1    0    0    0    0 -0.00000000000E+00 -0.00000000000E+00  0.11368683772E-12  0.17120000000E+03  0.17120000000E+03 0.  0.
         13    1    1    2    0    0  0.73950735497E+02  0.66958050361E+02  0.22055262600E+03  0.24206520565E+03  0.10566000000E+00 0.  1.
        994    1    1    2    0    0 -0.84410121630E+02 -0.11350740187E+03  0.91501879450E+02  0.24018957691E+03  0.17120000000E+03 0.  0.
        998    1    1    2    0    0  0.10459386134E+02  0.46549351510E+02  0.11879454908E+04  0.11889452174E+04  0.10000000000E+02 0.  1.
</event>
<event>
 5    1  0.1145138E-008  0.3823525E+03  0.7957747E-01  0.3440979E+00
         13   -1    0    0    0    0  0.00000000000E+00  0.00000000000E+00  0.14999999963E+04  0.15000000000E+04  0.10566000000E+00 0.  1.
        994   -1    0    0    0    0 -0.00000000000E+00 -0.00000000000E+00  0.11368683772E-12  0.17120000000E+03  0.17120000000E+03 0.  0.
         13    1    1    2    0    0  0.56793863628E+01 -0.14452431292E+02  0.36744875752E+02  0.39891418348E+02  0.10566000000E+00 0.  1.
        994    1    1    2    0    0  0.18144374435E+01  0.35177573795E+02  0.70769799230E+01  0.17492935010E+03  0.17120000000E+03 0.  0.
        998    1    1    2    0    0 -0.74938238063E+01 -0.20725142503E+02  0.14561781406E+04  0.14563792316E+04  0.10000000000E+02 0.  1.
</event>
<event>
 5    1  0.1145138E-008  0.3830712E+03  0.7957747E-01  0.3437894E+00
         13   -1    0    0    0    0  0.00000000000E+00  0.00000000000E+00  0.14999999963E+04  0.15000000000E+04  0.10566000000E+00 0. -1.
        994   -1    0    0    0    0 -0.00000000000E+00 -0.00000000000E+00  0.11368683772E-12  0.17120000000E+03  0.17120000000E+03 0.  0.
         13    1    1    2    0    0  0.13570157303E+02 -0.21554826998E+02  0.12981532524E+03  0.13229054980E+03  0.10566000000E+00 0. -1.
        994    1    1    2    0    0 -0.57823027309E+01  0.77990204659E+01  0.29027979683E+01  0.17149963843E+03  0.17120000000E+03 0.  0.
        998    1    1    2    0    0 -0.77878545720E+01  0.13755806532E+02  0.13672818731E+04  0.13674098118E+04  0.10000000000E+02 0. -1.
</event>
<event>
 5    1  0.1145138E-008  0.3801795E+03  0.7957747E-01  0.3450377E+00
         13   -1    0    0    0    0  0.00000000000E+00  0.00000000000E+00  0.14999999963E+04  0.15000000000E+04  0.10566000000E+00 0. -1.
        994   -1    0    0    0    0 -0.00000000000E+00 -0.00000000000E+00  0.11368683772E-12  0.17120000000E+03  0.17120000000E+03 0.  0.
         13    1    1    2    0    0  0.33211889779E+02 -0.57474359059E+02  0.12184271274E+03  0.13875153831E+03  0.10566000000E+00 0. -1.
        994    1    1    2    0    0 -0.22774313837E+01  0.67159315303E+02  0.32987088027E+02  0.18685060423E+03  0.17120000000E+03 0.  0.
        998    1    1    2    0    0 -0.30934458395E+02 -0.96849562444E+01  0.13451701955E+04  0.13455978575E+04  0.10000000000E+02 0. -1.
</event>
<event>
 5    1  0.1145138E-008  0.3854954E+03  0.7957747E-01  0.3427574E+00
         13   -1    0    0    0    0  0.00000000000E+00  0.00000000000E+00  0.14999999963E+04  0.15000000000E+04  0.10566000000E+00 0. -1.
        994   -1    0    0    0    0 -0.00000000000E+00 -0.00000000000E+00  0.11368683772E-12  0.17120000000E+03  0.17120000000E+03 0.  0.
         13    1    1    2    0    0  0.12452437365E+02  0.37825814914E+01  0.58345877348E+02  0.59779793297E+02  0.10566000000E+00 0. -1.
        994    1    1    2    0    0 -0.16300917486E+02 -0.40872111967E+01  0.23122285467E+01  0.17203840155E+03  0.17120000000E+03 0.  0.
        998    1    1    2    0    0  0.38484801208E+01  0.30462970529E+00  0.14393418904E+04  0.14393818052E+04  0.10000000000E+02 0. -1.
</event>
<event>
 5    1  0.1145138E-008  0.3714528E+03  0.7957747E-01  0.3489240E+00
         13   -1    0    0    0    0  0.00000000000E+00  0.00000000000E+00  0.14999999963E+04  0.15000000000E+04  0.10566000000E+00 0. -1.
        994   -1    0    0    0    0 -0.00000000000E+00 -0.00000000000E+00  0.11368683772E-12  0.17120000000E+03  0.17120000000E+03 0.  0.
         13    1    1    2    0    0 -0.49378768426E+02  0.38024988355E+02  0.15208271489E+03  0.16435731150E+03  0.10566000000E+00 0. -1.
        994    1    1    2    0    0  0.40054015778E+02 -0.35503355454E+02  0.21844566659E+02  0.18069708775E+03  0.17120000000E+03 0.  0.
        998    1    1    2    0    0  0.93247526478E+01 -0.25216329017E+01  0.13260727147E+04  0.13261456007E+04  0.10000000000E+02 0. -1.
</event>
<event>
 5    1  0.1145138E-008  0.3690551E+03  0.7957747E-01  0.3500245E+00
         13   -1    0    0    0    0  0.00000000000E+00  0.00000000000E+00  0.14999999963E+04  0.15000000000E+04  0.10566000000E+00 0. -1.
        994   -1    0    0    0    0 -0.00000000000E+00 -0.00000000000E+00  0.11368683772E-12  0.17120000000E+03  0.17120000000E+03 0.  0.
         13    1    1    2    0    0 -0.27322790052E+02  0.71432235781E+01  0.31651435733E+02  0.42419158965E+02  0.10566000000E+00 0. -1.
        994    1    1    2    0    0  0.36218073023E+02 -0.45397126604E+02  0.22285869206E+02  0.18215034418E+03  0.17120000000E+03 0.  0.
        998    1    1    2    0    0 -0.88952829701E+01  0.38253903026E+02  0.14460626913E+04  0.14466304969E+04  0.10000000000E+02 0. -1.
</event>
<event>
 5    1  0.1145138E-008  0.3715283E+03  0.7957747E-01  0.3488897E+00
         13   -1    0    0    0    0  0.00000000000E+00  0.00000000000E+00  0.14999999963E+04  0.15000000000E+04  0.10566000000E+00 0. -1.
        994   -1    0    0    0    0 -0.00000000000E+00 -0.00000000000E+00  0.11368683772E-12  0.17120000000E+03  0.17120000000E+03 0.  0.
         13    1    1    2    0    0  0.89300099279E+01  0.25626019806E+02  0.39189538058E+02  0.47668323084E+02  0.10566000000E+00 0. -1.
        994    1    1    2    0    0 -0.11155170522E+02 -0.24319034657E+02  0.10938561131E+02  0.17362299789E+03  0.17120000000E+03 0.  0.
        998    1    1    2    0    0  0.22251605939E+01 -0.13069851490E+01  0.14498718971E+04  0.14499086790E+04  0.10000000000E+02 0. -1.
</event>
<event>
 5    1  0.1145138E-008  0.3734184E+03  0.7957747E-01  0.3480327E+00
         13   -1    0    0    0    0  0.00000000000E+00  0.00000000000E+00  0.14999999963E+04  0.15000000000E+04  0.10566000000E+00 0. -1.
        994   -1    0    0    0    0 -0.00000000000E+00 -0.00000000000E+00  0.11368683772E-12  0.17120000000E+03  0.17120000000E+03 0.  0.
         13    1    1    2    0    0 -0.57457395968E+02  0.66742339124E+02  0.53020979597E+03  0.53747402829E+03  0.10566000000E+00 0. -1.
        994    1    1    2    0    0  0.64293508429E+02 -0.13213472772E+02  0.22362467028E+02  0.18470996459E+03  0.17120000000E+03 0.  0.
        998    1    1    2    0    0 -0.68361124608E+01 -0.53528866352E+02  0.94742773328E+03  0.94901600711E+03  0.10000000000E+02 0. -1.
</event>
<event>
 5    1  0.1145138E-008  0.3710315E+03  0.7957747E-01  0.3491164E+00
         13   -1    0    0    0    0  0.00000000000E+00  0.00000000000E+00  0.14999999963E+04  0.15000000000E+04  0.10566000000E+00 0.  1.
        994   -1    0    0    0    0 -0.00000000000E+00 -0.00000000000E+00  0.11368683772E-12  0.17120000000E+03  0.17120000000E+03 0.  0.
         13    1    1    2    0    0 -0.87015657642E+01  0.61586151803E+01 -0.42283447219E+00  0.10669383333E+02  0.10566000000E+00 0.  1.
        994    1    1    2    0    0  0.73299229424E+01 -0.45567415319E+01  0.11746726398E+02  0.17181943209E+03  0.17120000000E+03 0.  0.
        998    1    1    2    0    0  0.13716428218E+01 -0.16018736484E+01  0.14886761044E+04  0.14887111846E+04  0.10000000000E+02 0.  1.
</event>
<event>
 5    1  0.1145138E-008  0.3954189E+03  0.7957747E-01  0.3386651E+00
         13   -1    0    0    0    0  0.00000000000E+00  0.00000000000E+00  0.14999999963E+04  0.15000000000E+04  0.10566000000E+00 0. -1.
        994   -1    0    0    0    0 -0.00000000000E+00 -0.00000000000E+00  0.11368683772E-12  0.17120000000E+03  0.17120000000E+03 0.  0.
         13    1    1    2    0    0  0.18029187152E+02 -0.18412330115E+01 -0.47145673319E+01  0.18726452881E+02  0.10566000000E+00 0. -1.
        994    1    1    2    0    0 -0.25296102364E+02 -0.24452425078E+01  0.27554694896E+02  0.17525573662E+03  0.17120000000E+03 0.  0.
        998    1    1    2    0    0  0.72669152119E+01  0.42864755192E+01  0.14771598687E+04  0.14772178105E+04  0.10000000000E+02 0. -1.
</event>
<event>
 5    1  0.1660777E-008  0.3864131E+03  0.7957747E-01  0.3423701E+00
         13   -1    0    0    0    0  0.00000000000E+00  0.00000000000E+00  0.14999999963E+04  0.15000000000E+04  0.10566000000E+00 0.  1.
        994   -1    0    0    0    0 -0.00000000000E+00 -0.00000000000E+00  0.11368683772E-12  0.17120000000E+03  0.17120000000E+03 0.  0.
         13    1    1    2    0    0  0.72711580928E+01  0.85266390687E+01  0.67733747424E+02  0.68654533848E+02  0.10566000000E+00 0.  1.
        994    1    1    2    0    0 -0.72042427409E+01 -0.61427622243E+01  0.12236588423E+01  0.17146594992E+03  0.17120000000E+03 0.  0.
        998    1    1    2    0    0 -0.66915351939E-01 -0.23838768444E+01  0.14310425900E+04  0.14310795162E+04  0.10000000000E+02 0.  1.
</event>
<event>
 5    1  0.1145138E-008  0.3850503E+03  0.7957747E-01  0.3429459E+00
         13   -1    0    0    0    0  0.00000000000E+00  0.00000000000E+00  0.14999999963E+04  0.15000000000E+04  0.10566000000E+00 0.  1.
        994   -1    0    0    0    0 -0.00000000000E+00 -0.00000000000E+00  0.11368683772E-12  0.17120000000E+03  0.17120000000E+03 0.  0.
         13    1    1    2    0    0  0.93556291216E+01 -0.12739823466E+02  0.70380970390E+02  0.72134063072E+02  0.10566000000E+00 0.  1.
        994    1    1    2    0    0 -0.12444909640E+02  0.23011907419E+02  0.38588569524E+01  0.17323035079E+03  0.17120000000E+03 0.  0.
        998    1    1    2    0    0  0.30892805183E+01 -0.10272083953E+02  0.14257601689E+04  0.14258355861E+04  0.10000000000E+02 0.  1.
</event>
<event>
 5    1  0.1145138E-008  0.4080414E+03  0.7957747E-01  0.3337467E+00
         13   -1    0    0    0    0  0.00000000000E+00  0.00000000000E+00  0.14999999963E+04  0.15000000000E+04  0.10566000000E+00 0.  1.
        994   -1    0    0    0    0 -0.00000000000E+00 -0.00000000000E+00  0.11368683772E-12  0.17120000000E+03  0.17120000000E+03 0.  0.
         13    1    1    2    0    0 -0.90003809157E+02 -0.71616321182E+02  0.17266331183E+03  0.20746617445E+03  0.10566000000E+00 0.  1.
        994    1    1    2    0    0  0.89554786710E+02  0.64837344385E+02  0.84148117832E+02  0.22048647755E+03  0.17120000000E+03 0.  0.
        998    1    1    2    0    0  0.44902244745E+00  0.67789767968E+01  0.12431885666E+04  0.12432473480E+04  0.10000000000E+02 0.  1.
</event>
<event>
 5    1  0.1145138E-008  0.3781359E+03  0.7957747E-01  0.3459316E+00
         13   -1    0    0    0    0  0.00000000000E+00  0.00000000000E+00  0.14999999963E+04  0.15000000000E+04  0.10566000000E+00 0.  1.
        994   -1    0    0    0    0 -0.00000000000E+00 -0.00000000000E+00  0.11368683772E-12  0.17120000000E+03  0.17120000000E+03 0.  0.
         13    1    1    2    0    0 -0.30504581733E+02  0.38227361934E+02  0.26595869732E+03  0.27041801078E+03  0.10566000000E+00 0.  1.
        994    1    1    2    0    0  0.14074378280E+02 -0.43600414027E+01  0.58076821392E+01  0.17193099563E+03  0.17120000000E+03 0.  0.
        998    1    1    2    0    0  0.16430203453E+02 -0.33867320532E+02  0.12282336168E+04  0.12288509936E+04  0.10000000000E+02 0.  1.
</event>
<event>
 5    1  0.1145138E-008  0.3778841E+03  0.7957747E-01  0.3460424E+00
         13   -1    0    0    0    0  0.00000000000E+00  0.00000000000E+00  0.14999999963E+04  0.15000000000E+04  0.10566000000E+00 0. -1.
        994   -1    0    0    0    0 -0.00000000000E+00 -0.00000000000E+00  0.11368683772E-12  0.17120000000E+03  0.17120000000E+03 0.  0.
         13    1    1    2    0    0  0.18715566216E+02 -0.23914237069E+02  0.81544514623E+02  0.87015413477E+02  0.10566000000E+00 0. -1.
        994    1    1    2    0    0 -0.20604739196E+02  0.26167529858E+02  0.89485228536E+01  0.17463908771E+03  0.17120000000E+03 0.  0.
        998    1    1    2    0    0  0.18891729799E+01 -0.22532927886E+01  0.14095069588E+04  0.14095454988E+04  0.10000000000E+02 0. -1.
</event>
<event>
 5    1  0.1145138E-008  0.3695260E+03  0.7957747E-01  0.3498072E+00
         13   -1    0    0    0    0  0.00000000000E+00  0.00000000000E+00  0.14999999963E+04  0.15000000000E+04  0.10566000000E+00 0. -1.
        994   -1    0    0    0    0 -0.00000000000E+00 -0.00000000000E+00  0.11368683772E-12  0.17120000000E+03  0.17120000000E+03 0.  0.
         13    1    1    2    0    0  0.18480155698E+02 -0.60733452179E+02  0.25352163750E+03  0.26134900079E+03  0.10566000000E+00 0. -1.
        994    1    1    2    0    0  0.29184600543E+02  0.15000281550E+02  0.13255302658E+02  0.17481959960E+03  0.17120000000E+03 0.  0.
        998    1    1    2    0    0 -0.47664756240E+02  0.45733170629E+02  0.12332230561E+04  0.12350313996E+04  0.10000000000E+02 0. -1.
</event>
<event>
 5    1  0.1145138E-008  0.3812868E+03  0.7957747E-01  0.3445574E+00
         13   -1    0    0    0    0  0.00000000000E+00  0.00000000000E+00  0.14999999963E+04  0.15000000000E+04  0.10566000000E+00 0.  1.
        994   -1    0    0    0    0 -0.00000000000E+00 -0.00000000000E+00  0.11368683772E-12  0.17120000000E+03  0.17120000000E+03 0.  0.
         13    1    1    2    0    0 -0.17644009661E+02  0.15915598442E+02  0.80225149275E+02  0.83670204319E+02  0.10566000000E+00 0.  1.
        994    1    1    2    0    0  0.12070782522E+02 -0.73155655385E+01  0.41483989635E+01  0.17183093582E+03  0.17120000000E+03 0.  0.
        998    1    1    2    0    0  0.55732271381E+01 -0.86000329038E+01  0.14156264480E+04  0.14156988599E+04  0.10000000000E+02 0.  1.
</event>
<event>
 5    1  0.1145138E-008  0.3769862E+03  0.7957747E-01  0.3464387E+00
         13   -1    0    0    0    0  0.00000000000E+00  0.00000000000E+00  0.14999999963E+04  0.15000000000E+04  0.10566000000E+00 0. -1.
        994   -1    0    0    0    0 -0.00000000000E+00 -0.00000000000E+00  0.11368683772E-12  0.17120000000E+03  0.17120000000E+03 0.  0.
         13    1    1    2    0    0 -0.30973145234E+02  0.31532349071E+02  0.17752621572E+03  0.18294587504E+03  0.10566000000E+00 0. -1.
        994    1    1    2    0    0  0.22202939482E+02 -0.52752596973E+01  0.74227713267E+01  0.17287375862E+03  0.17120000000E+03 0.  0.
        998    1    1    2    0    0  0.87702057515E+01 -0.26257089373E+02  0.13150510092E+04  0.13153803663E+04  0.10000000000E+02 0. -1.
</event>
<event>
 5    1  0.1145138E-008  0.3831811E+03  0.7957747E-01  0.3437423E+00
         13   -1    0    0    0    0  0.00000000000E+00  0.00000000000E+00  0.14999999963E+04  0.15000000000E+04  0.10566000000E+00 0. -1.
        994   -1    0    0    0    0 -0.00000000000E+00 -0.00000000000E+00  0.11368683772E-12  0.17120000000E+03  0.17120000000E+03 0.  0.
         13    1    1    2    0    0 -0.23698591817E+01 -0.17241188280E+02  0.94002100897E+00  0.17428987618E+02  0.10566000000E+00 0. -1.
        994    1    1    2    0    0 -0.48415514589E+01 -0.51408481960E+02  0.27926541949E+02  0.18098509437E+03  0.17120000000E+03 0.  0.
        998    1    1    2    0    0  0.72114106406E+01  0.68649670240E+02  0.14711334333E+04  0.14727859180E+04  0.10000000000E+02 0. -1.
</event>
<event>
 5    1  0.1145138E-008  0.3707857E+03  0.7957747E-01  0.3492288E+00
         13   -1    0    0    0    0  0.00000000000E+00  0.00000000000E+00  0.14999999963E+04  0.15000000000E+04  0.10566000000E+00 0. -1.
        994   -1    0    0    0    0 -0.00000000000E+00 -0.00000000000E+00  0.11368683772E-12  0.17120000000E+03  0.17120000000E+03 0.  0.
         13    1    1    2    0    0  0.86743000620E+00 -0.25823742911E+02  0.33471964457E+02  0.42284769143E+02  0.10566000000E+00 0. -1.
        994    1    1    2    0    0  0.19423178640E+01  0.24876861400E+02  0.11008956357E+02  0.17335878389E+03  0.17120000000E+03 0.  0.
        998    1    1    2    0    0 -0.28097478702E+01  0.94688151150E+00  0.14555190755E+04  0.14555564470E+04  0.10000000000E+02 0. -1.
</event>
<event>
 5    1  0.1145138E-008  0.3814354E+03  0.7957747E-01  0.3444932E+00
         13   -1    0    0    0    0  0.00000000000E+00  0.00000000000E+00  0.14999999963E+04  0.15000000000E+04  0.10566000000E+00 0.  1.
        994   -1    0    0    0    0 -0.00000000000E+00 -0.00000000000E+00  0.11368683772E-12  0.17120000000E+03  0.17120000000E+03 0.  0.
         13    1    1    2    0    0 -0.58296799076E+01 -0.30341825685E+02  0.12447662961E+03  0.12825386559E+03  0.10566000000E+00 0.  1.
        994    1    1    2    0    0  0.24255885133E+02  0.32541994717E+02  0.89106539707E+01  0.17617085212E+03  0.17120000000E+03 0.  0.
        998    1    1    2    0    0 -0.18426205225E+02 -0.22001690315E+01  0.13666127127E+04  0.13667752823E+04  0.10000000000E+02 0.  1.
</event>
<event>
 5    1  0.1145138E-008  0.3756807E+03  0.7957747E-01  0.3470184E+00
         13   -1    0    0    0    0  0.00000000000E+00  0.00000000000E+00  0.14999999963E+04  0.15000000000E+04  0.10566000000E+00 0.  1.
        994   -1    0    0    0    0 -0.00000000000E+00 -0.00000000000E+00  0.11368683772E-12  0.17120000000E+03  0.17120000000E+03 0.  0.
         13    1    1    2    0    0 -0.14690517587E+03 -0.51845784578E+02  0.92139885655E+03  0.93447577823E+03  0.10566000000E+00 0.  1.
        994    1    1    2    0    0  0.13592555397E+03  0.38281465505E+02  0.77273571057E+02  0.23499334375E+03  0.17120000000E+03 0.  0.
        998    1    1    2    0    0  0.10979621898E+02  0.13564319073E+02  0.50132756867E+03  0.50173087802E+03  0.10000000000E+02 0.  1.
</event>
<event>
 5    1  0.1145138E-008  0.3749067E+03  0.7957747E-01  0.3473640E+00
         13   -1    0    0    0    0  0.00000000000E+00  0.00000000000E+00  0.14999999963E+04  0.15000000000E+04  0.10566000000E+00 0. -1.
        994   -1    0    0    0    0 -0.00000000000E+00 -0.00000000000E+00  0.11368683772E-12  0.17120000000E+03  0.17120000000E+03 0.  0.
         13    1    1    2    0    0  0.80662340791E+01  0.86251666649E+01  0.72299280258E+01  0.13847045010E+02  0.10566000000E+00 0. -1.
        994    1    1    2    0    0 -0.89076224954E+01 -0.91052025062E+01  0.72785223801E+01  0.17182743477E+03  0.17120000000E+03 0.  0.
        998    1    1    2    0    0  0.84138841629E+00  0.48003584131E+00  0.14854915459E+04  0.14855255202E+04  0.10000000000E+02 0. -1.
</event>
<event>
 5    1  0.1145138E-008  0.3967625E+03  0.7957747E-01  0.3381268E+00
         13   -1    0    0    0    0  0.00000000000E+00  0.00000000000E+00  0.14999999963E+04  0.15000000000E+04  0.10566000000E+00 0. -1.
        994   -1    0    0    0    0 -0.00000000000E+00 -0.00000000000E+00  0.11368683772E-12  0.17120000000E+03  0.17120000000E+03 0.  0.
         13    1    1    2    0    0  0.99705717864E+02  0.18954921840E+02  0.17571396376E+03  0.20291852419E+03  0.10566000000E+00 0. -1.
        994    1    1    2    0    0 -0.91380898769E+02 -0.72760743943E+01  0.59124178593E+02  0.20299881382E+03  0.17120000000E+03 0.  0.
        998    1    1    2    0    0 -0.83248190950E+01 -0.11678847446E+02  0.12651618539E+04  0.12652826620E+04  0.10000000000E+02 0. -1.
</event>
<event>
 5    1  0.1145138E-008  0.3818846E+03  0.7957747E-01  0.3442994E+00
         13   -1    0    0    0    0  0.00000000000E+00  0.00000000000E+00  0.14999999963E+04  0.15000000000E+04  0.10566000000E+00 0. -1.
        994   -1    0    0    0    0 -0.00000000000E+00 -0.00000000000E+00  0.11368683772E-12  0.17120000000E+03  0.17120000000E+03 0.  0.
         13    1    1    2    0    0 -0.17185469338E+01 -0.25498310264E+02  0.11990568781E+03  0.12259894927E+03  0.10566000000E+00 0. -1.
        994    1    1    2    0    0  0.70310243846E+01 -0.10452642215E+02  0.37122392527E+01  0.17170298120E+03  0.17120000000E+03 0.  0.
        998    1    1    2    0    0 -0.53124774508E+01  0.35950952479E+02  0.13763820692E+04  0.13768980695E+04  0.10000000000E+02 0. -1.
</event>
<event>
 5    1  0.1145138E-008  0.3745580E+03  0.7957747E-01  0.3475202E+00
         13   -1    0    0    0    0  0.00000000000E+00  0.00000000000E+00  0.14999999963E+04  0.15000000000E+04  0.10566000000E+00 0. -1.
        994   -1    0    0    0    0 -0.00000000000E+00 -0.00000000000E+00  0.11368683772E-12  0.17120000000E+03  0.17120000000E+03 0.  0.
         13    1    1    2    0    0  0.22480486886E+02  0.47506105526E+00  0.33455622561E+02  0.40309897279E+02  0.10566000000E+00 0. -1.
        994    1    1    2    0    0 -0.19006127708E+02 -0.74518658899E-01  0.81366017869E+01  0.17244385385E+03  0.17120000000E+03 0.  0.
        998    1    1    2    0    0 -0.34743591784E+01 -0.40054239636E+00  0.14584077719E+04  0.14584462489E+04  0.10000000000E+02 0. -1.
</event>
<event>
 5    1  0.6772380E-008  0.3865725E+03  0.7957747E-01  0.3423030E+00
         13   -1    0    0    0    0  0.00000000000E+00  0.00000000000E+00  0.14999999963E+04  0.15000000000E+04  0.10566000000E+00 0. -1.
        994   -1    0    0    0    0 -0.00000000000E+00 -0.00000000000E+00  0.11368683772E-12  0.17120000000E+03  0.17120000000E+03 0.  0.
         13    1    1    2    0    0 -0.46450274934E+01  0.90376765960E+01  0.60916661864E+02  0.61758454768E+02  0.10566000000E+00 0. -1.
        994    1    1    2    0    0  0.60099861448E+01 -0.71371001687E+01  0.11362997405E+01  0.17145783537E+03  0.17120000000E+03 0.  0.
        998    1    1    2    0    0 -0.13649586514E+01 -0.19005764274E+01  0.14379470347E+04  0.14379837099E+04  0.10000000000E+02 0. -1.
</event>
<event>
 5    1  0.1145138E-008  0.2521788E+03  0.7957747E-01  0.4310316E+00
         13   -1    0    0    0    0  0.00000000000E+00  0.00000000000E+00  0.14999999963E+04  0.15000000000E+04  0.10566000000E+00 0. -1.
        994   -1    0    0    0    0 -0.00000000000E+00 -0.00000000000E+00  0.11368683772E-12  0.17120000000E+03  0.17120000000E+03 0.  0.
         13    1    1    2    0    0  0.14966657854E+03 -0.18795992603E+03  0.53975159400E+03  0.59081368714E+03  0.10566000000E+00 0. -1.
        994    1    1    2    0    0 -0.56994692292E+02  0.35241880402E+02  0.11599132062E+03  0.21737941840E+03  0.17120000000E+03 0.  0.
        998    1    1    2    0    0 -0.92671886244E+02  0.15271804563E+03  0.84425708166E+03  0.86300689446E+03  0.10000000000E+02 0.  1.
</event>
<event>
 5    1  0.1145138E-008  0.3756568E+03  0.7957747E-01  0.3470291E+00
         13   -1    0    0    0    0  0.00000000000E+00  0.00000000000E+00  0.14999999963E+04  0.15000000000E+04  0.10566000000E+00 0.  1.
        994   -1    0    0    0    0 -0.00000000000E+00 -0.00000000000E+00  0.11368683772E-12  0.17120000000E+03  0.17120000000E+03 0.  0.
         13    1    1    2    0    0 -0.11916693064E+03 -0.10775676179E+03  0.84069517346E+03  0.85590926091E+03  0.10566000000E+00 0.  1.
        994    1    1    2    0    0  0.10873948928E+03  0.11458309521E+03  0.96309152648E+02  0.25206835406E+03  0.17120000000E+03 0.  0.
        998    1    1    2    0    0  0.10427441360E+02 -0.68263334173E+01  0.56299567017E+03  0.56322238503E+03  0.10000000000E+02 0.  0.
</event>
<event>
 5    1  0.1145138E-008  0.3744929E+03  0.7957747E-01  0.3475494E+00
         13   -1    0    0    0    0  0.00000000000E+00  0.00000000000E+00  0.14999999963E+04  0.15000000000E+04  0.10566000000E+00 0. -1.
        994   -1    0    0    0    0 -0.00000000000E+00 -0.00000000000E+00  0.11368683772E-12  0.17120000000E+03  0.17120000000E+03 0.  0.
         13    1    1    2    0    0  0.72785048393E+02 -0.58657012251E+02  0.33229485111E+03  0.34519297153E+03  0.10566000000E+00 0. -1.
        994    1    1    2    0    0 -0.11228088868E+03  0.83061078983E+02  0.76563472283E+02  0.23383230335E+03  0.17120000000E+03 0.  0.
        998    1    1    2    0    0  0.39495840284E+02 -0.24404066733E+02  0.10911416729E+04  0.10921747251E+04  0.10000000000E+02 0. -1.
</event>
<event>
 5    1  0.1145138E-008  0.3840356E+03  0.7957747E-01  0.3433772E+00
         13   -1    0    0    0    0  0.00000000000E+00  0.00000000000E+00  0.14999999963E+04  0.15000000000E+04  0.10566000000E+00 0. -1.
        994   -1    0    0    0    0 -0.00000000000E+00 -0.00000000000E+00  0.11368683772E-12  0.17120000000E+03  0.17120000000E+03 0.  0.
         13    1    1    2    0    0 -0.40363208563E+01 -0.17166832315E+02  0.73299632700E+02  0.75391241771E+02  0.10566000000E+00 0. -1.
        994    1    1    2    0    0  0.21460656739E+02  0.70559050872E+01  0.37951033253E+01  0.17272576065E+03  0.17120000000E+03 0.  0.
        998    1    1    2    0    0 -0.17424335883E+02  0.10110927228E+02  0.14229052603E+04  0.14230829976E+04  0.10000000000E+02 0. -1.
</event>
<event>
 5    1  0.1145138E-008  0.3779022E+03  0.7957747E-01  0.3460344E+00
         13   -1    0    0    0    0  0.00000000000E+00  0.00000000000E+00  0.14999999963E+04  0.15000000000E+04  0.10566000000E+00 0. -1.
        994   -1    0    0    0    0 -0.00000000000E+00 -0.00000000000E+00  0.11368683772E-12  0.17120000000E+03  0.17120000000E+03 0.  0.
         13    1    1    2    0    0  0.12481621078E+02  0.17101012058E+02  0.40354664529E+02  0.45571324223E+02  0.10566000000E+00 0. -1.
        994    1    1    2    0    0 -0.22444187265E+02 -0.80583347065E+01  0.71125399760E+01  0.17299915180E+03  0.17120000000E+03 0.  0.
        998    1    1    2    0    0  0.99625661877E+01 -0.90426773515E+01  0.14525327918E+04  0.14526295240E+04  0.10000000000E+02 0. -1.
</event>
<event>
 5    1  0.1145138E-008  0.3738726E+03  0.7957747E-01  0.3478280E+00
         13   -1    0    0    0    0  0.00000000000E+00  0.00000000000E+00  0.14999999963E+04  0.15000000000E+04  0.10566000000E+00 0.  1.
        994   -1    0    0    0    0 -0.00000000000E+00 -0.00000000000E+00  0.11368683772E-12  0.17120000000E+03  0.17120000000E+03 0.  0.
         13    1    1    2    0    0 -0.30342930430E+02  0.15359760292E+02  0.74311106087E+02  0.81723725535E+02  0.10566000000E+00 0.  1.
        994    1    1    2    0    0  0.27446349151E+02 -0.15302501096E+02  0.10635619437E+02  0.17438470410E+03  0.17120000000E+03 0.  0.
        998    1    1    2    0    0  0.28965812784E+01 -0.57259196470E-01  0.14150532708E+04  0.14150915704E+04  0.10000000000E+02 0.  1.
</event>
<event>
 5    1  0.1145138E-008  0.3773391E+03  0.7957747E-01  0.3462827E+00
         13   -1    0    0    0    0  0.00000000000E+00  0.00000000000E+00  0.14999999963E+04  0.15000000000E+04  0.10566000000E+00 0.  1.
        994   -1    0    0    0    0 -0.00000000000E+00 -0.00000000000E+00  0.11368683772E-12  0.17120000000E+03  0.17120000000E+03 0.  0.
         13    1    1    2    0    0  0.62937493191E+02 -0.60507111971E+02  0.47993217038E+03  0.48780850544E+03  0.10566000000E+00 0.  1.
        994    1    1    2    0    0 -0.55865685508E+02  0.64693970173E+02  0.30534208206E+02  0.19377322432E+03  0.17120000000E+03 0.  0.
        998    1    1    2    0    0 -0.70718076827E+01 -0.41868582021E+01  0.98953361769E+03  0.98961827024E+03  0.10000000000E+02 0.  1.
</event>
<event>
 5    1  0.1145138E-008  0.3840977E+03  0.7957747E-01  0.3433508E+00
         13   -1    0    0    0    0  0.00000000000E+00  0.00000000000E+00  0.14999999963E+04  0.15000000000E+04  0.10566000000E+00 0.  1.
        994   -1    0    0    0    0 -0.00000000000E+00 -0.00000000000E+00  0.11368683772E-12  0.17120000000E+03  0.17120000000E+03 0.  0.
         13    1    1    2    0    0 -0.11332023157E+02 -0.78051506378E+01  0.47369705610E+02  0.49327834930E+02  0.10566000000E+00 0.  1.
        994    1    1    2    0    0  0.37328168522E+01 -0.68814199008E+01  0.22809421228E+01  0.17139407971E+03  0.17120000000E+03 0.  0.
        998    1    1    2    0    0  0.75992063049E+01  0.14686570539E+02  0.14503493485E+04  0.14504780854E+04  0.10000000000E+02 0.  1.
</event>
<event>
 5    1  0.1145138E-008  0.3746867E+03  0.7957747E-01  0.3474625E+00
         13   -1    0    0    0    0  0.00000000000E+00  0.00000000000E+00  0.14999999963E+04  0.15000000000E+04  0.10566000000E+00 0.  1.
        994   -1    0    0    0    0 -0.00000000000E+00 -0.00000000000E+00  0.11368683772E-12  0.17120000000E+03  0.17120000000E+03 0.  0.
         13    1    1    2    0    0 -0.57803724561E+02 -0.17512734044E+02  0.13539123419E+03  0.14825236553E+03  0.10566000000E+00 0.  1.
        994    1    1    2    0    0  0.44548700170E+02 -0.42180519217E+02  0.26940372132E+02  0.18384506123E+03  0.17120000000E+03 0.  0.
        998    1    1    2    0    0  0.13255024392E+02  0.59693253260E+02  0.13376683900E+04  0.13391025732E+04  0.10000000000E+02 0.  1.
</event>
<event>
 5    1  0.1145138E-008  0.3992672E+03  0.7957747E-01  0.3371329E+00
         13   -1    0    0    0    0  0.00000000000E+00  0.00000000000E+00  0.14999999963E+04  0.15000000000E+04  0.10566000000E+00 0.  1.
        994   -1    0    0    0    0 -0.00000000000E+00 -0.00000000000E+00  0.11368683772E-12  0.17120000000E+03  0.17120000000E+03 0.  0.
         13    1    1    2    0    0 -0.44816402321E+02  0.10192918295E+03  0.29686053269E+03  0.31705560283E+03  0.10566000000E+00 0.  1.
        994    1    1    2    0    0 -0.40267809934E+02 -0.22461109382E+02  0.35684214078E+02  0.18085574662E+03  0.17120000000E+03 0.  0.
        998    1    1    2    0    0  0.85084212254E+02 -0.79468073569E+02  0.11674552495E+04  0.11732886505E+04  0.10000000000E+02 0.  1.
</event>
<event>
 5    1  0.1145138E-008  0.3791320E+03  0.7957747E-01  0.3454947E+00
         13   -1    0    0    0    0  0.00000000000E+00  0.00000000000E+00  0.14999999963E+04  0.15000000000E+04  0.10566000000E+00 0. -1.
        994   -1    0    0    0    0 -0.00000000000E+00 -0.00000000000E+00  0.11368683772E-12  0.17120000000E+03  0.17120000000E+03 0.  0.
         13    1    1    2    0    0  0.31580948349E+02  0.27287174119E+02  0.17755507814E+03  0.18239452598E+03  0.10566000000E+00 0. -1.
        994    1    1    2    0    0 -0.23220341679E+02 -0.24701103848E+02  0.84347504960E+01  0.17472811398E+03  0.17120000000E+03 0.  0.
        998    1    1    2    0    0 -0.83606066707E+01 -0.25860702712E+01  0.13140101676E+04  0.13140773600E+04  0.10000000000E+02 0. -1.
</event>
<event>
 5    1  0.1145138E-008  0.3843646E+03  0.7957747E-01  0.3432372E+00
         13   -1    0    0    0    0  0.00000000000E+00  0.00000000000E+00  0.14999999963E+04  0.15000000000E+04  0.10566000000E+00 0.  1.
        994   -1    0    0    0    0 -0.00000000000E+00 -0.00000000000E+00  0.11368683772E-12  0.17120000000E+03  0.17120000000E+03 0.  0.
         13    1    1    2    0    0  0.12866769631E+02  0.11241151380E+02  0.71165023733E+02  0.73187355547E+02  0.10566000000E+00 0.  1.
        994    1    1    2    0    0 -0.67830070187E+01 -0.21590190388E+02  0.36355059115E+01  0.17272753807E+03  0.17120000000E+03 0.  0.
        998    1    1    2    0    0 -0.60837626121E+01  0.10349039008E+02  0.14251994666E+04  0.14252851064E+04  0.10000000000E+02 0.  1.
</event>
<event>
 5    1  0.1145138E-008  0.3856012E+03  0.7957747E-01  0.3427126E+00
         13   -1    0    0    0    0  0.00000000000E+00  0.00000000000E+00  0.14999999963E+04  0.15000000000E+04  0.10566000000E+00 0. -1.
        994   -1    0    0    0    0 -0.00000000000E+00 -0.00000000000E+00  0.11368683772E-12  0.17120000000E+03  0.17120000000E+03 0.  0.
         13    1    1    2    0    0  0.11903078758E+02  0.94525132451E+01  0.83529484622E+02  0.84901232357E+02  0.10566000000E+00 0. -1.
        994    1    1    2    0    0 -0.13211978853E+02 -0.82262612110E+01  0.21273810641E+01  0.17191914817E+03  0.17120000000E+03 0.  0.
        998    1    1    2    0    0  0.13089000953E+01 -0.12262520341E+01  0.14143431306E+04  0.14143796195E+04  0.10000000000E+02 0. -1.
</event>
<event>
 5    1  0.1145138E-008  0.3848675E+03  0.7957747E-01  0.3430234E+00
         13   -1    0    0    0    0  0.00000000000E+00  0.00000000000E+00  0.14999999963E+04  0.15000000000E+04  0.10566000000E+00 0. -1.
        994   -1    0    0    0    0 -0.00000000000E+00 -0.00000000000E+00  0.11368683772E-12  0.17120000000E+03  0.17120000000E+03 0.  0.
         13    1    1    2    0    0 -0.81124385939E+00  0.99756199197E+01  0.32655036593E+02  0.34154555894E+02  0.10566000000E+00 0. -1.
        994    1    1    2    0    0 -0.29383519100E+02  0.14497160507E+02  0.52360273293E+01  0.17438582179E+03  0.17120000000E+03 0.  0.
        998    1    1    2    0    0  0.30194762960E+02 -0.24472780427E+02  0.14621089324E+04  0.14626596223E+04  0.10000000000E+02 0. -1.
</event>
<event>
 5    1  0.1145138E-008  0.3786378E+03  0.7957747E-01  0.3457111E+00
         13   -1    0    0    0    0  0.00000000000E+00  0.00000000000E+00  0.14999999963E+04  0.15000000000E+04  0.10566000000E+00 0. -1.
        994   -1    0    0    0    0 -0.00000000000E+00 -0.00000000000E+00  0.11368683772E-12  0.17120000000E+03  0.17120000000E+03 0.  0.
         13    1    1    2    0    0 -0.20504721725E+03  0.20267823528E+03  0.81270272610E+03  0.86232740913E+03  0.10566000000E+00 0. -1.
        994    1    1    2    0    0  0.21742974109E+03 -0.21693112375E+03  0.45229215589E+03  0.57289827984E+03  0.17120000000E+03 0.  0.
        998    1    1    2    0    0 -0.12382523836E+02  0.14252888466E+02  0.23500511429E+03  0.23597431103E+03  0.10000000000E+02 0. -1.
</event>
<event>
 5    1  0.1145138E-008  0.3833211E+03  0.7957747E-01  0.3436824E+00
         13   -1    0    0    0    0  0.00000000000E+00  0.00000000000E+00  0.14999999963E+04  0.15000000000E+04  0.10566000000E+00 0. -1.
        994   -1    0    0    0    0 -0.00000000000E+00 -0.00000000000E+00  0.11368683772E-12  0.17120000000E+03  0.17120000000E+03 0.  0.
         13    1    1    2    0    0  0.71680030055E+01 -0.13217717776E+02  0.44571617522E+02  0.47039649051E+02  0.10566000000E+00 0. -1.
        994    1    1    2    0    0 -0.52088563830E+01  0.11785315554E+02  0.30151587495E+01  0.17171067826E+03  0.17120000000E+03 0.  0.
        998    1    1    2    0    0 -0.19591466225E+01  0.14324022215E+01  0.14524132200E+04  0.14524496727E+04  0.10000000000E+02 0. -1.
</event>
<event>
 5    1  0.1145138E-008  0.3751687E+03  0.7957747E-01  0.3472469E+00
         13   -1    0    0    0    0  0.00000000000E+00  0.00000000000E+00  0.14999999963E+04  0.15000000000E+04  0.10566000000E+00 0. -1.
        994   -1    0    0    0    0 -0.00000000000E+00 -0.00000000000E+00  0.11368683772E-12  0.17120000000E+03  0.17120000000E+03 0.  0.
         13    1    1    2    0    0 -0.15173636629E+03  0.56265889238E+02  0.90200628576E+03  0.91640882027E+03  0.10566000000E+00 0. -1.
        994    1    1    2    0    0  0.13684809859E+03 -0.61609279053E+02  0.87419901393E+02  0.24387452616E+03  0.17120000000E+03 0.  0.
        998    1    1    2    0    0  0.14888267709E+02  0.53433898157E+01  0.51057380912E+03  0.51091665357E+03  0.10000000000E+02 0.  1.
</event>
<event>
 5    1  0.1145138E-008  0.3787087E+03  0.7957747E-01  0.3456800E+00
         13   -1    0    0    0    0  0.00000000000E+00  0.00000000000E+00  0.14999999963E+04  0.15000000000E+04  0.10566000000E+00 0.  1.
        994   -1    0    0    0    0 -0.00000000000E+00 -0.00000000000E+00  0.11368683772E-12  0.17120000000E+03  0.17120000000E+03 0.  0.
         13    1    1    2    0    0  0.17731921953E+02  0.25959438955E+02  0.10905158095E+03  0.11349260768E+03  0.10566000000E+00 0.  1.
        994    1    1    2    0    0 -0.86265950837E+01 -0.26749318237E+00  0.50365031319E+01  0.17149138771E+03  0.17120000000E+03 0.  0.
        998    1    1    2    0    0 -0.91053268698E+01 -0.25691945773E+02  0.13859119122E+04  0.13862160046E+04  0.10000000000E+02 0.  1.
</event>
<event>
 5    1  0.1145138E-008  0.3779130E+03  0.7957747E-01  0.3460296E+00
         13   -1    0    0    0    0  0.00000000000E+00  0.00000000000E+00  0.14999999963E+04  0.15000000000E+04  0.10566000000E+00 0.  1.
        994   -1    0    0    0    0 -0.00000000000E+00 -0.00000000000E+00  0.11368683772E-12  0.17120000000E+03  0.17120000000E+03 0.  0.
         13    1    1    2    0    0 -0.13817610430E+02 -0.22539830773E+02  0.67217259206E+02  0.72229782143E+02  0.10566000000E+00 0.  1.
        994    1    1    2    0    0  0.57493480787E+01  0.79513757450E+01  0.55145103532E+01  0.17156960455E+03  0.17120000000E+03 0.  0.
        998    1    1    2    0    0  0.80682623514E+01  0.14588455028E+02  0.14272682267E+04  0.14274006133E+04  0.10000000000E+02 0.  1.
</event>
<event>
 5    1  0.1145138E-008  0.3791480E+03  0.7957747E-01  0.3454877E+00
         13   -1    0    0    0    0  0.00000000000E+00  0.00000000000E+00  0.14999999963E+04  0.15000000000E+04  0.10566000000E+00 0.  1.
        994   -1    0    0    0    0 -0.00000000000E+00 -0.00000000000E+00  0.11368683772E-12  0.17120000000E+03  0.17120000000E+03 0.  0.
         13    1    1    2    0    0  0.18605692271E+02  0.14877029270E+02  0.53151629089E+02  0.58246069598E+02  0.10566000000E+00 0.  1.
        994    1    1    2    0    0 -0.38301446843E+02 -0.32351347791E+02  0.13036948139E+02  0.17886590662E+03  0.17120000000E+03 0.  0.
        998    1    1    2    0    0  0.19695754572E+02  0.17474318521E+02  0.14338114191E+04  0.14340880238E+04  0.10000000000E+02 0.  1.
</event>
<event>
 5    1  0.1145138E-008  0.3778117E+03  0.7957747E-01  0.3460743E+00
         13   -1    0    0    0    0  0.00000000000E+00  0.00000000000E+00  0.14999999963E+04  0.15000000000E+04  0.10566000000E+00 0.  1.
        994   -1    0    0    0    0 -0.00000000000E+00 -0.00000000000E+00  0.11368683772E-12  0.17120000000E+03  0.17120000000E+03 0.  0.
         13    1    1    2    0    0  0.16778288036E+02 -0.55434237324E+01  0.27152366993E+02  0.32396028976E+02  0.10566000000E+00 0.  1.
        994    1    1    2    0    0 -0.17424645449E+02  0.57590705309E+01  0.63767451674E+01  0.17229883355E+03  0.17120000000E+03 0.  0.
        998    1    1    2    0    0  0.64635741316E+00 -0.21564679843E+00  0.14664708841E+04  0.14665051375E+04  0.10000000000E+02 0.  1.
</event>
<event>
 5    1  0.1145138E-008  0.3854821E+03  0.7957747E-01  0.3427630E+00
         13   -1    0    0    0    0  0.00000000000E+00  0.00000000000E+00  0.14999999963E+04  0.15000000000E+04  0.10566000000E+00 0. -1.
        994   -1    0    0    0    0 -0.00000000000E+00 -0.00000000000E+00  0.11368683772E-12  0.17120000000E+03  0.17120000000E+03 0.  0.
         13    1    1    2    0    0  0.73385838159E+00 -0.11778664787E+02  0.51114100588E+02  0.52458916642E+02  0.10566000000E+00 0. -1.
        994    1    1    2    0    0 -0.57878429826E+01  0.48808227290E+01  0.15792255625E+01  0.17137460579E+03  0.17120000000E+03 0.  0.
        998    1    1    2    0    0  0.50539846010E+01  0.68978420580E+01  0.14473066701E+04  0.14473664776E+04  0.10000000000E+02 0. -1.
</event>
<event>
 5    1  0.1145138E-008  0.3818060E+03  0.7957747E-01  0.3443332E+00
         13   -1    0    0    0    0  0.00000000000E+00  0.00000000000E+00  0.14999999963E+04  0.15000000000E+04  0.10566000000E+00 0.  1.
        994   -1    0    0    0    0 -0.00000000000E+00 -0.00000000000E+00  0.11368683772E-12  0.17120000000E+03  0.17120000000E+03 0.  0.
         13    1    1    2    0    0  0.32392069993E+01 -0.13445254168E+02  0.28558099703E+02  0.31730798041E+02  0.10566000000E+00 0.  1.
        994    1    1    2    0    0 -0.17479264006E+02  0.43090633952E+01  0.43019988954E+01  0.17219767679E+03  0.17120000000E+03 0.  0.
        998    1    1    2    0    0  0.14240057007E+02  0.91361907730E+01  0.14671398977E+04  0.14672715252E+04  0.10000000000E+02 0.  1.
</event>
<event>
 5    1  0.1145138E-008  0.3784696E+03  0.7957747E-01  0.3457849E+00
         13   -1    0    0    0    0  0.00000000000E+00  0.00000000000E+00  0.14999999963E+04  0.15000000000E+04  0.10566000000E+00 0. -1.
        994   -1    0    0    0    0 -0.00000000000E+00 -0.00000000000E+00  0.11368683772E-12  0.17120000000E+03  0.17120000000E+03 0.  0.
         13    1    1    2    0    0 -0.48501491697E+02 -0.13225097847E+02  0.29436331907E+03  0.29862530483E+03  0.10566000000E+00 0. -1.
        994    1    1    2    0    0  0.96258214124E+01  0.13642631776E+02  0.58449014335E+01  0.17211153567E+03  0.17120000000E+03 0.  0.
        998    1    1    2    0    0  0.38875670284E+02 -0.41753392868E+00  0.11997917758E+04  0.12004631595E+04  0.10000000000E+02 0. -1.
</event>
<event>
 5    1  0.1145138E-008  0.3837314E+03  0.7957747E-01  0.3435070E+00
         13   -1    0    0    0    0  0.00000000000E+00  0.00000000000E+00  0.14999999963E+04  0.15000000000E+04  0.10566000000E+00 0.  1.
        994   -1    0    0    0    0 -0.00000000000E+00 -0.00000000000E+00  0.11368683772E-12  0.17120000000E+03  0.17120000000E+03 0.  0.
         13    1    1    2    0    0 -0.27026070147E+02 -0.31681300511E+00  0.14812532910E+03  0.15057102351E+03  0.10566000000E+00 0.  1.
        994    1    1    2    0    0  0.26403410996E+02  0.38768246344E+01  0.46165938299E+01  0.17332894398E+03  0.17120000000E+03 0.  0.
        998    1    1    2    0    0  0.62265915071E+00 -0.35600116293E+01  0.13472580734E+04  0.13473000325E+04  0.10000000000E+02 0.  1.
</event>
<event>
 5    1  0.1145138E-008  0.3810488E+03  0.7957747E-01  0.3446604E+00
         13   -1    0    0    0    0  0.00000000000E+00  0.00000000000E+00  0.14999999963E+04  0.15000000000E+04  0.10566000000E+00 0.  1.
        994   -1    0    0    0    0 -0.00000000000E+00 -0.00000000000E+00  0.11368683772E-12  0.17120000000E+03  0.17120000000E+03 0.  0.
         13    1    1    2    0    0 -0.18708597645E+01  0.13492942156E+02  0.24093746357E+02  0.27678139060E+02  0.10566000000E+00 0.  1.
        994    1    1    2    0    0  0.12967701930E+00 -0.12464645407E+02  0.41224549068E+01  0.17170270480E+03  0.17120000000E+03 0.  0.
        998    1    1    2    0    0  0.17411827452E+01 -0.10282967485E+01  0.14717837950E+04  0.14718191561E+04  0.10000000000E+02 0.  1.
</event>
<event>
 5    1  0.1145138E-008  0.3774370E+03  0.7957747E-01  0.3462395E+00
         13   -1    0    0    0    0  0.00000000000E+00  0.00000000000E+00  0.14999999963E+04  0.15000000000E+04  0.10566000000E+00 0.  1.
        994   -1    0    0    0    0 -0.00000000000E+00 -0.00000000000E+00  0.11368683772E-12  0.17120000000E+03  0.17120000000E+03 0.  0.
         13    1    1    2    0    0  0.10430045582E+02 -0.42305768404E+02  0.21857992981E+03  0.22288059756E+03  0.10566000000E+00 0.  1.
        994    1    1    2    0    0 -0.17574604688E+01 -0.82613306597E+01  0.56731342184E+01  0.17150207784E+03  0.17120000000E+03 0.  0.
        998    1    1    2    0    0 -0.86725851128E+01  0.50567099064E+02  0.12757469323E+04  0.12768173246E+04  0.10000000000E+02 0. -1.
</event>
<event>
 5    1  0.1145138E-008  0.3835758E+03  0.7957747E-01  0.3435735E+00
         13   -1    0    0    0    0  0.00000000000E+00  0.00000000000E+00  0.14999999963E+04  0.15000000000E+04  0.10566000000E+00 0.  1.
        994   -1    0    0    0    0 -0.00000000000E+00 -0.00000000000E+00  0.11368683772E-12  0.17120000000E+03  0.17120000000E+03 0.  0.
         13    1    1    2    0    0  0.28559426907E+01  0.15348531594E+02  0.50893022166E+02  0.53233867979E+02  0.10566000000E+00 0.  1.
        994    1    1    2    0    0 -0.31887394807E+01 -0.12405773068E+02  0.28811320181E+01  0.17170268544E+03  0.17120000000E+03 0.  0.
        998    1    1    2    0    0  0.33279679003E+00 -0.29427585260E+01  0.14462258421E+04  0.14462634466E+04  0.10000000000E+02 0.  1.
</event>
<event>
 5    1  0.1145138E-008  0.3800831E+03  0.7957747E-01  0.3450797E+00
         13   -1    0    0    0    0  0.00000000000E+00  0.00000000000E+00  0.14999999963E+04  0.15000000000E+04  0.10566000000E+00 0.  1.
        994   -1    0    0    0    0 -0.00000000000E+00 -0.00000000000E+00  0.11368683772E-12  0.17120000000E+03  0.17120000000E+03 0.  0.
         13    1    1    2    0    0 -0.17265946786E+02 -0.12079348712E+02  0.49596541149E+02  0.53887397800E+02  0.10566000000E+00 0.  1.
        994    1    1    2    0    0  0.25642166979E+02  0.15931032563E+02  0.71428094113E+01  0.17398786812E+03  0.17120000000E+03 0.  0.
        998    1    1    2    0    0 -0.83762201926E+01 -0.38516838511E+01  0.14432606457E+04  0.14433247341E+04  0.10000000000E+02 0.  1.
</event>
<event>
 5    1  0.1145138E-008  0.3777456E+03  0.7957747E-01  0.3461034E+00
         13   -1    0    0    0    0  0.00000000000E+00  0.00000000000E+00  0.14999999963E+04  0.15000000000E+04  0.10566000000E+00 0. -1.
        994   -1    0    0    0    0 -0.00000000000E+00 -0.00000000000E+00  0.11368683772E-12  0.17120000000E+03  0.17120000000E+03 0.  0.
         13    1    1    2    0    0 -0.70815978449E+02  0.35671902030E+02  0.42777779217E+03  0.43506463662E+03  0.10566000000E+00 0. -1.
        994    1    1    2    0    0  0.69865188688E+02 -0.35203432979E+02  0.26174579060E+02  0.19003940347E+03  0.17120000000E+03 0.  0.
        998    1    1    2    0    0  0.95078976053E+00 -0.46846905093E+00  0.10460476250E+04  0.10460959599E+04  0.10000000000E+02 0.  0.
</event>
<event>
 5    1  0.1145138E-008  0.3805267E+03  0.7957747E-01  0.3448868E+00
         13   -1    0    0    0    0  0.00000000000E+00  0.00000000000E+00  0.14999999963E+04  0.15000000000E+04  0.10566000000E+00 0.  1.
        994   -1    0    0    0    0 -0.00000000000E+00 -0.00000000000E+00  0.11368683772E-12  0.17120000000E+03  0.17120000000E+03 0.  0.
         13    1    1    2    0    0  0.10587322340E+02  0.21986937850E+01  0.13303779703E+02  0.17144310051E+02  0.10566000000E+00 0.  1.
        994    1    1    2    0    0 -0.11741682755E+02 -0.35618670017E+01  0.43700965936E+01  0.17169476333E+03  0.17120000000E+03 0.  0.
        998    1    1    2    0    0  0.11543604144E+01  0.13631732167E+01  0.14823261200E+04  0.14823609266E+04  0.10000000000E+02 0.  1.
</event>
<event>
 5    1  0.1145138E-008  0.3850195E+03  0.7957747E-01  0.3429590E+00
         13   -1    0    0    0    0  0.00000000000E+00  0.00000000000E+00  0.14999999963E+04  0.15000000000E+04  0.10566000000E+00 0. -1.
        994   -1    0    0    0    0 -0.00000000000E+00 -0.00000000000E+00  0.11368683772E-12  0.17120000000E+03  0.17120000000E+03 0.  0.
         13    1    1    2    0    0  0.17789104690E+02 -0.38707607170E+01  0.97407131663E+02  0.99093872147E+02  0.10566000000E+00 0. -1.
        994    1    1    2    0    0 -0.15973698631E+02  0.11938937727E+02  0.29293669134E+01  0.17238247728E+03  0.17120000000E+03 0.  0.
        998    1    1    2    0    0 -0.18154060592E+01 -0.80681770100E+01  0.13996634977E+04  0.13997236506E+04  0.10000000000E+02 0. -1.
</event>
<event>
 5    1  0.1145138E-008  0.3829781E+03  0.7957747E-01  0.3438293E+00
         13   -1    0    0    0    0  0.00000000000E+00  0.00000000000E+00  0.14999999963E+04  0.15000000000E+04  0.10566000000E+00 0. -1.
        994   -1    0    0    0    0 -0.00000000000E+00 -0.00000000000E+00  0.11368683772E-12  0.17120000000E+03  0.17120000000E+03 0.  0.
         13    1    1    2    0    0 -0.14789435860E+02  0.33454888090E+02  0.17827631039E+03  0.18199013973E+03  0.10566000000E+00 0. -1.
        994    1    1    2    0    0  0.10418537123E+03 -0.37244141125E+02  0.44276993993E+02  0.20859436671E+03  0.17120000000E+03 0.  0.
        998    1    1    2    0    0 -0.89395935369E+02  0.37892530353E+01  0.12774466919E+04  0.12806154936E+04  0.10000000000E+02 0. -1.
</event>
<event>
 5    1  0.1145138E-008  0.3832029E+03  0.7957747E-01  0.3437330E+00
         13   -1    0    0    0    0  0.00000000000E+00  0.00000000000E+00  0.14999999963E+04  0.15000000000E+04  0.10566000000E+00 0. -1.
        994   -1    0    0    0    0 -0.00000000000E+00 -0.00000000000E+00  0.11368683772E-12  0.17120000000E+03  0.17120000000E+03 0.  0.
         13    1    1    2    0    0  0.12614417849E+02  0.25503795332E+02  0.16116447660E+03  0.16365685685E+03  0.10566000000E+00 0. -1.
        994    1    1    2    0    0 -0.96380531854E+01 -0.12807409510E+02  0.33753267008E+01  0.17198184392E+03  0.17120000000E+03 0.  0.
        998    1    1    2    0    0 -0.29763646639E+01 -0.12696385822E+02  0.13354601930E+04  0.13355612992E+04  0.10000000000E+02 0. -1.
</event>
<event>
 5    1  0.1145138E-008  0.3853836E+03  0.7957747E-01  0.3428047E+00
         13   -1    0    0    0    0  0.00000000000E+00  0.00000000000E+00  0.14999999963E+04  0.15000000000E+04  0.10566000000E+00 0. -1.
        994   -1    0    0    0    0 -0.00000000000E+00 -0.00000000000E+00  0.11368683772E-12  0.17120000000E+03  0.17120000000E+03 0.  0.
         13    1    1    2    0    0  0.89023869406E+01 -0.12639240833E+02  0.85665910826E+02  0.87049769350E+02  0.10566000000E+00 0. -1.
        994    1    1    2    0    0 -0.13792220583E+01  0.69587704244E+01  0.16051348633E+01  0.17135443734E+03  0.17120000000E+03 0.  0.
        998    1    1    2    0    0 -0.75231648823E+01  0.56804704087E+01  0.14127289506E+04  0.14127957933E+04  0.10000000000E+02 0. -1.
</event>
<event>
 5    1  0.1145138E-008  0.3803811E+03  0.7957747E-01  0.3449501E+00
         13   -1    0    0    0    0  0.00000000000E+00  0.00000000000E+00  0.14999999963E+04  0.15000000000E+04  0.10566000000E+00 0. -1.
        994   -1    0    0    0    0 -0.00000000000E+00 -0.00000000000E+00  0.11368683772E-12  0.17120000000E+03  0.17120000000E+03 0.  0.
         13    1    1    2    0    0  0.30268266491E+02 -0.63204460003E+01  0.12581550939E+03  0.12955952131E+03  0.10566000000E+00 0. -1.
        994    1    1    2    0    0 -0.66436751860E+01  0.21403247296E+02  0.56195339002E+01  0.17275200889E+03  0.17120000000E+03 0.  0.
        998    1    1    2    0    0 -0.23624591305E+02 -0.15082801296E+02  0.13685649530E+04  0.13688884698E+04  0.10000000000E+02 0. -1.
</event>
<event>
 5    1  0.1145138E-008  0.3727621E+03  0.7957747E-01  0.3483293E+00
         13   -1    0    0    0    0  0.00000000000E+00  0.00000000000E+00  0.14999999963E+04  0.15000000000E+04  0.10566000000E+00 0.  1.
        994   -1    0    0    0    0 -0.00000000000E+00 -0.00000000000E+00  0.11368683772E-12  0.17120000000E+03  0.17120000000E+03 0.  0.
         13    1    1    2    0    0 -0.49845705722E+01 -0.10214888163E+02 -0.63517981375E+00  0.11384397279E+02  0.10566000000E+00 0.  1.
        994    1    1    2    0    0  0.13182673429E+02  0.12529862641E+02  0.13575337558E+02  0.17269774210E+03  0.17120000000E+03 0.  0.
        998    1    1    2    0    0 -0.81981028572E+01 -0.23149744781E+01  0.14870598385E+04  0.14871178606E+04  0.10000000000E+02 0.  1.
</event>
<event>
 5    1  0.1145138E-008  0.3814627E+03  0.7957747E-01  0.3444814E+00
         13   -1    0    0    0    0  0.00000000000E+00  0.00000000000E+00  0.14999999963E+04  0.15000000000E+04  0.10566000000E+00 0.  1.
        994   -1    0    0    0    0 -0.00000000000E+00 -0.00000000000E+00  0.11368683772E-12  0.17120000000E+03  0.17120000000E+03 0.  0.
         13    1    1    2    0    0 -0.15689493659E+02 -0.14268889616E+02  0.65801979902E+02  0.69135180229E+02  0.10566000000E+00 0.  1.
        994    1    1    2    0    0  0.12655741189E+02  0.25150959152E+01  0.39506815131E+01  0.17173101460E+03  0.17120000000E+03 0.  0.
        998    1    1    2    0    0  0.30337524701E+01  0.11753793701E+02  0.14302473349E+04  0.14303338052E+04  0.10000000000E+02 0.  1.
</event>
<event>
 5    1  0.1145138E-008  0.3907907E+03  0.7957747E-01  0.3405478E+00
         13   -1    0    0    0    0  0.00000000000E+00  0.00000000000E+00  0.14999999963E+04  0.15000000000E+04  0.10566000000E+00 0.  1.
        994   -1    0    0    0    0 -0.00000000000E+00 -0.00000000000E+00  0.11368683772E-12  0.17120000000E+03  0.17120000000E+03 0.  0.
         13    1    1    2    0    0  0.43363184939E+02 -0.95726307462E+02  0.20666846639E+03  0.23185287989E+03  0.10566000000E+00 0.  1.
        994    1    1    2    0    0 -0.40065784524E+02  0.95833789464E+02  0.64367268159E+02  0.21033774626E+03  0.17120000000E+03 0.  0.
        998    1    1    2    0    0 -0.32974004159E+01 -0.10748200171E+00  0.12289642617E+04  0.12290093738E+04  0.10000000000E+02 0.  0.
</event>
<event>
 5    1  0.1145138E-008  0.3810203E+03  0.7957747E-01  0.3446728E+00
         13   -1    0    0    0    0  0.00000000000E+00  0.00000000000E+00  0.14999999963E+04  0.15000000000E+04  0.10566000000E+00 0. -1.
        994   -1    0    0    0    0 -0.00000000000E+00 -0.00000000000E+00  0.11368683772E-12  0.17120000000E+03  0.17120000000E+03 0.  0.
         13    1    1    2    0    0  0.42893226323E+02 -0.63460772619E+01  0.26090133101E+03  0.26447989951E+03  0.10566000000E+00 0. -1.
        994    1    1    2    0    0 -0.24612616094E+02 -0.31601459087E+01  0.56732265030E+01  0.17308204093E+03  0.17120000000E+03 0.  0.
        998    1    1    2    0    0 -0.18280610229E+02  0.95062231706E+01  0.12334254388E+04  0.12336380596E+04  0.10000000000E+02 0. -1.
</event>
<event>
 5    1  0.1145138E-008  0.3690278E+03  0.7957747E-01  0.3500371E+00
         13   -1    0    0    0    0  0.00000000000E+00  0.00000000000E+00  0.14999999963E+04  0.15000000000E+04  0.10566000000E+00 0.  1.
        994   -1    0    0    0    0 -0.00000000000E+00 -0.00000000000E+00  0.11368683772E-12  0.17120000000E+03  0.17120000000E+03 0.  0.
         13    1    1    2    0    0  0.21450868632E+02 -0.16273822676E+02  0.32428451912E+02  0.42149646820E+02  0.10566000000E+00 0.  1.
        994    1    1    2    0    0 -0.16133962939E+02  0.23055159863E+02  0.12530172917E+02  0.17394910287E+03  0.17120000000E+03 0.  0.
        998    1    1    2    0    0 -0.53169056934E+01 -0.67813371869E+01  0.14550413714E+04  0.14551012503E+04  0.10000000000E+02 0.  1.
</event>
<event>
 5    1  0.1145138E-008  0.3844303E+03  0.7957747E-01  0.3432092E+00
         13   -1    0    0    0    0  0.00000000000E+00  0.00000000000E+00  0.14999999963E+04  0.15000000000E+04  0.10566000000E+00 0. -1.
        994   -1    0    0    0    0 -0.00000000000E+00 -0.00000000000E+00  0.11368683772E-12  0.17120000000E+03  0.17120000000E+03 0.  0.
         13    1    1    2    0    0  0.17096789977E+02 -0.12528890241E+02  0.12689147299E+03  0.12864964205E+03  0.10566000000E+00 0. -1.
        994    1    1    2    0    0  0.19883912475E+01  0.90881147652E+01  0.21984673961E+01  0.17146667545E+03  0.17120000000E+03 0.  0.
        998    1    1    2    0    0 -0.19085181224E+02  0.34407754757E+01  0.13709100559E+04  0.13710836825E+04  0.10000000000E+02 0. -1.
</event>
<event>
 5    1  0.1145138E-008  0.3749875E+03  0.7957747E-01  0.3473279E+00
         13   -1    0    0    0    0  0.00000000000E+00  0.00000000000E+00  0.14999999963E+04  0.15000000000E+04  0.10566000000E+00 0.  1.
        994   -1    0    0    0    0 -0.00000000000E+00 -0.00000000000E+00  0.11368683772E-12  0.17120000000E+03  0.17120000000E+03 0.  0.
         13    1    1    2    0    0  0.34889677396E+02  0.63059923993E+01  0.90956430760E+02  0.97622428722E+02  0.10566000000E+00 0.  1.
        994    1    1    2    0    0 -0.28596657805E+02  0.23407455979E+02  0.11341699058E+02  0.17550997684E+03  0.17120000000E+03 0.  0.
        998    1    1    2    0    0 -0.62930195902E+01 -0.29713448379E+02  0.13977018665E+04  0.13980675944E+04  0.10000000000E+02 0.  1.
</event>
<event>
 5    1  0.1145138E-008  0.3765926E+03  0.7957747E-01  0.3466131E+00
         13   -1    0    0    0    0  0.00000000000E+00  0.00000000000E+00  0.14999999963E+04  0.15000000000E+04  0.10566000000E+00 0.  1.
        994   -1    0    0    0    0 -0.00000000000E+00 -0.00000000000E+00  0.11368683772E-12  0.17120000000E+03  0.17120000000E+03 0.  0.
         13    1    1    2    0    0  0.61638350238E+01 -0.98632386546E+01  0.88587124784E+01  0.14620680209E+02  0.10566000000E+00 0.  1.
        994    1    1    2    0    0 -0.48783130750E+01  0.86082376708E+01  0.61942399546E+01  0.17159751835E+03  0.17120000000E+03 0.  0.
        998    1    1    2    0    0 -0.12855219488E+01  0.12550009838E+01  0.14849470438E+04  0.14849818014E+04  0.10000000000E+02 0.  1.
</event>
<event>
 5    1  0.1145138E-008  0.3854935E+03  0.7957747E-01  0.3427582E+00
         13   -1    0    0    0    0  0.00000000000E+00  0.00000000000E+00  0.14999999963E+04  0.15000000000E+04  0.10566000000E+00 0. -1.
        994   -1    0    0    0    0 -0.00000000000E+00 -0.00000000000E+00  0.11368683772E-12  0.17120000000E+03  0.17120000000E+03 0.  0.
         13    1    1    2    0    0 -0.27071417459E+01 -0.13884295490E+02  0.67001697467E+02  0.68478762439E+02  0.10566000000E+00 0. -1.
        994    1    1    2    0    0  0.34141860911E+01  0.20758138365E+02  0.28397619699E+01  0.17251104667E+03  0.17120000000E+03 0.  0.
        998    1    1    2    0    0 -0.70704434522E+00 -0.68738428745E+01  0.14301585368E+04  0.14302101909E+04  0.10000000000E+02 0. -1.
</event>
<event>
 5    1  0.1145138E-008  0.3810500E+03  0.7957747E-01  0.3446599E+00
         13   -1    0    0    0    0  0.00000000000E+00  0.00000000000E+00  0.14999999963E+04  0.15000000000E+04  0.10566000000E+00 0.  1.
        994   -1    0    0    0    0 -0.00000000000E+00 -0.00000000000E+00  0.11368683772E-12  0.17120000000E+03  0.17120000000E+03 0.  0.
         13    1    1    2    0    0  0.16664716553E+02 -0.26625267267E+01  0.38057552930E+02  0.41631602485E+02  0.10566000000E+00 0.  1.
        994    1    1    2    0    0 -0.12434550661E+02 -0.10801235891E+01  0.41231728716E+01  0.17170388834E+03  0.17120000000E+03 0.  0.
        998    1    1    2    0    0 -0.42301658918E+01  0.37426503158E+01  0.14578192705E+04  0.14578645092E+04  0.10000000000E+02 0.  1.
</event>
<event>
 5    1  0.1145138E-008  0.3871019E+03  0.7957747E-01  0.3420806E+00
         13   -1    0    0    0    0  0.00000000000E+00  0.00000000000E+00  0.14999999963E+04  0.15000000000E+04  0.10566000000E+00 0. -1.
        994   -1    0    0    0    0 -0.00000000000E+00 -0.00000000000E+00  0.11368683772E-12  0.17120000000E+03  0.17120000000E+03 0.  0.
         13    1    1    2    0    0 -0.62486890142E+02  0.89461383873E+02  0.24343400434E+03  0.26677345497E+03  0.10566000000E+00 0. -1.
        994    1    1    2    0    0  0.61729692245E+02 -0.84529497604E+02  0.62303512406E+02  0.21011177627E+03  0.17120000000E+03 0.  0.
        998    1    1    2    0    0  0.75719789734E+00 -0.49318862687E+01  0.11942624795E+04  0.11943147688E+04  0.10000000000E+02 0.  0.
</event>
<event>
 5    1  0.1145138E-008  0.3805042E+03  0.7957747E-01  0.3448966E+00
         13   -1    0    0    0    0  0.00000000000E+00  0.00000000000E+00  0.14999999963E+04  0.15000000000E+04  0.10566000000E+00 0. -1.
        994   -1    0    0    0    0 -0.00000000000E+00 -0.00000000000E+00  0.11368683772E-12  0.17120000000E+03  0.17120000000E+03 0.  0.
         13    1    1    2    0    0 -0.56460731718E+02 -0.24036044515E+02  0.10159647380E+03  0.11869035477E+03  0.10566000000E+00 0. -1.
        994    1    1    2    0    0  0.55618013332E+02  0.21362629325E+02  0.29606034909E+02  0.18367275966E+03  0.17120000000E+03 0.  0.
        998    1    1    2    0    0  0.84271838560E+00  0.26734151903E+01  0.13687974876E+04  0.13688368856E+04  0.10000000000E+02 0. -1.
</event>
<event>
 5    1  0.1145138E-008  0.3707440E+03  0.7957747E-01  0.3492478E+00
         13   -1    0    0    0    0  0.00000000000E+00  0.00000000000E+00  0.14999999963E+04  0.15000000000E+04  0.10566000000E+00 0.  1.
        994   -1    0    0    0    0 -0.00000000000E+00 -0.00000000000E+00  0.11368683772E-12  0.17120000000E+03  0.17120000000E+03 0.  0.
         13    1    1    2    0    0 -0.25411821720E+02 -0.45839147813E+02  0.17196631445E+03  0.17977600681E+03  0.10566000000E+00 0.  1.
        994    1    1    2    0    0 -0.15743175957E+01  0.77719010823E+01  0.90975848062E+01  0.17162484369E+03  0.17120000000E+03 0.  0.
        998    1    1    2    0    0  0.26986139316E+02  0.38067246731E+02  0.13189360970E+04  0.13197991495E+04  0.10000000000E+02 0.  1.
</event>
<event>
 5    1  0.1145138E-008  0.3844018E+03  0.7957747E-01  0.3432213E+00
         13   -1    0    0    0    0  0.00000000000E+00  0.00000000000E+00  0.14999999963E+04  0.15000000000E+04  0.10566000000E+00 0. -1.
        994   -1    0    0    0    0 -0.00000000000E+00 -0.00000000000E+00  0.11368683772E-12  0.17120000000E+03  0.17120000000E+03 0.  0.
         13    1    1    2    0    0  0.12175976402E+02 -0.66066076529E+01  0.47360197087E+02  0.49344717024E+02  0.10566000000E+00 0. -1.
        994    1    1    2    0    0 -0.16336363829E+02  0.73908778419E+01  0.29875166149E+01  0.17216232780E+03  0.17120000000E+03 0.  0.
        998    1    1    2    0    0  0.41603874275E+01 -0.78427018900E+00  0.14496522826E+04  0.14496929552E+04  0.10000000000E+02 0. -1.
</event>
<event>
 5    1  0.1145138E-008  0.3750490E+03  0.7957747E-01  0.3473004E+00
         13   -1    0    0    0    0  0.00000000000E+00  0.00000000000E+00  0.14999999963E+04  0.15000000000E+04  0.10566000000E+00 0.  1.
        994   -1    0    0    0    0 -0.00000000000E+00 -0.00000000000E+00  0.11368683772E-12  0.17120000000E+03  0.17120000000E+03 0.  0.
         13    1    1    2    0    0  0.53635812299E+02 -0.69096180271E+02  0.47342696455E+03  0.48143969966E+03  0.10566000000E+00 0.  1.
        994    1    1    2    0    0 -0.71399461754E+02  0.35766134624E+02  0.28645578351E+02  0.19106833512E+03  0.17120000000E+03 0.  0.
        998    1    1    2    0    0  0.17763649455E+02  0.33330045647E+02  0.99792745338E+03  0.99869196522E+03  0.10000000000E+02 0.  1.
</event>
<event>
 5    1  0.1145138E-008  0.3843208E+03  0.7957747E-01  0.3432558E+00
         13   -1    0    0    0    0  0.00000000000E+00  0.00000000000E+00  0.14999999963E+04  0.15000000000E+04  0.10566000000E+00 0.  1.
        994   -1    0    0    0    0 -0.00000000000E+00 -0.00000000000E+00  0.11368683772E-12  0.17120000000E+03  0.17120000000E+03 0.  0.
         13    1    1    2    0    0  0.37360435836E+01  0.13052797977E+02  0.46499763569E+02  0.48441436113E+02  0.10566000000E+00 0.  1.
        994    1    1    2    0    0 -0.45618846970E+01 -0.80106219926E+01  0.22478627129E+01  0.17146274739E+03  0.17120000000E+03 0.  0.
        998    1    1    2    0    0  0.82584111333E+00 -0.50421759847E+01  0.14512523700E+04  0.14512958165E+04  0.10000000000E+02 0.  1.
</event>
<event>
 5    1  0.1145138E-008  0.3722662E+03  0.7957747E-01  0.3485540E+00
         13   -1    0    0    0    0  0.00000000000E+00  0.00000000000E+00  0.14999999963E+04  0.15000000000E+04  0.10566000000E+00 0.  1.
        994   -1    0    0    0    0 -0.00000000000E+00 -0.00000000000E+00  0.11368683772E-12  0.17120000000E+03  0.17120000000E+03 0.  0.
         13    1    1    2    0    0 -0.38283552876E+02  0.65746856090E+02  0.45246391942E+03  0.45881574629E+03  0.10566000000E+00 0.  1.
        994    1    1    2    0    0  0.68007654451E+02  0.91888767327E+01  0.24423928804E+02  0.18605226367E+03  0.17120000000E+03 0.  0.
        998    1    1    2    0    0 -0.29724101575E+02 -0.74935732823E+02  0.10231121481E+04  0.10263319900E+04  0.10000000000E+02 0.  1.
</event>
<event>
 5    1  0.1145138E-008  0.3824711E+03  0.7957747E-01  0.3440469E+00
         13   -1    0    0    0    0  0.00000000000E+00  0.00000000000E+00  0.14999999963E+04  0.15000000000E+04  0.10566000000E+00 0. -1.
        994   -1    0    0    0    0 -0.00000000000E+00 -0.00000000000E+00  0.11368683772E-12  0.17120000000E+03  0.17120000000E+03 0.  0.
         13    1    1    2    0    0 -0.49799060119E+01  0.14199488609E+02  0.38306712133E+02  0.41156291124E+02  0.10566000000E+00 0. -1.
        994    1    1    2    0    0  0.27934670899E+01 -0.88019234326E+01  0.31737311450E+01  0.17147824901E+03  0.17120000000E+03 0.  0.
        998    1    1    2    0    0  0.21864389220E+01 -0.53975651761E+01  0.14585195530E+04  0.14585654599E+04  0.10000000000E+02 0. -1.
</event>
<event>
 5    1  0.1372833E-008  0.3860095E+03  0.7957747E-01  0.3425402E+00
         13   -1    0    0    0    0  0.00000000000E+00  0.00000000000E+00  0.14999999963E+04  0.15000000000E+04  0.10566000000E+00 0.  1.
        994   -1    0    0    0    0 -0.00000000000E+00 -0.00000000000E+00  0.11368683772E-12  0.17120000000E+03  0.17120000000E+03 0.  0.
         13    1    1    2    0    0  0.73917828705E+01 -0.88107194325E+01  0.59265993904E+02  0.60371652523E+02  0.10566000000E+00 0.  1.
        994    1    1    2    0    0 -0.60810128542E+01  0.48602795487E+01  0.13284550752E+01  0.17138204640E+03  0.17120000000E+03 0.  0.
        998    1    1    2    0    0 -0.13107700163E+01  0.39504398837E+01  0.14394055473E+04  0.14394463011E+04  0.10000000000E+02 0.  1.
</event>
<event>
 5    1  0.1145138E-008  0.3781096E+03  0.7957747E-01  0.3459431E+00
         13   -1    0    0    0    0  0.00000000000E+00  0.00000000000E+00  0.14999999963E+04  0.15000000000E+04  0.10566000000E+00 0. -1.
        994   -1    0    0    0    0 -0.00000000000E+00 -0.00000000000E+00  0.11368683772E-12  0.17120000000E+03  0.17120000000E+03 0.  0.
         13    1    1    2    0    0  0.20478946249E+02  0.72042320972E+02  0.27848428451E+03  0.28837994232E+03  0.10566000000E+00 0. -1.
        994    1    1    2    0    0 -0.16137728077E+02  0.42068088837E+02  0.22634321968E+02  0.17847101416E+03  0.17120000000E+03 0.  0.
        998    1    1    2    0    0 -0.43412181718E+01 -0.11411040981E+03  0.11988813898E+04  0.12043490435E+04  0.10000000000E+02 0. -1.
</event>
<event>
 5    1  0.1145138E-008  0.3812081E+03  0.7957747E-01  0.3445915E+00
         13   -1    0    0    0    0  0.00000000000E+00  0.00000000000E+00  0.14999999963E+04  0.15000000000E+04  0.10566000000E+00 0. -1.
        994   -1    0    0    0    0 -0.00000000000E+00 -0.00000000000E+00  0.11368683772E-12  0.17120000000E+03  0.17120000000E+03 0.  0.
         13    1    1    2    0    0 -0.13595943426E+01  0.44882327367E+02  0.26130065104E+03  0.26513074737E+03  0.10566000000E+00 0. -1.
        994    1    1    2    0    0  0.11433168220E+02 -0.34986131970E+02  0.80485270225E+01  0.17529679276E+03  0.17120000000E+03 0.  0.
        998    1    1    2    0    0 -0.10073573877E+02 -0.98961953976E+01  0.12306508182E+04  0.12307724599E+04  0.10000000000E+02 0. -1.
</event>
<event>
 5    1  0.1145138E-008  0.3692204E+03  0.7957747E-01  0.3499481E+00
         13   -1    0    0    0    0  0.00000000000E+00  0.00000000000E+00  0.14999999963E+04  0.15000000000E+04  0.10566000000E+00 0. -1.
        994   -1    0    0    0    0 -0.00000000000E+00 -0.00000000000E+00  0.11368683772E-12  0.17120000000E+03  0.17120000000E+03 0.  0.
         13    1    1    2    0    0  0.77702333534E+02 -0.10151894130E+03  0.68669001242E+03  0.69848903527E+03  0.10566000000E+00 0. -1.
        994    1    1    2    0    0 -0.45522436073E+02  0.84186140614E+02  0.42140765571E+02  0.20061127232E+03  0.17120000000E+03 0.  0.
        998    1    1    2    0    0 -0.32179897460E+02  0.17332800691E+02  0.77116921829E+03  0.77209969241E+03  0.10000000000E+02 0.  1.
</event>
<event>
 5    1  0.1145138E-008  0.3791699E+03  0.7957747E-01  0.3454781E+00
         13   -1    0    0    0    0  0.00000000000E+00  0.00000000000E+00  0.14999999963E+04  0.15000000000E+04  0.10566000000E+00 0. -1.
        994   -1    0    0    0    0 -0.00000000000E+00 -0.00000000000E+00  0.11368683772E-12  0.17120000000E+03  0.17120000000E+03 0.  0.
         13    1    1    2    0    0 -0.14301899323E+01 -0.91324372078E+02  0.23341592395E+03  0.25064953839E+03  0.10566000000E+00 0. -1.
        994    1    1    2    0    0 -0.72132888683E+01  0.77038856229E+02  0.37832627353E+02  0.19164489192E+03  0.17120000000E+03 0.  0.
        998    1    1    2    0    0  0.86434788006E+01  0.14285515849E+02  0.12287514450E+04  0.12289055697E+04  0.10000000000E+02 0.  0.
</event>
<event>
 5    1  0.2152614E-008  0.3858193E+03  0.7957747E-01  0.3426205E+00
         13   -1    0    0    0    0  0.00000000000E+00  0.00000000000E+00  0.14999999963E+04  0.15000000000E+04  0.10566000000E+00 0.  1.
        994   -1    0    0    0    0 -0.00000000000E+00 -0.00000000000E+00  0.11368683772E-12  0.17120000000E+03  0.17120000000E+03 0.  0.
         13    1    1    2    0    0 -0.79238579888E+01  0.73453310178E+01  0.47855766724E+02  0.49060442171E+02  0.10566000000E+00 0.  1.
        994    1    1    2    0    0  0.56296867661E+01 -0.58527370064E+01  0.14402671964E+01  0.17139854805E+03  0.17120000000E+03 0.  0.
        998    1    1    2    0    0  0.22941712227E+01 -0.14925940114E+01  0.14507039624E+04  0.14507410098E+04  0.10000000000E+02 0.  1.
</event>
<event>
 5    1  0.1145138E-008  0.3838906E+03  0.7957747E-01  0.3434391E+00
         13   -1    0    0    0    0  0.00000000000E+00  0.00000000000E+00  0.14999999963E+04  0.15000000000E+04  0.10566000000E+00 0. -1.
        994   -1    0    0    0    0 -0.00000000000E+00 -0.00000000000E+00  0.11368683772E-12  0.17120000000E+03  0.17120000000E+03 0.  0.
         13    1    1    2    0    0 -0.14099028631E+02 -0.20233184652E+01  0.46443730015E+02  0.48578880675E+02  0.10566000000E+00 0. -1.
        994    1    1    2    0    0  0.70796683671E+01  0.21767504046E+01  0.23630236685E+01  0.17137643895E+03  0.17120000000E+03 0.  0.
        998    1    1    2    0    0  0.70193602638E+01 -0.15343193939E+00  0.14511932426E+04  0.14512446804E+04  0.10000000000E+02 0. -1.
</event>
<event>
 5    1  0.1145138E-008  0.3883834E+03  0.7957747E-01  0.3415448E+00
         13   -1    0    0    0    0  0.00000000000E+00  0.00000000000E+00  0.14999999963E+04  0.15000000000E+04  0.10566000000E+00 0.  1.
        994   -1    0    0    0    0 -0.00000000000E+00 -0.00000000000E+00  0.11368683772E-12  0.17120000000E+03  0.17120000000E+03 0.  0.
         13    1    1    2    0    0  0.62329044468E+02 -0.42744885276E+02  0.12637838427E+03  0.14725332654E+03  0.10566000000E+00 0.  1.
        994    1    1    2    0    0 -0.68280456972E+02  0.23460482633E+01  0.38680467149E+02  0.18834368395E+03  0.17120000000E+03 0.  0.
        998    1    1    2    0    0  0.59514125042E+01  0.40398837012E+02  0.13349411449E+04  0.13356029895E+04  0.10000000000E+02 0.  1.
</event>
<event>
 5    1  0.1145138E-008  0.3798511E+03  0.7957747E-01  0.3451807E+00
         13   -1    0    0    0    0  0.00000000000E+00  0.00000000000E+00  0.14999999963E+04  0.15000000000E+04  0.10566000000E+00 0. -1.
        994   -1    0    0    0    0 -0.00000000000E+00 -0.00000000000E+00  0.11368683772E-12  0.17120000000E+03  0.17120000000E+03 0.  0.
         13    1    1    2    0    0 -0.10076706719E+02  0.80545264660E+00  0.99354580012E+01  0.14174387535E+02  0.10566000000E+00 0. -1.
        994    1    1    2    0    0  0.20919241717E+02 -0.95296468177E+01  0.59776773371E+01  0.17283981448E+03  0.17120000000E+03 0.  0.
        998    1    1    2    0    0 -0.10842534998E+02  0.87241941711E+01  0.14840868609E+04  0.14841857980E+04  0.10000000000E+02 0. -1.
</event>
<event>
 5    1  0.1145138E-008  0.3823927E+03  0.7957747E-01  0.3440806E+00
         13   -1    0    0    0    0  0.00000000000E+00  0.00000000000E+00  0.14999999963E+04  0.15000000000E+04  0.10566000000E+00 0.  1.
        994   -1    0    0    0    0 -0.00000000000E+00 -0.00000000000E+00  0.11368683772E-12  0.17120000000E+03  0.17120000000E+03 0.  0.
         13    1    1    2    0    0  0.86656801437E+01 -0.50018862280E+01  0.18352944932E+02  0.20903459759E+02  0.10566000000E+00 0.  1.
        994    1    1    2    0    0  0.43991116602E+02 -0.91693849654E+01  0.96566365206E+01  0.17726247936E+03  0.17120000000E+03 0.  0.
        998    1    1    2    0    0 -0.52656796746E+02  0.14171271193E+02  0.14719904148E+04  0.14730340609E+04  0.10000000000E+02 0.  1.
</event>
<event>
 5    1  0.1145138E-008  0.4009321E+03  0.7957747E-01  0.3364790E+00
         13   -1    0    0    0    0  0.00000000000E+00  0.00000000000E+00  0.14999999963E+04  0.15000000000E+04  0.10566000000E+00 0.  1.
        994   -1    0    0    0    0 -0.00000000000E+00 -0.00000000000E+00  0.11368683772E-12  0.17120000000E+03  0.17120000000E+03 0.  0.
         13    1    1    2    0    0 -0.38186593880E+02 -0.43936014235E+02  0.60312269897E+02  0.83822254582E+02  0.10566000000E+00 0.  1.
        994    1    1    2    0    0 -0.42043384580E+02 -0.65678926534E+01  0.35484842256E+02  0.17994276154E+03  0.17120000000E+03 0.  0.
        998    1    1    2    0    0  0.80229978460E+02  0.50503906889E+02  0.14042028841E+04  0.14074349839E+04  0.10000000000E+02 0.  1.
</event>
<event>
 5    1  0.1145138E-008  0.3844315E+03  0.7957747E-01  0.3432087E+00
         13   -1    0    0    0    0  0.00000000000E+00  0.00000000000E+00  0.14999999963E+04  0.15000000000E+04  0.10566000000E+00 0. -1.
        994   -1    0    0    0    0 -0.00000000000E+00 -0.00000000000E+00  0.11368683772E-12  0.17120000000E+03  0.17120000000E+03 0.  0.
         13    1    1    2    0    0  0.87744742973E+01 -0.81332557472E+01  0.36258911208E+02  0.38181946706E+02  0.10566000000E+00 0. -1.
        994    1    1    2    0    0 -0.11909239443E+02  0.60309595361E+01  0.24999829627E+01  0.17173785946E+03  0.17120000000E+03 0.  0.
        998    1    1    2    0    0  0.31347651459E+01  0.21022962111E+01  0.14612411021E+04  0.14612801938E+04  0.10000000000E+02 0. -1.
</event>
<event>
 5    1  0.1145138E-008  0.3709528E+03  0.7957747E-01  0.3491523E+00
         13   -1    0    0    0    0  0.00000000000E+00  0.00000000000E+00  0.14999999963E+04  0.15000000000E+04  0.10566000000E+00 0. -1.
        994   -1    0    0    0    0 -0.00000000000E+00 -0.00000000000E+00  0.11368683772E-12  0.17120000000E+03  0.17120000000E+03 0.  0.
         13    1    1    2    0    0 -0.33946481352E+02 -0.87025848807E+02  0.30093131302E+03  0.31509606199E+03  0.10566000000E+00 0. -1.
        994    1    1    2    0    0  0.30628178795E+02  0.87457904255E+02  0.42205450821E+02  0.19919264653E+03  0.17120000000E+03 0.  0.
        998    1    1    2    0    0  0.33183025567E+01 -0.43205544790E+00  0.11568632324E+04  0.11569112915E+04  0.10000000000E+02 0.  0.
</event>
<event>
 5    1  0.1145138E-008  0.3764528E+03  0.7957747E-01  0.3466751E+00
         13   -1    0    0    0    0  0.00000000000E+00  0.00000000000E+00  0.14999999963E+04  0.15000000000E+04  0.10566000000E+00 0. -1.
        994   -1    0    0    0    0 -0.00000000000E+00 -0.00000000000E+00  0.11368683772E-12  0.17120000000E+03  0.17120000000E+03 0.  0.
         13    1    1    2    0    0  0.22825401224E+01 -0.47302447879E+02  0.17121302785E+03  0.17764189718E+03  0.10566000000E+00 0. -1.
        994    1    1    2    0    0 -0.35797398006E+01  0.42847245968E+02  0.12213756955E+02  0.17693873766E+03  0.17120000000E+03 0.  0.
        998    1    1    2    0    0  0.12971996781E+01  0.44552019109E+01  0.13165732115E+04  0.13166193652E+04  0.10000000000E+02 0. -1.
</event>
<event>
 5    1  0.1145138E-008  0.3768695E+03  0.7957747E-01  0.3464904E+00
         13   -1    0    0    0    0  0.00000000000E+00  0.00000000000E+00  0.14999999963E+04  0.15000000000E+04  0.10566000000E+00 0.  1.
        994   -1    0    0    0    0 -0.00000000000E+00 -0.00000000000E+00  0.11368683772E-12  0.17120000000E+03  0.17120000000E+03 0.  0.
         13    1    1    2    0    0  0.10370364383E+02 -0.12190559501E+01  0.77815849675E+01  0.13022856195E+02  0.10566000000E+00 0.  1.
        994    1    1    2    0    0  0.45110456358E+02 -0.37791036283E+02  0.17510744301E+02  0.18187683157E+03  0.17120000000E+03 0.  0.
        998    1    1    2    0    0 -0.55480820740E+02  0.39010092233E+02  0.14747076670E+04  0.14763003122E+04  0.10000000000E+02 0.  1.
</event>
<event>
 5    1  0.1145138E-008  0.3811531E+03  0.7957747E-01  0.3446153E+00
         13   -1    0    0    0    0  0.00000000000E+00  0.00000000000E+00  0.14999999963E+04  0.15000000000E+04  0.10566000000E+00 0. -1.
        994   -1    0    0    0    0 -0.00000000000E+00 -0.00000000000E+00  0.11368683772E-12  0.17120000000E+03  0.17120000000E+03 0.  0.
         13    1    1    2    0    0 -0.47204780593E+01  0.19496016920E+02  0.55568330356E+02  0.59078152404E+02  0.10566000000E+00 0. -1.
        994    1    1    2    0    0  0.30692111661E+01 -0.11797694410E+02  0.40472235138E+01  0.17168117447E+03  0.17120000000E+03 0.  0.
        998    1    1    2    0    0  0.16512668933E+01 -0.76983225097E+01  0.14403844424E+04  0.14404406731E+04  0.10000000000E+02 0. -1.
</event>
<event>
 5    1  0.1145138E-008  0.3855594E+03  0.7957747E-01  0.3427303E+00
         13   -1    0    0    0    0  0.00000000000E+00  0.00000000000E+00  0.14999999963E+04  0.15000000000E+04  0.10566000000E+00 0. -1.
        994   -1    0    0    0    0 -0.00000000000E+00 -0.00000000000E+00  0.11368683772E-12  0.17120000000E+03  0.17120000000E+03 0.  0.
         13    1    1    2    0    0 -0.79253263610E+01 -0.13622044215E+02  0.75642582978E+02  0.77266955487E+02  0.10566000000E+00 0. -1.
        994    1    1    2    0    0  0.20006808562E+02  0.32278163111E+02  0.61011936589E+01  0.17546742366E+03  0.17120000000E+03 0.  0.
        998    1    1    2    0    0 -0.12081482201E+02 -0.18656118897E+02  0.14182562196E+04  0.14184656209E+04  0.10000000000E+02 0. -1.
</event>
<event>
 5    1  0.1145138E-008  0.3704265E+03  0.7957747E-01  0.3493933E+00
         13   -1    0    0    0    0  0.00000000000E+00  0.00000000000E+00  0.14999999963E+04  0.15000000000E+04  0.10566000000E+00 0. -1.
        994   -1    0    0    0    0 -0.00000000000E+00 -0.00000000000E+00  0.11368683772E-12  0.17120000000E+03  0.17120000000E+03 0.  0.
         13    1    1    2    0    0 -0.22978299160E+02  0.19351477819E+02  0.34794730991E+02  0.45969189626E+02  0.10566000000E+00 0. -1.
        994    1    1    2    0    0  0.25184333407E+02 -0.22713175103E+02  0.15202074528E+02  0.17518756246E+03  0.17120000000E+03 0.  0.
        998    1    1    2    0    0 -0.22060342477E+01  0.33616972841E+01  0.14500031908E+04  0.14500432479E+04  0.10000000000E+02 0. -1.
</event>
<event>
 5    1  0.1145138E-008  0.3854578E+03  0.7957747E-01  0.3427733E+00
         13   -1    0    0    0    0  0.00000000000E+00  0.00000000000E+00  0.14999999963E+04  0.15000000000E+04  0.10566000000E+00 0. -1.
        994   -1    0    0    0    0 -0.00000000000E+00 -0.00000000000E+00  0.11368683772E-12  0.17120000000E+03  0.17120000000E+03 0.  0.
         13    1    1    2    0    0 -0.16047421778E+02  0.10835079483E+02  0.11363908076E+03  0.11527692975E+03  0.10566000000E+00 0. -1.
        994    1    1    2    0    0  0.29081140838E+02 -0.12706083094E+02  0.47172840890E+01  0.17418051002E+03  0.17120000000E+03 0.  0.
        998    1    1    2    0    0 -0.13033719060E+02  0.18710036113E+01  0.13816436314E+04  0.13817425602E+04  0.10000000000E+02 0. -1.
</event>
<event>
 5    1  0.1145138E-008  0.3808998E+03  0.7957747E-01  0.3447250E+00
         13   -1    0    0    0    0  0.00000000000E+00  0.00000000000E+00  0.14999999963E+04  0.15000000000E+04  0.10566000000E+00 0.  1.
        994   -1    0    0    0    0 -0.00000000000E+00 -0.00000000000E+00  0.11368683772E-12  0.17120000000E+03  0.17120000000E+03 0.  0.
         13    1    1    2    0    0  0.38700466341E+02  0.16548617241E+02  0.20765951014E+03  0.21188219874E+03  0.10566000000E+00 0.  1.
        994    1    1    2    0    0 -0.33655195501E+02 -0.30496421058E+02  0.10585365159E+02  0.17743785909E+03  0.17120000000E+03 0.  0.
        998    1    1    2    0    0 -0.50452708397E+01  0.13947803816E+02  0.12817551210E+04  0.12818799422E+04  0.10000000000E+02 0.  1.
</event>
<event>
 5    1  0.1145138E-008  0.3716369E+03  0.7957747E-01  0.3488402E+00
         13   -1    0    0    0    0  0.00000000000E+00  0.00000000000E+00  0.14999999963E+04  0.15000000000E+04  0.10566000000E+00 0.  1.
        994   -1    0    0    0    0 -0.00000000000E+00 -0.00000000000E+00  0.11368683772E-12  0.17120000000E+03  0.17120000000E+03 0.  0.
         13    1    1    2    0    0  0.36351755406E+02 -0.61413443158E+02  0.20360003998E+03  0.21574533266E+03  0.10566000000E+00 0.  1.
        994    1    1    2    0    0 -0.26534678472E+02  0.43646726752E+02  0.21038114208E+02  0.17989210146E+03  0.17120000000E+03 0.  0.
        998    1    1    2    0    0 -0.98170769347E+01  0.17766716406E+02  0.12753618421E+04  0.12755625659E+04  0.10000000000E+02 0.  1.
</event>
<event>
 5    1  0.1145138E-008  0.3816120E+03  0.7957747E-01  0.3444170E+00
         13   -1    0    0    0    0  0.00000000000E+00  0.00000000000E+00  0.14999999963E+04  0.15000000000E+04  0.10566000000E+00 0. -1.
        994   -1    0    0    0    0 -0.00000000000E+00 -0.00000000000E+00  0.11368683772E-12  0.17120000000E+03  0.17120000000E+03 0.  0.
         13    1    1    2    0    0  0.42258590278E+02 -0.26765953090E+02  0.28827699932E+03  0.29258476412E+03  0.10566000000E+00 0. -1.
        994    1    1    2    0    0 -0.41725538740E+02  0.39218212510E+02  0.14303047164E+02  0.18108866871E+03  0.17120000000E+03 0.  0.
        998    1    1    2    0    0 -0.53305153798E+00 -0.12452259421E+02  0.11974199498E+04  0.11975265672E+04  0.10000000000E+02 0. -1.
</event>
<event>
 5    1  0.1145138E-008  0.3707562E+03  0.7957747E-01  0.3492423E+00
         13   -1    0    0    0    0  0.00000000000E+00  0.00000000000E+00  0.14999999963E+04  0.15000000000E+04  0.10566000000E+00 0. -1.
        994   -1    0    0    0    0 -0.00000000000E+00 -0.00000000000E+00  0.11368683772E-12  0.17120000000E+03  0.17120000000E+03 0.  0.
         13    1    1    2    0    0  0.11200977697E+02 -0.64607977642E+02  0.30450928465E+03  0.31148927474E+03  0.10566000000E+00 0. -1.
        994    1    1    2    0    0 -0.22694476781E+02  0.20813916387E+00  0.10652680702E+02  0.17302601598E+03  0.17120000000E+03 0.  0.
        998    1    1    2    0    0  0.11493499084E+02  0.64399838478E+02  0.11848380309E+04  0.11866847093E+04  0.10000000000E+02 0. -1.
</event>
<event>
 5    1  0.1145138E-008  0.3809965E+03  0.7957747E-01  0.3446831E+00
         13   -1    0    0    0    0  0.00000000000E+00  0.00000000000E+00  0.14999999963E+04  0.15000000000E+04  0.10566000000E+00 0. -1.
        994   -1    0    0    0    0 -0.00000000000E+00 -0.00000000000E+00  0.11368683772E-12  0.17120000000E+03  0.17120000000E+03 0.  0.
         13    1    1    2    0    0  0.60891995088E+01  0.98521030864E+01  0.16946249383E+02  0.20526295771E+02  0.10566000000E+00 0. -1.
        994    1    1    2    0    0 -0.47443722842E+00 -0.96797470146E+01  0.39439502904E+01  0.17151943720E+03  0.17120000000E+03 0.  0.
        998    1    1    2    0    0 -0.56147622803E+01 -0.17235607182E+00  0.14791097966E+04  0.14791542670E+04  0.10000000000E+02 0. -1.
</event>
<event>
 5    1  0.1145138E-008  0.4572420E+03  0.7957747E-01  0.3171250E+00
         13   -1    0    0    0    0  0.00000000000E+00  0.00000000000E+00  0.14999999963E+04  0.15000000000E+04  0.10566000000E+00 0. -1.
        994   -1    0    0    0    0 -0.00000000000E+00 -0.00000000000E+00  0.11368683772E-12  0.17120000000E+03  0.17120000000E+03 0.  0.
         13    1    1    2    0    0 -0.13449065306E+02  0.33973246652E+02 -0.15155483910E+02  0.39557031009E+02  0.10566000000E+00 0. -1.
        994    1    1    2    0    0  0.66754823877E+01 -0.10119052575E+02  0.68584434218E+02  0.18482484115E+03  0.17120000000E+03 0.  0.
        998    1    1    2    0    0  0.67735829186E+01 -0.23854194077E+02  0.14465710460E+04  0.14468181278E+04  0.10000000000E+02 0. -1.
</event>
<event>
 5    1  0.1145138E-008  0.3827656E+03  0.7957747E-01  0.3439204E+00
         13   -1    0    0    0    0  0.00000000000E+00  0.00000000000E+00  0.14999999963E+04  0.15000000000E+04  0.10566000000E+00 0. -1.
        994   -1    0    0    0    0 -0.00000000000E+00 -0.00000000000E+00  0.11368683772E-12  0.17120000000E+03  0.17120000000E+03 0.  0.
         13    1    1    2    0    0 -0.20435857801E+02 -0.76788533247E+01  0.94689444432E+02  0.97173510399E+02  0.10566000000E+00 0. -1.
        994    1    1    2    0    0  0.46823734763E+01 -0.17274396277E+02  0.38054328948E+01  0.17217505832E+03  0.17120000000E+03 0.  0.
        998    1    1    2    0    0  0.15753484325E+02  0.24953249602E+02  0.14015051190E+04  0.14018514313E+04  0.10000000000E+02 0. -1.
</event>
<event>
 5    1  0.1145138E-008  0.3744892E+03  0.7957747E-01  0.3475510E+00
         13   -1    0    0    0    0  0.00000000000E+00  0.00000000000E+00  0.14999999963E+04  0.15000000000E+04  0.10566000000E+00 0. -1.
        994   -1    0    0    0    0 -0.00000000000E+00 -0.00000000000E+00  0.11368683772E-12  0.17120000000E+03  0.17120000000E+03 0.  0.
         13    1    1    2    0    0 -0.82366457896E+01  0.70154564567E+01 -0.18784192681E+01  0.10981738758E+02  0.10566000000E+00 0. -1.
        994    1    1    2    0    0  0.10684848342E+02 -0.11243278784E+02  0.14187438373E+02  0.17248565363E+03  0.17120000000E+03 0.  0.
        998    1    1    2    0    0 -0.24482025529E+01  0.42278223275E+01  0.14876909772E+04  0.14877326076E+04  0.10000000000E+02 0. -1.
</event>
<event>
 5    1  0.1145138E-008  0.3770244E+03  0.7957747E-01  0.3464218E+00
         13   -1    0    0    0    0  0.00000000000E+00  0.00000000000E+00  0.14999999963E+04  0.15000000000E+04  0.10566000000E+00 0.  1.
        994   -1    0    0    0    0 -0.00000000000E+00 -0.00000000000E+00  0.11368683772E-12  0.17120000000E+03  0.17120000000E+03 0.  0.
         13    1    1    2    0    0  0.59894075133E+02 -0.17181395185E+02  0.29442141126E+03  0.30094265093E+03  0.10566000000E+00 0.  1.
        994    1    1    2    0    0 -0.49719532152E+02  0.25374553891E+02  0.16235848427E+02  0.18080083694E+03  0.17120000000E+03 0.  0.
        998    1    1    2    0    0 -0.10174542980E+02 -0.81931587053E+01  0.11893427366E+04  0.11894565121E+04  0.10000000000E+02 0.  1.
</event>
<event>
 5    1  0.1145138E-008  0.3828727E+03  0.7957747E-01  0.3438745E+00
         13   -1    0    0    0    0  0.00000000000E+00  0.00000000000E+00  0.14999999963E+04  0.15000000000E+04  0.10566000000E+00 0. -1.
        994   -1    0    0    0    0 -0.00000000000E+00 -0.00000000000E+00  0.11368683772E-12  0.17120000000E+03  0.17120000000E+03 0.  0.
         13    1    1    2    0    0  0.29115708134E+01 -0.16320902623E+02  0.48322522711E+02  0.51087439477E+02  0.10566000000E+00 0. -1.
        994    1    1    2    0    0 -0.10323938598E+01  0.20029385284E+02  0.40231337031E+01  0.17241771289E+03  0.17120000000E+03 0.  0.
        998    1    1    2    0    0 -0.18791769535E+01 -0.37084826603E+01  0.14476543399E+04  0.14476948476E+04  0.10000000000E+02 0. -1.
</event>
<event>
 5    1  0.1145138E-008  0.3844734E+03  0.7957747E-01  0.3431909E+00
         13   -1    0    0    0    0  0.00000000000E+00  0.00000000000E+00  0.14999999963E+04  0.15000000000E+04  0.10566000000E+00 0.  1.
        994   -1    0    0    0    0 -0.00000000000E+00 -0.00000000000E+00  0.11368683772E-12  0.17120000000E+03  0.17120000000E+03 0.  0.
         13    1    1    2    0    0 -0.14836432540E+02 -0.92474596254E+01  0.89825886230E+02  0.91511399514E+02  0.10566000000E+00 0.  1.
        994    1    1    2    0    0 -0.22909638852E+00 -0.73786104730E+01  0.20713566023E+01  0.17137160470E+03  0.17120000000E+03 0.  0.
        998    1    1    2    0    0  0.15065528928E+02  0.16626070098E+02  0.14081027534E+04  0.14083169958E+04  0.10000000000E+02 0.  1.
</event>
<event>
 5    1  0.1145138E-008  0.3717808E+03  0.7957747E-01  0.3487746E+00
         13   -1    0    0    0    0  0.00000000000E+00  0.00000000000E+00  0.14999999963E+04  0.15000000000E+04  0.10566000000E+00 0. -1.
        994   -1    0    0    0    0 -0.00000000000E+00 -0.00000000000E+00  0.11368683772E-12  0.17120000000E+03  0.17120000000E+03 0.  0.
         13    1    1    2    0    0  0.30925235449E+02  0.24444461564E+02  0.96174973975E+02  0.10394007250E+03  0.10566000000E+00 0. -1.
        994    1    1    2    0    0 -0.54684769782E+00 -0.11896431317E+02  0.88287330377E+01  0.17184065482E+03  0.17120000000E+03 0.  0.
        998    1    1    2    0    0 -0.30378387751E+02 -0.12548030248E+02  0.13949962893E+04  0.13954192727E+04  0.10000000000E+02 0. -1.
</event>
<event>
 5    1  0.1145138E-008  0.3808451E+03  0.7957747E-01  0.3447487E+00
         13   -1    0    0    0    0  0.00000000000E+00  0.00000000000E+00  0.14999999963E+04  0.15000000000E+04  0.10566000000E+00 0. -1.
        994   -1    0    0    0    0 -0.00000000000E+00 -0.00000000000E+00  0.11368683772E-12  0.17120000000E+03  0.17120000000E+03 0.  0.
         13    1    1    2    0    0 -0.26768072480E+02 -0.13668079574E+02  0.12963492551E+03  0.13307355552E+03  0.10566000000E+00 0. -1.
        994    1    1    2    0    0  0.14953799237E+01  0.11253954471E+02  0.41369563203E+01  0.17162587818E+03  0.17120000000E+03 0.  0.
        998    1    1    2    0    0  0.25272692557E+02  0.24141251029E+01  0.13662281144E+04  0.13665005663E+04  0.10000000000E+02 0. -1.
</event>
<event>
 5    1  0.1145138E-008  0.3858221E+03  0.7957747E-01  0.3426193E+00
         13   -1    0    0    0    0  0.00000000000E+00  0.00000000000E+00  0.14999999963E+04  0.15000000000E+04  0.10566000000E+00 0. -1.
        994   -1    0    0    0    0 -0.00000000000E+00 -0.00000000000E+00  0.11368683772E-12  0.17120000000E+03  0.17120000000E+03 0.  0.
         13    1    1    2    0    0  0.60882960217E+00 -0.10424104657E+02  0.45227445873E+02  0.46417299099E+02  0.10566000000E+00 0. -1.
        994    1    1    2    0    0  0.60711603817E+01  0.65225523202E+01  0.14830003022E+01  0.17143815785E+03  0.17120000000E+03 0.  0.
        998    1    1    2    0    0 -0.66799899839E+01  0.39015523366E+01  0.14532895501E+04  0.14533445431E+04  0.10000000000E+02 0. -1.
</event>
<event>
 5    1  0.1145138E-008  0.3789803E+03  0.7957747E-01  0.3455611E+00
         13   -1    0    0    0    0  0.00000000000E+00  0.00000000000E+00  0.14999999963E+04  0.15000000000E+04  0.10566000000E+00 0. -1.
        994   -1    0    0    0    0 -0.00000000000E+00 -0.00000000000E+00  0.11368683772E-12  0.17120000000E+03  0.17120000000E+03 0.  0.
         13    1    1    2    0    0  0.85936690044E+01 -0.74786336263E+01  0.11849341401E+02  0.16437735961E+02  0.10566000000E+00 0. -1.
        994    1    1    2    0    0 -0.79746874741E+01  0.65989233063E+01  0.50082256653E+01  0.17158573295E+03  0.17120000000E+03 0.  0.
        998    1    1    2    0    0 -0.61898153034E+00  0.87971032004E+00  0.14831424292E+04  0.14831765311E+04  0.10000000000E+02 0. -1.
</event>
<event>
 5    1  0.1145138E-008  0.3766333E+03  0.7957747E-01  0.3465950E+00
         13   -1    0    0    0    0  0.00000000000E+00  0.00000000000E+00  0.14999999963E+04  0.15000000000E+04  0.10566000000E+00 0.  1.
        994   -1    0    0    0    0 -0.00000000000E+00 -0.00000000000E+00  0.11368683772E-12  0.17120000000E+03  0.17120000000E+03 0.  0.
         13    1    1    2    0    0  0.15331522455E+02  0.40895189144E+02  0.62468356646E+02  0.76221905132E+02  0.10566000000E+00 0.  1.
        994    1    1    2    0    0  0.25997163236E+02 -0.29157889641E+02  0.19972168028E+02  0.17673246029E+03  0.17120000000E+03 0.  0.
        998    1    1    2    0    0 -0.41328685691E+02 -0.11737299502E+02  0.14175594716E+04  0.14182456346E+04  0.10000000000E+02 0.  1.
</event>
<event>
 5    1  0.1145138E-008  0.4101667E+03  0.7957747E-01  0.3329481E+00
         13   -1    0    0    0    0  0.00000000000E+00  0.00000000000E+00  0.14999999963E+04  0.15000000000E+04  0.10566000000E+00 0. -1.
        994   -1    0    0    0    0 -0.00000000000E+00 -0.00000000000E+00  0.11368683772E-12  0.17120000000E+03  0.17120000000E+03 0.  0.
         13    1    1    2    0    0  0.37832785133E+02  0.83183642947E+02  0.10411546167E+03  0.13853114671E+03  0.10566000000E+00 0. -1.
        994    1    1    2    0    0 -0.34188699675E+02 -0.87587302654E+02  0.71136491317E+02  0.20787073668E+03  0.17120000000E+03 0.  0.
        998    1    1    2    0    0 -0.36440854578E+01  0.44036597073E+01  0.13247480433E+04  0.13247981166E+04  0.10000000000E+02 0. -1.
</event>
<event>
 5    1  0.1145138E-008  0.3820446E+03  0.7957747E-01  0.3442304E+00
         13   -1    0    0    0    0  0.00000000000E+00  0.00000000000E+00  0.14999999963E+04  0.15000000000E+04  0.10566000000E+00 0.  1.
        994   -1    0    0    0    0 -0.00000000000E+00 -0.00000000000E+00  0.11368683772E-12  0.17120000000E+03  0.17120000000E+03 0.  0.
         13    1    1    2    0    0  0.20379539889E+02  0.11280489573E+02  0.91874731811E+02  0.94781604758E+02  0.10566000000E+00 0.  1.
        994    1    1    2    0    0 -0.61496236960E+01  0.36463717897E+01  0.32743145537E+01  0.17138049782E+03  0.17120000000E+03 0.  0.
        998    1    1    2    0    0 -0.14229916193E+02 -0.14926861362E+02  0.14048509499E+04  0.14050378974E+04  0.10000000000E+02 0.  1.
</event>
<event>
 5    1  0.1145138E-008  0.3699223E+03  0.7957747E-01  0.3496248E+00
         13   -1    0    0    0    0  0.00000000000E+00  0.00000000000E+00  0.14999999963E+04  0.15000000000E+04  0.10566000000E+00 0.  1.
        994   -1    0    0    0    0 -0.00000000000E+00 -0.00000000000E+00  0.11368683772E-12  0.17120000000E+03  0.17120000000E+03 0.  0.
         13    1    1    2    0    0  0.36764925027E+02  0.93454732043E+01  0.71223593105E+02  0.80695780314E+02  0.10566000000E+00 0.  1.
        994    1    1    2    0    0 -0.34598125429E+02 -0.87497646134E+01  0.13727279411E+02  0.17541797760E+03  0.17120000000E+03 0.  0.
        998    1    1    2    0    0 -0.21667995979E+01 -0.59570859083E+00  0.14150491238E+04  0.14150862421E+04  0.10000000000E+02 0.  0.
</event>
<event>
 5    1  0.1145138E-008  0.3838647E+03  0.7957747E-01  0.3434501E+00
         13   -1    0    0    0    0  0.00000000000E+00  0.00000000000E+00  0.14999999963E+04  0.15000000000E+04  0.10566000000E+00 0. -1.
        994   -1    0    0    0    0 -0.00000000000E+00 -0.00000000000E+00  0.11368683772E-12  0.17120000000E+03  0.17120000000E+03 0.  0.
         13    1    1    2    0    0 -0.16997861005E+02  0.15238949943E+01  0.66570741556E+02  0.68723535488E+02  0.10566000000E+00 0. -1.
        994    1    1    2    0    0  0.84772982026E+01 -0.92086365389E+01  0.27121050548E+01  0.17167835940E+03  0.17120000000E+03 0.  0.
        998    1    1    2    0    0  0.85205628021E+01  0.76847415446E+01  0.14307171497E+04  0.14307981051E+04  0.10000000000E+02 0. -1.
</event>
<event>
 5    1  0.1145138E-008  0.3751745E+03  0.7957747E-01  0.3472443E+00
         13   -1    0    0    0    0  0.00000000000E+00  0.00000000000E+00  0.14999999963E+04  0.15000000000E+04  0.10566000000E+00 0. -1.
        994   -1    0    0    0    0 -0.00000000000E+00 -0.00000000000E+00  0.11368683772E-12  0.17120000000E+03  0.17120000000E+03 0.  0.
         13    1    1    2    0    0  0.15044528793E+02  0.13973385918E+01  0.14520566328E+02  0.20955868206E+02  0.10566000000E+00 0. -1.
        994    1    1    2    0    0 -0.80021589122E+01 -0.18975474670E+01  0.68189769912E+01  0.17153301047E+03  0.17120000000E+03 0.  0.
        998    1    1    2    0    0 -0.70423698805E+01  0.50020887520E+00  0.14786604530E+04  0.14787111213E+04  0.10000000000E+02 0. -1.
</event>
<event>
 5    1  0.1145138E-008  0.3828481E+03  0.7957747E-01  0.3438850E+00
         13   -1    0    0    0    0  0.00000000000E+00  0.00000000000E+00  0.14999999963E+04  0.15000000000E+04  0.10566000000E+00 0.  1.
        994   -1    0    0    0    0 -0.00000000000E+00 -0.00000000000E+00  0.11368683772E-12  0.17120000000E+03  0.17120000000E+03 0.  0.
         13    1    1    2    0    0 -0.18598214024E+02 -0.13453098164E+01  0.57669517645E+02  0.60609305002E+02  0.10566000000E+00 0.  1.
        994    1    1    2    0    0  0.32237350458E+02  0.63750018028E+01  0.62868526177E+01  0.17443867670E+03  0.17120000000E+03 0.  0.
        998    1    1    2    0    0 -0.13639136435E+02 -0.50296919864E+01  0.14360436260E+04  0.14361520183E+04  0.10000000000E+02 0.  1.
</event>
<event>
 5    1  0.1145138E-008  0.3972735E+03  0.7957747E-01  0.3379230E+00
         13   -1    0    0    0    0  0.00000000000E+00  0.00000000000E+00  0.14999999963E+04  0.15000000000E+04  0.10566000000E+00 0.  1.
        994   -1    0    0    0    0 -0.00000000000E+00 -0.00000000000E+00  0.11368683772E-12  0.17120000000E+03  0.17120000000E+03 0.  0.
         13    1    1    2    0    0  0.87294829079E+02 -0.56208078600E+02  0.22825878205E+03  0.25076247333E+03  0.10566000000E+00 0.  1.
        994    1    1    2    0    0 -0.44969034834E+02 -0.96297325380E+01  0.34391578209E+02  0.18057454553E+03  0.17120000000E+03 0.  0.
        998    1    1    2    0    0 -0.42325794245E+02  0.65837811138E+02  0.12373496360E+04  0.12398629811E+04  0.10000000000E+02 0. -1.
</event>
<event>
 5    1  0.1145138E-008  0.3844279E+03  0.7957747E-01  0.3432102E+00
         13   -1    0    0    0    0  0.00000000000E+00  0.00000000000E+00  0.14999999963E+04  0.15000000000E+04  0.10566000000E+00 0.  1.
        994   -1    0    0    0    0 -0.00000000000E+00 -0.00000000000E+00  0.11368683772E-12  0.17120000000E+03  0.17120000000E+03 0.  0.
         13    1    1    2    0    0  0.33805293376E+01  0.11354402291E+02  0.35967435022E+02  0.37868429808E+02  0.10566000000E+00 0.  1.
        994    1    1    2    0    0 -0.10344771852E+01 -0.99767461578E+01  0.22460072579E+01  0.17150828014E+03  0.17120000000E+03 0.  0.
        998    1    1    2    0    0 -0.23460521524E+01 -0.13776561334E+01  0.14617865540E+04  0.14618232901E+04  0.10000000000E+02 0.  1.
</event>
<event>
 5    1  0.1145138E-008  0.3825253E+03  0.7957747E-01  0.3440236E+00
         13   -1    0    0    0    0  0.00000000000E+00  0.00000000000E+00  0.14999999963E+04  0.15000000000E+04  0.10566000000E+00 0. -1.
        994   -1    0    0    0    0 -0.00000000000E+00 -0.00000000000E+00  0.11368683772E-12  0.17120000000E+03  0.17120000000E+03 0.  0.
         13    1    1    2    0    0  0.10400436399E+02  0.13136957136E+01  0.18645094605E+02  0.21390315346E+02  0.10566000000E+00 0. -1.
        994    1    1    2    0    0  0.22985612830E+01  0.85075575609E+01  0.31212880661E+01  0.17145507971E+03  0.17120000000E+03 0.  0.
        998    1    1    2    0    0 -0.12698997682E+02 -0.98212532745E+01  0.14782336136E+04  0.14783546049E+04  0.10000000000E+02 0. -1.
</event>
<event>
 5    1  0.1145138E-008  0.3807013E+03  0.7957747E-01  0.3448111E+00
         13   -1    0    0    0    0  0.00000000000E+00  0.00000000000E+00  0.14999999963E+04  0.15000000000E+04  0.10566000000E+00 0.  1.
        994   -1    0    0    0    0 -0.00000000000E+00 -0.00000000000E+00  0.11368683772E-12  0.17120000000E+03  0.17120000000E+03 0.  0.
         13    1    1    2    0    0 -0.32929291899E+02 -0.15714345492E+02  0.18526332972E+03  0.18882211581E+03  0.10566000000E+00 0.  1.
        994    1    1    2    0    0  0.91098630083E+01  0.12294885851E+02  0.45609056476E+01  0.17194300126E+03  0.17120000000E+03 0.  0.
        998    1    1    2    0    0  0.23819428891E+02  0.34194596404E+01  0.13101757609E+04  0.13104348829E+04  0.10000000000E+02 0.  1.
</event>
<event>
 5    1  0.1145138E-008  0.3822754E+03  0.7957747E-01  0.3441311E+00
         13   -1    0    0    0    0  0.00000000000E+00  0.00000000000E+00  0.14999999963E+04  0.15000000000E+04  0.10566000000E+00 0. -1.
        994   -1    0    0    0    0 -0.00000000000E+00 -0.00000000000E+00  0.11368683772E-12  0.17120000000E+03  0.17120000000E+03 0.  0.
         13    1    1    2    0    0  0.20662038822E+02 -0.70510343995E+01  0.73739805962E+02  0.76903882098E+02  0.10566000000E+00 0. -1.
        994    1    1    2    0    0 -0.24820418023E+02  0.10378282250E+02  0.53940682144E+01  0.17338482594E+03  0.17120000000E+03 0.  0.
        998    1    1    2    0    0  0.41583792014E+01 -0.33272478507E+01  0.14208661221E+04  0.14209112920E+04  0.10000000000E+02 0. -1.
</event>
<event>
 5    1  0.1145138E-008  0.3835983E+03  0.7957747E-01  0.3435639E+00
         13   -1    0    0    0    0  0.00000000000E+00  0.00000000000E+00  0.14999999963E+04  0.15000000000E+04  0.10566000000E+00 0.  1.
        994   -1    0    0    0    0 -0.00000000000E+00 -0.00000000000E+00  0.11368683772E-12  0.17120000000E+03  0.17120000000E+03 0.  0.
         13    1    1    2    0    0 -0.14456948852E+02 -0.65378390844E+00  0.42252450307E+02  0.44662193458E+02  0.10566000000E+00 0.  1.
        994    1    1    2    0    0  0.20090393304E+02  0.18527825822E+02  0.47990737496E+01  0.17343406627E+03  0.17120000000E+03 0.  0.
        998    1    1    2    0    0 -0.56334444525E+01 -0.17874041913E+02  0.14529484722E+04  0.14531037403E+04  0.10000000000E+02 0.  1.
</event>
<event>
 5    1  0.1145138E-008  0.3706254E+03  0.7957747E-01  0.3493021E+00
         13   -1    0    0    0    0  0.00000000000E+00  0.00000000000E+00  0.14999999963E+04  0.15000000000E+04  0.10566000000E+00 0.  1.
        994   -1    0    0    0    0 -0.00000000000E+00 -0.00000000000E+00  0.11368683772E-12  0.17120000000E+03  0.17120000000E+03 0.  0.
         13    1    1    2    0    0  0.13183527895E+02  0.24655585542E+02  0.42697067878E+02  0.51036791392E+02  0.10566000000E+00 0.  1.
        994    1    1    2    0    0  0.18331670433E+02 -0.58169559453E+01  0.10219735221E+02  0.17257974999E+03  0.17120000000E+03 0.  0.
        998    1    1    2    0    0 -0.31515198328E+02 -0.18838629597E+02  0.14470831932E+04  0.14475834586E+04  0.10000000000E+02 0.  1.
</event>
<event>
 5    1  0.1145138E-008  0.3847001E+03  0.7957747E-01  0.3430945E+00
         13   -1    0    0    0    0  0.00000000000E+00  0.00000000000E+00  0.14999999963E+04  0.15000000000E+04  0.10566000000E+00 0.  1.
        994   -1    0    0    0    0 -0.00000000000E+00 -0.00000000000E+00  0.11368683772E-12  0.17120000000E+03  0.17120000000E+03 0.  0.
         13    1    1    2    0    0 -0.14042096881E+02  0.92295771526E+01  0.80642031653E+02  0.82374231483E+02  0.10566000000E+00 0.  1.
        994    1    1    2    0    0  0.28654710841E+01 -0.10868960602E+02  0.21951411665E+01  0.17158264444E+03  0.17120000000E+03 0.  0.
        998    1    1    2    0    0  0.11176625797E+02  0.16393834491E+01  0.14171628235E+04  0.14172431241E+04  0.10000000000E+02 0.  1.
</event>
<event>
 5    1  0.1145138E-008  0.3817498E+03  0.7957747E-01  0.3443575E+00
         13   -1    0    0    0    0  0.00000000000E+00  0.00000000000E+00  0.14999999963E+04  0.15000000000E+04  0.10566000000E+00 0. -1.
        994   -1    0    0    0    0 -0.00000000000E+00 -0.00000000000E+00  0.11368683772E-12  0.17120000000E+03  0.17120000000E+03 0.  0.
         13    1    1    2    0    0  0.18205513353E+02  0.35637335212E+02  0.19649893819E+03  0.20053255160E+03  0.10566000000E+00 0. -1.
        994    1    1    2    0    0 -0.85915442587E+01 -0.53680611242E+02  0.13138389085E+02  0.18010408081E+03  0.17120000000E+03 0.  0.
        998    1    1    2    0    0 -0.96139690943E+01  0.18043276030E+02  0.12903626690E+04  0.12905633676E+04  0.10000000000E+02 0. -1.
</event>
<event>
 5    1  0.1145138E-008  0.3865842E+03  0.7957747E-01  0.3422981E+00
         13   -1    0    0    0    0  0.00000000000E+00  0.00000000000E+00  0.14999999963E+04  0.15000000000E+04  0.10566000000E+00 0.  1.
        994   -1    0    0    0    0 -0.00000000000E+00 -0.00000000000E+00  0.11368683772E-12  0.17120000000E+03  0.17120000000E+03 0.  0.
         13    1    1    2    0    0  0.68648095102E+02 -0.12427197032E+03  0.51141726628E+03  0.53075768009E+03  0.10566000000E+00 0.  1.
        994    1    1    2    0    0 -0.32266736014E+02  0.74716746419E+02  0.45029197185E+02  0.19483532289E+03  0.17120000000E+03 0.  0.
        998    1    1    2    0    0 -0.36381359088E+02  0.49555223903E+02  0.94355353282E+03  0.94560699701E+03  0.10000000000E+02 0.  1.
</event>
<event>
 5    1  0.1145138E-008  0.3855373E+03  0.7957747E-01  0.3427397E+00
         13   -1    0    0    0    0  0.00000000000E+00  0.00000000000E+00  0.14999999963E+04  0.15000000000E+04  0.10566000000E+00 0.  1.
        994   -1    0    0    0    0 -0.00000000000E+00 -0.00000000000E+00  0.11368683772E-12  0.17120000000E+03  0.17120000000E+03 0.  0.
         13    1    1    2    0    0  0.68343934606E+01  0.10638271902E+02  0.59984521722E+02  0.61302820272E+02  0.10566000000E+00 0.  1.
        994    1    1    2    0    0 -0.76716515179E+01 -0.19873864631E+01  0.15698243797E+01  0.17139051400E+03  0.17120000000E+03 0.  0.
        998    1    1    2    0    0  0.83725805732E+00 -0.86508854387E+01  0.14384456502E+04  0.14385066657E+04  0.10000000000E+02 0.  1.
</event>
<event>
 5    1  0.1145138E-008  0.3945055E+03  0.7957747E-01  0.3390332E+00
         13   -1    0    0    0    0  0.00000000000E+00  0.00000000000E+00  0.14999999963E+04  0.15000000000E+04  0.10566000000E+00 0.  1.
        994   -1    0    0    0    0 -0.00000000000E+00 -0.00000000000E+00  0.11368683772E-12  0.17120000000E+03  0.17120000000E+03 0.  0.
         13    1    1    2    0    0  0.60731943384E+02  0.71551847034E+01  0.63022867013E+02  0.87814910727E+02  0.10566000000E+00 0.  1.
        994    1    1    2    0    0 -0.69314153430E+02 -0.27672248682E+02  0.46195051308E+02  0.19238926160E+03  0.17120000000E+03 0.  0.
        998    1    1    2    0    0  0.85822100454E+01  0.20517063979E+02  0.13907820780E+04  0.13909958277E+04  0.10000000000E+02 0.  1.
</event>
<event>
 5    1  0.1145138E-008  0.3840076E+03  0.7957747E-01  0.3433892E+00
         13   -1    0    0    0    0  0.00000000000E+00  0.00000000000E+00  0.14999999963E+04  0.15000000000E+04  0.10566000000E+00 0.  1.
        994   -1    0    0    0    0 -0.00000000000E+00 -0.00000000000E+00  0.11368683772E-12  0.17120000000E+03  0.17120000000E+03 0.  0.
         13    1    1    2    0    0  0.11910529670E+02  0.10281957485E+02  0.63322270889E+02  0.65247992470E+02  0.10566000000E+00 0.  1.
        994    1    1    2    0    0  0.90034810166E+01 -0.16832626381E+01  0.24004700815E+01  0.17146165256E+03  0.17120000000E+03 0.  0.
        998    1    1    2    0    0 -0.20914010686E+02 -0.85986948467E+01  0.14342772553E+04  0.14344903550E+04  0.10000000000E+02 0.  1.
</event>
<event>
 5    1  0.1145138E-008  0.3856868E+03  0.7957747E-01  0.3426765E+00
         13   -1    0    0    0    0  0.00000000000E+00  0.00000000000E+00  0.14999999963E+04  0.15000000000E+04  0.10566000000E+00 0. -1.
        994   -1    0    0    0    0 -0.00000000000E+00 -0.00000000000E+00  0.11368683772E-12  0.17120000000E+03  0.17120000000E+03 0.  0.
         13    1    1    2    0    0  0.12888678411E+02  0.56082394510E+01  0.75740694901E+02  0.77033982171E+02  0.10566000000E+00 0. -1.
        994    1    1    2    0    0 -0.12219187270E+02 -0.12144447294E+01  0.17844593824E+01  0.17164908304E+03  0.17120000000E+03 0.  0.
        998    1    1    2    0    0 -0.66949114109E+00 -0.43937947216E+01  0.14224748420E+04  0.14225169348E+04  0.10000000000E+02 0. -1.
</event>
<event>
 5    1  0.1145138E-008  0.3801754E+03  0.7957747E-01  0.3450395E+00
         13   -1    0    0    0    0  0.00000000000E+00  0.00000000000E+00  0.14999999963E+04  0.15000000000E+04  0.10566000000E+00 0.  1.
        994   -1    0    0    0    0 -0.00000000000E+00 -0.00000000000E+00  0.11368683772E-12  0.17120000000E+03  0.17120000000E+03 0.  0.
         13    1    1    2    0    0  0.54740158556E+01 -0.27158427931E+02  0.91777230484E+02  0.95867701843E+02  0.10566000000E+00 0.  1.
        994    1    1    2    0    0 -0.48802643421E+02  0.12777903760E+02  0.12594627831E+02  0.17892187535E+03  0.17120000000E+03 0.  0.
        998    1    1    2    0    0  0.43328627565E+02  0.14380524171E+02  0.13956281380E+04  0.13964104228E+04  0.10000000000E+02 0.  1.
</event>
<event>
 5    1  0.1145138E-008  0.3853972E+03  0.7957747E-01  0.3427989E+00
         13   -1    0    0    0    0  0.00000000000E+00  0.00000000000E+00  0.14999999963E+04  0.15000000000E+04  0.10566000000E+00 0.  1.
        994   -1    0    0    0    0 -0.00000000000E+00 -0.00000000000E+00  0.11368683772E-12  0.17120000000E+03  0.17120000000E+03 0.  0.
         13    1    1    2    0    0  0.11965239767E+02  0.17032343143E+01  0.56128102734E+02  0.57414658845E+02  0.10566000000E+00 0.  1.
        994    1    1    2    0    0  0.38351458275E+01  0.17096139916E+02  0.24419720622E+01  0.17211156141E+03  0.17120000000E+03 0.  0.
        998    1    1    2    0    0 -0.15800385595E+02 -0.18799374230E+02  0.14414299215E+04  0.14416737797E+04  0.10000000000E+02 0.  1.
</event>
<event>
 5    1  0.1145138E-008  0.3779237E+03  0.7957747E-01  0.3460249E+00
         13   -1    0    0    0    0  0.00000000000E+00  0.00000000000E+00  0.14999999963E+04  0.15000000000E+04  0.10566000000E+00 0. -1.
        994   -1    0    0    0    0 -0.00000000000E+00 -0.00000000000E+00  0.11368683772E-12  0.17120000000E+03  0.17120000000E+03 0.  0.
         13    1    1    2    0    0 -0.15946619826E+02 -0.39898001923E+02  0.15915928270E+03  0.16485700978E+03  0.10566000000E+00 0. -1.
        994    1    1    2    0    0  0.26856919626E+02  0.35311204092E+02  0.11838621530E+02  0.17725058033E+03  0.17120000000E+03 0.  0.
        998    1    1    2    0    0 -0.10910299800E+02  0.45867978306E+01  0.13290020921E+04  0.13290924099E+04  0.10000000000E+02 0. -1.
</event>
<event>
 5    1  0.1145138E-008  0.3830842E+03  0.7957747E-01  0.3437838E+00
         13   -1    0    0    0    0  0.00000000000E+00  0.00000000000E+00  0.14999999963E+04  0.15000000000E+04  0.10566000000E+00 0. -1.
        994   -1    0    0    0    0 -0.00000000000E+00 -0.00000000000E+00  0.11368683772E-12  0.17120000000E+03  0.17120000000E+03 0.  0.
         13    1    1    2    0    0 -0.12817405700E+01  0.10846325236E+02  0.22061697001E+02  0.24617377371E+02  0.10566000000E+00 0. -1.
        994    1    1    2    0    0  0.31586167093E+01 -0.84981593094E+01  0.28563173073E+01  0.17146368163E+03  0.17120000000E+03 0.  0.
        998    1    1    2    0    0 -0.18768761394E+01 -0.23481659267E+01  0.14750819820E+04  0.14751189410E+04  0.10000000000E+02 0. -1.
</event>
<event>
 5    1  0.1145138E-008  0.3699339E+03  0.7957747E-01  0.3496195E+00
         13   -1    0    0    0    0  0.00000000000E+00  0.00000000000E+00  0.14999999963E+04  0.15000000000E+04  0.10566000000E+00 0. -1.
        994   -1    0    0    0    0 -0.00000000000E+00 -0.00000000000E+00  0.11368683772E-12  0.17120000000E+03  0.17120000000E+03 0.  0.
         13    1    1    2    0    0 -0.74636571540E+01 -0.53822127842E+02  0.14140242643E+03  0.15148328287E+03  0.10566000000E+00 0. -1.
        994    1    1    2    0    0  0.14684825375E+01  0.16323956214E+02  0.11843295680E+02  0.17239005667E+03  0.17120000000E+03 0.  0.
        998    1    1    2    0    0  0.59951746165E+01  0.37498171628E+02  0.13467542742E+04  0.13473266605E+04  0.10000000000E+02 0. -1.
</event>
<event>
 5    1  0.1145138E-008  0.3808705E+03  0.7957747E-01  0.3447377E+00
         13   -1    0    0    0    0  0.00000000000E+00  0.00000000000E+00  0.14999999963E+04  0.15000000000E+04  0.10566000000E+00 0.  1.
        994   -1    0    0    0    0 -0.00000000000E+00 -0.00000000000E+00  0.11368683772E-12  0.17120000000E+03  0.17120000000E+03 0.  0.
         13    1    1    2    0    0  0.22121857320E+02 -0.16276842230E+02  0.10210202846E+03  0.10573148795E+03  0.10566000000E+00 0.  1.
        994    1    1    2    0    0 -0.10908930680E+02  0.95830783582E+01  0.43974566137E+01  0.17187093351E+03  0.17120000000E+03 0.  0.
        998    1    1    2    0    0 -0.11212926640E+02  0.66937638720E+01  0.13935005112E+04  0.13935975785E+04  0.10000000000E+02 0.  1.
</event>
<event>
 5    1  0.1145138E-008  0.3714959E+03  0.7957747E-01  0.3489044E+00
         13   -1    0    0    0    0  0.00000000000E+00  0.00000000000E+00  0.14999999963E+04  0.15000000000E+04  0.10566000000E+00 0. -1.
        994   -1    0    0    0    0 -0.00000000000E+00 -0.00000000000E+00  0.11368683772E-12  0.17120000000E+03  0.17120000000E+03 0.  0.
         13    1    1    2    0    0  0.37451643531E+02  0.11881506444E+02  0.94227748334E+02  0.10209150562E+03  0.10566000000E+00 0. -1.
        994    1    1    2    0    0 -0.22773680916E+02  0.49220886829E+02  0.18675998250E+02  0.18055350773E+03  0.17120000000E+03 0.  0.
        998    1    1    2    0    0 -0.14677962615E+02 -0.61102393274E+02  0.13870962497E+04  0.13885549867E+04  0.10000000000E+02 0. -1.
</event>
<event>
 5    1  0.1145138E-008  0.3790766E+03  0.7957747E-01  0.3455189E+00
         13   -1    0    0    0    0  0.00000000000E+00  0.00000000000E+00  0.14999999963E+04  0.15000000000E+04  0.10566000000E+00 0. -1.
        994   -1    0    0    0    0 -0.00000000000E+00 -0.00000000000E+00  0.11368683772E-12  0.17120000000E+03  0.17120000000E+03 0.  0.
         13    1    1    2    0    0  0.18509186624E+01 -0.16871952338E+02  0.29123611707E+02  0.33708820782E+02  0.10566000000E+00 0. -1.
        994    1    1    2    0    0  0.10967701577E+01  0.15648077422E+02  0.54255371315E+01  0.17200273743E+03  0.17120000000E+03 0.  0.
        998    1    1    2    0    0 -0.29476888201E+01  0.12238749158E+01  0.14654508474E+04  0.14654884418E+04  0.10000000000E+02 0. -1.
</event>
<event>
 5    1  0.1145138E-008  0.3795231E+03  0.7957747E-01  0.3453238E+00
         13   -1    0    0    0    0  0.00000000000E+00  0.00000000000E+00  0.14999999963E+04  0.15000000000E+04  0.10566000000E+00 0.  1.
        994   -1    0    0    0    0 -0.00000000000E+00 -0.00000000000E+00  0.11368683772E-12  0.17120000000E+03  0.17120000000E+03 0.  0.
         13    1    1    2    0    0  0.28030571412E+02 -0.54652602828E+02  0.32107125119E+03  0.32689352920E+03  0.10566000000E+00 0.  1.
        994    1    1    2    0    0 -0.32733635820E+02  0.58670549317E+02  0.19638176387E+02  0.18495627116E+03  0.17120000000E+03 0.  0.
        998    1    1    2    0    0  0.47030644083E+01 -0.40179464892E+01  0.11592905687E+04  0.11593501996E+04  0.10000000000E+02 0.  1.
</event>
<event>
 5    1  0.1145138E-008  0.3796878E+03  0.7957747E-01  0.3452519E+00
         13   -1    0    0    0    0  0.00000000000E+00  0.00000000000E+00  0.14999999963E+04  0.15000000000E+04  0.10566000000E+00 0. -1.
        994   -1    0    0    0    0 -0.00000000000E+00 -0.00000000000E+00  0.11368683772E-12  0.17120000000E+03  0.17120000000E+03 0.  0.
         13    1    1    2    0    0  0.28985811099E+02 -0.32530325040E+02  0.19482336893E+03  0.19963605771E+03  0.10566000000E+00 0. -1.
        994    1    1    2    0    0 -0.25334728895E+02  0.34066900650E+02  0.10346017861E+02  0.17668865921E+03  0.17120000000E+03 0.  0.
        998    1    1    2    0    0 -0.36510822038E+01 -0.15365756098E+01  0.12948306095E+04  0.12948752831E+04  0.10000000000E+02 0. -1.
</event>
<event>
 5    1  0.1145138E-008  0.3759801E+03  0.7957747E-01  0.3468851E+00
         13   -1    0    0    0    0  0.00000000000E+00  0.00000000000E+00  0.14999999963E+04  0.15000000000E+04  0.10566000000E+00 0.  1.
        994   -1    0    0    0    0 -0.00000000000E+00 -0.00000000000E+00  0.11368683772E-12  0.17120000000E+03  0.17120000000E+03 0.  0.
         13    1    1    2    0    0 -0.94401857353E+01 -0.18594352175E+02  0.32689448433E+02  0.38774711378E+02  0.10566000000E+00 0.  1.
        994    1    1    2    0    0 -0.12374442744E+02  0.22017912295E+02  0.83405371361E+01  0.17325391729E+03  0.17120000000E+03 0.  0.
        998    1    1    2    0    0  0.21814628479E+02 -0.34235601195E+01  0.14589700107E+04  0.14591713713E+04  0.10000000000E+02 0.  1.
</event>
<event>
 5    1  0.1145138E-008  0.3793424E+03  0.7957747E-01  0.3454027E+00
         13   -1    0    0    0    0  0.00000000000E+00  0.00000000000E+00  0.14999999963E+04  0.15000000000E+04  0.10566000000E+00 0. -1.
        994   -1    0    0    0    0 -0.00000000000E+00 -0.00000000000E+00  0.11368683772E-12  0.17120000000E+03  0.17120000000E+03 0.  0.
         13    1    1    2    0    0  0.12203491757E+02  0.61269578975E+01  0.18948336991E+02  0.23356272453E+02  0.10566000000E+00 0. -1.
        994    1    1    2    0    0 -0.13897817620E+02  0.43682025953E+01  0.51767799085E+01  0.17189668286E+03  0.17120000000E+03 0.  0.
        998    1    1    2    0    0  0.16943258629E+01 -0.10495160493E+02  0.14758748794E+04  0.14759470447E+04  0.10000000000E+02 0. -1.
</event>
<event>
 5    1  0.1145138E-008  0.3850626E+03  0.7957747E-01  0.3429407E+00
         13   -1    0    0    0    0  0.00000000000E+00  0.00000000000E+00  0.14999999963E+04  0.15000000000E+04  0.10566000000E+00 0.  1.
        994   -1    0    0    0    0 -0.00000000000E+00 -0.00000000000E+00  0.11368683772E-12  0.17120000000E+03  0.17120000000E+03 0.  0.
         13    1    1    2    0    0  0.32276634637E+01  0.11648978382E+02  0.48879997019E+02  0.50352574725E+02  0.10566000000E+00 0.  1.
        994    1    1    2    0    0  0.10452641441E+02  0.12350009325E+01  0.19633943918E+01  0.17153448008E+03  0.17120000000E+03 0.  0.
        998    1    1    2    0    0 -0.13680304905E+02 -0.12883979314E+02  0.14491566049E+04  0.14493129452E+04  0.10000000000E+02 0.  1.
</event>
<event>
 5    1  0.1145138E-008  0.3744989E+03  0.7957747E-01  0.3475467E+00
         13   -1    0    0    0    0  0.00000000000E+00  0.00000000000E+00  0.14999999963E+04  0.15000000000E+04  0.10566000000E+00 0. -1.
        994   -1    0    0    0    0 -0.00000000000E+00 -0.00000000000E+00  0.11368683772E-12  0.17120000000E+03  0.17120000000E+03 0.  0.
         13    1    1    2    0    0 -0.21440208349E+02  0.86901542992E+01  0.37213152164E+02  0.43818160320E+02  0.10566000000E+00 0. -1.
        994    1    1    2    0    0 -0.18525800658E+01 -0.90778485168E+01  0.72285956629E+01  0.17160283209E+03  0.17120000000E+03 0.  0.
        998    1    1    2    0    0  0.23292788415E+02  0.38769421764E+00  0.14555582485E+04  0.14557790076E+04  0.10000000000E+02 0. -1.
</event>
<event>
 5    1  0.1145138E-008  0.3736241E+03  0.7957747E-01  0.3479399E+00
         13   -1    0    0    0    0  0.00000000000E+00  0.00000000000E+00  0.14999999963E+04  0.15000000000E+04  0.10566000000E+00 0.  1.
        994   -1    0    0    0    0 -0.00000000000E+00 -0.00000000000E+00  0.11368683772E-12  0.17120000000E+03  0.17120000000E+03 0.  0.
         13    1    1    2    0    0 -0.20252061228E+01  0.10140057125E+02  0.37672341156E+01  0.11005700126E+02  0.10566000000E+00 0.  1.
        994    1    1    2    0    0  0.35291130507E+00 -0.11444780310E+02  0.78348312660E+01  0.17176126491E+03  0.17120000000E+03 0.  0.
        998    1    1    2    0    0  0.16722948177E+01  0.13047231849E+01  0.14883979309E+04  0.14884330350E+04  0.10000000000E+02 0.  1.
</event>
<event>
 5    1  0.1145138E-008  0.3776925E+03  0.7957747E-01  0.3461268E+00
         13   -1    0    0    0    0  0.00000000000E+00  0.00000000000E+00  0.14999999963E+04  0.15000000000E+04  0.10566000000E+00 0.  1.
        994   -1    0    0    0    0 -0.00000000000E+00 -0.00000000000E+00  0.11368683772E-12  0.17120000000E+03  0.17120000000E+03 0.  0.
         13    1    1    2    0    0 -0.17120061323E+02 -0.35600117236E+01  0.26658602026E+02  0.31882007609E+02  0.10566000000E+00 0.  1.
        994    1    1    2    0    0  0.12340167615E+02 -0.14078806785E+01  0.58223225585E+01  0.17174865736E+03  0.17120000000E+03 0.  0.
        998    1    1    2    0    0  0.47798937083E+01  0.49678924021E+01  0.14675190717E+04  0.14675693350E+04  0.10000000000E+02 0.  1.
</event>
<event>
 5    1  0.1145138E-008  0.3790386E+03  0.7957747E-01  0.3455355E+00
         13   -1    0    0    0    0  0.00000000000E+00  0.00000000000E+00  0.14999999963E+04  0.15000000000E+04  0.10566000000E+00 0. -1.
        994   -1    0    0    0    0 -0.00000000000E+00 -0.00000000000E+00  0.11368683772E-12  0.17120000000E+03  0.17120000000E+03 0.  0.
         13    1    1    2    0    0  0.10137629636E+02  0.25490741889E+01  0.96747452168E+01  0.14243636225E+02  0.10566000000E+00 0. -1.
        994    1    1    2    0    0 -0.11195679548E+02 -0.29480740948E+01  0.50688417113E+01  0.17166586014E+03  0.17120000000E+03 0.  0.
        998    1    1    2    0    0  0.10580499115E+01  0.39899990594E+00  0.14852564094E+04  0.14852905036E+04  0.10000000000E+02 0. -1.
</event>
<event>
 5    1  0.1145138E-008  0.3686224E+03  0.7957747E-01  0.3502246E+00
         13   -1    0    0    0    0  0.00000000000E+00  0.00000000000E+00  0.14999999963E+04  0.15000000000E+04  0.10566000000E+00 0. -1.
        994   -1    0    0    0    0 -0.00000000000E+00 -0.00000000000E+00  0.11368683772E-12  0.17120000000E+03  0.17120000000E+03 0.  0.
         13    1    1    2    0    0  0.32487502567E+02  0.18428433910E+03  0.89603457790E+03  0.91536557255E+03  0.10566000000E+00 0. -1.
        994    1    1    2    0    0 -0.47605670310E+02 -0.15944940322E+03  0.11340504681E+03  0.26431147662E+03  0.17120000000E+03 0.  0.
        998    1    1    2    0    0  0.15118167743E+02 -0.24834935883E+02  0.49056037157E+03  0.49152295083E+03  0.10000000000E+02 0.  0.
</event>
<event>
 5    1  0.1145138E-008  0.3779828E+03  0.7957747E-01  0.3459989E+00
         13   -1    0    0    0    0  0.00000000000E+00  0.00000000000E+00  0.14999999963E+04  0.15000000000E+04  0.10566000000E+00 0. -1.
        994   -1    0    0    0    0 -0.00000000000E+00 -0.00000000000E+00  0.11368683772E-12  0.17120000000E+03  0.17120000000E+03 0.  0.
         13    1    1    2    0    0 -0.34016090545E+02  0.32759716339E+02  0.23003784559E+03  0.23483550626E+03  0.10566000000E+00 0. -1.
        994    1    1    2    0    0  0.23350587950E+02 -0.16069614590E+01  0.70007376948E+01  0.17293433034E+03  0.17120000000E+03 0.  0.
        998    1    1    2    0    0  0.10665502595E+02 -0.31152754880E+02  0.12629614130E+04  0.12634301634E+04  0.10000000000E+02 0. -1.
</event>
<event>
 5    1  0.1145138E-008  0.3819302E+03  0.7957747E-01  0.3442797E+00
         13   -1    0    0    0    0  0.00000000000E+00  0.00000000000E+00  0.14999999963E+04  0.15000000000E+04  0.10566000000E+00 0.  1.
        994   -1    0    0    0    0 -0.00000000000E+00 -0.00000000000E+00  0.11368683772E-12  0.17120000000E+03  0.17120000000E+03 0.  0.
         13    1    1    2    0    0 -0.31143893871E+02  0.31076815557E+02  0.25921734988E+03  0.26292462082E+03  0.10566000000E+00 0.  1.
        994    1    1    2    0    0  0.86453851028E+01 -0.54599310158E+02  0.13379866679E+02  0.18040035528E+03  0.17120000000E+03 0.  0.
        998    1    1    2    0    0  0.22498508768E+02  0.23522494602E+02  0.12274027797E+04  0.12278750239E+04  0.10000000000E+02 0.  1.
</event>
<event>
 5    1  0.1145138E-008  0.3834041E+03  0.7957747E-01  0.3436469E+00
         13   -1    0    0    0    0  0.00000000000E+00  0.00000000000E+00  0.14999999963E+04  0.15000000000E+04  0.10566000000E+00 0.  1.
        994   -1    0    0    0    0 -0.00000000000E+00 -0.00000000000E+00  0.11368683772E-12  0.17120000000E+03  0.17120000000E+03 0.  0.
         13    1    1    2    0    0  0.45702104568E+01  0.12639798248E+02  0.36581986346E+02  0.38973121666E+02  0.10566000000E+00 0.  1.
        994    1    1    2    0    0 -0.15060837737E+02 -0.38761748465E+01  0.32244887821E+01  0.17193513571E+03  0.17120000000E+03 0.  0.
        998    1    1    2    0    0  0.10490627280E+02 -0.87636234013E+01  0.14601935212E+04  0.14602917426E+04  0.10000000000E+02 0.  1.
</event>
<event>
 5    1  0.1145138E-008  0.3807917E+03  0.7957747E-01  0.3447718E+00
         13   -1    0    0    0    0  0.00000000000E+00  0.00000000000E+00  0.14999999963E+04  0.15000000000E+04  0.10566000000E+00 0. -1.
        994   -1    0    0    0    0 -0.00000000000E+00 -0.00000000000E+00  0.11368683772E-12  0.17120000000E+03  0.17120000000E+03 0.  0.
         13    1    1    2    0    0  0.49710820415E+01 -0.13139392802E+02  0.24827057647E+02  0.28526290598E+02  0.10566000000E+00 0. -1.
        994    1    1    2    0    0  0.28009582964E+01  0.13004063862E+02  0.43242194119E+01  0.17177045706E+03  0.17120000000E+03 0.  0.
        998    1    1    2    0    0 -0.77720403379E+01  0.13532894058E+00  0.14708487192E+04  0.14709032523E+04  0.10000000000E+02 0. -1.
</event>
<event>
 5    1  0.1145138E-008  0.4073224E+03  0.7957747E-01  0.3340187E+00
         13   -1    0    0    0    0  0.00000000000E+00  0.00000000000E+00  0.14999999963E+04  0.15000000000E+04  0.10566000000E+00 0.  1.
        994   -1    0    0    0    0 -0.00000000000E+00 -0.00000000000E+00  0.11368683772E-12  0.17120000000E+03  0.17120000000E+03 0.  0.
         13    1    1    2    0    0 -0.85142983966E+02 -0.82074748060E+02  0.52794393341E+03  0.54102717120E+03  0.10566000000E+00 0.  1.
        994    1    1    2    0    0  0.15185521135E+01 -0.86332494490E+02  0.63008532767E+02  0.20182943494E+03  0.17120000000E+03 0.  0.
        998    1    1    2    0    0  0.83624431853E+02  0.16840724255E+03  0.90904753011E+03  0.92834339387E+03  0.10000000000E+02 0. -1.
</event>
<event>
 5    1  0.1145138E-008  0.4362181E+03  0.7957747E-01  0.3237807E+00
         13   -1    0    0    0    0  0.00000000000E+00  0.00000000000E+00  0.14999999963E+04  0.15000000000E+04  0.10566000000E+00 0. -1.
        994   -1    0    0    0    0 -0.00000000000E+00 -0.00000000000E+00  0.11368683772E-12  0.17120000000E+03  0.17120000000E+03 0.  0.
         13    1    1    2    0    0  0.68279205234E+02 -0.57540129671E+02  0.71437136363E+02  0.11435117842E+03  0.10566000000E+00 0. -1.
        994    1    1    2    0    0  0.83609652223E+00  0.42065789463E+02  0.59714678023E+02  0.18613305046E+03  0.17120000000E+03 0.  0.
        998    1    1    2    0    0 -0.69115301756E+02  0.15474340208E+02  0.13688481819E+04  0.13707157711E+04  0.10000000000E+02 0. -1.
</event>
<event>
 5    1  0.1145138E-008  0.3820089E+03  0.7957747E-01  0.3442458E+00
         13   -1    0    0    0    0  0.00000000000E+00  0.00000000000E+00  0.14999999963E+04  0.15000000000E+04  0.10566000000E+00 0.  1.
        994   -1    0    0    0    0 -0.00000000000E+00 -0.00000000000E+00  0.11368683772E-12  0.17120000000E+03  0.17120000000E+03 0.  0.
         13    1    1    2    0    0 -0.27399442705E+02  0.91587789676E+01  0.14008143846E+03  0.14302948387E+03  0.10566000000E+00 0.  1.
        994    1    1    2    0    0  0.79041076185E+01 -0.61799428629E+01  0.34568441950E+01  0.17152858765E+03  0.17120000000E+03 0.  0.
        998    1    1    2    0    0  0.19495335086E+02 -0.29788361046E+01  0.13564617136E+04  0.13566419285E+04  0.10000000000E+02 0.  1.
</event>
<event>
 5    1  0.1145138E-008  0.3778394E+03  0.7957747E-01  0.3460621E+00
         13   -1    0    0    0    0  0.00000000000E+00  0.00000000000E+00  0.14999999963E+04  0.15000000000E+04  0.10566000000E+00 0. -1.
        994   -1    0    0    0    0 -0.00000000000E+00 -0.00000000000E+00  0.11368683772E-12  0.17120000000E+03  0.17120000000E+03 0.  0.
         13    1    1    2    0    0  0.93463441716E+01  0.87367724327E+01  0.13416488369E+02  0.18539111794E+02  0.10566000000E+00 0. -1.
        994    1    1    2    0    0  0.53640599866E+00 -0.11204103617E+02  0.56515394998E+01  0.17166012807E+03  0.17120000000E+03 0.  0.
        998    1    1    2    0    0 -0.98827501703E+01  0.24673311840E+01  0.14809319684E+04  0.14810007601E+04  0.10000000000E+02 0. -1.
</event>
<event>
 5    1  0.1145138E-008  0.3745336E+03  0.7957747E-01  0.3475311E+00
         13   -1    0    0    0    0  0.00000000000E+00  0.00000000000E+00  0.14999999963E+04  0.15000000000E+04  0.10566000000E+00 0.  1.
        994   -1    0    0    0    0 -0.00000000000E+00 -0.00000000000E+00  0.11368683772E-12  0.17120000000E+03  0.17120000000E+03 0.  0.
         13    1    1    2    0    0  0.69182079872E+01 -0.15686854906E+02  0.17951769344E+02  0.24823702488E+02  0.10566000000E+00 0.  1.
        994    1    1    2    0    0 -0.62675226745E+01  0.18209088968E+02  0.81820326478E+01  0.17247387750E+03  0.17120000000E+03 0.  0.
        998    1    1    2    0    0 -0.65068531271E+00 -0.25222340617E+01  0.14738661943E+04  0.14739024200E+04  0.10000000000E+02 0.  1.
</event>
<event>
 5    1  0.1145138E-008  0.3776684E+03  0.7957747E-01  0.3461374E+00
         13   -1    0    0    0    0  0.00000000000E+00  0.00000000000E+00  0.14999999963E+04  0.15000000000E+04  0.10566000000E+00 0. -1.
        994   -1    0    0    0    0 -0.00000000000E+00 -0.00000000000E+00  0.11368683772E-12  0.17120000000E+03  0.17120000000E+03 0.  0.
         13    1    1    2    0    0  0.23830500145E+02  0.14665271566E+01  0.59455721210E+02  0.64070565689E+02  0.10566000000E+00 0. -1.
        994    1    1    2    0    0  0.22987792414E+02  0.65990258458E-01  0.70970812255E+01  0.17288218970E+03  0.17120000000E+03 0.  0.
        998    1    1    2    0    0 -0.46818292558E+02 -0.15325174150E+01  0.14334471938E+04  0.14342472446E+04  0.10000000000E+02 0. -1.
</event>
<event>
 5    1  0.1145138E-008  0.3846489E+03  0.7957747E-01  0.3431163E+00
         13   -1    0    0    0    0  0.00000000000E+00  0.00000000000E+00  0.14999999963E+04  0.15000000000E+04  0.10566000000E+00 0. -1.
        994   -1    0    0    0    0 -0.00000000000E+00 -0.00000000000E+00  0.11368683772E-12  0.17120000000E+03  0.17120000000E+03 0.  0.
         13    1    1    2    0    0 -0.42230996577E+01  0.10960228594E+02  0.39863451117E+02  0.41557996590E+02  0.10566000000E+00 0. -1.
        994    1    1    2    0    0  0.12225606481E+02  0.70748582003E+01  0.24617267167E+01  0.17179935731E+03  0.17120000000E+03 0.  0.
        998    1    1    2    0    0 -0.80025068235E+01 -0.18035086795E+02  0.14576748184E+04  0.14578426461E+04  0.10000000000E+02 0. -1.
</event>
<event>
 5    1  0.1145138E-008  0.3758343E+03  0.7957747E-01  0.3469500E+00
         13   -1    0    0    0    0  0.00000000000E+00  0.00000000000E+00  0.14999999963E+04  0.15000000000E+04  0.10566000000E+00 0. -1.
        994   -1    0    0    0    0 -0.00000000000E+00 -0.00000000000E+00  0.11368683772E-12  0.17120000000E+03  0.17120000000E+03 0.  0.
         13    1    1    2    0    0 -0.92895863880E+01 -0.27998318347E+02  0.64387987379E+02  0.70823910710E+02  0.10566000000E+00 0. -1.
        994    1    1    2    0    0  0.15455348164E+02  0.27564320388E+02  0.96434802682E+01  0.17435910145E+03  0.17120000000E+03 0.  0.
        998    1    1    2    0    0 -0.61657617759E+01  0.43399795850E+00  0.14259685286E+04  0.14260169878E+04  0.10000000000E+02 0. -1.
</event>
<event>
 5    1  0.1145138E-008  0.3854076E+03  0.7957747E-01  0.3427946E+00
         13   -1    0    0    0    0  0.00000000000E+00  0.00000000000E+00  0.14999999963E+04  0.15000000000E+04  0.10566000000E+00 0. -1.
        994   -1    0    0    0    0 -0.00000000000E+00 -0.00000000000E+00  0.11368683772E-12  0.17120000000E+03  0.17120000000E+03 0.  0.
         13    1    1    2    0    0  0.13830675982E+02 -0.16487166159E+01  0.80927125917E+02  0.82117091631E+02  0.10566000000E+00 0. -1.
        994    1    1    2    0    0  0.11037312548E+02 -0.13412964727E+02  0.24195241360E+01  0.17209597319E+03  0.17120000000E+03 0.  0.
        998    1    1    2    0    0 -0.24867988531E+02  0.15061681343E+02  0.14166533462E+04  0.14169869352E+04  0.10000000000E+02 0. -1.
</event>
<event>
 5    1  0.1145138E-008  0.3795828E+03  0.7957747E-01  0.3452977E+00
         13   -1    0    0    0    0  0.00000000000E+00  0.00000000000E+00  0.14999999963E+04  0.15000000000E+04  0.10566000000E+00 0. -1.
        994   -1    0    0    0    0 -0.00000000000E+00 -0.00000000000E+00  0.11368683772E-12  0.17120000000E+03  0.17120000000E+03 0.  0.
         13    1    1    2    0    0  0.41435933033E+02  0.26163993631E+02  0.22963476601E+03  0.23480551108E+03  0.10566000000E+00 0. -1.
        994    1    1    2    0    0 -0.47471468203E+02 -0.21930878039E+02  0.13552667904E+02  0.17952052393E+03  0.17120000000E+03 0.  0.
        998    1    1    2    0    0  0.60355351700E+01 -0.42331155927E+01  0.12568125624E+04  0.12568739650E+04  0.10000000000E+02 0. -1.
</event>
<event>
 5    1  0.1145138E-008  0.3726515E+03  0.7957747E-01  0.3483793E+00
         13   -1    0    0    0    0  0.00000000000E+00  0.00000000000E+00  0.14999999963E+04  0.15000000000E+04  0.10566000000E+00 0.  1.
        994   -1    0    0    0    0 -0.00000000000E+00 -0.00000000000E+00  0.11368683772E-12  0.17120000000E+03  0.17120000000E+03 0.  0.
         13    1    1    2    0    0  0.28007097443E+02  0.32759435646E+02  0.66665159200E+02  0.79384083709E+02  0.10566000000E+00 0.  1.
        994    1    1    2    0    0 -0.32528109938E+02 -0.36267133589E+02  0.20770343243E+02  0.17920443653E+03  0.17120000000E+03 0.  0.
        998    1    1    2    0    0  0.45210124953E+01  0.35076979432E+01  0.14125644938E+04  0.14126114798E+04  0.10000000000E+02 0.  1.
</event>
<event>
 5    1  0.1145138E-008  0.3844687E+03  0.7957747E-01  0.3431929E+00
         13   -1    0    0    0    0  0.00000000000E+00  0.00000000000E+00  0.14999999963E+04  0.15000000000E+04  0.10566000000E+00 0. -1.
        994   -1    0    0    0    0 -0.00000000000E+00 -0.00000000000E+00  0.11368683772E-12  0.17120000000E+03  0.17120000000E+03 0.  0.
         13    1    1    2    0    0  0.76434713976E+01 -0.19219727444E+02  0.11014058237E+03  0.11206596106E+03  0.10566000000E+00 0. -1.
        994    1    1    2    0    0 -0.72609644253E+01  0.14274235066E+02  0.27395316271E+01  0.17196924267E+03  0.17120000000E+03 0.  0.
        998    1    1    2    0    0 -0.38250697227E+00  0.49454923777E+01  0.13871198823E+04  0.13871647963E+04  0.10000000000E+02 0. -1.
</event>
<event>
 5    1  0.1145138E-008  0.3829541E+03  0.7957747E-01  0.3438396E+00
         13   -1    0    0    0    0  0.00000000000E+00  0.00000000000E+00  0.14999999963E+04  0.15000000000E+04  0.10566000000E+00 0. -1.
        994   -1    0    0    0    0 -0.00000000000E+00 -0.00000000000E+00  0.11368683772E-12  0.17120000000E+03  0.17120000000E+03 0.  0.
         13    1    1    2    0    0  0.13876141075E+02 -0.23513290292E+02  0.13454917668E+03  0.13729134795E+03  0.10566000000E+00 0. -1.
        994    1    1    2    0    0 -0.88596315984E+01  0.20087553056E+02  0.42466656694E+01  0.17265421231E+03  0.17120000000E+03 0.  0.
        998    1    1    2    0    0 -0.50165094762E+01  0.34257372356E+01  0.13612041539E+04  0.13612544397E+04  0.10000000000E+02 0.  0.
</event>
<event>
 5    1  0.1145138E-008  0.3913056E+03  0.7957747E-01  0.3403362E+00
         13   -1    0    0    0    0  0.00000000000E+00  0.00000000000E+00  0.14999999963E+04  0.15000000000E+04  0.10566000000E+00 0.  1.
        994   -1    0    0    0    0 -0.00000000000E+00 -0.00000000000E+00  0.11368683772E-12  0.17120000000E+03  0.17120000000E+03 0.  0.
         13    1    1    2    0    0 -0.14088966559E+03 -0.49681540473E+02  0.30424242279E+03  0.33894190700E+03  0.10566000000E+00 0.  1.
        994    1    1    2    0    0  0.18506104901E+03  0.18111405821E+02  0.16907233099E+03  0.30408963808E+03  0.17120000000E+03 0.  0.
        998    1    1    2    0    0 -0.44171383424E+02  0.31570134652E+02  0.10266852425E+04  0.10281684549E+04  0.10000000000E+02 0.  1.
</event>
<event>
 5    1  0.1145138E-008  0.3688296E+03  0.7957747E-01  0.3501287E+00
         13   -1    0    0    0    0  0.00000000000E+00  0.00000000000E+00  0.14999999963E+04  0.15000000000E+04  0.10566000000E+00 0. -1.
        994   -1    0    0    0    0 -0.00000000000E+00 -0.00000000000E+00  0.11368683772E-12  0.17120000000E+03  0.17120000000E+03 0.  0.
         13    1    1    2    0    0  0.58399707919E+02 -0.36878528701E+02  0.21822629840E+03  0.22889578467E+03  0.10566000000E+00 0. -1.
        994    1    1    2    0    0 -0.48515137107E+02  0.30128784099E+02  0.21291698733E+02  0.18172572354E+03  0.17120000000E+03 0.  0.
        998    1    1    2    0    0 -0.98845708118E+01  0.67497446019E+01  0.12604819991E+04  0.12605784918E+04  0.10000000000E+02 0. -1.
</event>
<event>
 5    1  0.1145138E-008  0.3761927E+03  0.7957747E-01  0.3467906E+00
         13   -1    0    0    0    0  0.00000000000E+00  0.00000000000E+00  0.14999999963E+04  0.15000000000E+04  0.10566000000E+00 0.  1.
        994   -1    0    0    0    0 -0.00000000000E+00 -0.00000000000E+00  0.11368683772E-12  0.17120000000E+03  0.17120000000E+03 0.  0.
         13    1    1    2    0    0 -0.16496483456E+01  0.44543372374E+02  0.14765261039E+03  0.15423403607E+03  0.10566000000E+00 0.  1.
        994    1    1    2    0    0  0.43796440846E+01 -0.43375582900E+02  0.12529484625E+02  0.17710745456E+03  0.17120000000E+03 0.  0.
        998    1    1    2    0    0 -0.27299957390E+01 -0.11677894734E+01  0.13398179013E+04  0.13398585094E+04  0.10000000000E+02 0.  1.
</event>
<event>
 5    1  0.1145138E-008  0.3833441E+03  0.7957747E-01  0.3436725E+00
         13   -1    0    0    0    0  0.00000000000E+00  0.00000000000E+00  0.14999999963E+04  0.15000000000E+04  0.10566000000E+00 0. -1.
        994   -1    0    0    0    0 -0.00000000000E+00 -0.00000000000E+00  0.11368683772E-12  0.17120000000E+03  0.17120000000E+03 0.  0.
         13    1    1    2    0    0  0.78715256499E+01 -0.16655602740E+02  0.69099951501E+02  0.71513526553E+02  0.10566000000E+00 0. -1.
        994    1    1    2    0    0 -0.29832199411E+01  0.98833169061E+01  0.28069633459E+01  0.17153395756E+03  0.17120000000E+03 0.  0.
        998    1    1    2    0    0 -0.48883057088E+01  0.67722858336E+01  0.14280930814E+04  0.14281525159E+04  0.10000000000E+02 0. -1.
</event>
<event>
 5    1  0.1145138E-008  0.3858438E+03  0.7957747E-01  0.3426101E+00
         13   -1    0    0    0    0  0.00000000000E+00  0.00000000000E+00  0.14999999963E+04  0.15000000000E+04  0.10566000000E+00 0. -1.
        994   -1    0    0    0    0 -0.00000000000E+00 -0.00000000000E+00  0.11368683772E-12  0.17120000000E+03  0.17120000000E+03 0.  0.
         13    1    1    2    0    0 -0.40591115926E+01  0.10337973785E+02  0.49288287520E+02  0.50524217358E+02  0.10566000000E+00 0. -1.
        994    1    1    2    0    0  0.40850217317E+00 -0.14906018486E+02  0.19413819987E+01  0.17185914356E+03  0.17120000000E+03 0.  0.
        998    1    1    2    0    0  0.36506094194E+01  0.45680447008E+01  0.14487703268E+04  0.14488166391E+04  0.10000000000E+02 0. -1.
</event>
<event>
 5    1  0.1145138E-008  0.3891241E+03  0.7957747E-01  0.3412367E+00
         13   -1    0    0    0    0  0.00000000000E+00  0.00000000000E+00  0.14999999963E+04  0.15000000000E+04  0.10566000000E+00 0. -1.
        994   -1    0    0    0    0 -0.00000000000E+00 -0.00000000000E+00  0.11368683772E-12  0.17120000000E+03  0.17120000000E+03 0.  0.
         13    1    1    2    0    0  0.16607008833E+01  0.18837440663E+02 -0.13101083604E+01  0.18956124238E+02  0.10566000000E+00 0. -1.
        994    1    1    2    0    0  0.10902951718E+02 -0.23918021831E+02  0.24026986305E+02  0.17486475401E+03  0.17120000000E+03 0.  0.
        998    1    1    2    0    0 -0.12563652602E+02  0.50805811683E+01  0.14772831183E+04  0.14773791218E+04  0.10000000000E+02 0. -1.
</event>
<event>
 5    1  0.1145138E-008  0.3814844E+03  0.7957747E-01  0.3444720E+00
         13   -1    0    0    0    0  0.00000000000E+00  0.00000000000E+00  0.14999999963E+04  0.15000000000E+04  0.10566000000E+00 0.  1.
        994   -1    0    0    0    0 -0.00000000000E+00 -0.00000000000E+00  0.11368683772E-12  0.17120000000E+03  0.17120000000E+03 0.  0.
         13    1    1    2    0    0 -0.19745172108E+02  0.46503375818E+01  0.58444390575E+02  0.61864815646E+02  0.10566000000E+00 0.  1.
        994    1    1    2    0    0  0.26848534603E+02  0.33978017877E+02  0.96494764874E+01  0.17685559620E+03  0.17120000000E+03 0.  0.
        998    1    1    2    0    0 -0.71033624952E+01 -0.38628355458E+02  0.14319061292E+04  0.14324795882E+04  0.10000000000E+02 0.  1.
</event>
<event>
 5    1  0.1145138E-008  0.3811760E+03  0.7957747E-01  0.3446054E+00
         13   -1    0    0    0    0  0.00000000000E+00  0.00000000000E+00  0.14999999963E+04  0.15000000000E+04  0.10566000000E+00 0.  1.
        994   -1    0    0    0    0 -0.00000000000E+00 -0.00000000000E+00  0.11368683772E-12  0.17120000000E+03  0.17120000000E+03 0.  0.
         13    1    1    2    0    0 -0.14443241227E+02 -0.53881037475E+01  0.31431967814E+02  0.35008836654E+02  0.10566000000E+00 0.  1.
        994    1    1    2    0    0  0.17689230061E+02  0.37095320978E+01  0.46292241097E+01  0.17221364407E+03  0.17120000000E+03 0.  0.
        998    1    1    2    0    0 -0.32459888344E+01  0.16785716496E+01  0.14639388044E+04  0.14639775193E+04  0.10000000000E+02 0.  1.
</event>
<event>
 5    1  0.1145138E-008  0.3831124E+03  0.7957747E-01  0.3437717E+00
         13   -1    0    0    0    0  0.00000000000E+00  0.00000000000E+00  0.14999999963E+04  0.15000000000E+04  0.10566000000E+00 0. -1.
        994   -1    0    0    0    0 -0.00000000000E+00 -0.00000000000E+00  0.11368683772E-12  0.17120000000E+03  0.17120000000E+03 0.  0.
         13    1    1    2    0    0  0.12564297529E+02  0.94434836512E+01  0.47588572800E+02  0.50117106670E+02  0.10566000000E+00 0. -1.
        994    1    1    2    0    0 -0.24116308344E+01 -0.11861985033E+02  0.30551895599E+01  0.17165458583E+03  0.17120000000E+03 0.  0.
        998    1    1    2    0    0 -0.10152666694E+02  0.24185013817E+01  0.14493562339E+04  0.14494283075E+04  0.10000000000E+02 0. -1.
</event>
<event>
 5    1  0.1145138E-008  0.3733363E+03  0.7957747E-01  0.3480697E+00
         13   -1    0    0    0    0  0.00000000000E+00  0.00000000000E+00  0.14999999963E+04  0.15000000000E+04  0.10566000000E+00 0. -1.
        994   -1    0    0    0    0 -0.00000000000E+00 -0.00000000000E+00  0.11368683772E-12  0.17120000000E+03  0.17120000000E+03 0.  0.
         13    1    1    2    0    0 -0.44514980355E+02  0.43017321720E+02  0.14123608563E+03  0.15420673296E+03  0.10566000000E+00 0. -1.
        994    1    1    2    0    0  0.33186563396E+02 -0.34675990355E+02  0.20908127037E+02  0.17902614913E+03  0.17120000000E+03 0.  0.
        998    1    1    2    0    0  0.11328416959E+02 -0.83413313650E+01  0.13378557836E+04  0.13379671179E+04  0.10000000000E+02 0. -1.
</event>
<event>
 5    1  0.1145138E-008  0.3691652E+03  0.7957747E-01  0.3499736E+00
         13   -1    0    0    0    0  0.00000000000E+00  0.00000000000E+00  0.14999999963E+04  0.15000000000E+04  0.10566000000E+00 0.  1.
        994   -1    0    0    0    0 -0.00000000000E+00 -0.00000000000E+00  0.11368683772E-12  0.17120000000E+03  0.17120000000E+03 0.  0.
         13    1    1    2    0    0 -0.16768549843E+02 -0.10287590239E+02  0.13655503731E+02  0.23947916881E+02  0.10566000000E+00 0.  1.
        994    1    1    2    0    0  0.18071112068E+02  0.97214743462E+01  0.11967179084E+02  0.17284017337E+03  0.17120000000E+03 0.  0.
        998    1    1    2    0    0 -0.13025622249E+01  0.56611589282E+00  0.14743773135E+04  0.14744119098E+04  0.10000000000E+02 0.  1.
</event>
<event>
 5    1  0.1145138E-008  0.3857185E+03  0.7957747E-01  0.3426631E+00
         13   -1    0    0    0    0  0.00000000000E+00  0.00000000000E+00  0.14999999963E+04  0.15000000000E+04  0.10566000000E+00 0.  1.
        994   -1    0    0    0    0 -0.00000000000E+00 -0.00000000000E+00  0.11368683772E-12  0.17120000000E+03  0.17120000000E+03 0.  0.
         13    1    1    2    0    0  0.15315490211E+02 -0.22484101046E+01  0.90881093603E+02  0.92190042450E+02  0.10566000000E+00 0.  1.
        994    1    1    2    0    0 -0.15814420391E+02 -0.40852573627E+01  0.21496579017E+01  0.17199083188E+03  0.17120000000E+03 0.  0.
        998    1    1    2    0    0  0.49893017997E+00  0.63336674673E+01  0.14069692448E+04  0.14070191257E+04  0.10000000000E+02 0.  1.
</event>
<event>
 5    1  0.1145138E-008  0.3727124E+03  0.7957747E-01  0.3483517E+00
         13   -1    0    0    0    0  0.00000000000E+00  0.00000000000E+00  0.14999999963E+04  0.15000000000E+04  0.10566000000E+00 0. -1.
        994   -1    0    0    0    0 -0.00000000000E+00 -0.00000000000E+00  0.11368683772E-12  0.17120000000E+03  0.17120000000E+03 0.  0.
         13    1    1    2    0    0 -0.13673642559E+03  0.11095032978E+03  0.92631364271E+03  0.94290179849E+03  0.10566000000E+00 0. -1.
        994    1    1    2    0    0  0.14324391629E+03 -0.79813630342E+02  0.10643629993E+03  0.25985988741E+03  0.17120000000E+03 0.  0.
        998    1    1    2    0    0 -0.65074907063E+01 -0.31136699441E+02  0.46725005364E+03  0.46843831410E+03  0.10000000000E+02 0. -1.
</event>
<event>
 5    1  0.1145138E-008  0.3850574E+03  0.7957747E-01  0.3429429E+00
         13   -1    0    0    0    0  0.00000000000E+00  0.00000000000E+00  0.14999999963E+04  0.15000000000E+04  0.10566000000E+00 0.  1.
        994   -1    0    0    0    0 -0.00000000000E+00 -0.00000000000E+00  0.11368683772E-12  0.17120000000E+03  0.17120000000E+03 0.  0.
         13    1    1    2    0    0 -0.19862450187E+02 -0.16517344379E+01  0.10443967383E+03  0.10632451170E+03  0.10566000000E+00 0.  1.
        994    1    1    2    0    0  0.42156600091E+02 -0.44010214155E+02  0.13910454154E+02  0.18225536649E+03  0.17120000000E+03 0.  0.
        998    1    1    2    0    0 -0.22294149904E+02  0.45661948592E+02  0.13816498683E+04  0.13826201218E+04  0.10000000000E+02 0.  1.
</event>
<event>
 5    1  0.1145138E-008  0.3810485E+03  0.7957747E-01  0.3446606E+00
         13   -1    0    0    0    0  0.00000000000E+00  0.00000000000E+00  0.14999999963E+04  0.15000000000E+04  0.10566000000E+00 0. -1.
        994   -1    0    0    0    0 -0.00000000000E+00 -0.00000000000E+00  0.11368683772E-12  0.17120000000E+03  0.17120000000E+03 0.  0.
         13    1    1    2    0    0  0.52321725619E+01  0.15019218626E+02  0.34608981919E+02  0.38088651215E+02  0.10566000000E+00 0. -1.
        994    1    1    2    0    0 -0.92654100054E+01 -0.44276836962E-01  0.38908455730E+01  0.17149468931E+03  0.17120000000E+03 0.  0.
        998    1    1    2    0    0  0.40332374434E+01 -0.14974941789E+02  0.14615001688E+04  0.14616166595E+04  0.10000000000E+02 0. -1.
</event>
<event>
 5    1  0.1145138E-008  0.3747873E+03  0.7957747E-01  0.3474175E+00
         13   -1    0    0    0    0  0.00000000000E+00  0.00000000000E+00  0.14999999963E+04  0.15000000000E+04  0.10566000000E+00 0.  1.
        994   -1    0    0    0    0 -0.00000000000E+00 -0.00000000000E+00  0.11368683772E-12  0.17120000000E+03  0.17120000000E+03 0.  0.
         13    1    1    2    0    0  0.11089927536E+02 -0.24073092616E+02  0.50927455264E+02  0.57411820599E+02  0.10566000000E+00 0.  1.
        994    1    1    2    0    0  0.59568328174E+01  0.92676721246E+01  0.72009815903E+01  0.17170517680E+03  0.17120000000E+03 0.  0.
        998    1    1    2    0    0 -0.17046760353E+02  0.14805420491E+02  0.14418715594E+04  0.14420830026E+04  0.10000000000E+02 0.  1.
</event>
<event>
 5    1  0.1145138E-008  0.3805246E+03  0.7957747E-01  0.3448878E+00
         13   -1    0    0    0    0  0.00000000000E+00  0.00000000000E+00  0.14999999963E+04  0.15000000000E+04  0.10566000000E+00 0. -1.
        994   -1    0    0    0    0 -0.00000000000E+00 -0.00000000000E+00  0.11368683772E-12  0.17120000000E+03  0.17120000000E+03 0.  0.
         13    1    1    2    0    0  0.49507092075E+02 -0.17538527036E+02  0.27312650122E+03  0.27813063285E+03  0.10566000000E+00 0. -1.
        994    1    1    2    0    0 -0.48863248869E+02  0.46142688215E+02  0.19091616587E+02  0.18490725943E+03  0.17120000000E+03 0.  0.
        998    1    1    2    0    0 -0.64384320675E+00 -0.28604161178E+02  0.12077818785E+04  0.12081621077E+04  0.10000000000E+02 0. -1.
</event>
<event>
 5    1  0.1145138E-008  0.3814129E+03  0.7957747E-01  0.3445029E+00
         13   -1    0    0    0    0  0.00000000000E+00  0.00000000000E+00  0.14999999963E+04  0.15000000000E+04  0.10566000000E+00 0. -1.
        994   -1    0    0    0    0 -0.00000000000E+00 -0.00000000000E+00  0.11368683772E-12  0.17120000000E+03  0.17120000000E+03 0.  0.
         13    1    1    2    0    0  0.39358055923E+01 -0.43455580262E+02  0.26392935280E+03  0.26751185479E+03  0.10566000000E+00 0. -1.
        994    1    1    2    0    0 -0.72149631873E+01  0.29635863263E+02  0.65233973063E+01  0.17401820249E+03  0.17120000000E+03 0.  0.
        998    1    1    2    0    0  0.32791575950E+01  0.13819716999E+02  0.12295472462E+04  0.12296699427E+04  0.10000000000E+02 0. -1.
</event>
<event>
 5    1  0.1145138E-008  0.3852739E+03  0.7957747E-01  0.3428512E+00
         13   -1    0    0    0    0  0.00000000000E+00  0.00000000000E+00  0.14999999963E+04  0.15000000000E+04  0.10566000000E+00 0. -1.
        994   -1    0    0    0    0 -0.00000000000E+00 -0.00000000000E+00  0.11368683772E-12  0.17120000000E+03  0.17120000000E+03 0.  0.
         13    1    1    2    0    0  0.12590141412E+02 -0.51297732030E+01  0.61626719199E+02  0.63108556608E+02  0.10566000000E+00 0. -1.
        994    1    1    2    0    0 -0.77719153550E+01  0.74078604257E+01  0.18731022119E+01  0.17154657553E+03  0.17120000000E+03 0.  0.
        998    1    1    2    0    0 -0.48182260569E+01 -0.22780872227E+01  0.14365001749E+04  0.14365448679E+04  0.10000000000E+02 0. -1.
</event>
<event>
 5    1  0.1145138E-008  0.3720741E+03  0.7957747E-01  0.3486413E+00
         13   -1    0    0    0    0  0.00000000000E+00  0.00000000000E+00  0.14999999963E+04  0.15000000000E+04  0.10566000000E+00 0.  1.
        994   -1    0    0    0    0 -0.00000000000E+00 -0.00000000000E+00  0.11368683772E-12  0.17120000000E+03  0.17120000000E+03 0.  0.
         13    1    1    2    0    0 -0.25202770895E+01  0.39131573950E+02  0.10313715770E+03  0.11034000335E+03  0.10566000000E+00 0.  1.
        994    1    1    2    0    0  0.23985593517E+02  0.84447715386E+01  0.10412095714E+02  0.17339110300E+03  0.17120000000E+03 0.  0.
        998    1    1    2    0    0 -0.21465316428E+02 -0.47576345489E+02  0.13864507429E+04  0.13874688936E+04  0.10000000000E+02 0.  1.
</event>
<event>
 5    1  0.1145138E-008  0.3720223E+03  0.7957747E-01  0.3486648E+00
         13   -1    0    0    0    0  0.00000000000E+00  0.00000000000E+00  0.14999999963E+04  0.15000000000E+04  0.10566000000E+00 0. -1.
        994   -1    0    0    0    0 -0.00000000000E+00 -0.00000000000E+00  0.11368683772E-12  0.17120000000E+03  0.17120000000E+03 0.  0.
         13    1    1    2    0    0 -0.84349965507E+02 -0.55051694829E+02  0.45516260557E+03  0.46617444638E+03  0.10566000000E+00 0. -1.
        994    1    1    2    0    0  0.82803273793E+02  0.42780241016E+02  0.38659849673E+02  0.19872230662E+03  0.17120000000E+03 0.  0.
        998    1    1    2    0    0  0.15466917139E+01  0.12271453813E+02  0.10061775410E+04  0.10063032470E+04  0.10000000000E+02 0. -1.
</event>
<event>
 5    1  0.1145138E-008  0.3842949E+03  0.7957747E-01  0.3432668E+00
         13   -1    0    0    0    0  0.00000000000E+00  0.00000000000E+00  0.14999999963E+04  0.15000000000E+04  0.10566000000E+00 0. -1.
        994   -1    0    0    0    0 -0.00000000000E+00 -0.00000000000E+00  0.11368683772E-12  0.17120000000E+03  0.17120000000E+03 0.  0.
         13    1    1    2    0    0  0.13731524600E+02  0.32605301658E+01  0.51288497553E+02  0.53194990085E+02  0.10566000000E+00 0. -1.
        994    1    1    2    0    0 -0.71949810326E+01  0.11555870410E+02  0.25916307317E+01  0.17175989766E+03  0.17120000000E+03 0.  0.
        998    1    1    2    0    0 -0.65365435671E+01 -0.14816400576E+02  0.14461198680E+04  0.14462451123E+04  0.10000000000E+02 0. -1.
</event>
<event>
 5    1  0.1145138E-008  0.3717574E+03  0.7957747E-01  0.3487853E+00
         13   -1    0    0    0    0  0.00000000000E+00  0.00000000000E+00  0.14999999963E+04  0.15000000000E+04  0.10566000000E+00 0.  1.
        994   -1    0    0    0    0 -0.00000000000E+00 -0.00000000000E+00  0.11368683772E-12  0.17120000000E+03  0.17120000000E+03 0.  0.
         13    1    1    2    0    0  0.56430966325E+02  0.77167975374E+02  0.36312489802E+03  0.37549840627E+03  0.10566000000E+00 0.  1.
        994    1    1    2    0    0 -0.17232735955E+03 -0.34366029728E+02  0.12329449620E+03  0.27457005599E+03  0.17120000000E+03 0.  0.
        998    1    1    2    0    0  0.11589639323E+03 -0.42801945646E+02  0.10135806021E+04  0.10211315377E+04  0.10000000000E+02 0.  1.
</event>
<event>
 5    1  0.1145138E-008  0.3803660E+03  0.7957747E-01  0.3449566E+00
         13   -1    0    0    0    0  0.00000000000E+00  0.00000000000E+00  0.14999999963E+04  0.15000000000E+04  0.10566000000E+00 0. -1.
        994   -1    0    0    0    0 -0.00000000000E+00 -0.00000000000E+00  0.11368683772E-12  0.17120000000E+03  0.17120000000E+03 0.  0.
         13    1    1    2    0    0 -0.39270668160E+02 -0.59429880910E+00  0.20142146087E+03  0.20521489866E+03  0.10566000000E+00 0. -1.
        994    1    1    2    0    0  0.17995763709E+02  0.18424666657E+02  0.61663777645E+01  0.17323619734E+03  0.17120000000E+03 0.  0.
        998    1    1    2    0    0  0.21274904451E+02 -0.17830367848E+02  0.12924121576E+04  0.12927489040E+04  0.10000000000E+02 0. -1.
</event>
<event>
 5    1  0.1145138E-008  0.3800093E+03  0.7957747E-01  0.3451118E+00
         13   -1    0    0    0    0  0.00000000000E+00  0.00000000000E+00  0.14999999963E+04  0.15000000000E+04  0.10566000000E+00 0.  1.
        994   -1    0    0    0    0 -0.00000000000E+00 -0.00000000000E+00  0.11368683772E-12  0.17120000000E+03  0.17120000000E+03 0.  0.
         13    1    1    2    0    0 -0.10571755301E+02 -0.28759244071E+01  0.12611961808E+02  0.16706456716E+02  0.10566000000E+00 0.  1.
        994    1    1    2    0    0  0.11387125500E+02  0.41470109199E+01  0.46195287811E+01  0.17169054829E+03  0.17120000000E+03 0.  0.
        998    1    1    2    0    0 -0.81537019914E+00 -0.12710865127E+01  0.14827685057E+04  0.14828029950E+04  0.10000000000E+02 0.  1.
</event>
<event>
 5    1  0.1145138E-008  0.3828878E+03  0.7957747E-01  0.3438680E+00
         13   -1    0    0    0    0  0.00000000000E+00  0.00000000000E+00  0.14999999963E+04  0.15000000000E+04  0.10566000000E+00 0.  1.
        994   -1    0    0    0    0 -0.00000000000E+00 -0.00000000000E+00  0.11368683772E-12  0.17120000000E+03  0.17120000000E+03 0.  0.
         13    1    1    2    0    0  0.74596784969E+01  0.11363685663E+02  0.34951717837E+02  0.37502185255E+02  0.10566000000E+00 0.  1.
        994    1    1    2    0    0  0.18431114798E+02 -0.10520527771E+02  0.41752260897E+01  0.17256088783E+03  0.17120000000E+03 0.  0.
        998    1    1    2    0    0 -0.25890793295E+02 -0.84315789286E+00  0.14608730524E+04  0.14611369269E+04  0.10000000000E+02 0.  1.
</event>
<event>
 5    1  0.1145138E-008  0.3837429E+03  0.7957747E-01  0.3435021E+00
         13   -1    0    0    0    0  0.00000000000E+00  0.00000000000E+00  0.14999999963E+04  0.15000000000E+04  0.10566000000E+00 0.  1.
        994   -1    0    0    0    0 -0.00000000000E+00 -0.00000000000E+00  0.11368683772E-12  0.17120000000E+03  0.17120000000E+03 0.  0.
         13    1    1    2    0    0 -0.13559341792E+02  0.28684843251E+01  0.46202613937E+02  0.48236673297E+02  0.10566000000E+00 0.  1.
        994    1    1    2    0    0 -0.13927507607E+02 -0.13436194077E+02  0.34931720012E+01  0.17232570624E+03  0.17120000000E+03 0.  0.
        998    1    1    2    0    0  0.27486849399E+02  0.10567709752E+02  0.14503042103E+04  0.14506376205E+04  0.10000000000E+02 0.  1.
</event>
<event>
 5    1  0.1145138E-008  0.3857161E+03  0.7957747E-01  0.3426641E+00
         13   -1    0    0    0    0  0.00000000000E+00  0.00000000000E+00  0.14999999963E+04  0.15000000000E+04  0.10566000000E+00 0.  1.
        994   -1    0    0    0    0 -0.00000000000E+00 -0.00000000000E+00  0.11368683772E-12  0.17120000000E+03  0.17120000000E+03 0.  0.
         13    1    1    2    0    0 -0.10547562411E+02  0.70277511621E+01  0.61393439653E+02  0.62688164399E+02  0.10566000000E+00 0.  1.
        994    1    1    2    0    0  0.89548770122E+01 -0.10565013861E+02  0.19045964757E+01  0.17176983678E+03  0.17120000000E+03 0.  0.
        998    1    1    2    0    0  0.15926853992E+01  0.35372626987E+01  0.14367019601E+04  0.14367419988E+04  0.10000000000E+02 0.  1.
</event>
<event>
 5    1  0.1145138E-008  0.3834837E+03  0.7957747E-01  0.3436129E+00
         13   -1    0    0    0    0  0.00000000000E+00  0.00000000000E+00  0.14999999963E+04  0.15000000000E+04  0.10566000000E+00 0. -1.
        994   -1    0    0    0    0 -0.00000000000E+00 -0.00000000000E+00  0.11368683772E-12  0.17120000000E+03  0.17120000000E+03 0.  0.
         13    1    1    2    0    0  0.31212390642E+01 -0.17976156975E+02  0.66090805592E+02  0.68563037424E+02  0.10566000000E+00 0. -1.
        994    1    1    2    0    0 -0.50251134865E+01  0.19800238677E+02  0.37651726101E+01  0.17245555295E+03  0.17120000000E+03 0.  0.
        998    1    1    2    0    0  0.19038744223E+01 -0.18240817021E+01  0.14301440181E+04  0.14301814096E+04  0.10000000000E+02 0. -1.
</event>
<event>
 5    1  0.1145138E-008  0.3853237E+03  0.7957747E-01  0.3428300E+00
         13   -1    0    0    0    0  0.00000000000E+00  0.00000000000E+00  0.14999999963E+04  0.15000000000E+04  0.10566000000E+00 0.  1.
        994   -1    0    0    0    0 -0.00000000000E+00 -0.00000000000E+00  0.11368683772E-12  0.17120000000E+03  0.17120000000E+03 0.  0.
         13    1    1    2    0    0  0.11254951936E+02 -0.23805485633E+01  0.44639536375E+02  0.46098159685E+02  0.10566000000E+00 0.  1.
        994    1    1    2    0    0 -0.79874051447E+01  0.88810706898E+01  0.19383529793E+01  0.17162712277E+03  0.17120000000E+03 0.  0.
        998    1    1    2    0    0 -0.32675467911E+01 -0.65005221266E+01  0.14534221069E+04  0.14534747175E+04  0.10000000000E+02 0.  1.
</event>
<event>
 5    1  0.1145138E-008  0.3849101E+03  0.7957747E-01  0.3430053E+00
         13   -1    0    0    0    0  0.00000000000E+00  0.00000000000E+00  0.14999999963E+04  0.15000000000E+04  0.10566000000E+00 0. -1.
        994   -1    0    0    0    0 -0.00000000000E+00 -0.00000000000E+00  0.11368683772E-12  0.17120000000E+03  0.17120000000E+03 0.  0.
         13    1    1    2    0    0  0.91074267019E+01 -0.14319148653E+02  0.79918014456E+02  0.81699959841E+02  0.10566000000E+00 0. -1.
        994    1    1    2    0    0 -0.19895855518E+02  0.13184549873E+02  0.35510156907E+01  0.17289224139E+03  0.17120000000E+03 0.  0.
        998    1    1    2    0    0  0.10788428816E+02  0.11345987800E+01  0.14165309661E+04  0.14166077988E+04  0.10000000000E+02 0. -1.
</event>
<event>
 5    1  0.1145138E-008  0.3832075E+03  0.7957747E-01  0.3437310E+00
         13   -1    0    0    0    0  0.00000000000E+00  0.00000000000E+00  0.14999999963E+04  0.15000000000E+04  0.10566000000E+00 0. -1.
        994   -1    0    0    0    0 -0.00000000000E+00 -0.00000000000E+00  0.11368683772E-12  0.17120000000E+03  0.17120000000E+03 0.  0.
         13    1    1    2    0    0  0.18430527366E+02  0.62406183664E+01  0.78295017307E+02  0.80676827874E+02  0.10566000000E+00 0. -1.
        994    1    1    2    0    0 -0.81703338832E+01  0.12877764848E+02  0.32924846098E+01  0.17190948676E+03  0.17120000000E+03 0.  0.
        998    1    1    2    0    0 -0.10260193482E+02 -0.19118383215E+02  0.14184124944E+04  0.14186136854E+04  0.10000000000E+02 0. -1.
</event>
<event>
 5    1  0.1145138E-008  0.3842324E+03  0.7957747E-01  0.3432934E+00
         13   -1    0    0    0    0  0.00000000000E+00  0.00000000000E+00  0.14999999963E+04  0.15000000000E+04  0.10566000000E+00 0. -1.
        994   -1    0    0    0    0 -0.00000000000E+00 -0.00000000000E+00  0.11368683772E-12  0.17120000000E+03  0.17120000000E+03 0.  0.
         13    1    1    2    0    0 -0.23265819351E+03  0.43613424932E+02  0.11709363041E+04  0.11946228716E+04  0.10566000000E+00 0. -1.
        994    1    1    2    0    0  0.23322785092E+03 -0.50294177732E+02  0.22018873671E+03  0.36703849190E+03  0.17120000000E+03 0.  0.
        998    1    1    2    0    0 -0.56965740652E+00  0.66807528003E+01  0.10887495547E+03  0.10953863654E+03  0.10000000000E+02 0.  1.
</event>
<event>
 5    1  0.1145138E-008  0.3851839E+03  0.7957747E-01  0.3428893E+00
         13   -1    0    0    0    0  0.00000000000E+00  0.00000000000E+00  0.14999999963E+04  0.15000000000E+04  0.10566000000E+00 0.  1.
        994   -1    0    0    0    0 -0.00000000000E+00 -0.00000000000E+00  0.11368683772E-12  0.17120000000E+03  0.17120000000E+03 0.  0.
         13    1    1    2    0    0 -0.12744433075E+02  0.97729695811E+00  0.51723981576E+02  0.53279987968E+02  0.10566000000E+00 0.  1.
        994    1    1    2    0    0  0.13199055302E+02 -0.52031454079E+00  0.21125553346E+01  0.17172183518E+03  0.17120000000E+03 0.  0.
        998    1    1    2    0    0 -0.45462222640E+00 -0.45698241732E+00  0.14461634594E+04  0.14461981769E+04  0.10000000000E+02 0.  1.
</event>
<event>
 5    1  0.1145138E-008  0.3759526E+03  0.7957747E-01  0.3468973E+00
         13   -1    0    0    0    0  0.00000000000E+00  0.00000000000E+00  0.14999999963E+04  0.15000000000E+04  0.10566000000E+00 0.  1.
        994   -1    0    0    0    0 -0.00000000000E+00 -0.00000000000E+00  0.11368683772E-12  0.17120000000E+03  0.17120000000E+03 0.  0.
         13    1    1    2    0    0 -0.15856391381E+02 -0.58979933415E+01  0.18941346408E+02  0.25396795878E+02  0.10566000000E+00 0.  1.
        994    1    1    2    0    0  0.24249999610E+02  0.53986700998E+02  0.18152093382E+02  0.18204824871E+03  0.17120000000E+03 0.  0.
        998    1    1    2    0    0 -0.83936082291E+01 -0.48088707657E+02  0.14629065565E+04  0.14637549554E+04  0.10000000000E+02 0.  1.
</event>
<event>
 5    1  0.1145138E-008  0.3698492E+03  0.7957747E-01  0.3496584E+00
         13   -1    0    0    0    0  0.00000000000E+00  0.00000000000E+00  0.14999999963E+04  0.15000000000E+04  0.10566000000E+00 0.  1.
        994   -1    0    0    0    0 -0.00000000000E+00 -0.00000000000E+00  0.11368683772E-12  0.17120000000E+03  0.17120000000E+03 0.  0.
         13    1    1    2    0    0 -0.42263414342E+02  0.19431443219E+02  0.11802636983E+03  0.12686217843E+03  0.10566000000E+00 0.  1.
        994    1    1    2    0    0  0.13471260811E+02 -0.11009912890E+02  0.10395756933E+02  0.17239548953E+03  0.17120000000E+03 0.  0.
        998    1    1    2    0    0  0.28792153532E+02 -0.84215303292E+01  0.13715778695E+04  0.13719423320E+04  0.10000000000E+02 0.  1.
</event>
<event>
 5    1  0.1145138E-008  0.3843581E+03  0.7957747E-01  0.3432399E+00
         13   -1    0    0    0    0  0.00000000000E+00  0.00000000000E+00  0.14999999963E+04  0.15000000000E+04  0.10566000000E+00 0. -1.
        994   -1    0    0    0    0 -0.00000000000E+00 -0.00000000000E+00  0.11368683772E-12  0.17120000000E+03  0.17120000000E+03 0.  0.
         13    1    1    2    0    0 -0.16375897622E+02  0.68441954058E+02  0.42552050695E+03  0.43130057280E+03  0.10566000000E+00 0. -1.
        994    1    1    2    0    0  0.85624247549E+00 -0.12846849412E+03  0.58380746518E+02  0.22186175582E+03  0.17120000000E+03 0.  0.
        998    1    1    2    0    0  0.15519655147E+02  0.60026540058E+02  0.10160987428E+04  0.10180376714E+04  0.10000000000E+02 0.  1.
</event>
<event>
 5    1  0.1145138E-008  0.3805720E+03  0.7957747E-01  0.3448672E+00
         13   -1    0    0    0    0  0.00000000000E+00  0.00000000000E+00  0.14999999963E+04  0.15000000000E+04  0.10566000000E+00 0.  1.
        994   -1    0    0    0    0 -0.00000000000E+00 -0.00000000000E+00  0.11368683772E-12  0.17120000000E+03  0.17120000000E+03 0.  0.
         13    1    1    2    0    0  0.94155048575E+01  0.17581573147E+02  0.52330743877E+02  0.56002512130E+02  0.10566000000E+00 0.  1.
        994    1    1    2    0    0 -0.72232106080E+01  0.34951445173E+00  0.40192127005E+01  0.17139979872E+03  0.17120000000E+03 0.  0.
        998    1    1    2    0    0 -0.21922942494E+01 -0.17931087599E+02  0.14436500397E+04  0.14437976891E+04  0.10000000000E+02 0.  1.
</event>
<event>
 5    1  0.1145138E-008  0.3823775E+03  0.7957747E-01  0.3440871E+00
         13   -1    0    0    0    0  0.00000000000E+00  0.00000000000E+00  0.14999999963E+04  0.15000000000E+04  0.10566000000E+00 0.  1.
        994   -1    0    0    0    0 -0.00000000000E+00 -0.00000000000E+00  0.11368683772E-12  0.17120000000E+03  0.17120000000E+03 0.  0.
         13    1    1    2    0    0 -0.86552576800E+01 -0.13627964591E+03  0.70331815094E+03  0.71645201374E+03  0.10566000000E+00 0.  1.
        994    1    1    2    0    0  0.28646883908E+02  0.17711865597E+03  0.11829094877E+03  0.27476144346E+03  0.17120000000E+03 0.  0.
        998    1    1    2    0    0 -0.19991626228E+02 -0.40839010051E+02  0.67839089656E+03  0.67998654281E+03  0.10000000000E+02 0.  1.
</event>
<event>
 5    1  0.1145138E-008  0.3570495E+03  0.7957747E-01  0.3557612E+00
         13   -1    0    0    0    0  0.00000000000E+00  0.00000000000E+00  0.14999999963E+04  0.15000000000E+04  0.10566000000E+00 0. -1.
        994   -1    0    0    0    0 -0.00000000000E+00 -0.00000000000E+00  0.11368683772E-12  0.17120000000E+03  0.17120000000E+03 0.  0.
         13    1    1    2    0    0  0.29529560170E+03  0.51199849806E+02  0.81381781644E+03  0.86724873394E+03  0.10566000000E+00 0. -1.
        994    1    1    2    0    0 -0.28056981513E+03 -0.65289416434E+02  0.42232659754E+03  0.53912088074E+03  0.17120000000E+03 0.  0.
        998    1    1    2    0    0 -0.14725786570E+02  0.14089566628E+02  0.26385558230E+03  0.26483038532E+03  0.10000000000E+02 0.  0.
</event>
<event>
 5    1  0.1145138E-008  0.3695276E+03  0.7957747E-01  0.3498065E+00
         13   -1    0    0    0    0  0.00000000000E+00  0.00000000000E+00  0.14999999963E+04  0.15000000000E+04  0.10566000000E+00 0.  1.
        994   -1    0    0    0    0 -0.00000000000E+00 -0.00000000000E+00  0.11368683772E-12  0.17120000000E+03  0.17120000000E+03 0.  0.
         13    1    1    2    0    0  0.56811494114E+02 -0.33471373515E+02  0.17820231420E+03  0.19001040671E+03  0.10566000000E+00 0.  1.
        994    1    1    2    0    0 -0.77013978634E+02  0.42057445620E+02  0.36678007397E+02  0.19584355456E+03  0.17120000000E+03 0.  0.
        998    1    1    2    0    0  0.20202484520E+02 -0.85860721053E+01  0.12851196747E+04  0.12853460387E+04  0.10000000000E+02 0.  1.
</event>
<event>
 5    1  0.1145138E-008  0.3819373E+03  0.7957747E-01  0.3442766E+00
         13   -1    0    0    0    0  0.00000000000E+00  0.00000000000E+00  0.14999999963E+04  0.15000000000E+04  0.10566000000E+00 0. -1.
        994   -1    0    0    0    0 -0.00000000000E+00 -0.00000000000E+00  0.11368683772E-12  0.17120000000E+03  0.17120000000E+03 0.  0.
         13    1    1    2    0    0 -0.10776556097E+02 -0.16123126016E+02  0.59533943224E+02  0.62613025112E+02  0.10566000000E+00 0. -1.
        994    1    1    2    0    0  0.26272059022E+01  0.85907300447E+01  0.34264928538E+01  0.17146977491E+03  0.17120000000E+03 0.  0.
        998    1    1    2    0    0  0.81493501952E+01  0.75323959710E+01  0.14370395602E+04  0.14371172000E+04  0.10000000000E+02 0. -1.
</event>
<event>
 5    1  0.1145138E-008  0.3810207E+03  0.7957747E-01  0.3446726E+00
         13   -1    0    0    0    0  0.00000000000E+00  0.00000000000E+00  0.14999999963E+04  0.15000000000E+04  0.10566000000E+00 0. -1.
        994   -1    0    0    0    0 -0.00000000000E+00 -0.00000000000E+00  0.11368683772E-12  0.17120000000E+03  0.17120000000E+03 0.  0.
         13    1    1    2    0    0 -0.20055133215E+01  0.14323334438E+02  0.26967359984E+02  0.30601138242E+02  0.10566000000E+00 0. -1.
        994    1    1    2    0    0  0.81099736706E+01 -0.15082366601E+02  0.45964149394E+01  0.17211570668E+03  0.17120000000E+03 0.  0.
        998    1    1    2    0    0 -0.61044603492E+01  0.75903216268E+00  0.14684362214E+04  0.14684831551E+04  0.10000000000E+02 0. -1.
</event>
<event>
 5    1  0.1145138E-008  0.3763138E+03  0.7957747E-01  0.3467368E+00
         13   -1    0    0    0    0  0.00000000000E+00  0.00000000000E+00  0.14999999963E+04  0.15000000000E+04  0.10566000000E+00 0.  1.
        994   -1    0    0    0    0 -0.00000000000E+00 -0.00000000000E+00  0.11368683772E-12  0.17120000000E+03  0.17120000000E+03 0.  0.
         13    1    1    2    0    0  0.69480865678E+02  0.56236847380E+01  0.36939984118E+03  0.37591949983E+03  0.10566000000E+00 0.  1.
        994    1    1    2    0    0 -0.49039333653E+02 -0.61284592042E+01  0.14316387057E+02  0.17876468666E+03  0.17120000000E+03 0.  0.
        998    1    1    2    0    0 -0.20441532025E+02  0.50477446621E+00  0.11162837680E+04  0.11165158135E+04  0.10000000000E+02 0.  1.
</event>
<event>
 5    1  0.1145138E-008  0.3818030E+03  0.7957747E-01  0.3443345E+00
         13   -1    0    0    0    0  0.00000000000E+00  0.00000000000E+00  0.14999999963E+04  0.15000000000E+04  0.10566000000E+00 0.  1.
        994   -1    0    0    0    0 -0.00000000000E+00 -0.00000000000E+00  0.11368683772E-12  0.17120000000E+03  0.17120000000E+03 0.  0.
         13    1    1    2    0    0  0.10490636346E+03 -0.39310618804E+02  0.31878167584E+03  0.33789412226E+03  0.10566000000E+00 0.  1.
        994    1    1    2    0    0 -0.82899435048E+02  0.29890983352E+02  0.46230274386E+02  0.19802137634E+03  0.17120000000E+03 0.  0.
        998    1    1    2    0    0 -0.22006928414E+02  0.94196354523E+01  0.11349880461E+04  0.11352845014E+04  0.10000000000E+02 0.  1.
</event>
<event>
 5    1  0.1145138E-008  0.3774213E+03  0.7957747E-01  0.3462464E+00
         13   -1    0    0    0    0  0.00000000000E+00  0.00000000000E+00  0.14999999963E+04  0.15000000000E+04  0.10566000000E+00 0.  1.
        994   -1    0    0    0    0 -0.00000000000E+00 -0.00000000000E+00  0.11368683772E-12  0.17120000000E+03  0.17120000000E+03 0.  0.
         13    1    1    2    0    0 -0.37376945266E+02 -0.95778454983E+01  0.14405814297E+03  0.14913594765E+03  0.10566000000E+00 0.  1.
        994    1    1    2    0    0  0.25702989396E+02 -0.46226691126E+02  0.14931742092E+02  0.17980530459E+03  0.17120000000E+03 0.  0.
        998    1    1    2    0    0  0.11673955870E+02  0.55804536624E+02  0.13410101112E+04  0.13422587478E+04  0.10000000000E+02 0.  1.
</event>
<event>
 5    1  0.1145138E-008  0.3839641E+03  0.7957747E-01  0.3434077E+00
         13   -1    0    0    0    0  0.00000000000E+00  0.00000000000E+00  0.14999999963E+04  0.15000000000E+04  0.10566000000E+00 0.  1.
        994   -1    0    0    0    0 -0.00000000000E+00 -0.00000000000E+00  0.11368683772E-12  0.17120000000E+03  0.17120000000E+03 0.  0.
         13    1    1    2    0    0  0.18379655775E+02 -0.10814413868E+01  0.73071438743E+02  0.75355342120E+02  0.10566000000E+00 0.  1.
        994    1    1    2    0    0 -0.24188001376E+02  0.19517361196E+01  0.40908201382E+01  0.17295965857E+03  0.17120000000E+03 0.  0.
        998    1    1    2    0    0  0.58083456005E+01 -0.87029473282E+00  0.14228377374E+04  0.14228849993E+04  0.10000000000E+02 0.  1.
</event>
<event>
 5    1  0.1145138E-008  0.3829560E+03  0.7957747E-01  0.3438388E+00
         13   -1    0    0    0    0  0.00000000000E+00  0.00000000000E+00  0.14999999963E+04  0.15000000000E+04  0.10566000000E+00 0.  1.
        994   -1    0    0    0    0 -0.00000000000E+00 -0.00000000000E+00  0.11368683772E-12  0.17120000000E+03  0.17120000000E+03 0.  0.
         13    1    1    2    0    0 -0.58022639556E+01  0.11130124596E+02  0.28235373844E+02  0.30899732048E+02  0.10566000000E+00 0.  1.
        994    1    1    2    0    0  0.47068946893E+01 -0.13960772207E+02  0.33672935543E+01  0.17186575192E+03  0.17120000000E+03 0.  0.
        998    1    1    2    0    0  0.10953692663E+01  0.28306476107E+01  0.14683973289E+04  0.14684345160E+04  0.10000000000E+02 0.  1.
</event>
<event>
 5    1  0.1145138E-008  0.3839078E+03  0.7957747E-01  0.3434318E+00
         13   -1    0    0    0    0  0.00000000000E+00  0.00000000000E+00  0.14999999963E+04  0.15000000000E+04  0.10566000000E+00 0.  1.
        994   -1    0    0    0    0 -0.00000000000E+00 -0.00000000000E+00  0.11368683772E-12  0.17120000000E+03  0.17120000000E+03 0.  0.
         13    1    1    2    0    0 -0.18978933008E+02 -0.10144294683E+02  0.96088149944E+02  0.98468524598E+02  0.10566000000E+00 0.  1.
        994    1    1    2    0    0  0.27944230908E+02  0.81066822884E+01  0.49724386530E+01  0.17372611630E+03  0.17120000000E+03 0.  0.
        998    1    1    2    0    0 -0.89652978996E+01  0.20376123946E+01  0.13989394077E+04  0.13990053591E+04  0.10000000000E+02 0.  1.
</event>
<event>
 5    1  0.1145138E-008  0.3834657E+03  0.7957747E-01  0.3436205E+00
         13   -1    0    0    0    0  0.00000000000E+00  0.00000000000E+00  0.14999999963E+04  0.15000000000E+04  0.10566000000E+00 0. -1.
        994   -1    0    0    0    0 -0.00000000000E+00 -0.00000000000E+00  0.11368683772E-12  0.17120000000E+03  0.17120000000E+03 0.  0.
         13    1    1    2    0    0 -0.14308896816E+02 -0.24868507640E+01  0.43012414204E+02  0.45398324798E+02  0.10566000000E+00 0. -1.
        994    1    1    2    0    0  0.12218083459E+02 -0.21497416972E+01  0.29026222306E+01  0.17167343466E+03  0.17120000000E+03 0.  0.
        998    1    1    2    0    0  0.20908133573E+01  0.46365924613E+01  0.14540849598E+04  0.14541282405E+04  0.10000000000E+02 0. -1.
</event>
<event>
 5    1  0.1145138E-008  0.3738635E+03  0.7957747E-01  0.3478321E+00
         13   -1    0    0    0    0  0.00000000000E+00  0.00000000000E+00  0.14999999963E+04  0.15000000000E+04  0.10566000000E+00 0. -1.
        994   -1    0    0    0    0 -0.00000000000E+00 -0.00000000000E+00  0.11368683772E-12  0.17120000000E+03  0.17120000000E+03 0.  0.
         13    1    1    2    0    0 -0.68466375336E+02 -0.85551094655E+01  0.37509358941E+03  0.38138700349E+03  0.10566000000E+00 0. -1.
        994    1    1    2    0    0  0.25276616489E+02 -0.13939409277E+02  0.10111921560E+02  0.17391062483E+03  0.17120000000E+03 0.  0.
        998    1    1    2    0    0  0.43189758847E+02  0.22494518743E+02  0.11147944853E+04  0.11159023717E+04  0.10000000000E+02 0. -1.
</event>
<event>
 5    1  0.1145138E-008  0.3730482E+03  0.7957747E-01  0.3481998E+00
         13   -1    0    0    0    0  0.00000000000E+00  0.00000000000E+00  0.14999999963E+04  0.15000000000E+04  0.10566000000E+00 0. -1.
        994   -1    0    0    0    0 -0.00000000000E+00 -0.00000000000E+00  0.11368683772E-12  0.17120000000E+03  0.17120000000E+03 0.  0.
         13    1    1    2    0    0  0.59681437530E+01 -0.49932632863E+02  0.13736856188E+03  0.14628403714E+03  0.10566000000E+00 0. -1.
        994    1    1    2    0    0  0.41666329036E+01  0.66765659098E+02  0.23155134321E+02  0.18525823682E+03  0.17120000000E+03 0.  0.
        998    1    1    2    0    0 -0.10134776657E+02 -0.16833026235E+02  0.13394763001E+04  0.13396577260E+04  0.10000000000E+02 0. -1.
</event>
<event>
 5    1  0.1792589E-008  0.3862008E+03  0.7957747E-01  0.3424595E+00
         13   -1    0    0    0    0  0.00000000000E+00  0.00000000000E+00  0.14999999963E+04  0.15000000000E+04  0.10566000000E+00 0. -1.
        994   -1    0    0    0    0 -0.00000000000E+00 -0.00000000000E+00  0.11368683772E-12  0.17120000000E+03  0.17120000000E+03 0.  0.
         13    1    1    2    0    0  0.11101744503E+02 -0.24613866706E+01  0.63455924110E+02  0.64466833520E+02  0.10566000000E+00 0. -1.
        994    1    1    2    0    0 -0.75320693681E+01  0.73749470014E+00  0.12227734297E+01  0.17137155873E+03  0.17120000000E+03 0.  0.
        998    1    1    2    0    0 -0.35696751351E+01  0.17238919704E+01  0.14353212987E+04  0.14353616077E+04  0.10000000000E+02 0. -1.
</event>
<event>
 5    1  0.1145138E-008  0.3833238E+03  0.7957747E-01  0.3436812E+00
         13   -1    0    0    0    0  0.00000000000E+00  0.00000000000E+00  0.14999999963E+04  0.15000000000E+04  0.10566000000E+00 0.  1.
        994   -1    0    0    0    0 -0.00000000000E+00 -0.00000000000E+00  0.11368683772E-12  0.17120000000E+03  0.17120000000E+03 0.  0.
         13    1    1    2    0    0 -0.20838405324E+02 -0.18055193428E+02  0.14429108245E+03  0.14690186107E+03  0.10566000000E+00 0.  1.
        994    1    1    2    0    0  0.27215625418E+02  0.64784915567E+01  0.50569006506E+01  0.17354444204E+03  0.17120000000E+03 0.  0.
        998    1    1    2    0    0 -0.63772200939E+01  0.11576701871E+02  0.13506520132E+04  0.13507536969E+04  0.10000000000E+02 0.  1.
</event>
<event>
 5    1  0.1145138E-008  0.3756849E+03  0.7957747E-01  0.3470165E+00
         13   -1    0    0    0    0  0.00000000000E+00  0.00000000000E+00  0.14999999963E+04  0.15000000000E+04  0.10566000000E+00 0. -1.
        994   -1    0    0    0    0 -0.00000000000E+00 -0.00000000000E+00  0.11368683772E-12  0.17120000000E+03  0.17120000000E+03 0.  0.
         13    1    1    2    0    0  0.11257873750E+02  0.76852466611E+00  0.71243785807E+01  0.13345346970E+02  0.10566000000E+00 0. -1.
        994    1    1    2    0    0 -0.11479888663E+02  0.31370370676E+01  0.68078767088E+01  0.17174811798E+03  0.17120000000E+03 0.  0.
        998    1    1    2    0    0  0.22201491233E+00 -0.39055617337E+01  0.14860677410E+04  0.14861065350E+04  0.10000000000E+02 0. -1.
</event>
<event>
 5    1  0.1145138E-008  0.3818196E+03  0.7957747E-01  0.3443274E+00
         13   -1    0    0    0    0  0.00000000000E+00  0.00000000000E+00  0.14999999963E+04  0.15000000000E+04  0.10566000000E+00 0.  1.
        994   -1    0    0    0    0 -0.00000000000E+00 -0.00000000000E+00  0.11368683772E-12  0.17120000000E+03  0.17120000000E+03 0.  0.
         13    1    1    2    0    0 -0.11843879649E+02 -0.17029180421E+02  0.68287149682E+02  0.71368175307E+02  0.10566000000E+00 0.  1.
        994    1    1    2    0    0  0.82653592765E+01  0.96978001225E+00  0.34476106400E+01  0.17143681826E+03  0.17120000000E+03 0.  0.
        998    1    1    2    0    0  0.35785203726E+01  0.16059400408E+02  0.14282652360E+04  0.14283950064E+04  0.10000000000E+02 0.  1.
</event>
<event>
 5    1  0.1145138E-008  0.3717275E+03  0.7957747E-01  0.3487989E+00
         13   -1    0    0    0    0  0.00000000000E+00  0.00000000000E+00  0.14999999963E+04  0.15000000000E+04  0.10566000000E+00 0. -1.
        994   -1    0    0    0    0 -0.00000000000E+00 -0.00000000000E+00  0.11368683772E-12  0.17120000000E+03  0.17120000000E+03 0.  0.
         13    1    1    2    0    0  0.14637196860E+03  0.29512766409E+02  0.71636123173E+03  0.73175759789E+03  0.10566000000E+00 0. -1.
        994    1    1    2    0    0 -0.13512268250E+03 -0.78502640670E+02  0.97625367784E+02  0.25151730826E+03  0.17120000000E+03 0.  0.
        998    1    1    2    0    0 -0.11249286095E+02  0.48989874260E+02  0.68601339676E+03  0.68792509385E+03  0.10000000000E+02 0.  1.
</event>
<event>
 5    1  0.1311180E-008  0.3859809E+03  0.7957747E-01  0.3425523E+00
         13   -1    0    0    0    0  0.00000000000E+00  0.00000000000E+00  0.14999999963E+04  0.15000000000E+04  0.10566000000E+00 0. -1.
        994   -1    0    0    0    0 -0.00000000000E+00 -0.00000000000E+00  0.11368683772E-12  0.17120000000E+03  0.17120000000E+03 0.  0.
         13    1    1    2    0    0 -0.10750318250E+02 -0.52949081026E+01  0.63446008428E+02  0.64567890966E+02  0.10566000000E+00 0. -1.
        994    1    1    2    0    0  0.68045496433E+01  0.44763422314E+01  0.13614203445E+01  0.17139904609E+03  0.17120000000E+03 0.  0.
        998    1    1    2    0    0  0.39457686063E+01  0.81856587120E+00  0.14351925675E+04  0.14352330629E+04  0.10000000000E+02 0. -1.
</event>
<event>
 5    1  0.1145138E-008  0.3848931E+03  0.7957747E-01  0.3430126E+00
         13   -1    0    0    0    0  0.00000000000E+00  0.00000000000E+00  0.14999999963E+04  0.15000000000E+04  0.10566000000E+00 0. -1.
        994   -1    0    0    0    0 -0.00000000000E+00 -0.00000000000E+00  0.11368683772E-12  0.17120000000E+03  0.17120000000E+03 0.  0.
         13    1    1    2    0    0 -0.36934083438E+02 -0.35788666657E+02  0.66706345370E+02  0.84230059107E+02  0.10566000000E+00 0. -1.
        994    1    1    2    0    0 -0.26921586319E+02  0.45293134088E+02  0.29357425522E+02  0.18151456757E+03  0.17120000000E+03 0.  0.
        998    1    1    2    0    0  0.63855669757E+02 -0.95044674301E+01  0.14039362254E+04  0.14054553733E+04  0.10000000000E+02 0. -1.
</event>
<event>
 5    1  0.1145138E-008  0.3852012E+03  0.7957747E-01  0.3428819E+00
         13   -1    0    0    0    0  0.00000000000E+00  0.00000000000E+00  0.14999999963E+04  0.15000000000E+04  0.10566000000E+00 0.  1.
        994   -1    0    0    0    0 -0.00000000000E+00 -0.00000000000E+00  0.11368683772E-12  0.17120000000E+03  0.17120000000E+03 0.  0.
         13    1    1    2    0    0  0.18958778005E+02  0.54307715030E+01  0.11752026377E+03  0.11916355190E+03  0.10566000000E+00 0.  1.
        994    1    1    2    0    0 -0.21048647960E+02 -0.50009846402E+01  0.30700590218E+01  0.17258887766E+03  0.17120000000E+03 0.  0.
        998    1    1    2    0    0  0.20898699551E+01 -0.42978686283E+00  0.13794096735E+04  0.13794475704E+04  0.10000000000E+02 0.  1.
</event>
<event>
 5    1  0.1145138E-008  0.3808491E+03  0.7957747E-01  0.3447469E+00
         13   -1    0    0    0    0  0.00000000000E+00  0.00000000000E+00  0.14999999963E+04  0.15000000000E+04  0.10566000000E+00 0. -1.
        994   -1    0    0    0    0 -0.00000000000E+00 -0.00000000000E+00  0.11368683772E-12  0.17120000000E+03  0.17120000000E+03 0.  0.
         13    1    1    2    0    0  0.10050308805E+02 -0.65904378069E+01  0.17990013597E+02  0.21635487764E+02  0.10566000000E+00 0. -1.
        994    1    1    2    0    0 -0.81509498575E+01  0.16757170833E+01  0.39359929187E+01  0.17144730401E+03  0.17120000000E+03 0.  0.
        998    1    1    2    0    0 -0.18993589472E+01  0.49147207236E+01  0.14780739898E+04  0.14781172082E+04  0.10000000000E+02 0. -1.
</event>
<event>
 5    1  0.1145138E-008  0.3853180E+03  0.7957747E-01  0.3428325E+00
         13   -1    0    0    0    0  0.00000000000E+00  0.00000000000E+00  0.14999999963E+04  0.15000000000E+04  0.10566000000E+00 0.  1.
        994   -1    0    0    0    0 -0.00000000000E+00 -0.00000000000E+00  0.11368683772E-12  0.17120000000E+03  0.17120000000E+03 0.  0.
         13    1    1    2    0    0 -0.67639012817E+01  0.15371716615E+02  0.86419266957E+02  0.88036020455E+02  0.10566000000E+00 0.  1.
        994    1    1    2    0    0  0.16470841294E+02 -0.20095438672E+02  0.36934150947E+01  0.17319987466E+03  0.17120000000E+03 0.  0.
        998    1    1    2    0    0 -0.97069400127E+01  0.47237220572E+01  0.14098873142E+04  0.14099641049E+04  0.10000000000E+02 0.  1.
</event>
<event>
 5    1  0.1145138E-008  0.3704631E+03  0.7957747E-01  0.3493765E+00
         13   -1    0    0    0    0  0.00000000000E+00  0.00000000000E+00  0.14999999963E+04  0.15000000000E+04  0.10566000000E+00 0. -1.
        994   -1    0    0    0    0 -0.00000000000E+00 -0.00000000000E+00  0.11368683772E-12  0.17120000000E+03  0.17120000000E+03 0.  0.
         13    1    1    2    0    0  0.27885413591E+02  0.58511452222E+02  0.24526379931E+03  0.25368391504E+03  0.10566000000E+00 0. -1.
        994    1    1    2    0    0 -0.22991700507E+02 -0.18852102274E+02  0.12085064475E+02  0.17418240105E+03  0.17120000000E+03 0.  0.
        998    1    1    2    0    0 -0.48937130842E+01 -0.39659349948E+02  0.12426511325E+04  0.12433336839E+04  0.10000000000E+02 0. -1.
</event>
<event>
 5    1  0.1145138E-008  0.3919106E+03  0.7957747E-01  0.3400882E+00
         13   -1    0    0    0    0  0.00000000000E+00  0.00000000000E+00  0.14999999963E+04  0.15000000000E+04  0.10566000000E+00 0.  1.
        994   -1    0    0    0    0 -0.00000000000E+00 -0.00000000000E+00  0.11368683772E-12  0.17120000000E+03  0.17120000000E+03 0.  0.
         13    1    1    2    0    0  0.26306667773E+02  0.33783847463E+02  0.30087305425E+02  0.52332076497E+02  0.10566000000E+00 0.  1.
        994    1    1    2    0    0 -0.26297945554E+02 -0.36635815210E+02  0.30777860595E+02  0.17969552471E+03  0.17120000000E+03 0.  0.
        998    1    1    2    0    0 -0.87222189054E-02  0.28519677468E+01  0.14391348303E+04  0.14391723988E+04  0.10000000000E+02 0.  1.
</event>
<event>
 5    1  0.1644358E-008  0.3865141E+03  0.7957747E-01  0.3423276E+00
         13   -1    0    0    0    0  0.00000000000E+00  0.00000000000E+00  0.14999999963E+04  0.15000000000E+04  0.10566000000E+00 0. -1.
        994   -1    0    0    0    0 -0.00000000000E+00 -0.00000000000E+00  0.11368683772E-12  0.17120000000E+03  0.17120000000E+03 0.  0.
         13    1    1    2    0    0 -0.10274722153E+02  0.44388296018E+01  0.66793067216E+02  0.67724427762E+02  0.10566000000E+00 0. -1.
        994    1    1    2    0    0  0.13213780018E+02 -0.13601945979E+02  0.20580193519E+01  0.17225937525E+03  0.17120000000E+03 0.  0.
        998    1    1    2    0    0 -0.29390578647E+01  0.91631163776E+01  0.14311489097E+04  0.14312161970E+04  0.10000000000E+02 0. -1.
</event>
<event>
 5    1  0.1145138E-008  0.3857622E+03  0.7957747E-01  0.3426446E+00
         13   -1    0    0    0    0  0.00000000000E+00  0.00000000000E+00  0.14999999963E+04  0.15000000000E+04  0.10566000000E+00 0. -1.
        994   -1    0    0    0    0 -0.00000000000E+00 -0.00000000000E+00  0.11368683772E-12  0.17120000000E+03  0.17120000000E+03 0.  0.
         13    1    1    2    0    0  0.11355261175E+02 -0.52558632008E+01  0.61009535816E+02  0.62279536598E+02  0.10566000000E+00 0. -1.
        994    1    1    2    0    0 -0.17147256986E+02 -0.54861133343E+01  0.23162396801E+01  0.17215960858E+03  0.17120000000E+03 0.  0.
        998    1    1    2    0    0  0.57919958109E+01  0.10741976535E+02  0.14366742208E+04  0.14367608548E+04  0.10000000000E+02 0. -1.
</event>
<event>
 5    1  0.1145138E-008  0.3832509E+03  0.7957747E-01  0.3437124E+00
         13   -1    0    0    0    0  0.00000000000E+00  0.00000000000E+00  0.14999999963E+04  0.15000000000E+04  0.10566000000E+00 0.  1.
        994   -1    0    0    0    0 -0.00000000000E+00 -0.00000000000E+00  0.11368683772E-12  0.17120000000E+03  0.17120000000E+03 0.  0.
         13    1    1    2    0    0  0.84576779072E+01  0.10051230697E+02  0.33123093570E+02  0.35632990974E+02  0.10566000000E+00 0.  1.
        994    1    1    2    0    0 -0.11037016634E+02 -0.82952768554E+01  0.31317640736E+01  0.17178438608E+03  0.17120000000E+03 0.  0.
        998    1    1    2    0    0  0.25793387270E+01 -0.17559538420E+01  0.14637451386E+04  0.14637826229E+04  0.10000000000E+02 0.  1.
</event>
<event>
 5    1  0.1145138E-008  0.3802905E+03  0.7957747E-01  0.3449894E+00
         13   -1    0    0    0    0  0.00000000000E+00  0.00000000000E+00  0.14999999963E+04  0.15000000000E+04  0.10566000000E+00 0.  1.
        994   -1    0    0    0    0 -0.00000000000E+00 -0.00000000000E+00  0.11368683772E-12  0.17120000000E+03  0.17120000000E+03 0.  0.
         13    1    1    2    0    0  0.12579503083E+01 -0.26557067649E+02  0.87603195269E+02  0.91548846341E+02  0.10566000000E+00 0.  1.
        994    1    1    2    0    0  0.17587802829E+02  0.16717780493E+02  0.59555145620E+01  0.17301365017E+03  0.17120000000E+03 0.  0.
        998    1    1    2    0    0 -0.18845753138E+02  0.98392871565E+01  0.14064412864E+04  0.14066375035E+04  0.10000000000E+02 0.  1.
</event>
<event>
 5    1  0.1145138E-008  0.3732688E+03  0.7957747E-01  0.3481002E+00
         13   -1    0    0    0    0  0.00000000000E+00  0.00000000000E+00  0.14999999963E+04  0.15000000000E+04  0.10566000000E+00 0. -1.
        994   -1    0    0    0    0 -0.00000000000E+00 -0.00000000000E+00  0.11368683772E-12  0.17120000000E+03  0.17120000000E+03 0.  0.
         13    1    1    2    0    0 -0.78298800366E+01  0.81288710704E+02  0.26351038970E+03  0.27587478709E+03  0.10566000000E+00 0. -1.
        994    1    1    2    0    0  0.11141723724E+03 -0.43505397488E+02  0.65158002026E+02  0.21877277160E+03  0.17120000000E+03 0.  0.
        998    1    1    2    0    0 -0.10358735720E+03 -0.37783313216E+02  0.11713316046E+04  0.11765524413E+04  0.10000000000E+02 0. -1.
</event>
<event>
 5    1  0.1145138E-008  0.3801557E+03  0.7957747E-01  0.3450481E+00
         13   -1    0    0    0    0  0.00000000000E+00  0.00000000000E+00  0.14999999963E+04  0.15000000000E+04  0.10566000000E+00 0.  1.
        994   -1    0    0    0    0 -0.00000000000E+00 -0.00000000000E+00  0.11368683772E-12  0.17120000000E+03  0.17120000000E+03 0.  0.
         13    1    1    2    0    0  0.11460601308E+02  0.30649116496E+02  0.14244126455E+03  0.14615142399E+03  0.10566000000E+00 0.  1.
        994    1    1    2    0    0  0.39892937214E+01 -0.75890141694E+01  0.43002161042E+01  0.17146847949E+03  0.17120000000E+03 0.  0.
        998    1    1    2    0    0 -0.15449895030E+02 -0.23060102326E+02  0.13532585156E+04  0.13535800965E+04  0.10000000000E+02 0.  1.
</event>
<event>
 5    1  0.1145138E-008  0.3819223E+03  0.7957747E-01  0.3442831E+00
         13   -1    0    0    0    0  0.00000000000E+00  0.00000000000E+00  0.14999999963E+04  0.15000000000E+04  0.10566000000E+00 0. -1.
        994   -1    0    0    0    0 -0.00000000000E+00 -0.00000000000E+00  0.11368683772E-12  0.17120000000E+03  0.17120000000E+03 0.  0.
         13    1    1    2    0    0 -0.92353202520E+01 -0.74013835295E+01  0.20806828236E+02  0.23937562190E+02  0.10566000000E+00 0. -1.
        994    1    1    2    0    0  0.80868694334E+01  0.49197131504E+01  0.34636102242E+01  0.17149646536E+03  0.17120000000E+03 0.  0.
        998    1    1    2    0    0  0.11484508186E+01  0.24816703791E+01  0.14757295578E+04  0.14757659725E+04  0.10000000000E+02 0. -1.
</event>
<event>
 5    1  0.1145138E-008  0.3743348E+03  0.7957747E-01  0.3476203E+00
         13   -1    0    0    0    0  0.00000000000E+00  0.00000000000E+00  0.14999999963E+04  0.15000000000E+04  0.10566000000E+00 0. -1.
        994   -1    0    0    0    0 -0.00000000000E+00 -0.00000000000E+00  0.11368683772E-12  0.17120000000E+03  0.17120000000E+03 0.  0.
         13    1    1    2    0    0 -0.20091073196E+02 -0.36404849564E+02  0.13288937525E+03  0.13924281494E+03  0.10566000000E+00 0. -1.
        994    1    1    2    0    0  0.10063353309E+02  0.82244341612E-01  0.73658523289E+01  0.17165364437E+03  0.17120000000E+03 0.  0.
        998    1    1    2    0    0  0.10027719886E+02  0.36322605222E+02  0.13597447687E+04  0.13603035407E+04  0.10000000000E+02 0. -1.
</event>
<event>
 5    1  0.1145138E-008  0.4322260E+03  0.7957747E-01  0.3251154E+00
         13   -1    0    0    0    0  0.00000000000E+00  0.00000000000E+00  0.14999999963E+04  0.15000000000E+04  0.10566000000E+00 0.  1.
        994   -1    0    0    0    0 -0.00000000000E+00 -0.00000000000E+00  0.11368683772E-12  0.17120000000E+03  0.17120000000E+03 0.  0.
         13    1    1    2    0    0  0.11972119207E+03 -0.36230361502E+02  0.21936508142E+03  0.25252099523E+03  0.10566000000E+00 0.  1.
        994    1    1    2    0    0  0.44796999245E+02  0.61854962922E+02  0.75564649545E+02  0.20211942965E+03  0.17120000000E+03 0.  0.
        998    1    1    2    0    0 -0.16451819131E+03 -0.25624601420E+02  0.12050702653E+04  0.12165595751E+04  0.10000000000E+02 0.  1.
</event>
<event>
 5    1  0.1145138E-008  0.3786809E+03  0.7957747E-01  0.3456922E+00
         13   -1    0    0    0    0  0.00000000000E+00  0.00000000000E+00  0.14999999963E+04  0.15000000000E+04  0.10566000000E+00 0.  1.
        994   -1    0    0    0    0 -0.00000000000E+00 -0.00000000000E+00  0.11368683772E-12  0.17120000000E+03  0.17120000000E+03 0.  0.
         13    1    1    2    0    0  0.16325425761E+02 -0.87524300967E+01  0.33672109004E+02  0.38431063577E+02  0.10566000000E+00 0.  1.
        994    1    1    2    0    0 -0.98559054597E+01  0.11158660056E+02  0.55450620709E+01  0.17193557596E+03  0.17120000000E+03 0.  0.
        998    1    1    2    0    0 -0.64695203015E+01 -0.24062299594E+01  0.14607828252E+04  0.14608333605E+04  0.10000000000E+02 0.  1.
</event>
<event>
 5    1  0.1145138E-008  0.3796871E+03  0.7957747E-01  0.3452522E+00
         13   -1    0    0    0    0  0.00000000000E+00  0.00000000000E+00  0.14999999963E+04  0.15000000000E+04  0.10566000000E+00 0. -1.
        994   -1    0    0    0    0 -0.00000000000E+00 -0.00000000000E+00  0.11368683772E-12  0.17120000000E+03  0.17120000000E+03 0.  0.
         13    1    1    2    0    0 -0.27546647632E+01  0.35948567719E+02  0.16635206602E+03  0.17021430237E+03  0.10566000000E+00 0. -1.
        994    1    1    2    0    0  0.58194459329E+01 -0.52261781347E+01  0.44959343084E+01  0.17143754640E+03  0.17120000000E+03 0.  0.
        998    1    1    2    0    0 -0.30647811697E+01 -0.30722389584E+02  0.13291519959E+04  0.13295481512E+04  0.10000000000E+02 0. -1.
</event>
<event>
 5    1  0.1145138E-008  0.3704889E+03  0.7957747E-01  0.3493647E+00
         13   -1    0    0    0    0  0.00000000000E+00  0.00000000000E+00  0.14999999963E+04  0.15000000000E+04  0.10566000000E+00 0. -1.
        994   -1    0    0    0    0 -0.00000000000E+00 -0.00000000000E+00  0.11368683772E-12  0.17120000000E+03  0.17120000000E+03 0.  0.
         13    1    1    2    0    0 -0.11087099366E+03 -0.27529204748E+02  0.47194061016E+03  0.48556995895E+03  0.10566000000E+00 0. -1.
        994    1    1    2    0    0  0.11639837341E+03  0.13555836380E+02  0.58023647135E+02  0.21542638106E+03  0.17120000000E+03 0.  0.
        998    1    1    2    0    0 -0.55273797467E+01  0.13973368368E+02  0.97003573898E+03  0.97020365999E+03  0.10000000000E+02 0. -1.
</event>
<event>
 5    1  0.1145138E-008  0.3755072E+03  0.7957747E-01  0.3470957E+00
         13   -1    0    0    0    0  0.00000000000E+00  0.00000000000E+00  0.14999999963E+04  0.15000000000E+04  0.10566000000E+00 0.  1.
        994   -1    0    0    0    0 -0.00000000000E+00 -0.00000000000E+00  0.11368683772E-12  0.17120000000E+03  0.17120000000E+03 0.  0.
         13    1    1    2    0    0  0.19053368394E+02 -0.35629716914E+02  0.11806422482E+03  0.12478653742E+03  0.10566000000E+00 0.  1.
        994    1    1    2    0    0 -0.26082279858E+02  0.27568643170E+02  0.11321704216E+02  0.17572118937E+03  0.17120000000E+03 0.  0.
        998    1    1    2    0    0  0.70289114639E+01  0.80610737444E+01  0.13706140672E+04  0.13706922732E+04  0.10000000000E+02 0.  1.
</event>
<event>
 5    1  0.1145138E-008  0.3808865E+03  0.7957747E-01  0.3447308E+00
         13   -1    0    0    0    0  0.00000000000E+00  0.00000000000E+00  0.14999999963E+04  0.15000000000E+04  0.10566000000E+00 0. -1.
        994   -1    0    0    0    0 -0.00000000000E+00 -0.00000000000E+00  0.11368683772E-12  0.17120000000E+03  0.17120000000E+03 0.  0.
         13    1    1    2    0    0 -0.21353624488E+02 -0.61590270483E+01  0.64407545188E+02  0.68134087901E+02  0.10566000000E+00 0. -1.
        994    1    1    2    0    0  0.17646044137E+02  0.62248955714E+01  0.48542352544E+01  0.17228794444E+03  0.17120000000E+03 0.  0.
        998    1    1    2    0    0  0.37075803502E+01 -0.65868523121E-01  0.14307382158E+04  0.14307779677E+04  0.10000000000E+02 0. -1.
</event>
<event>
 5    1  0.1145138E-008  0.3852425E+03  0.7957747E-01  0.3428644E+00
         13   -1    0    0    0    0  0.00000000000E+00  0.00000000000E+00  0.14999999963E+04  0.15000000000E+04  0.10566000000E+00 0.  1.
        994   -1    0    0    0    0 -0.00000000000E+00 -0.00000000000E+00  0.11368683772E-12  0.17120000000E+03  0.17120000000E+03 0.  0.
         13    1    1    2    0    0 -0.55783517049E+01 -0.16036221913E+02  0.99200664864E+02  0.10064323869E+03  0.10566000000E+00 0.  1.
        994    1    1    2    0    0  0.54542193002E+01  0.50259430607E+01  0.16905526069E+01  0.17136891953E+03  0.17120000000E+03 0.  0.
        998    1    1    2    0    0  0.12413240471E+00  0.11010278852E+02  0.13991087788E+04  0.13991878418E+04  0.10000000000E+02 0.  1.
</event>
<event>
 5    1  0.1145138E-008  0.3802230E+03  0.7957747E-01  0.3450188E+00
         13   -1    0    0    0    0  0.00000000000E+00  0.00000000000E+00  0.14999999963E+04  0.15000000000E+04  0.10566000000E+00 0.  1.
        994   -1    0    0    0    0 -0.00000000000E+00 -0.00000000000E+00  0.11368683772E-12  0.17120000000E+03  0.17120000000E+03 0.  0.
         13    1    1    2    0    0 -0.12631656346E+02  0.11409838250E+02  0.16638961352E+01  0.17103299838E+02  0.10566000000E+00 0.  1.
        994    1    1    2    0    0 -0.23492221208E+02 -0.11270433787E+02  0.18915613155E+02  0.17420145681E+03  0.17120000000E+03 0.  0.
        998    1    1    2    0    0  0.36123877555E+02 -0.13940446361E+00  0.14794204870E+04  0.14798952433E+04  0.10000000000E+02 0.  1.
</event>
<event>
 5    1  0.1145138E-008  0.3831076E+03  0.7957747E-01  0.3437738E+00
         13   -1    0    0    0    0  0.00000000000E+00  0.00000000000E+00  0.14999999963E+04  0.15000000000E+04  0.10566000000E+00 0.  1.
        994   -1    0    0    0    0 -0.00000000000E+00 -0.00000000000E+00  0.11368683772E-12  0.17120000000E+03  0.17120000000E+03 0.  0.
         13    1    1    2    0    0  0.27486610778E+02  0.43428138806E+01  0.15508081284E+03  0.15755774650E+03  0.10566000000E+00 0.  1.
        994    1    1    2    0    0 -0.11924865090E+02 -0.31874120064E+01  0.30769023564E+01  0.17167198179E+03  0.17120000000E+03 0.  0.
        998    1    1    2    0    0 -0.15561745688E+02 -0.11554018742E+01  0.13418422811E+04  0.13419702717E+04  0.10000000000E+02 0.  1.
</event>
<event>
 5    1  0.1145138E-008  0.3729871E+03  0.7957747E-01  0.3482274E+00
         13   -1    0    0    0    0  0.00000000000E+00  0.00000000000E+00  0.14999999963E+04  0.15000000000E+04  0.10566000000E+00 0. -1.
        994   -1    0    0    0    0 -0.00000000000E+00 -0.00000000000E+00  0.11368683772E-12  0.17120000000E+03  0.17120000000E+03 0.  0.
         13    1    1    2    0    0 -0.51718760767E+02  0.24378160518E+02  0.22241649185E+03  0.22964806103E+03  0.10566000000E+00 0. -1.
        994    1    1    2    0    0  0.38326330819E+02  0.23724907891E+02  0.14701790407E+02  0.17764391780E+03  0.17120000000E+03 0.  0.
        998    1    1    2    0    0  0.13392429948E+02 -0.48103068410E+02  0.12628817140E+04  0.12639080212E+04  0.10000000000E+02 0. -1.
</event>
<event>
 5    1  0.1145138E-008  0.3841728E+03  0.7957747E-01  0.3433188E+00
         13   -1    0    0    0    0  0.00000000000E+00  0.00000000000E+00  0.14999999963E+04  0.15000000000E+04  0.10566000000E+00 0.  1.
        994   -1    0    0    0    0 -0.00000000000E+00 -0.00000000000E+00  0.11368683772E-12  0.17120000000E+03  0.17120000000E+03 0.  0.
         13    1    1    2    0    0 -0.63050184386E+01 -0.10658712990E+02  0.37161039794E+02  0.39170339069E+02  0.10566000000E+00 0.  1.
        994    1    1    2    0    0  0.43756429981E+01  0.66022921723E+01  0.22483094257E+01  0.17139787458E+03  0.17120000000E+03 0.  0.
        998    1    1    2    0    0  0.19293754405E+01  0.40564208179E+01  0.14605906471E+04  0.14606317864E+04  0.10000000000E+02 0.  1.
</event>
<event>
 5    1  0.1145138E-008  0.3820393E+03  0.7957747E-01  0.3442327E+00
         13   -1    0    0    0    0  0.00000000000E+00  0.00000000000E+00  0.14999999963E+04  0.15000000000E+04  0.10566000000E+00 0. -1.
        994   -1    0    0    0    0 -0.00000000000E+00 -0.00000000000E+00  0.11368683772E-12  0.17120000000E+03  0.17120000000E+03 0.  0.
         13    1    1    2    0    0 -0.30117991433E+02 -0.10355914470E+02  0.18978209021E+03  0.19243594078E+03  0.10566000000E+00 0. -1.
        994    1    1    2    0    0  0.72317480591E+01 -0.18705733536E+02  0.44439121000E+01  0.17242792988E+03  0.17120000000E+03 0.  0.
        998    1    1    2    0    0  0.22886243374E+02  0.29061648006E+02  0.13057739940E+04  0.13063361293E+04  0.10000000000E+02 0.  0.
</event>
<event>
 5    1  0.1145138E-008  0.3826040E+03  0.7957747E-01  0.3439898E+00
         13   -1    0    0    0    0  0.00000000000E+00  0.00000000000E+00  0.14999999963E+04  0.15000000000E+04  0.10566000000E+00 0. -1.
        994   -1    0    0    0    0 -0.00000000000E+00 -0.00000000000E+00  0.11368683772E-12  0.17120000000E+03  0.17120000000E+03 0.  0.
         13    1    1    2    0    0 -0.98279704072E+01 -0.59975225667E+01  0.22569153459E+02  0.25336478270E+02  0.10566000000E+00 0. -1.
        994    1    1    2    0    0  0.76405290981E+01 -0.14482111525E+01  0.30248782406E+01  0.17140322310E+03  0.17120000000E+03 0.  0.
        998    1    1    2    0    0  0.21874413091E+01  0.74457337192E+01  0.14744059646E+04  0.14744602986E+04  0.10000000000E+02 0. -1.
</event>
<event>
 5    1  0.1145138E-008  0.3811616E+03  0.7957747E-01  0.3446116E+00
         13   -1    0    0    0    0  0.00000000000E+00  0.00000000000E+00  0.14999999963E+04  0.15000000000E+04  0.10566000000E+00 0.  1.
        994   -1    0    0    0    0 -0.00000000000E+00 -0.00000000000E+00  0.11368683772E-12  0.17120000000E+03  0.17120000000E+03 0.  0.
         13    1    1    2    0    0  0.13145644937E+02  0.19630364414E+02  0.75354179697E+02  0.78971024748E+02  0.10566000000E+00 0.  1.
        994    1    1    2    0    0  0.35823797058E+01 -0.27392947337E+02  0.60936479847E+01  0.17352169765E+03  0.17120000000E+03 0.  0.
        998    1    1    2    0    0 -0.16728024643E+02  0.77625829225E+01  0.14185521686E+04  0.14187072776E+04  0.10000000000E+02 0.  1.
</event>
<event>
 5    1  0.1145138E-008  0.3704676E+03  0.7957747E-01  0.3493745E+00
         13   -1    0    0    0    0  0.00000000000E+00  0.00000000000E+00  0.14999999963E+04  0.15000000000E+04  0.10566000000E+00 0.  1.
        994   -1    0    0    0    0 -0.00000000000E+00 -0.00000000000E+00  0.11368683772E-12  0.17120000000E+03  0.17120000000E+03 0.  0.
         13    1    1    2    0    0  0.46567659947E+02  0.23046267627E+00  0.11467534579E+03  0.12377013437E+03  0.10566000000E+00 0.  1.
        994    1    1    2    0    0 -0.33782406559E+02  0.48698577935E+01  0.13057085109E+02  0.17505683071E+03  0.17120000000E+03 0.  0.
        998    1    1    2    0    0 -0.12785253389E+02 -0.51003204697E+01  0.13722675654E+04  0.13723730349E+04  0.10000000000E+02 0.  1.
</event>
<event>
 5    1  0.1145138E-008  0.3808748E+03  0.7957747E-01  0.3447358E+00
         13   -1    0    0    0    0  0.00000000000E+00  0.00000000000E+00  0.14999999963E+04  0.15000000000E+04  0.10566000000E+00 0.  1.
        994   -1    0    0    0    0 -0.00000000000E+00 -0.00000000000E+00  0.11368683772E-12  0.17120000000E+03  0.17120000000E+03 0.  0.
         13    1    1    2    0    0  0.12209959008E+02  0.29674458072E+02  0.12467365213E+03  0.12873689160E+03  0.10566000000E+00 0.  1.
        994    1    1    2    0    0 -0.56774910955E+01 -0.37136454226E+02  0.84109566242E+01  0.17547516727E+03  0.17120000000E+03 0.  0.
        998    1    1    2    0    0 -0.65324679127E+01  0.74619961542E+01  0.13669153875E+04  0.13669879411E+04  0.10000000000E+02 0.  1.
</event>
<event>
 5    1  0.1145138E-008  0.3800877E+03  0.7957747E-01  0.3450777E+00
         13   -1    0    0    0    0  0.00000000000E+00  0.00000000000E+00  0.14999999963E+04  0.15000000000E+04  0.10566000000E+00 0.  1.
        994   -1    0    0    0    0 -0.00000000000E+00 -0.00000000000E+00  0.11368683772E-12  0.17120000000E+03  0.17120000000E+03 0.  0.
         13    1    1    2    0    0  0.19254538778E+02 -0.80818382542E+00  0.49320709121E+02  0.52952185384E+02  0.10566000000E+00 0.  1.
        994    1    1    2    0    0  0.17703690520E+02 -0.14242912548E+02  0.58161896924E+01  0.17279915879E+03  0.17120000000E+03 0.  0.
        998    1    1    2    0    0 -0.36958229298E+02  0.15051096373E+02  0.14448630975E+04  0.14454486558E+04  0.10000000000E+02 0.  1.
</event>
<event>
 5    1  0.1145138E-008  0.3825360E+03  0.7957747E-01  0.3440190E+00
         13   -1    0    0    0    0  0.00000000000E+00  0.00000000000E+00  0.14999999963E+04  0.15000000000E+04  0.10566000000E+00 0.  1.
        994   -1    0    0    0    0 -0.00000000000E+00 -0.00000000000E+00  0.11368683772E-12  0.17120000000E+03  0.17120000000E+03 0.  0.
         13    1    1    2    0    0  0.47866586067E+01  0.89648177149E+01  0.16788827999E+02  0.19625390873E+02  0.10566000000E+00 0.  1.
        994    1    1    2    0    0 -0.51514263484E+01 -0.88865014436E+01  0.32082570888E+01  0.17153786758E+03  0.17120000000E+03 0.  0.
        998    1    1    2    0    0  0.36476774164E+00 -0.78316271306E-01  0.14800029112E+04  0.14800367415E+04  0.10000000000E+02 0.  1.
</event>
<event>
 5    1  0.1145138E-008  0.3831138E+03  0.7957747E-01  0.3437711E+00
         13   -1    0    0    0    0  0.00000000000E+00  0.00000000000E+00  0.14999999963E+04  0.15000000000E+04  0.10566000000E+00 0. -1.
        994   -1    0    0    0    0 -0.00000000000E+00 -0.00000000000E+00  0.11368683772E-12  0.17120000000E+03  0.17120000000E+03 0.  0.
         13    1    1    2    0    0 -0.18936716899E+02 -0.86832167359E+01  0.10454468195E+03  0.10660018380E+03  0.10566000000E+00 0. -1.
        994    1    1    2    0    0 -0.10689744954E+02 -0.23116596865E+02  0.47187461664E+01  0.17314835911E+03  0.17120000000E+03 0.  0.
        998    1    1    2    0    0  0.29626461853E+02  0.31799813601E+02  0.13907365682E+04  0.13914514571E+04  0.10000000000E+02 0. -1.
</event>
<event>
 5    1  0.1145138E-008  0.3858458E+03  0.7957747E-01  0.3426093E+00
         13   -1    0    0    0    0  0.00000000000E+00  0.00000000000E+00  0.14999999963E+04  0.15000000000E+04  0.10566000000E+00 0. -1.
        994   -1    0    0    0    0 -0.00000000000E+00 -0.00000000000E+00  0.11368683772E-12  0.17120000000E+03  0.17120000000E+03 0.  0.
         13    1    1    2    0    0 -0.22515135078E+00 -0.12843272406E+02  0.70350444157E+02  0.71513610567E+02  0.10566000000E+00 0. -1.
        994    1    1    2    0    0  0.66081820502E+01  0.54969641626E+01  0.14531360117E+01  0.17142180809E+03  0.17120000000E+03 0.  0.
        998    1    1    2    0    0 -0.63830306994E+01  0.73463082431E+01  0.14281964161E+04  0.14282645813E+04  0.10000000000E+02 0. -1.
</event>
<event>
 5    1  0.1145138E-008  0.3768297E+03  0.7957747E-01  0.3465080E+00
         13   -1    0    0    0    0  0.00000000000E+00  0.00000000000E+00  0.14999999963E+04  0.15000000000E+04  0.10566000000E+00 0. -1.
        994   -1    0    0    0    0 -0.00000000000E+00 -0.00000000000E+00  0.11368683772E-12  0.17120000000E+03  0.17120000000E+03 0.  0.
         13    1    1    2    0    0  0.44807072326E+02 -0.48047639422E+01  0.15808828076E+03  0.16438575110E+03  0.10566000000E+00 0. -1.
        994    1    1    2    0    0 -0.44387747288E+02  0.37350289383E+01  0.12475047402E+02  0.17733947490E+03  0.17120000000E+03 0.  0.
        998    1    1    2    0    0 -0.41932503816E+00  0.10697350038E+01  0.13294366681E+04  0.13294747740E+04  0.10000000000E+02 0. -1.
</event>
<event>
 5    1  0.1145138E-008  0.3835172E+03  0.7957747E-01  0.3435985E+00
         13   -1    0    0    0    0  0.00000000000E+00  0.00000000000E+00  0.14999999963E+04  0.15000000000E+04  0.10566000000E+00 0. -1.
        994   -1    0    0    0    0 -0.00000000000E+00 -0.00000000000E+00  0.11368683772E-12  0.17120000000E+03  0.17120000000E+03 0.  0.
         13    1    1    2    0    0 -0.56076345746E+01 -0.16107140569E+02  0.58314308598E+02  0.60757347655E+02  0.10566000000E+00 0. -1.
        994    1    1    2    0    0 -0.10393181436E+02  0.24457702368E+02  0.47052702183E+01  0.17331409923E+03  0.17120000000E+03 0.  0.
        998    1    1    2    0    0  0.16000816011E+02 -0.83505617994E+01  0.14369804175E+04  0.14371285531E+04  0.10000000000E+02 0. -1.
</event>
<event>
 5    1  0.1145138E-008  0.3810427E+03  0.7957747E-01  0.3446631E+00
         13   -1    0    0    0    0  0.00000000000E+00  0.00000000000E+00  0.14999999963E+04  0.15000000000E+04  0.10566000000E+00 0.  1.
        994   -1    0    0    0    0 -0.00000000000E+00 -0.00000000000E+00  0.11368683772E-12  0.17120000000E+03  0.17120000000E+03 0.  0.
         13    1    1    2    0    0  0.14942895270E+02 -0.16405077775E+02  0.65568386030E+02  0.69221680898E+02  0.10566000000E+00 0.  1.
        994    1    1    2    0    0 -0.15851902753E+02  0.11166684979E+02  0.48612860028E+01  0.17236313346E+03  0.17120000000E+03 0.  0.
        998    1    1    2    0    0  0.90900748322E+00  0.52383927959E+01  0.14295703242E+04  0.14296151856E+04  0.10000000000E+02 0.  1.
</event>
<event>
 5    1  0.1145138E-008  0.3726417E+03  0.7957747E-01  0.3483838E+00
         13   -1    0    0    0    0  0.00000000000E+00  0.00000000000E+00  0.14999999963E+04  0.15000000000E+04  0.10566000000E+00 0. -1.
        994   -1    0    0    0    0 -0.00000000000E+00 -0.00000000000E+00  0.11368683772E-12  0.17120000000E+03  0.17120000000E+03 0.  0.
         13    1    1    2    0    0 -0.64469450385E+02  0.20008598154E+02  0.23412100238E+03  0.24365818056E+03  0.10566000000E+00 0. -1.
        994    1    1    2    0    0  0.64362577482E+02 -0.38690337476E+02  0.27472589463E+02  0.18895413932E+03  0.17120000000E+03 0.  0.
        998    1    1    2    0    0  0.10687290379E+00  0.18681739322E+02  0.12384064044E+04  0.12385876801E+04  0.10000000000E+02 0. -1.
</event>
<event>
 5    1  0.1145138E-008  0.3729217E+03  0.7957747E-01  0.3482570E+00
         13   -1    0    0    0    0  0.00000000000E+00  0.00000000000E+00  0.14999999963E+04  0.15000000000E+04  0.10566000000E+00 0.  1.
        994   -1    0    0    0    0 -0.00000000000E+00 -0.00000000000E+00  0.11368683772E-12  0.17120000000E+03  0.17120000000E+03 0.  0.
         13    1    1    2    0    0 -0.25187033705E+02  0.70607121209E+02  0.34589231575E+03  0.35392267163E+03  0.10566000000E+00 0.  1.
        994    1    1    2    0    0  0.27897494075E+02 -0.41379031751E+02  0.16323799932E+02  0.17907093815E+03  0.17120000000E+03 0.  0.
        998    1    1    2    0    0 -0.27104603704E+01 -0.29228089459E+02  0.11377838806E+04  0.11382063902E+04  0.10000000000E+02 0.  1.
</event>
<event>
 5    1  0.1145138E-008  0.3775702E+03  0.7957747E-01  0.3461807E+00
         13   -1    0    0    0    0  0.00000000000E+00  0.00000000000E+00  0.14999999963E+04  0.15000000000E+04  0.10566000000E+00 0.  1.
        994   -1    0    0    0    0 -0.00000000000E+00 -0.00000000000E+00  0.11368683772E-12  0.17120000000E+03  0.17120000000E+03 0.  0.
         13    1    1    2    0    0 -0.14804873490E+02 -0.43929026132E+02  0.20465030019E+03  0.20983493548E+03  0.10566000000E+00 0.  1.
        994    1    1    2    0    0 -0.25847390032E+02  0.33757043560E+02  0.11480783229E+02  0.17677351030E+03  0.17120000000E+03 0.  0.
        998    1    1    2    0    0  0.40652263522E+02  0.10171982573E+02  0.12838689129E+04  0.12845915542E+04  0.10000000000E+02 0.  1.
</event>
<event>
 5    1  0.1145138E-008  0.3769245E+03  0.7957747E-01  0.3464660E+00
         13   -1    0    0    0    0  0.00000000000E+00  0.00000000000E+00  0.14999999963E+04  0.15000000000E+04  0.10566000000E+00 0. -1.
        994   -1    0    0    0    0 -0.00000000000E+00 -0.00000000000E+00  0.11368683772E-12  0.17120000000E+03  0.17120000000E+03 0.  0.
         13    1    1    2    0    0 -0.13056877831E+02 -0.32532413864E+01  0.13378037804E+02  0.18974949215E+02  0.10566000000E+00 0. -1.
        994    1    1    2    0    0  0.97304845884E+01  0.27607117508E+01  0.60393252126E+01  0.17160482892E+03  0.17120000000E+03 0.  0.
        998    1    1    2    0    0  0.33263932421E+01  0.49252963558E+00  0.14805826333E+04  0.14806202219E+04  0.10000000000E+02 0. -1.
</event>
<event>
 5    1  0.1145138E-008  0.3793840E+03  0.7957747E-01  0.3453845E+00
         13   -1    0    0    0    0  0.00000000000E+00  0.00000000000E+00  0.14999999963E+04  0.15000000000E+04  0.10566000000E+00 0.  1.
        994   -1    0    0    0    0 -0.00000000000E+00 -0.00000000000E+00  0.11368683772E-12  0.17120000000E+03  0.17120000000E+03 0.  0.
         13    1    1    2    0    0  0.25452289087E+02  0.23035048545E+02  0.13918569263E+03  0.14335655087E+03  0.10566000000E+00 0.  1.
        994    1    1    2    0    0  0.19949745691E+01 -0.17727305492E+02  0.55111559704E+01  0.17221512745E+03  0.17120000000E+03 0.  0.
        998    1    1    2    0    0 -0.27447263656E+02 -0.53077430536E+01  0.13553031477E+04  0.13556283217E+04  0.10000000000E+02 0.  1.
</event>
<event>
 5    1  0.1145138E-008  0.3845216E+03  0.7957747E-01  0.3431704E+00
         13   -1    0    0    0    0  0.00000000000E+00  0.00000000000E+00  0.14999999963E+04  0.15000000000E+04  0.10566000000E+00 0.  1.
        994   -1    0    0    0    0 -0.00000000000E+00 -0.00000000000E+00  0.11368683772E-12  0.17120000000E+03  0.17120000000E+03 0.  0.
         13    1    1    2    0    0 -0.12880087193E+01 -0.13622776431E+02  0.45811607889E+02  0.47811646966E+02  0.10566000000E+00 0.  1.
        994    1    1    2    0    0 -0.10861306500E+02  0.27358183280E+02  0.47268753166E+01  0.17377635490E+03  0.17120000000E+03 0.  0.
        998    1    1    2    0    0  0.12149315220E+02 -0.13735406849E+02  0.14494615131E+04  0.14496119981E+04  0.10000000000E+02 0.  1.
</event>
<event>
 5    1  0.1145138E-008  0.3751718E+03  0.7957747E-01  0.3472455E+00
         13   -1    0    0    0    0  0.00000000000E+00  0.00000000000E+00  0.14999999963E+04  0.15000000000E+04  0.10566000000E+00 0. -1.
        994   -1    0    0    0    0 -0.00000000000E+00 -0.00000000000E+00  0.11368683772E-12  0.17120000000E+03  0.17120000000E+03 0.  0.
         13    1    1    2    0    0  0.12945179468E+03  0.15074996699E+01  0.66533354023E+03  0.67781175161E+03  0.10566000000E+00 0. -1.
        994    1    1    2    0    0 -0.14242688634E+03 -0.68820911460E+02  0.96987509548E+02  0.25246336926E+03  0.17120000000E+03 0.  0.
        998    1    1    2    0    0  0.12975091661E+02  0.67313411790E+02  0.73767894651E+03  0.74092487914E+03  0.10000000000E+02 0. -1.
</event>
<event>
 5    1  0.1145138E-008  0.3738403E+03  0.7957747E-01  0.3478425E+00
         13   -1    0    0    0    0  0.00000000000E+00  0.00000000000E+00  0.14999999963E+04  0.15000000000E+04  0.10566000000E+00 0. -1.
        994   -1    0    0    0    0 -0.00000000000E+00 -0.00000000000E+00  0.11368683772E-12  0.17120000000E+03  0.17120000000E+03 0.  0.
         13    1    1    2    0    0  0.29934510981E+02 -0.21964372023E+02  0.85499382491E+02  0.93213004224E+02  0.10566000000E+00 0. -1.
        994    1    1    2    0    0 -0.39292023939E+02  0.18613030537E+02  0.13753742714E+02  0.17716916631E+03  0.17120000000E+03 0.  0.
        998    1    1    2    0    0  0.93575129586E+01  0.33513414858E+01  0.14007468711E+04  0.14008178295E+04  0.10000000000E+02 0. -1.
</event>
<event>
 5    1  0.1145138E-008  0.3808700E+03  0.7957747E-01  0.3447379E+00
         13   -1    0    0    0    0  0.00000000000E+00  0.00000000000E+00  0.14999999963E+04  0.15000000000E+04  0.10566000000E+00 0. -1.
        994   -1    0    0    0    0 -0.00000000000E+00 -0.00000000000E+00  0.11368683772E-12  0.17120000000E+03  0.17120000000E+03 0.  0.
         13    1    1    2    0    0 -0.18344980491E+01  0.13092449788E+02  0.22237625807E+02  0.25870848268E+02  0.10566000000E+00 0. -1.
        994    1    1    2    0    0  0.48671758076E+01 -0.73660715092E+01  0.39544956571E+01  0.17147310706E+03  0.17120000000E+03 0.  0.
        998    1    1    2    0    0 -0.30326777584E+01 -0.57263782789E+01  0.14738078748E+04  0.14738560447E+04  0.10000000000E+02 0. -1.
</event>
<event>
 5    1  0.1145138E-008  0.3734209E+03  0.7957747E-01  0.3480315E+00
         13   -1    0    0    0    0  0.00000000000E+00  0.00000000000E+00  0.14999999963E+04  0.15000000000E+04  0.10566000000E+00 0. -1.
        994   -1    0    0    0    0 -0.00000000000E+00 -0.00000000000E+00  0.11368683772E-12  0.17120000000E+03  0.17120000000E+03 0.  0.
         13    1    1    2    0    0 -0.51783519078E+02  0.37049450228E+02  0.21198039515E+03  0.22133660723E+03  0.10566000000E+00 0. -1.
        994    1    1    2    0    0  0.71528878857E+02 -0.33944068047E+02  0.29226898066E+02  0.19087229196E+03  0.17120000000E+03 0.  0.
        998    1    1    2    0    0 -0.19745359779E+02 -0.31053821810E+01  0.12587927031E+04  0.12589911008E+04  0.10000000000E+02 0. -1.
</event>
<event>
 5    1  0.1145138E-008  0.3801574E+03  0.7957747E-01  0.3450474E+00
         13   -1    0    0    0    0  0.00000000000E+00  0.00000000000E+00  0.14999999963E+04  0.15000000000E+04  0.10566000000E+00 0. -1.
        994   -1    0    0    0    0 -0.00000000000E+00 -0.00000000000E+00  0.11368683772E-12  0.17120000000E+03  0.17120000000E+03 0.  0.
         13    1    1    2    0    0  0.16257644963E+02  0.20161734264E+02  0.87138864750E+02  0.90906542461E+02  0.10566000000E+00 0. -1.
        994    1    1    2    0    0  0.51600313513E+01 -0.67055086131E+01  0.42929570796E+01  0.17146270513E+03  0.17120000000E+03 0.  0.
        998    1    1    2    0    0 -0.21417676315E+02 -0.13456225651E+02  0.14085681744E+04  0.14088307524E+04  0.10000000000E+02 0. -1.
</event>
<event>
 5    1  0.1145138E-008  0.3769921E+03  0.7957747E-01  0.3464361E+00
         13   -1    0    0    0    0  0.00000000000E+00  0.00000000000E+00  0.14999999963E+04  0.15000000000E+04  0.10566000000E+00 0. -1.
        994   -1    0    0    0    0 -0.00000000000E+00 -0.00000000000E+00  0.11368683772E-12  0.17120000000E+03  0.17120000000E+03 0.  0.
         13    1    1    2    0    0 -0.19360421610E+02  0.66697959198E+01  0.35184238563E+02  0.40709383560E+02  0.10566000000E+00 0. -1.
        994    1    1    2    0    0  0.85532267240E+01 -0.51396324057E+01  0.59955864883E+01  0.17159533958E+03  0.17120000000E+03 0.  0.
        998    1    1    2    0    0  0.10807194886E+02 -0.15301635141E+01  0.14588201712E+04  0.14588952769E+04  0.10000000000E+02 0. -1.
</event>
<event>
 5    1  0.1145138E-008  0.3833144E+03  0.7957747E-01  0.3436853E+00
         13   -1    0    0    0    0  0.00000000000E+00  0.00000000000E+00  0.14999999963E+04  0.15000000000E+04  0.10566000000E+00 0. -1.
        994   -1    0    0    0    0 -0.00000000000E+00 -0.00000000000E+00  0.11368683772E-12  0.17120000000E+03  0.17120000000E+03 0.  0.
         13    1    1    2    0    0 -0.20494618172E+02  0.18541748337E+01  0.92709376761E+02  0.94965820387E+02  0.10566000000E+00 0. -1.
        994    1    1    2    0    0  0.40712667497E+00  0.98645668969E+01  0.27917278022E+01  0.17150716946E+03  0.17120000000E+03 0.  0.
        998    1    1    2    0    0  0.20087491497E+02 -0.11718741731E+02  0.14044988917E+04  0.14047270102E+04  0.10000000000E+02 0. -1.
</event>
<event>
 5    1  0.1145138E-008  0.3992264E+03  0.7957747E-01  0.3371490E+00
         13   -1    0    0    0    0  0.00000000000E+00  0.00000000000E+00  0.14999999963E+04  0.15000000000E+04  0.10566000000E+00 0.  1.
        994   -1    0    0    0    0 -0.00000000000E+00 -0.00000000000E+00  0.11368683772E-12  0.17120000000E+03  0.17120000000E+03 0.  0.
         13    1    1    2    0    0  0.79324828261E+02  0.29916785794E+02  0.11526479249E+03  0.14308538011E+03  0.10566000000E+00 0.  1.
        994    1    1    2    0    0 -0.76945596994E+02 -0.27025226947E+02  0.53772218021E+02  0.19710880046E+03  0.17120000000E+03 0.  0.
        998    1    1    2    0    0 -0.23792312674E+01 -0.28915588472E+01  0.13309629858E+04  0.13310058194E+04  0.10000000000E+02 0.  1.
</event>
<event>
 5    1  0.1145138E-008  0.3854323E+03  0.7957747E-01  0.3427841E+00
         13   -1    0    0    0    0  0.00000000000E+00  0.00000000000E+00  0.14999999963E+04  0.15000000000E+04  0.10566000000E+00 0.  1.
        994   -1    0    0    0    0 -0.00000000000E+00 -0.00000000000E+00  0.11368683772E-12  0.17120000000E+03  0.17120000000E+03 0.  0.
         13    1    1    2    0    0  0.11877871705E+02  0.57402932037E+01  0.62166454113E+02  0.63550877124E+02  0.10566000000E+00 0.  1.
        994    1    1    2    0    0 -0.87470822931E+01  0.35319566207E+00  0.16673559258E+01  0.17143178314E+03  0.17120000000E+03 0.  0.
        998    1    1    2    0    0 -0.31307894116E+01 -0.60934888657E+01  0.14361661862E+04  0.14362173397E+04  0.10000000000E+02 0.  1.
</event>
<event>
 5    1  0.1145138E-008  0.3818012E+03  0.7957747E-01  0.3443353E+00
         13   -1    0    0    0    0  0.00000000000E+00  0.00000000000E+00  0.14999999963E+04  0.15000000000E+04  0.10566000000E+00 0.  1.
        994   -1    0    0    0    0 -0.00000000000E+00 -0.00000000000E+00  0.11368683772E-12  0.17120000000E+03  0.17120000000E+03 0.  0.
         13    1    1    2    0    0  0.24830496602E+02 -0.16680007756E+02  0.15094627104E+03  0.15388165623E+03  0.10566000000E+00 0.  1.
        994    1    1    2    0    0 -0.80143011131E+01 -0.29772611118E+01  0.34696233423E+01  0.17144845112E+03  0.17120000000E+03 0.  0.
        998    1    1    2    0    0 -0.16816195489E+02  0.19657268868E+02  0.13455841019E+04  0.13458698926E+04  0.10000000000E+02 0.  1.
</event>
<event>
 5    1  0.1219012E-008  0.3860106E+03  0.7957747E-01  0.3425398E+00
         13   -1    0    0    0    0  0.00000000000E+00  0.00000000000E+00  0.14999999963E+04  0.15000000000E+04  0.10566000000E+00 0. -1.
        994   -1    0    0    0    0 -0.00000000000E+00 -0.00000000000E+00  0.11368683772E-12  0.17120000000E+03  0.17120000000E+03 0.  0.
         13    1    1    2    0    0 -0.22537784306E+01  0.12060962632E+02  0.67575064468E+02  0.68680032314E+02  0.10566000000E+00 0. -1.
        994    1    1    2    0    0  0.30191990200E-01 -0.80461076672E+01  0.13414862601E+01  0.17139422495E+03  0.17120000000E+03 0.  0.
        998    1    1    2    0    0  0.22235864404E+01 -0.40148549649E+01  0.14310834456E+04  0.14311257427E+04  0.10000000000E+02 0. -1.
</event>
<event>
 5    1  0.1145138E-008  0.3792481E+03  0.7957747E-01  0.3454439E+00
         13   -1    0    0    0    0  0.00000000000E+00  0.00000000000E+00  0.14999999963E+04  0.15000000000E+04  0.10566000000E+00 0.  1.
        994   -1    0    0    0    0 -0.00000000000E+00 -0.00000000000E+00  0.11368683772E-12  0.17120000000E+03  0.17120000000E+03 0.  0.
         13    1    1    2    0    0  0.14336062067E+02  0.15251940251E+02  0.49501146035E+02  0.53744943760E+02  0.10566000000E+00 0.  1.
        994    1    1    2    0    0 -0.28706558014E+01  0.49522232642E+01  0.46230188179E+01  0.17135803886E+03  0.17120000000E+03 0.  0.
        998    1    1    2    0    0 -0.11465406266E+02 -0.20204163515E+02  0.14458758314E+04  0.14460970174E+04  0.10000000000E+02 0.  1.
</event>
<event>
 5    1  0.1145138E-008  0.3850868E+03  0.7957747E-01  0.3429304E+00
         13   -1    0    0    0    0  0.00000000000E+00  0.00000000000E+00  0.14999999963E+04  0.15000000000E+04  0.10566000000E+00 0.  1.
        994   -1    0    0    0    0 -0.00000000000E+00 -0.00000000000E+00  0.11368683772E-12  0.17120000000E+03  0.17120000000E+03 0.  0.
         13    1    1    2    0    0  0.16339881223E+02 -0.29679375525E+01  0.85334772361E+02  0.86935809133E+02  0.10566000000E+00 0.  1.
        994    1    1    2    0    0 -0.12567583571E+02  0.58289379396E+01  0.22182924947E+01  0.17177392554E+03  0.17120000000E+03 0.  0.
        998    1    1    2    0    0 -0.37722976527E+01 -0.28610003871E+01  0.14124469314E+04  0.14124902653E+04  0.10000000000E+02 0.  1.
</event>
<event>
 5    1  0.1145138E-008  0.3766400E+03  0.7957747E-01  0.3465920E+00
         13   -1    0    0    0    0  0.00000000000E+00  0.00000000000E+00  0.14999999963E+04  0.15000000000E+04  0.10566000000E+00 0. -1.
        994   -1    0    0    0    0 -0.00000000000E+00 -0.00000000000E+00  0.11368683772E-12  0.17120000000E+03  0.17120000000E+03 0.  0.
         13    1    1    2    0    0 -0.42356197464E+01  0.59136474127E+02  0.26243489326E+03  0.26904859674E+03  0.10566000000E+00 0. -1.
        994    1    1    2    0    0 -0.17231913326E+02 -0.53860357140E+02  0.16726877518E+02  0.18107209984E+03  0.17120000000E+03 0.  0.
        998    1    1    2    0    0  0.21467533072E+02 -0.52761169869E+01  0.12208382255E+04  0.12210793034E+04  0.10000000000E+02 0. -1.
</event>
<event>
 5    1  0.1145138E-008  0.3805743E+03  0.7957747E-01  0.3448662E+00
         13   -1    0    0    0    0  0.00000000000E+00  0.00000000000E+00  0.14999999963E+04  0.15000000000E+04  0.10566000000E+00 0.  1.
        994   -1    0    0    0    0 -0.00000000000E+00 -0.00000000000E+00  0.11368683772E-12  0.17120000000E+03  0.17120000000E+03 0.  0.
         13    1    1    2    0    0 -0.39540796137E+01  0.30435085224E+02  0.13022558011E+03  0.13379328098E+03  0.10566000000E+00 0.  1.
        994    1    1    2    0    0  0.27373100771E+02 -0.39686285355E+01  0.64003174486E+01  0.17353800944E+03  0.17120000000E+03 0.  0.
        998    1    1    2    0    0 -0.23419021158E+02 -0.26466456688E+02  0.13633740987E+04  0.13638687096E+04  0.10000000000E+02 0.  1.
</event>
<event>
 5    1  0.1145138E-008  0.3709708E+03  0.7957747E-01  0.3491441E+00
         13   -1    0    0    0    0  0.00000000000E+00  0.00000000000E+00  0.14999999963E+04  0.15000000000E+04  0.10566000000E+00 0. -1.
        994   -1    0    0    0    0 -0.00000000000E+00 -0.00000000000E+00  0.11368683772E-12  0.17120000000E+03  0.17120000000E+03 0.  0.
         13    1    1    2    0    0  0.70761570171E+01 -0.22783796489E+02  0.28769321120E+02  0.37374568657E+02  0.10566000000E+00 0. -1.
        994    1    1    2    0    0 -0.61838188223E+01  0.16821742639E+02  0.98701957563E+01  0.17241830357E+03  0.17120000000E+03 0.  0.
        998    1    1    2    0    0 -0.89233819477E+00  0.59620538501E+01  0.14613604794E+04  0.14614071278E+04  0.10000000000E+02 0. -1.
</event>
<event>
 5    1  0.1145138E-008  0.3753258E+03  0.7957747E-01  0.3471767E+00
         13   -1    0    0    0    0  0.00000000000E+00  0.00000000000E+00  0.14999999963E+04  0.15000000000E+04  0.10566000000E+00 0.  1.
        994   -1    0    0    0    0 -0.00000000000E+00 -0.00000000000E+00  0.11368683772E-12  0.17120000000E+03  0.17120000000E+03 0.  0.
         13    1    1    2    0    0 -0.30492416514E+02  0.15841961985E+02  0.88548387364E+02  0.94982015631E+02  0.10566000000E+00 0.  1.
        994    1    1    2    0    0  0.13544061718E+02 -0.18803304292E+02  0.83370222096E+01  0.17296228433E+03  0.17120000000E+03 0.  0.
        998    1    1    2    0    0  0.16948354797E+02  0.29613423071E+01  0.14031145867E+04  0.14032557000E+04  0.10000000000E+02 0.  1.
</event>
<event>
 5    1  0.1145138E-008  0.3808177E+03  0.7957747E-01  0.3447606E+00
         13   -1    0    0    0    0  0.00000000000E+00  0.00000000000E+00  0.14999999963E+04  0.15000000000E+04  0.10566000000E+00 0.  1.
        994   -1    0    0    0    0 -0.00000000000E+00 -0.00000000000E+00  0.11368683772E-12  0.17120000000E+03  0.17120000000E+03 0.  0.
         13    1    1    2    0    0 -0.10025907239E+01  0.22583838246E+02  0.71660588649E+02  0.75141773120E+02  0.10566000000E+00 0.  1.
        994    1    1    2    0    0  0.31745994802E+02 -0.17043161854E+00  0.70882906505E+01  0.17426279321E+03  0.17120000000E+03 0.  0.
        998    1    1    2    0    0 -0.30743404078E+02 -0.22413406627E+02  0.14212511170E+04  0.14217954337E+04  0.10000000000E+02 0.  1.
</event>
<event>
 5    1  0.1145138E-008  0.3850875E+03  0.7957747E-01  0.3429301E+00
         13   -1    0    0    0    0  0.00000000000E+00  0.00000000000E+00  0.14999999963E+04  0.15000000000E+04  0.10566000000E+00 0. -1.
        994   -1    0    0    0    0 -0.00000000000E+00 -0.00000000000E+00  0.11368683772E-12  0.17120000000E+03  0.17120000000E+03 0.  0.
         13    1    1    2    0    0 -0.10111831317E+02  0.74548967264E+01  0.44240788261E+02  0.45990032918E+02  0.10566000000E+00 0. -1.
        994    1    1    2    0    0  0.20174555877E+02 -0.24372983447E+02  0.48848373184E+01  0.17416761083E+03  0.17120000000E+03 0.  0.
        998    1    1    2    0    0 -0.10062724560E+02  0.16918086720E+02  0.14508743707E+04  0.14510423563E+04  0.10000000000E+02 0. -1.
</event>
<event>
 5    1  0.1145138E-008  0.3845413E+03  0.7957747E-01  0.3431620E+00
         13   -1    0    0    0    0  0.00000000000E+00  0.00000000000E+00  0.14999999963E+04  0.15000000000E+04  0.10566000000E+00 0. -1.
        994   -1    0    0    0    0 -0.00000000000E+00 -0.00000000000E+00  0.11368683772E-12  0.17120000000E+03  0.17120000000E+03 0.  0.
         13    1    1    2    0    0 -0.10128400776E+01 -0.12385641839E+02  0.41987559768E+02  0.43788084088E+02  0.10566000000E+00 0. -1.
        994    1    1    2    0    0 -0.17089288515E+02  0.63299239376E+01  0.29526153406E+01  0.17219253659E+03  0.17120000000E+03 0.  0.
        998    1    1    2    0    0  0.18102128592E+02  0.60557179017E+01  0.14550598212E+04  0.14552193793E+04  0.10000000000E+02 0. -1.
</event>
<event>
 5    1  0.1145138E-008  0.3849052E+03  0.7957747E-01  0.3430074E+00
         13   -1    0    0    0    0  0.00000000000E+00  0.00000000000E+00  0.14999999963E+04  0.15000000000E+04  0.10566000000E+00 0.  1.
        994   -1    0    0    0    0 -0.00000000000E+00 -0.00000000000E+00  0.11368683772E-12  0.17120000000E+03  0.17120000000E+03 0.  0.
         13    1    1    2    0    0  0.12812245115E+02 -0.67388660824E+01  0.59961554389E+02  0.61684399241E+02  0.10566000000E+00 0.  1.
        994    1    1    2    0    0 -0.17023082240E+02  0.27615449470E+01  0.26562132247E+01  0.17208691678E+03  0.17120000000E+03 0.  0.
        998    1    1    2    0    0  0.42108371249E+01  0.39773211354E+01  0.14373822287E+04  0.14374286840E+04  0.10000000000E+02 0.  1.
</event>
<event>
 5    1  0.1145138E-008  0.3798780E+03  0.7957747E-01  0.3451690E+00
         13   -1    0    0    0    0  0.00000000000E+00  0.00000000000E+00  0.14999999963E+04  0.15000000000E+04  0.10566000000E+00 0. -1.
        994   -1    0    0    0    0 -0.00000000000E+00 -0.00000000000E+00  0.11368683772E-12  0.17120000000E+03  0.17120000000E+03 0.  0.
         13    1    1    2    0    0  0.13721437628E+02 -0.14838294263E+02  0.45984572447E+02  0.50229920310E+02  0.10566000000E+00 0. -1.
        994    1    1    2    0    0 -0.17845024964E+02  0.10684519692E+02  0.56427997797E+01  0.17255110856E+03  0.17120000000E+03 0.  0.
        998    1    1    2    0    0  0.41235873357E+01  0.41537745718E+01  0.14483726241E+04  0.14484189711E+04  0.10000000000E+02 0. -1.
</event>
<event>
 5    1  0.1145138E-008  0.3749145E+03  0.7957747E-01  0.3473605E+00
         13   -1    0    0    0    0  0.00000000000E+00  0.00000000000E+00  0.14999999963E+04  0.15000000000E+04  0.10566000000E+00 0. -1.
        994   -1    0    0    0    0 -0.00000000000E+00 -0.00000000000E+00  0.11368683772E-12  0.17120000000E+03  0.17120000000E+03 0.  0.
         13    1    1    2    0    0 -0.26604686281E+02  0.26517359169E+02  0.89776410371E+02  0.97318008059E+02  0.10566000000E+00 0. -1.
        994    1    1    2    0    0  0.23033164391E+02 -0.56873878658E+02  0.19634498848E+02  0.18292107118E+03  0.17120000000E+03 0.  0.
        998    1    1    2    0    0  0.35715218904E+01  0.30356519489E+02  0.13905890871E+04  0.13909609208E+04  0.10000000000E+02 0. -1.
</event>
<event>
 5    1  0.1145138E-008  0.3731682E+03  0.7957747E-01  0.3481456E+00
         13   -1    0    0    0    0  0.00000000000E+00  0.00000000000E+00  0.14999999963E+04  0.15000000000E+04  0.10566000000E+00 0. -1.
        994   -1    0    0    0    0 -0.00000000000E+00 -0.00000000000E+00  0.11368683772E-12  0.17120000000E+03  0.17120000000E+03 0.  0.
         13    1    1    2    0    0  0.25695583087E+02  0.28664719308E+02  0.87759476248E+02  0.95831445563E+02  0.10566000000E+00 0. -1.
        994    1    1    2    0    0 -0.29293251203E+02 -0.32060299134E+02  0.14100635069E+02  0.17718415633E+03  0.17120000000E+03 0.  0.
        998    1    1    2    0    0  0.35976681157E+01  0.33955798257E+01  0.13981398850E+04  0.13981843981E+04  0.10000000000E+02 0. -1.
</event>
<event>
 5    1  0.1145138E-008  0.3858806E+03  0.7957747E-01  0.3425946E+00
         13   -1    0    0    0    0  0.00000000000E+00  0.00000000000E+00  0.14999999963E+04  0.15000000000E+04  0.10566000000E+00 0.  1.
        994   -1    0    0    0    0 -0.00000000000E+00 -0.00000000000E+00  0.11368683772E-12  0.17120000000E+03  0.17120000000E+03 0.  0.
         13    1    1    2    0    0  0.10270109060E+02 -0.81078334565E+01  0.71137280107E+02  0.72330739582E+02  0.10566000000E+00 0.  1.
        994    1    1    2    0    0  0.36565353215E+00  0.18793178931E+02  0.23530368951E+01  0.17224486657E+03  0.17120000000E+03 0.  0.
        998    1    1    2    0    0 -0.10635762592E+02 -0.10685345474E+02  0.14265096793E+04  0.14266243938E+04  0.10000000000E+02 0.  1.
</event>
<event>
 5    1  0.1145138E-008  0.3703344E+03  0.7957747E-01  0.3494355E+00
         13   -1    0    0    0    0  0.00000000000E+00  0.00000000000E+00  0.14999999963E+04  0.15000000000E+04  0.10566000000E+00 0.  1.
        994   -1    0    0    0    0 -0.00000000000E+00 -0.00000000000E+00  0.11368683772E-12  0.17120000000E+03  0.17120000000E+03 0.  0.
         13    1    1    2    0    0  0.15483455411E+02 -0.30208340646E+02  0.60832103815E+02  0.69662308709E+02  0.10566000000E+00 0.  1.
        994    1    1    2    0    0  0.34771466112E+00  0.19750340090E+02  0.10443122788E+02  0.17265194946E+03  0.17120000000E+03 0.  0.
        998    1    1    2    0    0 -0.15831170072E+02  0.10458000556E+02  0.14287247697E+04  0.14288857418E+04  0.10000000000E+02 0.  1.
</event>
<event>
 5    1  0.1145138E-008  0.3766316E+03  0.7957747E-01  0.3465958E+00
         13   -1    0    0    0    0  0.00000000000E+00  0.00000000000E+00  0.14999999963E+04  0.15000000000E+04  0.10566000000E+00 0.  1.
        994   -1    0    0    0    0 -0.00000000000E+00 -0.00000000000E+00  0.11368683772E-12  0.17120000000E+03  0.17120000000E+03 0.  0.
         13    1    1    2    0    0 -0.34871774905E+02 -0.51586050901E+01  0.13241044964E+03  0.13702259021E+03  0.10566000000E+00 0.  1.
        994    1    1    2    0    0 -0.24825921335E+02  0.30315420957E+01  0.79607509588E+01  0.17320026032E+03  0.17120000000E+03 0.  0.
        998    1    1    2    0    0  0.59697696240E+02  0.21270629944E+01  0.13596287957E+04  0.13609771495E+04  0.10000000000E+02 0.  1.
</event>
<event>
 5    1  0.1145138E-008  0.3789823E+03  0.7957747E-01  0.3455602E+00
         13   -1    0    0    0    0  0.00000000000E+00  0.00000000000E+00  0.14999999963E+04  0.15000000000E+04  0.10566000000E+00 0. -1.
        994   -1    0    0    0    0 -0.00000000000E+00 -0.00000000000E+00  0.11368683772E-12  0.17120000000E+03  0.17120000000E+03 0.  0.
         13    1    1    2    0    0 -0.43040920769E+02  0.14708593028E+01  0.18755647763E+03  0.19243733461E+03  0.10566000000E+00 0. -1.
        994    1    1    2    0    0  0.32848071508E+02 -0.35663285789E+01  0.83182860872E+01  0.17455757900E+03  0.17120000000E+03 0.  0.
        998    1    1    2    0    0  0.10192849261E+02  0.20954692761E+01  0.13041252326E+04  0.13042050864E+04  0.10000000000E+02 0. -1.
</event>
<event>
 5    1  0.1145138E-008  0.3846581E+03  0.7957747E-01  0.3431124E+00
         13   -1    0    0    0    0  0.00000000000E+00  0.00000000000E+00  0.14999999963E+04  0.15000000000E+04  0.10566000000E+00 0.  1.
        994   -1    0    0    0    0 -0.00000000000E+00 -0.00000000000E+00  0.11368683772E-12  0.17120000000E+03  0.17120000000E+03 0.  0.
         13    1    1    2    0    0  0.13735290362E+01  0.12562136480E+02  0.44073531828E+02  0.45849549909E+02  0.10566000000E+00 0.  1.
        994    1    1    2    0    0 -0.20100898556E+01 -0.84950491381E+01  0.20509216783E+01  0.17143468902E+03  0.17120000000E+03 0.  0.
        998    1    1    2    0    0  0.63656081937E+00 -0.40670873419E+01  0.14538755428E+04  0.14539157611E+04  0.10000000000E+02 0.  1.
</event>
<event>
 5    1  0.1145138E-008  0.3737710E+03  0.7957747E-01  0.3478737E+00
         13   -1    0    0    0    0  0.00000000000E+00  0.00000000000E+00  0.14999999963E+04  0.15000000000E+04  0.10566000000E+00 0. -1.
        994   -1    0    0    0    0 -0.00000000000E+00 -0.00000000000E+00  0.11368683772E-12  0.17120000000E+03  0.17120000000E+03 0.  0.
         13    1    1    2    0    0 -0.35069067615E+02 -0.45216227545E+02  0.17931309336E+03  0.18822205862E+03  0.10566000000E+00 0. -1.
        994    1    1    2    0    0  0.53283831336E+02  0.51227575080E+02  0.26195481878E+02  0.18830580023E+03  0.17120000000E+03 0.  0.
        998    1    1    2    0    0 -0.18214763721E+02 -0.60113475352E+01  0.12944914210E+04  0.12946721411E+04  0.10000000000E+02 0. -1.
</event>
<event>
 5    1  0.1145138E-008  0.3703122E+03  0.7957747E-01  0.3494457E+00
         13   -1    0    0    0    0  0.00000000000E+00  0.00000000000E+00  0.14999999963E+04  0.15000000000E+04  0.10566000000E+00 0. -1.
        994   -1    0    0    0    0 -0.00000000000E+00 -0.00000000000E+00  0.11368683772E-12  0.17120000000E+03  0.17120000000E+03 0.  0.
         13    1    1    2    0    0  0.62661206004E+02 -0.34562154549E+02  0.23129726584E+03  0.24211444735E+03  0.10566000000E+00 0. -1.
        994    1    1    2    0    0 -0.63244282548E+02  0.39915834613E+02  0.28680031882E+02  0.18901083926E+03  0.17120000000E+03 0.  0.
        998    1    1    2    0    0  0.58307654333E+00 -0.53536800646E+01  0.12400226986E+04  0.12400747134E+04  0.10000000000E+02 0. -1.
</event>
<event>
 5    1  0.1145138E-008  0.3788620E+03  0.7957747E-01  0.3456129E+00
         13   -1    0    0    0    0  0.00000000000E+00  0.00000000000E+00  0.14999999963E+04  0.15000000000E+04  0.10566000000E+00 0.  1.
        994   -1    0    0    0    0 -0.00000000000E+00 -0.00000000000E+00  0.11368683772E-12  0.17120000000E+03  0.17120000000E+03 0.  0.
         13    1    1    2    0    0 -0.14426641678E+02  0.18223586270E+02  0.57496684540E+02  0.62016989477E+02  0.10566000000E+00 0.  1.
        994    1    1    2    0    0  0.16252749256E+00 -0.76995377488E+01  0.49077491618E+01  0.17144338803E+03  0.17120000000E+03 0.  0.
        998    1    1    2    0    0  0.14264114186E+02 -0.10524048521E+02  0.14375955626E+04  0.14377396225E+04  0.10000000000E+02 0.  1.
</event>
<event>
 5    1  0.1145138E-008  0.3848184E+03  0.7957747E-01  0.3430443E+00
         13   -1    0    0    0    0  0.00000000000E+00  0.00000000000E+00  0.14999999963E+04  0.15000000000E+04  0.10566000000E+00 0. -1.
        994   -1    0    0    0    0 -0.00000000000E+00 -0.00000000000E+00  0.11368683772E-12  0.17120000000E+03  0.17120000000E+03 0.  0.
         13    1    1    2    0    0 -0.59564790764E-01 -0.13297414760E+02  0.50908846597E+02  0.52616980274E+02  0.10566000000E+00 0. -1.
        994    1    1    2    0    0  0.91626400369E+01  0.10148840621E+02  0.23357755069E+01  0.17176102231E+03  0.17120000000E+03 0.  0.
        998    1    1    2    0    0 -0.91030752461E+01  0.31485741387E+01  0.14467553742E+04  0.14468219974E+04  0.10000000000E+02 0. -1.
</event>
<event>
 5    1  0.1145138E-008  0.3803515E+03  0.7957747E-01  0.3449630E+00
         13   -1    0    0    0    0  0.00000000000E+00  0.00000000000E+00  0.14999999963E+04  0.15000000000E+04  0.10566000000E+00 0.  1.
        994   -1    0    0    0    0 -0.00000000000E+00 -0.00000000000E+00  0.11368683772E-12  0.17120000000E+03  0.17120000000E+03 0.  0.
         13    1    1    2    0    0  0.92394055301E+01  0.40236717131E+01  0.11172827630E+02  0.15046587317E+02  0.10566000000E+00 0.  1.
        994    1    1    2    0    0 -0.98416771676E+01  0.11420763669E+02  0.47151335899E+01  0.17192720825E+03  0.17120000000E+03 0.  0.
        998    1    1    2    0    0  0.60227163753E+00 -0.15444435382E+02  0.14841120351E+04  0.14842262044E+04  0.10000000000E+02 0.  1.
</event>
<event>
 5    1  0.1145138E-008  0.3847898E+03  0.7957747E-01  0.3430564E+00
         13   -1    0    0    0    0  0.00000000000E+00  0.00000000000E+00  0.14999999963E+04  0.15000000000E+04  0.10566000000E+00 0. -1.
        994   -1    0    0    0    0 -0.00000000000E+00 -0.00000000000E+00  0.11368683772E-12  0.17120000000E+03  0.17120000000E+03 0.  0.
         13    1    1    2    0    0  0.97006474362E+01 -0.14940082263E+02  0.86408062844E+02  0.88225127414E+02  0.10566000000E+00 0. -1.
        994    1    1    2    0    0 -0.80759101062E+01  0.17967473617E+02  0.30126202760E+01  0.17235592915E+03  0.17120000000E+03 0.  0.
        998    1    1    2    0    0 -0.16247373299E+01 -0.30273913534E+01  0.14105793132E+04  0.14106189434E+04  0.10000000000E+02 0. -1.
</event>
<event>
 5    1  0.1145138E-008  0.3760208E+03  0.7957747E-01  0.3468670E+00
         13   -1    0    0    0    0  0.00000000000E+00  0.00000000000E+00  0.14999999963E+04  0.15000000000E+04  0.10566000000E+00 0. -1.
        994   -1    0    0    0    0 -0.00000000000E+00 -0.00000000000E+00  0.11368683772E-12  0.17120000000E+03  0.17120000000E+03 0.  0.
         13    1    1    2    0    0  0.51535963597E+01  0.14807287485E+02  0.17439767219E+02  0.23451481036E+02  0.10566000000E+00 0. -1.
        994    1    1    2    0    0  0.10534904029E+01 -0.86763424926E+01  0.64142781349E+01  0.17154291511E+03  0.17120000000E+03 0.  0.
        998    1    1    2    0    0 -0.62070867626E+01 -0.61309449922E+01  0.14761459509E+04  0.14762056039E+04  0.10000000000E+02 0. -1.
</event>
<event>
 5    1  0.1145138E-008  0.3822611E+03  0.7957747E-01  0.3441372E+00
         13   -1    0    0    0    0  0.00000000000E+00  0.00000000000E+00  0.14999999963E+04  0.15000000000E+04  0.10566000000E+00 0. -1.
        994   -1    0    0    0    0 -0.00000000000E+00 -0.00000000000E+00  0.11368683772E-12  0.17120000000E+03  0.17120000000E+03 0.  0.
         13    1    1    2    0    0  0.42440117636E+01 -0.11006684424E+02  0.22063814165E+02  0.25019628242E+02  0.10566000000E+00 0. -1.
        994    1    1    2    0    0 -0.66598420229E+00  0.87150951150E+01  0.32496098179E+01  0.17145377331E+03  0.17120000000E+03 0.  0.
        998    1    1    2    0    0 -0.35780275613E+01  0.22915893087E+01  0.14746865723E+04  0.14747265984E+04  0.10000000000E+02 0. -1.
</event>
<event>
 5    1  0.1145138E-008  0.3840737E+03  0.7957747E-01  0.3433610E+00
         13   -1    0    0    0    0  0.00000000000E+00  0.00000000000E+00  0.14999999963E+04  0.15000000000E+04  0.10566000000E+00 0.  1.
        994   -1    0    0    0    0 -0.00000000000E+00 -0.00000000000E+00  0.11368683772E-12  0.17120000000E+03  0.17120000000E+03 0.  0.
         13    1    1    2    0    0  0.87959556058E+01 -0.17432871218E+02  0.85531993043E+02  0.87732587058E+02  0.10566000000E+00 0.  1.
        994    1    1    2    0    0 -0.11463661305E+02  0.18564428399E+02  0.36626092929E+01  0.17262360279E+03  0.17120000000E+03 0.  0.
        998    1    1    2    0    0  0.26677056989E+01 -0.11315571812E+01  0.14108053939E+04  0.14108438102E+04  0.10000000000E+02 0.  1.
</event>
<event>
 5    1  0.1145138E-008  0.3829389E+03  0.7957747E-01  0.3438461E+00
         13   -1    0    0    0    0  0.00000000000E+00  0.00000000000E+00  0.14999999963E+04  0.15000000000E+04  0.10566000000E+00 0. -1.
        994   -1    0    0    0    0 -0.00000000000E+00 -0.00000000000E+00  0.11368683772E-12  0.17120000000E+03  0.17120000000E+03 0.  0.
         13    1    1    2    0    0 -0.29770817506E+02 -0.11024561693E+02  0.16765141886E+03  0.17063074737E+03  0.10566000000E+00 0. -1.
        994    1    1    2    0    0  0.28690398586E+02  0.19371156342E+02  0.66345960060E+01  0.17479084225E+03  0.17120000000E+03 0.  0.
        998    1    1    2    0    0  0.10804189205E+01 -0.83465946490E+01  0.13257139814E+04  0.13257784104E+04  0.10000000000E+02 0. -1.
</event>
<event>
 5    1  0.1145138E-008  0.3728040E+03  0.7957747E-01  0.3483103E+00
         13   -1    0    0    0    0  0.00000000000E+00  0.00000000000E+00  0.14999999963E+04  0.15000000000E+04  0.10566000000E+00 0.  1.
        994   -1    0    0    0    0 -0.00000000000E+00 -0.00000000000E+00  0.11368683772E-12  0.17120000000E+03  0.17120000000E+03 0.  0.
         13    1    1    2    0    0  0.29937213661E+01 -0.17037606701E+02  0.64177062636E+01  0.18451030525E+02  0.10566000000E+00 0.  1.
        994    1    1    2    0    0 -0.27804115574E+01  0.15458665982E+02  0.13300694020E+02  0.17243273907E+03  0.17120000000E+03 0.  0.
        998    1    1    2    0    0 -0.21330980872E+00  0.15789407188E+01  0.14802815960E+04  0.14803162304E+04  0.10000000000E+02 0.  1.
</event>
<event>
 5    1  0.1145138E-008  0.3825987E+03  0.7957747E-01  0.3439921E+00
         13   -1    0    0    0    0  0.00000000000E+00  0.00000000000E+00  0.14999999963E+04  0.15000000000E+04  0.10566000000E+00 0. -1.
        994   -1    0    0    0    0 -0.00000000000E+00 -0.00000000000E+00  0.11368683772E-12  0.17120000000E+03  0.17120000000E+03 0.  0.
         13    1    1    2    0    0 -0.95745454597E+01 -0.47186843425E+01  0.18869539703E+02  0.21679681624E+02  0.10566000000E+00 0. -1.
        994    1    1    2    0    0  0.92204416419E+01  0.59159028126E+01  0.32249584162E+01  0.17158046161E+03  0.17120000000E+03 0.  0.
        998    1    1    2    0    0  0.35410381781E+00 -0.11972184701E+01  0.14779054982E+04  0.14779398568E+04  0.10000000000E+02 0. -1.
</event>
<event>
 5    1  0.1145138E-008  0.3846102E+03  0.7957747E-01  0.3431327E+00
         13   -1    0    0    0    0  0.00000000000E+00  0.00000000000E+00  0.14999999963E+04  0.15000000000E+04  0.10566000000E+00 0.  1.
        994   -1    0    0    0    0 -0.00000000000E+00 -0.00000000000E+00  0.11368683772E-12  0.17120000000E+03  0.17120000000E+03 0.  0.
         13    1    1    2    0    0  0.10129279859E+02 -0.11536921993E+02  0.65564086338E+02  0.67337682325E+02  0.10566000000E+00 0.  1.
        994    1    1    2    0    0 -0.37085149577E+01  0.63450281652E+01  0.20016605831E+01  0.17136936456E+03  0.17120000000E+03 0.  0.
        998    1    1    2    0    0 -0.64207649013E+01  0.51918938273E+01  0.14324342494E+04  0.14324929531E+04  0.10000000000E+02 0.  1.
</event>
<event>
 5    1  0.1145138E-008  0.3855107E+03  0.7957747E-01  0.3427509E+00
         13   -1    0    0    0    0  0.00000000000E+00  0.00000000000E+00  0.14999999963E+04  0.15000000000E+04  0.10566000000E+00 0. -1.
        994   -1    0    0    0    0 -0.00000000000E+00 -0.00000000000E+00  0.11368683772E-12  0.17120000000E+03  0.17120000000E+03 0.  0.
         13    1    1    2    0    0  0.55575902583E+01 -0.12958201520E+02  0.70164169053E+02  0.71566916791E+02  0.10566000000E+00 0. -1.
        994    1    1    2    0    0 -0.72435220046E+01  0.12195261613E+02  0.20376374485E+01  0.17179867573E+03  0.17120000000E+03 0.  0.
        998    1    1    2    0    0  0.16859317463E+01  0.76293990709E+00  0.14277981898E+04  0.14278344075E+04  0.10000000000E+02 0. -1.
</event>
<event>
 5    1  0.1145138E-008  0.3848859E+03  0.7957747E-01  0.3430156E+00
         13   -1    0    0    0    0  0.00000000000E+00  0.00000000000E+00  0.14999999963E+04  0.15000000000E+04  0.10566000000E+00 0.  1.
        994   -1    0    0    0    0 -0.00000000000E+00 -0.00000000000E+00  0.11368683772E-12  0.17120000000E+03  0.17120000000E+03 0.  0.
         13    1    1    2    0    0 -0.15555808939E+02  0.70025388384E+01  0.88489139207E+02  0.90118575574E+02  0.10566000000E+00 0.  1.
        994    1    1    2    0    0  0.18033444818E+02  0.19495123236E+02  0.40104687285E+01  0.17329393764E+03  0.17120000000E+03 0.  0.
        998    1    1    2    0    0 -0.24776358789E+01 -0.26497662075E+02  0.14075003883E+04  0.14077874868E+04  0.10000000000E+02 0.  1.
</event>
<event>
 5    1  0.1192455E-008  0.3860306E+03  0.7957747E-01  0.3425313E+00
         13   -1    0    0    0    0  0.00000000000E+00  0.00000000000E+00  0.14999999963E+04  0.15000000000E+04  0.10566000000E+00 0. -1.
        994   -1    0    0    0    0 -0.00000000000E+00 -0.00000000000E+00  0.11368683772E-12  0.17120000000E+03  0.17120000000E+03 0.  0.
         13    1    1    2    0    0  0.79614521546E+01 -0.10414004619E+02  0.73560058744E+02  0.74719004403E+02  0.10566000000E+00 0. -1.
        994    1    1    2    0    0 -0.10154585076E+02  0.11701665491E+02  0.19065181745E+01  0.17191020733E+03  0.17120000000E+03 0.  0.
        998    1    1    2    0    0  0.21931329214E+01 -0.12876608720E+01  0.14245334194E+04  0.14245707883E+04  0.10000000000E+02 0. -1.
</event>
<event>
 5    1  0.1145138E-008  0.3762530E+03  0.7957747E-01  0.3467638E+00
         13   -1    0    0    0    0  0.00000000000E+00  0.00000000000E+00  0.14999999963E+04  0.15000000000E+04  0.10566000000E+00 0. -1.
        994   -1    0    0    0    0 -0.00000000000E+00 -0.00000000000E+00  0.11368683772E-12  0.17120000000E+03  0.17120000000E+03 0.  0.
         13    1    1    2    0    0  0.29079612211E+02  0.24005141865E+01  0.75325179358E+02  0.80779206013E+02  0.10566000000E+00 0. -1.
        994    1    1    2    0    0  0.76555489645E+01 -0.10010978584E+02  0.65744949745E+01  0.17178908902E+03  0.17120000000E+03 0.  0.
        998    1    1    2    0    0 -0.36735161175E+02  0.76104643974E+01  0.14181003219E+04  0.14186317050E+04  0.10000000000E+02 0. -1.
</event>
<event>
 5    1  0.1145138E-008  0.3826854E+03  0.7957747E-01  0.3439548E+00
         13   -1    0    0    0    0  0.00000000000E+00  0.00000000000E+00  0.14999999963E+04  0.15000000000E+04  0.10566000000E+00 0.  1.
        994   -1    0    0    0    0 -0.00000000000E+00 -0.00000000000E+00  0.11368683772E-12  0.17120000000E+03  0.17120000000E+03 0.  0.
         13    1    1    2    0    0  0.13619169632E+02  0.89367476298E+01  0.50071951350E+02  0.52655092021E+02  0.10566000000E+00 0.  1.
        994    1    1    2    0    0  0.80057484258E+01 -0.39148673533E+01  0.30468588789E+01  0.17145886254E+03  0.17120000000E+03 0.  0.
        998    1    1    2    0    0 -0.21624918058E+02 -0.50218802765E+01  0.14468811860E+04  0.14470860454E+04  0.10000000000E+02 0.  1.
</event>
<event>
 5    1  0.1145138E-008  0.3684345E+03  0.7957747E-01  0.3503117E+00
         13   -1    0    0    0    0  0.00000000000E+00  0.00000000000E+00  0.14999999963E+04  0.15000000000E+04  0.10566000000E+00 0. -1.
        994   -1    0    0    0    0 -0.00000000000E+00 -0.00000000000E+00  0.11368683772E-12  0.17120000000E+03  0.17120000000E+03 0.  0.
         13    1    1    2    0    0  0.49967809772E+01  0.14682995996E+02  0.71958908719E+01  0.17098251403E+02  0.10566000000E+00 0. -1.
        994    1    1    2    0    0 -0.65593999191E+01 -0.17517341117E+02  0.11330806701E+02  0.17259116474E+03  0.17120000000E+03 0.  0.
        998    1    1    2    0    0  0.15626189418E+01  0.28343451208E+01  0.14814732987E+04  0.14815105839E+04  0.10000000000E+02 0. -1.
</event>
<event>
 5    1  0.1145138E-008  0.3801804E+03  0.7957747E-01  0.3450373E+00
         13   -1    0    0    0    0  0.00000000000E+00  0.00000000000E+00  0.14999999963E+04  0.15000000000E+04  0.10566000000E+00 0.  1.
        994   -1    0    0    0    0 -0.00000000000E+00 -0.00000000000E+00  0.11368683772E-12  0.17120000000E+03  0.17120000000E+03 0.  0.
         13    1    1    2    0    0  0.30004995158E+02  0.62669929476E+01  0.11144499749E+03  0.11558362152E+03  0.10566000000E+00 0.  1.
        994    1    1    2    0    0 -0.28819964796E+02  0.18373864282E+02  0.79547870279E+01  0.17475957169E+03  0.17120000000E+03 0.  0.
        998    1    1    2    0    0 -0.11850303618E+01 -0.24640857229E+02  0.13806002118E+04  0.13808568068E+04  0.10000000000E+02 0.  1.
</event>
<event>
 5    1  0.1145138E-008  0.4296855E+03  0.7957747E-01  0.3259773E+00
         13   -1    0    0    0    0  0.00000000000E+00  0.00000000000E+00  0.14999999963E+04  0.15000000000E+04  0.10566000000E+00 0. -1.
        994   -1    0    0    0    0 -0.00000000000E+00 -0.00000000000E+00  0.11368683772E-12  0.17120000000E+03  0.17120000000E+03 0.  0.
         13    1    1    2    0    0  0.10318846885E+01  0.13017523516E+03  0.14748525265E+03  0.19671951492E+03  0.10566000000E+00 0. -1.
        994    1    1    2    0    0 -0.18368802919E+01 -0.13294000270E+03  0.13172845907E+03  0.25364984797E+03  0.17120000000E+03 0.  0.
        998    1    1    2    0    0  0.80499560342E+00  0.27647675437E+01  0.12207862846E+04  0.12208306371E+04  0.10000000000E+02 0. -1.
</event>
<event>
 5    1  0.1145138E-008  0.3838489E+03  0.7957747E-01  0.3434569E+00
         13   -1    0    0    0    0  0.00000000000E+00  0.00000000000E+00  0.14999999963E+04  0.15000000000E+04  0.10566000000E+00 0. -1.
        994   -1    0    0    0    0 -0.00000000000E+00 -0.00000000000E+00  0.11368683772E-12  0.17120000000E+03  0.17120000000E+03 0.  0.
         13    1    1    2    0    0  0.67645962179E+01 -0.11005842023E+02  0.35831945277E+02  0.38089733354E+02  0.10566000000E+00 0. -1.
        994    1    1    2    0    0 -0.63442844103E+01  0.17597675599E+02  0.33586456550E+01  0.17225170139E+03  0.17120000000E+03 0.  0.
        998    1    1    2    0    0 -0.42031180752E+00 -0.65918335759E+01  0.14608094053E+04  0.14608585653E+04  0.10000000000E+02 0. -1.
</event>
<event>
 5    1  0.1145138E-008  0.3831971E+03  0.7957747E-01  0.3437355E+00
         13   -1    0    0    0    0  0.00000000000E+00  0.00000000000E+00  0.14999999963E+04  0.15000000000E+04  0.10566000000E+00 0. -1.
        994   -1    0    0    0    0 -0.00000000000E+00 -0.00000000000E+00  0.11368683772E-12  0.17120000000E+03  0.17120000000E+03 0.  0.
         13    1    1    2    0    0 -0.10086699180E+02 -0.58239254054E+01  0.26279714598E+02  0.28745333027E+02  0.10566000000E+00 0. -1.
        994    1    1    2    0    0  0.76079642819E+00  0.79122712155E+01  0.27369316250E+01  0.17140628239E+03  0.17120000000E+03 0.  0.
        998    1    1    2    0    0  0.93259027520E+01 -0.20883458100E+01  0.14709833501E+04  0.14710483846E+04  0.10000000000E+02 0. -1.
</event>
<event>
 5    1  0.1145138E-008  0.3975464E+03  0.7957747E-01  0.3378144E+00
         13   -1    0    0    0    0  0.00000000000E+00  0.00000000000E+00  0.14999999963E+04  0.15000000000E+04  0.10566000000E+00 0. -1.
        994   -1    0    0    0    0 -0.00000000000E+00 -0.00000000000E+00  0.11368683772E-12  0.17120000000E+03  0.17120000000E+03 0.  0.
         13    1    1    2    0    0 -0.70656043930E+02 -0.70331293367E+02  0.15717146426E+03  0.18612266846E+03  0.10566000000E+00 0. -1.
        994    1    1    2    0    0  0.49269067767E+02  0.10138981109E+03  0.77490802509E+02  0.21913831090E+03  0.17120000000E+03 0.  0.
        998    1    1    2    0    0  0.21386976163E+02 -0.31058517723E+02  0.12653377295E+04  0.12659390206E+04  0.10000000000E+02 0. -1.
</event>
<event>
 5    1  0.1145138E-008  0.3825034E+03  0.7957747E-01  0.3440330E+00
         13   -1    0    0    0    0  0.00000000000E+00  0.00000000000E+00  0.14999999963E+04  0.15000000000E+04  0.10566000000E+00 0.  1.
        994   -1    0    0    0    0 -0.00000000000E+00 -0.00000000000E+00  0.11368683772E-12  0.17120000000E+03  0.17120000000E+03 0.  0.
         13    1    1    2    0    0  0.12597250270E+02 -0.29565035654E+01  0.27772338702E+02  0.30638955412E+02  0.10566000000E+00 0.  1.
        994    1    1    2    0    0 -0.11538700725E+02  0.40629477901E+01  0.33710555011E+01  0.17166960469E+03  0.17120000000E+03 0.  0.
        998    1    1    2    0    0 -0.10585495449E+01 -0.11064442248E+01  0.14688566021E+04  0.14688914399E+04  0.10000000000E+02 0.  1.
</event>
<event>
 5    1  0.1145138E-008  0.3769369E+03  0.7957747E-01  0.3464605E+00
         13   -1    0    0    0    0  0.00000000000E+00  0.00000000000E+00  0.14999999963E+04  0.15000000000E+04  0.10566000000E+00 0. -1.
        994   -1    0    0    0    0 -0.00000000000E+00 -0.00000000000E+00  0.11368683772E-12  0.17120000000E+03  0.17120000000E+03 0.  0.
         13    1    1    2    0    0 -0.26731294987E+02  0.43166177785E+02  0.26499030308E+03  0.26981058713E+03  0.10566000000E+00 0. -1.
        994    1    1    2    0    0 -0.34661187932E+01 -0.11405180808E+02  0.61674532963E+01  0.17172527365E+03  0.17120000000E+03 0.  0.
        998    1    1    2    0    0  0.30197413780E+02 -0.31760996976E+02  0.12288422399E+04  0.12296641392E+04  0.10000000000E+02 0. -1.
</event>
<event>
 5    1  0.1145138E-008  0.3820712E+03  0.7957747E-01  0.3442189E+00
         13   -1    0    0    0    0  0.00000000000E+00  0.00000000000E+00  0.14999999963E+04  0.15000000000E+04  0.10566000000E+00 0. -1.
        994   -1    0    0    0    0 -0.00000000000E+00 -0.00000000000E+00  0.11368683772E-12  0.17120000000E+03  0.17120000000E+03 0.  0.
         13    1    1    2    0    0  0.90200395995E+00 -0.42841490571E+02  0.24728012120E+03  0.25096548852E+03  0.10566000000E+00 0. -1.
        994    1    1    2    0    0  0.18232736230E+01  0.44116803050E+02  0.95915131855E+01  0.17706228781E+03  0.17120000000E+03 0.  0.
        998    1    1    2    0    0 -0.27252775830E+01 -0.12753124795E+01  0.12431283619E+04  0.12431722237E+04  0.10000000000E+02 0. -1.
</event>
<event>
 5    1  0.1145138E-008  0.3700084E+03  0.7957747E-01  0.3495852E+00
         13   -1    0    0    0    0  0.00000000000E+00  0.00000000000E+00  0.14999999963E+04  0.15000000000E+04  0.10566000000E+00 0.  1.
        994   -1    0    0    0    0 -0.00000000000E+00 -0.00000000000E+00  0.11368683772E-12  0.17120000000E+03  0.17120000000E+03 0.  0.
         13    1    1    2    0    0 -0.34486892662E+02  0.16714351808E+03  0.71758182324E+03  0.73759744143E+03  0.10566000000E+00 0.  1.
        994    1    1    2    0    0  0.21170024891E+02 -0.15772349016E+03  0.10555436945E+03  0.25646838833E+03  0.17120000000E+03 0.  0.
        998    1    1    2    0    0  0.13316867772E+02 -0.94200279261E+01  0.67686380359E+03  0.67713417024E+03  0.10000000000E+02 0.  1.
</event>
<event>
 5    1  0.1145138E-008  0.3857310E+03  0.7957747E-01  0.3426578E+00
         13   -1    0    0    0    0  0.00000000000E+00  0.00000000000E+00  0.14999999963E+04  0.15000000000E+04  0.10566000000E+00 0.  1.
        994   -1    0    0    0    0 -0.00000000000E+00 -0.00000000000E+00  0.11368683772E-12  0.17120000000E+03  0.17120000000E+03 0.  0.
         13    1    1    2    0    0 -0.11699446811E+02  0.93418833511E+01  0.86825429801E+02  0.88106834379E+02  0.10566000000E+00 0.  1.
        994    1    1    2    0    0  0.41012545272E+01 -0.15719795407E+02  0.21340488210E+01  0.17198234334E+03  0.17120000000E+03 0.  0.
        998    1    1    2    0    0  0.75981922837E+01  0.63779120563E+01  0.14110405177E+04  0.14111108223E+04  0.10000000000E+02 0.  1.
</event>
<event>
 5    1  0.1145138E-008  0.3848675E+03  0.7957747E-01  0.3430234E+00
         13   -1    0    0    0    0  0.00000000000E+00  0.00000000000E+00  0.14999999963E+04  0.15000000000E+04  0.10566000000E+00 0.  1.
        994   -1    0    0    0    0 -0.00000000000E+00 -0.00000000000E+00  0.11368683772E-12  0.17120000000E+03  0.17120000000E+03 0.  0.
         13    1    1    2    0    0  0.14427451313E+02 -0.23612467715E+01  0.69616595127E+02  0.71135141237E+02  0.10566000000E+00 0.  1.
        994    1    1    2    0    0  0.93024893936E+01  0.28052416579E+02  0.45749999337E+01  0.17379253439E+03  0.17120000000E+03 0.  0.
        998    1    1    2    0    0 -0.23729940706E+02 -0.25691169808E+02  0.14258084012E+04  0.14262723244E+04  0.10000000000E+02 0.  1.
</event>
<event>
 5    1  0.1145138E-008  0.3808025E+03  0.7957747E-01  0.3447672E+00
         13   -1    0    0    0    0  0.00000000000E+00  0.00000000000E+00  0.14999999963E+04  0.15000000000E+04  0.10566000000E+00 0. -1.
        994   -1    0    0    0    0 -0.00000000000E+00 -0.00000000000E+00  0.11368683772E-12  0.17120000000E+03  0.17120000000E+03 0.  0.
         13    1    1    2    0    0 -0.13052358321E+02  0.15672265823E+02  0.56353763157E+02  0.59931141820E+02  0.10566000000E+00 0. -1.
        994    1    1    2    0    0 -0.65856542828E+01 -0.11882413017E+02  0.43441801578E+01  0.17179311535E+03  0.17120000000E+03 0.  0.
        998    1    1    2    0    0  0.19638012604E+02 -0.37898528064E+01  0.14393020530E+04  0.14394757428E+04  0.10000000000E+02 0. -1.
</event>
<event>
 5    1  0.1145138E-008  0.3841201E+03  0.7957747E-01  0.3433413E+00
         13   -1    0    0    0    0  0.00000000000E+00  0.00000000000E+00  0.14999999963E+04  0.15000000000E+04  0.10566000000E+00 0. -1.
        994   -1    0    0    0    0 -0.00000000000E+00 -0.00000000000E+00  0.11368683772E-12  0.17120000000E+03  0.17120000000E+03 0.  0.
         13    1    1    2    0    0  0.56239498213E+01 -0.16372057640E+02  0.79649717984E+02  0.81509274453E+02  0.10566000000E+00 0. -1.
        994    1    1    2    0    0 -0.86239034706E+01 -0.75306762829E+01  0.25000732616E+01  0.17160062110E+03  0.17120000000E+03 0.  0.
        998    1    1    2    0    0  0.29999536493E+01  0.23902733923E+02  0.14178502050E+04  0.14180901044E+04  0.10000000000E+02 0. -1.
</event>
<event>
 5    1  0.1145138E-008  0.3828238E+03  0.7957747E-01  0.3438955E+00
         13   -1    0    0    0    0  0.00000000000E+00  0.00000000000E+00  0.14999999963E+04  0.15000000000E+04  0.10566000000E+00 0. -1.
        994   -1    0    0    0    0 -0.00000000000E+00 -0.00000000000E+00  0.11368683772E-12  0.17120000000E+03  0.17120000000E+03 0.  0.
         13    1    1    2    0    0 -0.15539153453E+02 -0.29026883053E+01  0.45999049871E+02  0.48639640650E+02  0.10566000000E+00 0. -1.
        994    1    1    2    0    0  0.56274987135E+01  0.40905628258E+01  0.28747937429E+01  0.17136541625E+03  0.17120000000E+03 0.  0.
        998    1    1    2    0    0  0.99116547395E+01 -0.11878745205E+01  0.14511261527E+04  0.14511949431E+04  0.10000000000E+02 0. -1.
</event>
<event>
 5    1  0.1145138E-008  0.3774221E+03  0.7957747E-01  0.3462461E+00
         13   -1    0    0    0    0  0.00000000000E+00  0.00000000000E+00  0.14999999963E+04  0.15000000000E+04  0.10566000000E+00 0.  1.
        994   -1    0    0    0    0 -0.00000000000E+00 -0.00000000000E+00  0.11368683772E-12  0.17120000000E+03  0.17120000000E+03 0.  0.
         13    1    1    2    0    0  0.34571899949E+02 -0.56222287562E+01  0.10373007745E+03  0.10948408950E+03  0.10566000000E+00 0.  1.
        994    1    1    2    0    0 -0.34374949316E+02  0.98172639264E+01  0.97613212134E+01  0.17516489147E+03  0.17120000000E+03 0.  0.
        998    1    1    2    0    0 -0.19695063291E+00 -0.41950351702E+01  0.13865085976E+04  0.13865510190E+04  0.10000000000E+02 0.  1.
</event>
<event>
 5    1  0.1145138E-008  0.3821506E+03  0.7957747E-01  0.3441848E+00
         13   -1    0    0    0    0  0.00000000000E+00  0.00000000000E+00  0.14999999963E+04  0.15000000000E+04  0.10566000000E+00 0.  1.
        994   -1    0    0    0    0 -0.00000000000E+00 -0.00000000000E+00  0.11368683772E-12  0.17120000000E+03  0.17120000000E+03 0.  0.
         13    1    1    2    0    0 -0.17974673221E+02 -0.62614996413E+01  0.55230516307E+02  0.58418458990E+02  0.10566000000E+00 0.  1.
        994    1    1    2    0    0  0.25289107704E+02  0.29625608525E+01  0.52064097789E+01  0.17316137687E+03  0.17120000000E+03 0.  0.
        998    1    1    2    0    0 -0.73144344834E+01  0.32989387888E+01  0.14395630702E+04  0.14396201641E+04  0.10000000000E+02 0.  1.
</event>
<event>
 5    1  0.1145138E-008  0.3785183E+03  0.7957747E-01  0.3457636E+00
         13   -1    0    0    0    0  0.00000000000E+00  0.00000000000E+00  0.14999999963E+04  0.15000000000E+04  0.10566000000E+00 0.  1.
        994   -1    0    0    0    0 -0.00000000000E+00 -0.00000000000E+00  0.11368683772E-12  0.17120000000E+03  0.17120000000E+03 0.  0.
         13    1    1    2    0    0  0.18222161351E+01 -0.15016772038E+02  0.21924801466E+02  0.26637041830E+02  0.10566000000E+00 0.  1.
        994    1    1    2    0    0  0.57448457816E+01  0.17079815074E+01  0.50036678632E+01  0.17137793658E+03  0.17120000000E+03 0.  0.
        998    1    1    2    0    0 -0.75670619167E+01  0.13308790531E+02  0.14730715269E+04  0.14731850216E+04  0.10000000000E+02 0.  1.
</event>
<event>
 5    1  0.1145138E-008  0.4035738E+03  0.7957747E-01  0.3354526E+00
         13   -1    0    0    0    0  0.00000000000E+00  0.00000000000E+00  0.14999999963E+04  0.15000000000E+04  0.10566000000E+00 0.  1.
        994   -1    0    0    0    0 -0.00000000000E+00 -0.00000000000E+00  0.11368683772E-12  0.17120000000E+03  0.17120000000E+03 0.  0.
         13    1    1    2    0    0  0.14509839458E+03  0.19598531267E+02  0.20253026362E+03  0.24991231539E+03  0.10566000000E+00 0.  1.
        994    1    1    2    0    0 -0.18883757642E+03 -0.13583205050E+03  0.30136433037E+03  0.41742050241E+03  0.17120000000E+03 0.  0.
        998    1    1    2    0    0  0.43739181841E+02  0.11623351923E+03  0.99610540230E+03  0.10038671822E+04  0.10000000000E+02 0.  1.
</event>
<event>
 5    1  0.1145138E-008  0.3859241E+03  0.7957747E-01  0.3425762E+00
         13   -1    0    0    0    0  0.00000000000E+00  0.00000000000E+00  0.14999999963E+04  0.15000000000E+04  0.10566000000E+00 0. -1.
        994   -1    0    0    0    0 -0.00000000000E+00 -0.00000000000E+00  0.11368683772E-12  0.17120000000E+03  0.17120000000E+03 0.  0.
         13    1    1    2    0    0 -0.97697907760E+01  0.28913574956E+01  0.44615479519E+02  0.45764188365E+02  0.10566000000E+00 0. -1.
        994    1    1    2    0    0  0.50305723443E+01 -0.89524436279E+01  0.15178752966E+01  0.17151442170E+03  0.17120000000E+03 0.  0.
        998    1    1    2    0    0  0.47392184318E+01  0.60610861322E+01  0.14538666415E+04  0.14539213899E+04  0.10000000000E+02 0. -1.
</event>
<event>
 5    1  0.1145138E-008  0.3791371E+03  0.7957747E-01  0.3454924E+00
         13   -1    0    0    0    0  0.00000000000E+00  0.00000000000E+00  0.14999999963E+04  0.15000000000E+04  0.10566000000E+00 0. -1.
        994   -1    0    0    0    0 -0.00000000000E+00 -0.00000000000E+00  0.11368683772E-12  0.17120000000E+03  0.17120000000E+03 0.  0.
         13    1    1    2    0    0  0.11704432531E+03  0.79563708247E+02  0.48476788138E+03  0.50500462150E+03  0.10566000000E+00 0. -1.
        994    1    1    2    0    0 -0.85234814920E+02 -0.87363576932E+02  0.71849913092E+02  0.22219185012E+03  0.17120000000E+03 0.  0.
        998    1    1    2    0    0 -0.31809510389E+02  0.77998686843E+01  0.94338220181E+03  0.94400352838E+03  0.10000000000E+02 0. -1.
</event>
<event>
 5    1  0.1145138E-008  0.3842887E+03  0.7957747E-01  0.3432695E+00
         13   -1    0    0    0    0  0.00000000000E+00  0.00000000000E+00  0.14999999963E+04  0.15000000000E+04  0.10566000000E+00 0.  1.
        994   -1    0    0    0    0 -0.00000000000E+00 -0.00000000000E+00  0.11368683772E-12  0.17120000000E+03  0.17120000000E+03 0.  0.
         13    1    1    2    0    0  0.17429745821E+02  0.69367809021E+00  0.74839942651E+02  0.76845984988E+02  0.10566000000E+00 0.  1.
        994    1    1    2    0    0 -0.14437058546E+02 -0.43584444505E+01  0.27337230028E+01  0.17188466464E+03  0.17120000000E+03 0.  0.
        998    1    1    2    0    0 -0.29926872753E+01  0.36647663603E+01  0.14224263306E+04  0.14224693504E+04  0.10000000000E+02 0.  1.
</event>
<event>
 5    1  0.1145138E-008  0.3817420E+03  0.7957747E-01  0.3443609E+00
         13   -1    0    0    0    0  0.00000000000E+00  0.00000000000E+00  0.14999999963E+04  0.15000000000E+04  0.10566000000E+00 0. -1.
        994   -1    0    0    0    0 -0.00000000000E+00 -0.00000000000E+00  0.11368683772E-12  0.17120000000E+03  0.17120000000E+03 0.  0.
         13    1    1    2    0    0 -0.11775568696E+02  0.27624849964E+01  0.20958310513E+02  0.24198290953E+02  0.10566000000E+00 0. -1.
        994    1    1    2    0    0  0.12276747545E+02  0.11933173349E+00  0.37575529388E+01  0.17168078511E+03  0.17120000000E+03 0.  0.
        998    1    1    2    0    0 -0.50117884882E+00 -0.28818167298E+01  0.14752841328E+04  0.14753209239E+04  0.10000000000E+02 0. -1.
</event>
<event>
 5    1  0.1163900E-008  0.3847413E+03  0.7957747E-01  0.3430770E+00
         13   -1    0    0    0    0  0.00000000000E+00  0.00000000000E+00  0.14999999963E+04  0.15000000000E+04  0.10566000000E+00 0.  1.
        994   -1    0    0    0    0 -0.00000000000E+00 -0.00000000000E+00  0.11368683772E-12  0.17120000000E+03  0.17120000000E+03 0.  0.
         13    1    1    2    0    0  0.65636947572E+01 -0.91594996735E+01  0.35977552181E+02  0.37701113353E+02  0.10566000000E+00 0.  1.
        994    1    1    2    0    0 -0.56389899802E+01  0.42260111588E+01  0.19221166771E+01  0.17135574665E+03  0.17120000000E+03 0.  0.
        998    1    1    2    0    0 -0.92470477699E+00  0.49334885147E+01  0.14621003274E+04  0.14621431400E+04  0.10000000000E+02 0.  1.
</event>
<event>
 5    1  0.1145138E-008  0.3796364E+03  0.7957747E-01  0.3452743E+00
         13   -1    0    0    0    0  0.00000000000E+00  0.00000000000E+00  0.14999999963E+04  0.15000000000E+04  0.10566000000E+00 0. -1.
        994   -1    0    0    0    0 -0.00000000000E+00 -0.00000000000E+00  0.11368683772E-12  0.17120000000E+03  0.17120000000E+03 0.  0.
         13    1    1    2    0    0 -0.13289954952E+02  0.18893496921E+02  0.63275668086E+02  0.67360288482E+02  0.10566000000E+00 0. -1.
        994    1    1    2    0    0  0.99164792997E+01  0.36318156320E+01  0.46901690103E+01  0.17158952279E+03  0.17120000000E+03 0.  0.
        998    1    1    2    0    0  0.33734756528E+01 -0.22525312553E+02  0.14320341592E+04  0.14322501887E+04  0.10000000000E+02 0. -1.
</event>
<event>
 5    1  0.1145138E-008  0.3822849E+03  0.7957747E-01  0.3441269E+00
         13   -1    0    0    0    0  0.00000000000E+00  0.00000000000E+00  0.14999999963E+04  0.15000000000E+04  0.10566000000E+00 0.  1.
        994   -1    0    0    0    0 -0.00000000000E+00 -0.00000000000E+00  0.11368683772E-12  0.17120000000E+03  0.17120000000E+03 0.  0.
         13    1    1    2    0    0 -0.47264804725E+01 -0.19124547087E+02  0.62017843625E+02  0.65071591428E+02  0.10566000000E+00 0.  1.
        994    1    1    2    0    0  0.34773740577E+01  0.19315878389E+02  0.42632167356E+01  0.17237404185E+03  0.17120000000E+03 0.  0.
        998    1    1    2    0    0  0.12491064148E+01 -0.19133130219E+00  0.14337189359E+04  0.14337543667E+04  0.10000000000E+02 0.  0.
</event>
<event>
 5    1  0.1145138E-008  0.3789640E+03  0.7957747E-01  0.3455682E+00
         13   -1    0    0    0    0  0.00000000000E+00  0.00000000000E+00  0.14999999963E+04  0.15000000000E+04  0.10566000000E+00 0. -1.
        994   -1    0    0    0    0 -0.00000000000E+00 -0.00000000000E+00  0.11368683772E-12  0.17120000000E+03  0.17120000000E+03 0.  0.
         13    1    1    2    0    0 -0.70225697068E+02  0.82806634768E+02  0.29058422993E+03  0.31020604948E+03  0.10566000000E+00 0. -1.
        994    1    1    2    0    0  0.62807303574E+02 -0.91213749998E+02  0.61486691810E+02  0.21296656742E+03  0.17120000000E+03 0.  0.
        998    1    1    2    0    0  0.74183934940E+01  0.84071152297E+01  0.11479290745E+04  0.11480273831E+04  0.10000000000E+02 0. -1.
</event>
<event>
 5    1  0.1145138E-008  0.3758037E+03  0.7957747E-01  0.3469636E+00
         13   -1    0    0    0    0  0.00000000000E+00  0.00000000000E+00  0.14999999963E+04  0.15000000000E+04  0.10566000000E+00 0.  1.
        994   -1    0    0    0    0 -0.00000000000E+00 -0.00000000000E+00  0.11368683772E-12  0.17120000000E+03  0.17120000000E+03 0.  0.
         13    1    1    2    0    0  0.40054873333E+02 -0.58587088396E+02  0.15649895209E+03  0.17183938132E+03  0.10566000000E+00 0.  1.
        994    1    1    2    0    0 -0.11455580550E+03  0.99015083652E+01  0.62866670790E+02  0.21559854067E+03  0.17120000000E+03 0.  0.
        998    1    1    2    0    0  0.74500932171E+02  0.48685580031E+02  0.12806343734E+04  0.12837620780E+04  0.10000000000E+02 0.  1.
</event>
<event>
 5    1  0.1145138E-008  0.3853339E+03  0.7957747E-01  0.3428257E+00
         13   -1    0    0    0    0  0.00000000000E+00  0.00000000000E+00  0.14999999963E+04  0.15000000000E+04  0.10566000000E+00 0. -1.
        994   -1    0    0    0    0 -0.00000000000E+00 -0.00000000000E+00  0.11368683772E-12  0.17120000000E+03  0.17120000000E+03 0.  0.
         13    1    1    2    0    0  0.29384409995E+01  0.16618638454E+02  0.96821036496E+02  0.98280912958E+02  0.10566000000E+00 0. -1.
        994    1    1    2    0    0  0.35692220984E+01 -0.12645360340E+02  0.20318020400E+01  0.17171549931E+03  0.17120000000E+03 0.  0.
        998    1    1    2    0    0 -0.65076630978E+01 -0.39732781141E+01  0.14011471577E+04  0.14012035877E+04  0.10000000000E+02 0. -1.
</event>
<event>
 5    1  0.1145138E-008  0.3703653E+03  0.7957747E-01  0.3494214E+00
         13   -1    0    0    0    0  0.00000000000E+00  0.00000000000E+00  0.14999999963E+04  0.15000000000E+04  0.10566000000E+00 0. -1.
        994   -1    0    0    0    0 -0.00000000000E+00 -0.00000000000E+00  0.11368683772E-12  0.17120000000E+03  0.17120000000E+03 0.  0.
         13    1    1    2    0    0  0.14072775604E+02 -0.31886575092E+02  0.60637259920E+02  0.69940582918E+02  0.10566000000E+00 0. -1.
        994    1    1    2    0    0 -0.17142316133E+02  0.33601599612E+02  0.14007996952E+02  0.17586526228E+03  0.17120000000E+03 0.  0.
        998    1    1    2    0    0  0.30695405287E+01 -0.17150245197E+01  0.14253547394E+04  0.14253941548E+04  0.10000000000E+02 0. -1.
</event>
<event>
 5    1  0.1145138E-008  0.3830227E+03  0.7957747E-01  0.3438102E+00
         13   -1    0    0    0    0  0.00000000000E+00  0.00000000000E+00  0.14999999963E+04  0.15000000000E+04  0.10566000000E+00 0. -1.
        994   -1    0    0    0    0 -0.00000000000E+00 -0.00000000000E+00  0.11368683772E-12  0.17120000000E+03  0.17120000000E+03 0.  0.
         13    1    1    2    0    0 -0.50348375723E+01  0.29267228863E+02  0.15611943217E+03  0.15891887408E+03  0.10566000000E+00 0. -1.
        994    1    1    2    0    0 -0.68536989148E+01 -0.28645264588E+02  0.54917047431E+01  0.17380196545E+03  0.17120000000E+03 0.  0.
        998    1    1    2    0    0  0.11888536487E+02 -0.62196427468E+00  0.13383888594E+04  0.13384791605E+04  0.10000000000E+02 0. -1.
</event>
<event>
 5    1  0.1145138E-008  0.3840957E+03  0.7957747E-01  0.3433516E+00
         13   -1    0    0    0    0  0.00000000000E+00  0.00000000000E+00  0.14999999963E+04  0.15000000000E+04  0.10566000000E+00 0. -1.
        994   -1    0    0    0    0 -0.00000000000E+00 -0.00000000000E+00  0.11368683772E-12  0.17120000000E+03  0.17120000000E+03 0.  0.
         13    1    1    2    0    0  0.26959726093E+02  0.16811330456E+01  0.16237402521E+03  0.16460555357E+03  0.10566000000E+00 0. -1.
        994    1    1    2    0    0 -0.25410276253E+02  0.91626850418E+01  0.44900300445E+01  0.17337599980E+03  0.17120000000E+03 0.  0.
        998    1    1    2    0    0 -0.15494498402E+01 -0.10843818087E+02  0.13331359410E+04  0.13332184466E+04  0.10000000000E+02 0. -1.
</event>
<event>
 5    1  0.1145138E-008  0.3769190E+03  0.7957747E-01  0.3464685E+00
         13   -1    0    0    0    0  0.00000000000E+00  0.00000000000E+00  0.14999999963E+04  0.15000000000E+04  0.10566000000E+00 0.  1.
        994   -1    0    0    0    0 -0.00000000000E+00 -0.00000000000E+00  0.11368683772E-12  0.17120000000E+03  0.17120000000E+03 0.  0.
         13    1    1    2    0    0  0.35563422170E+01 -0.22592776432E+02  0.47097607196E+02  0.52357204705E+02  0.10566000000E+00 0.  1.
        994    1    1    2    0    0  0.34148108951E+01 -0.75968219168E+01  0.59309003664E+01  0.17150506761E+03  0.17120000000E+03 0.  0.
        998    1    1    2    0    0 -0.69711531121E+01  0.30189598349E+02  0.14469714887E+04  0.14473377277E+04  0.10000000000E+02 0.  1.
</event>
<event>
 5    1  0.1145138E-008  0.3835921E+03  0.7957747E-01  0.3435665E+00
         13   -1    0    0    0    0  0.00000000000E+00  0.00000000000E+00  0.14999999963E+04  0.15000000000E+04  0.10566000000E+00 0. -1.
        994   -1    0    0    0    0 -0.00000000000E+00 -0.00000000000E+00  0.11368683772E-12  0.17120000000E+03  0.17120000000E+03 0.  0.
         13    1    1    2    0    0  0.18088440311E+02 -0.83619720542E+01  0.87183471407E+02  0.89432002662E+02  0.10566000000E+00 0. -1.
        994    1    1    2    0    0 -0.76165688547E+01  0.22250462792E+01  0.25388021342E+01  0.17140259178E+03  0.17120000000E+03 0.  0.
        998    1    1    2    0    0 -0.10471871457E+02  0.61369257750E+01  0.14102777227E+04  0.14103654056E+04  0.10000000000E+02 0. -1.
</event>
<event>
 5    1  0.1145138E-008  0.3870722E+03  0.7957747E-01  0.3420931E+00
         13   -1    0    0    0    0  0.00000000000E+00  0.00000000000E+00  0.14999999963E+04  0.15000000000E+04  0.10566000000E+00 0.  1.
        994   -1    0    0    0    0 -0.00000000000E+00 -0.00000000000E+00  0.11368683772E-12  0.17120000000E+03  0.17120000000E+03 0.  0.
         13    1    1    2    0    0  0.86376958825E+02 -0.48066181723E+02  0.26135990951E+03  0.27942861397E+03  0.10566000000E+00 0.  1.
        994    1    1    2    0    0 -0.45156788183E+02 -0.22393693711E+01  0.27911214936E+02  0.17925575643E+03  0.17120000000E+03 0.  0.
        998    1    1    2    0    0 -0.41220170641E+02  0.50305551094E+02  0.12107288718E+04  0.12125156296E+04  0.10000000000E+02 0.  1.
</event>
<event>
 5    1  0.1145138E-008  0.3724499E+03  0.7957747E-01  0.3484707E+00
         13   -1    0    0    0    0  0.00000000000E+00  0.00000000000E+00  0.14999999963E+04  0.15000000000E+04  0.10566000000E+00 0.  1.
        994   -1    0    0    0    0 -0.00000000000E+00 -0.00000000000E+00  0.11368683772E-12  0.17120000000E+03  0.17120000000E+03 0.  0.
         13    1    1    2    0    0  0.23850236388E+02  0.73103233892E+01  0.42557077757E+02  0.49329409434E+02  0.10566000000E+00 0.  1.
        994    1    1    2    0    0  0.32470288997E+02  0.53156219732E+02  0.21416530531E+02  0.18343394218E+03  0.17120000000E+03 0.  0.
        998    1    1    2    0    0 -0.56320525384E+02 -0.60466543121E+02  0.14360263880E+04  0.14384366484E+04  0.10000000000E+02 0.  1.
</event>
<event>
 5    1  0.1145138E-008  0.3701199E+03  0.7957747E-01  0.3495340E+00
         13   -1    0    0    0    0  0.00000000000E+00  0.00000000000E+00  0.14999999963E+04  0.15000000000E+04  0.10566000000E+00 0.  1.
        994   -1    0    0    0    0 -0.00000000000E+00 -0.00000000000E+00  0.11368683772E-12  0.17120000000E+03  0.17120000000E+03 0.  0.
         13    1    1    2    0    0 -0.59306886029E+02 -0.78830074643E+02  0.43569452066E+03  0.44672274835E+03  0.10566000000E+00 0.  1.
        994    1    1    2    0    0  0.33841927253E+02  0.75055543193E+02  0.33013820500E+02  0.19281587836E+03  0.17120000000E+03 0.  0.
        998    1    1    2    0    0  0.25464958777E+02  0.37745314499E+01  0.10312916551E+04  0.10316613733E+04  0.10000000000E+02 0.  1.
</event>
<event>
 5    1  0.1145138E-008  0.2747560E+03  0.7957747E-01  0.4094537E+00
         13   -1    0    0    0    0  0.00000000000E+00  0.00000000000E+00  0.14999999963E+04  0.15000000000E+04  0.10566000000E+00 0. -1.
        994   -1    0    0    0    0 -0.00000000000E+00 -0.00000000000E+00  0.11368683772E-12  0.17120000000E+03  0.17120000000E+03 0.  0.
         13    1    1    2    0    0  0.13996549786E+03 -0.14628323914E+01  0.66985601767E+03  0.68432417468E+03  0.10566000000E+00 0. -1.
        994    1    1    2    0    0 -0.23872869109E+02 -0.95411825702E+00  0.26564255493E+02  0.17488831834E+03  0.17120000000E+03 0.  0.
        998    1    1    2    0    0 -0.11609262875E+03  0.24169506484E+01  0.80357972311E+03  0.81198750698E+03  0.10000000000E+02 0. -1.
</event>
<event>
 5    1  0.1145138E-008  0.3857904E+03  0.7957747E-01  0.3426327E+00
         13   -1    0    0    0    0  0.00000000000E+00  0.00000000000E+00  0.14999999963E+04  0.15000000000E+04  0.10566000000E+00 0. -1.
        994   -1    0    0    0    0 -0.00000000000E+00 -0.00000000000E+00  0.11368683772E-12  0.17120000000E+03  0.17120000000E+03 0.  0.
         13    1    1    2    0    0 -0.10678413212E+02 -0.11975209623E+00  0.45130434204E+02  0.46376827239E+02  0.10566000000E+00 0. -1.
        994    1    1    2    0    0  0.11954696833E+02  0.14161690028E+02  0.23656915836E+01  0.17221644735E+03  0.17120000000E+03 0.  0.
        998    1    1    2    0    0 -0.12762836211E+01 -0.14041937932E+02  0.14525038705E+04  0.14526067254E+04  0.10000000000E+02 0. -1.
</event>
<event>
 5    1  0.1145138E-008  0.3761437E+03  0.7957747E-01  0.3468123E+00
         13   -1    0    0    0    0  0.00000000000E+00  0.00000000000E+00  0.14999999963E+04  0.15000000000E+04  0.10566000000E+00 0. -1.
        994   -1    0    0    0    0 -0.00000000000E+00 -0.00000000000E+00  0.11368683772E-12  0.17120000000E+03  0.17120000000E+03 0.  0.
         13    1    1    2    0    0  0.19752483459E+02  0.29421495345E+01  0.29512696550E+02  0.35634635797E+02  0.10566000000E+00 0. -1.
        994    1    1    2    0    0 -0.24071603917E+02  0.10233760004E+02  0.84127262066E+01  0.17339084728E+03  0.17120000000E+03 0.  0.
        998    1    1    2    0    0  0.43191204572E+01 -0.13175909538E+02  0.14620745735E+04  0.14621745169E+04  0.10000000000E+02 0. -1.
</event>
<event>
 5    1  0.1145138E-008  0.3852832E+03  0.7957747E-01  0.3428472E+00
         13   -1    0    0    0    0  0.00000000000E+00  0.00000000000E+00  0.14999999963E+04  0.15000000000E+04  0.10566000000E+00 0. -1.
        994   -1    0    0    0    0 -0.00000000000E+00 -0.00000000000E+00  0.11368683772E-12  0.17120000000E+03  0.17120000000E+03 0.  0.
         13    1    1    2    0    0  0.38541846007E+01 -0.18636211216E+02  0.10642330696E+03  0.10811149123E+03  0.10566000000E+00 0. -1.
        994    1    1    2    0    0 -0.39636660598E+00  0.29030754143E+02  0.42641153371E+01  0.17369676011E+03  0.17120000000E+03 0.  0.
        998    1    1    2    0    0 -0.34578179947E+01 -0.10394542927E+02  0.13893125740E+04  0.13893917487E+04  0.10000000000E+02 0. -1.
</event>
<event>
 5    1  0.1145138E-008  0.3829025E+03  0.7957747E-01  0.3438617E+00
         13   -1    0    0    0    0  0.00000000000E+00  0.00000000000E+00  0.14999999963E+04  0.15000000000E+04  0.10566000000E+00 0.  1.
        994   -1    0    0    0    0 -0.00000000000E+00 -0.00000000000E+00  0.11368683772E-12  0.17120000000E+03  0.17120000000E+03 0.  0.
         13    1    1    2    0    0  0.73234755700E+01 -0.95701460466E+01 -0.41648246242E+01  0.12750604612E+02  0.10566000000E+00 0.  1.
        994    1    1    2    0    0  0.52493399999E+01  0.42500393067E+01  0.18098173260E+02  0.17228639610E+03  0.17120000000E+03 0.  0.
        998    1    1    2    0    0 -0.12572815570E+02  0.53201067398E+01  0.14860666476E+04  0.14861629993E+04  0.10000000000E+02 0.  1.
</event>
<event>
 5    1  0.1145138E-008  0.3841256E+03  0.7957747E-01  0.3433389E+00
         13   -1    0    0    0    0  0.00000000000E+00  0.00000000000E+00  0.14999999963E+04  0.15000000000E+04  0.10566000000E+00 0.  1.
        994   -1    0    0    0    0 -0.00000000000E+00 -0.00000000000E+00  0.11368683772E-12  0.17120000000E+03  0.17120000000E+03 0.  0.
         13    1    1    2    0    0  0.99311502354E+01  0.51804376245E+01  0.29965173471E+02  0.31990427696E+02  0.10566000000E+00 0.  1.
        994    1    1    2    0    0 -0.47333781314E+01 -0.50165824424E+01  0.22218088255E+01  0.17135328244E+03  0.17120000000E+03 0.  0.
        998    1    1    2    0    0 -0.51977721040E+01 -0.16385518210E+00  0.14678130140E+04  0.14678562899E+04  0.10000000000E+02 0.  1.
</event>
<event>
 5    1  0.1145138E-008  0.3724513E+03  0.7957747E-01  0.3484700E+00
         13   -1    0    0    0    0  0.00000000000E+00  0.00000000000E+00  0.14999999963E+04  0.15000000000E+04  0.10566000000E+00 0. -1.
        994   -1    0    0    0    0 -0.00000000000E+00 -0.00000000000E+00  0.11368683772E-12  0.17120000000E+03  0.17120000000E+03 0.  0.
         13    1    1    2    0    0 -0.15836845414E+02 -0.22146674638E+02  0.43886220560E+02  0.51645836127E+02  0.10566000000E+00 0. -1.
        994    1    1    2    0    0  0.13918727574E+02  0.58623679376E+01  0.87758278962E+01  0.17208879537E+03  0.17120000000E+03 0.  0.
        998    1    1    2    0    0  0.19181178403E+01  0.16284306701E+02  0.14473379478E+04  0.14474653685E+04  0.10000000000E+02 0. -1.
</event>
<event>
 5    1  0.1145138E-008  0.3805369E+03  0.7957747E-01  0.3448824E+00
         13   -1    0    0    0    0  0.00000000000E+00  0.00000000000E+00  0.14999999963E+04  0.15000000000E+04  0.10566000000E+00 0. -1.
        994   -1    0    0    0    0 -0.00000000000E+00 -0.00000000000E+00  0.11368683772E-12  0.17120000000E+03  0.17120000000E+03 0.  0.
         13    1    1    2    0    0 -0.15117154906E+02 -0.42367382275E+01  0.32845332237E+02  0.36404743332E+02  0.10566000000E+00 0. -1.
        994    1    1    2    0    0 -0.14592609717E+02  0.33897248056E+01  0.46116491421E+01  0.17191608942E+03  0.17120000000E+03 0.  0.
        998    1    1    2    0    0  0.29709764624E+02  0.84701342193E+00  0.14625430149E+04  0.14628791673E+04  0.10000000000E+02 0. -1.
</event>
<event>
 5    1  0.1145138E-008  0.3787781E+03  0.7957747E-01  0.3456496E+00
         13   -1    0    0    0    0  0.00000000000E+00  0.00000000000E+00  0.14999999963E+04  0.15000000000E+04  0.10566000000E+00 0.  1.
        994   -1    0    0    0    0 -0.00000000000E+00 -0.00000000000E+00  0.11368683772E-12  0.17120000000E+03  0.17120000000E+03 0.  0.
         13    1    1    2    0    0  0.38299163328E+02  0.12916892380E+02  0.17619242085E+03  0.18076905805E+03  0.10566000000E+00 0.  1.
        994    1    1    2    0    0 -0.15399683666E+02 -0.11706546297E+02  0.60081905383E+01  0.17239411776E+03  0.17120000000E+03 0.  0.
        998    1    1    2    0    0 -0.22899479662E+02 -0.12103460828E+01  0.13177993849E+04  0.13180368242E+04  0.10000000000E+02 0.  1.
</event>
<event>
 5    1  0.1145138E-008  0.3849713E+03  0.7957747E-01  0.3429794E+00
         13   -1    0    0    0    0  0.00000000000E+00  0.00000000000E+00  0.14999999963E+04  0.15000000000E+04  0.10566000000E+00 0. -1.
        994   -1    0    0    0    0 -0.00000000000E+00 -0.00000000000E+00  0.11368683772E-12  0.17120000000E+03  0.17120000000E+03 0.  0.
         13    1    1    2    0    0  0.17400186091E+01 -0.10836197871E+02  0.36015861589E+02  0.37651086294E+02  0.10566000000E+00 0. -1.
        994    1    1    2    0    0  0.13605986320E+01  0.10291026314E+02  0.19988780406E+01  0.17152606789E+03  0.17120000000E+03 0.  0.
        998    1    1    2    0    0 -0.31006172411E+01  0.54517155767E+00  0.14619852566E+04  0.14620228458E+04  0.10000000000E+02 0. -1.
</event>
<event>
 5    1  0.1145138E-008  0.3802237E+03  0.7957747E-01  0.3450185E+00
         13   -1    0    0    0    0  0.00000000000E+00  0.00000000000E+00  0.14999999963E+04  0.15000000000E+04  0.10566000000E+00 0. -1.
        994   -1    0    0    0    0 -0.00000000000E+00 -0.00000000000E+00  0.11368683772E-12  0.17120000000E+03  0.17120000000E+03 0.  0.
         13    1    1    2    0    0 -0.11139383424E+02 -0.56666224553E+02  0.34175682205E+03  0.34660190919E+03  0.10566000000E+00 0. -1.
        994    1    1    2    0    0  0.36637134950E+02  0.47401448264E+02  0.16104278073E+02  0.18209328578E+03  0.17120000000E+03 0.  0.
        998    1    1    2    0    0 -0.25497751526E+02  0.92647762888E+01  0.11421388962E+04  0.11425048050E+04  0.10000000000E+02 0. -1.
</event>
<event>
 5    1  0.1145138E-008  0.3697083E+03  0.7957747E-01  0.3497233E+00
         13   -1    0    0    0    0  0.00000000000E+00  0.00000000000E+00  0.14999999963E+04  0.15000000000E+04  0.10566000000E+00 0.  1.
        994   -1    0    0    0    0 -0.00000000000E+00 -0.00000000000E+00  0.11368683772E-12  0.17120000000E+03  0.17120000000E+03 0.  0.
         13    1    1    2    0    0 -0.13546599046E+02 -0.71948839300E+02  0.41974883204E+03  0.42608595257E+03  0.10566000000E+00 0.  1.
        994    1    1    2    0    0 -0.35216377251E+02 -0.13997942902E+02  0.15816942754E+02  0.17605610274E+03  0.17120000000E+03 0.  0.
        998    1    1    2    0    0  0.48762976297E+02  0.85946782202E+02  0.10644342215E+04  0.10690579447E+04  0.10000000000E+02 0.  1.
</event>
<event>
 5    1  0.1145138E-008  0.3769757E+03  0.7957747E-01  0.3464434E+00
         13   -1    0    0    0    0  0.00000000000E+00  0.00000000000E+00  0.14999999963E+04  0.15000000000E+04  0.10566000000E+00 0. -1.
        994   -1    0    0    0    0 -0.00000000000E+00 -0.00000000000E+00  0.11368683772E-12  0.17120000000E+03  0.17120000000E+03 0.  0.
         13    1    1    2    0    0 -0.10813870674E+02  0.16255792158E+02  0.31141509708E+02  0.36755888896E+02  0.10566000000E+00 0. -1.
        994    1    1    2    0    0  0.41879322084E+01 -0.15561561612E+02  0.65450577034E+01  0.17208131437E+03  0.17120000000E+03 0.  0.
        998    1    1    2    0    0  0.66259384654E+01 -0.69423054537E+00  0.14623134289E+04  0.14623627967E+04  0.10000000000E+02 0. -1.
</event>
<event>
 5    1  0.1145138E-008  0.3859331E+03  0.7957747E-01  0.3425724E+00
         13   -1    0    0    0    0  0.00000000000E+00  0.00000000000E+00  0.14999999963E+04  0.15000000000E+04  0.10566000000E+00 0.  1.
        994   -1    0    0    0    0 -0.00000000000E+00 -0.00000000000E+00  0.11368683772E-12  0.17120000000E+03  0.17120000000E+03 0.  0.
         13    1    1    2    0    0 -0.32049803548E+01 -0.13218779147E+02  0.81125260922E+02  0.82257687452E+02  0.10566000000E+00 0.  1.
        994    1    1    2    0    0 -0.46048944783E+01  0.87303954598E+01  0.14870672859E+01  0.17149074677E+03  0.17120000000E+03 0.  0.
        998    1    1    2    0    0  0.78098748331E+01  0.44883836870E+01  0.14173876681E+04  0.14174515658E+04  0.10000000000E+02 0.  1.
</event>
<event>
 5    1  0.1145138E-008  0.3816899E+03  0.7957747E-01  0.3443833E+00
         13   -1    0    0    0    0  0.00000000000E+00  0.00000000000E+00  0.14999999963E+04  0.15000000000E+04  0.10566000000E+00 0.  1.
        994   -1    0    0    0    0 -0.00000000000E+00 -0.00000000000E+00  0.11368683772E-12  0.17120000000E+03  0.17120000000E+03 0.  0.
         13    1    1    2    0    0  0.80924006766E+02  0.25681340741E+02  0.49389355314E+03  0.50113778458E+03  0.10566000000E+00 0.  1.
        994    1    1    2    0    0 -0.10583066820E+03 -0.39248395247E+02  0.46863272122E+02  0.21034774336E+03  0.17120000000E+03 0.  0.
        998    1    1    2    0    0  0.24906661435E+02  0.13567054506E+02  0.95924317102E+03  0.95971447207E+03  0.10000000000E+02 0.  1.
</event>
<event>
 5    1  0.1145138E-008  0.3767582E+03  0.7957747E-01  0.3465397E+00
         13   -1    0    0    0    0  0.00000000000E+00  0.00000000000E+00  0.14999999963E+04  0.15000000000E+04  0.10566000000E+00 0.  1.
        994   -1    0    0    0    0 -0.00000000000E+00 -0.00000000000E+00  0.11368683772E-12  0.17120000000E+03  0.17120000000E+03 0.  0.
         13    1    1    2    0    0  0.13362320456E+02 -0.44482252833E+02  0.18956711270E+03  0.19517408590E+03  0.10566000000E+00 0.  1.
        994    1    1    2    0    0  0.17498645084E+02  0.29759875186E+02  0.98166466904E+01  0.17492186628E+03  0.17120000000E+03 0.  0.
        998    1    1    2    0    0 -0.30860965540E+02  0.14722377647E+02  0.13006162369E+04  0.13011040478E+04  0.10000000000E+02 0.  1.
</event>
<event>
 5    1  0.1145138E-008  0.3752552E+03  0.7957747E-01  0.3472082E+00
         13   -1    0    0    0    0  0.00000000000E+00  0.00000000000E+00  0.14999999963E+04  0.15000000000E+04  0.10566000000E+00 0. -1.
        994   -1    0    0    0    0 -0.00000000000E+00 -0.00000000000E+00  0.11368683772E-12  0.17120000000E+03  0.17120000000E+03 0.  0.
         13    1    1    2    0    0 -0.11973101176E+02  0.81996961485E+00 -0.11584827086E+01  0.12057393921E+02  0.10566000000E+00 0. -1.
        994    1    1    2    0    0  0.12341047313E+02 -0.29397617810E-01  0.14287609127E+02  0.17223785324E+03  0.17120000000E+03 0.  0.
        998    1    1    2    0    0 -0.36794613724E+00 -0.79057199704E+00  0.14868708699E+04  0.14869047528E+04  0.10000000000E+02 0. -1.
</event>
<event>
 5    1  0.1145138E-008  0.3850789E+03  0.7957747E-01  0.3429338E+00
         13   -1    0    0    0    0  0.00000000000E+00  0.00000000000E+00  0.14999999963E+04  0.15000000000E+04  0.10566000000E+00 0. -1.
        994   -1    0    0    0    0 -0.00000000000E+00 -0.00000000000E+00  0.11368683772E-12  0.17120000000E+03  0.17120000000E+03 0.  0.
         13    1    1    2    0    0  0.16883930855E+02  0.35194612219E+01  0.70488518999E+02  0.72567873079E+02  0.10566000000E+00 0. -1.
        994    1    1    2    0    0 -0.57283505861E+02  0.70245476274E+00  0.12456618829E+02  0.18095994264E+03  0.17120000000E+03 0.  0.
        998    1    1    2    0    0  0.40399575006E+02 -0.42219159846E+01  0.14170548585E+04  0.14176721843E+04  0.10000000000E+02 0. -1.
</event>
<event>
 5    1  0.1145138E-008  0.3847250E+03  0.7957747E-01  0.3430839E+00
         13   -1    0    0    0    0  0.00000000000E+00  0.00000000000E+00  0.14999999963E+04  0.15000000000E+04  0.10566000000E+00 0.  1.
        994   -1    0    0    0    0 -0.00000000000E+00 -0.00000000000E+00  0.11368683772E-12  0.17120000000E+03  0.17120000000E+03 0.  0.
         13    1    1    2    0    0  0.10543493983E+02  0.27252727719E+01  0.36624722417E+02  0.38209603939E+02  0.10566000000E+00 0.  1.
        994    1    1    2    0    0  0.12482908185E+02  0.37788536194E+01  0.23268519237E+01  0.17171184284E+03  0.17120000000E+03 0.  0.
        998    1    1    2    0    0 -0.23026402168E+02 -0.65041263913E+01  0.14610484219E+04  0.14612785532E+04  0.10000000000E+02 0.  1.
</event>
<event>
 5    1  0.1145138E-008  0.3815071E+03  0.7957747E-01  0.3444622E+00
         13   -1    0    0    0    0  0.00000000000E+00  0.00000000000E+00  0.14999999963E+04  0.15000000000E+04  0.10566000000E+00 0.  1.
        994   -1    0    0    0    0 -0.00000000000E+00 -0.00000000000E+00  0.11368683772E-12  0.17120000000E+03  0.17120000000E+03 0.  0.
         13    1    1    2    0    0  0.40533998892E+02  0.35185851532E+02  0.30300838142E+03  0.30772575386E+03  0.10566000000E+00 0.  1.
        994    1    1    2    0    0 -0.46732882995E+02 -0.46245168949E+02  0.17888674857E+02  0.18426074648E+03  0.17120000000E+03 0.  0.
        998    1    1    2    0    0  0.61988841031E+01  0.11059317417E+02  0.11791029400E+04  0.11792134997E+04  0.10000000000E+02 0.  1.
</event>
<event>
 5    1  0.1145138E-008  0.3835713E+03  0.7957747E-01  0.3435754E+00
         13   -1    0    0    0    0  0.00000000000E+00  0.00000000000E+00  0.14999999963E+04  0.15000000000E+04  0.10566000000E+00 0. -1.
        994   -1    0    0    0    0 -0.00000000000E+00 -0.00000000000E+00  0.11368683772E-12  0.17120000000E+03  0.17120000000E+03 0.  0.
         13    1    1    2    0    0  0.13342217878E+02  0.17240911152E+01  0.36308076193E+02  0.38720470413E+02  0.10566000000E+00 0. -1.
        994    1    1    2    0    0 -0.21511315440E+02  0.93699775927E+01  0.41621743495E+01  0.17285050439E+03  0.17120000000E+03 0.  0.
        998    1    1    2    0    0  0.81690975614E+01 -0.11094068708E+02  0.14595297457E+04  0.14596290252E+04  0.10000000000E+02 0. -1.
</event>
<event>
 5    1  0.1145138E-008  0.3817730E+03  0.7957747E-01  0.3443475E+00
         13   -1    0    0    0    0  0.00000000000E+00  0.00000000000E+00  0.14999999963E+04  0.15000000000E+04  0.10566000000E+00 0. -1.
        994   -1    0    0    0    0 -0.00000000000E+00 -0.00000000000E+00  0.11368683772E-12  0.17120000000E+03  0.17120000000E+03 0.  0.
         13    1    1    2    0    0  0.15621422525E+02  0.84677114559E+01  0.46207131026E+02  0.49505970355E+02  0.10566000000E+00 0. -1.
        994    1    1    2    0    0 -0.15478057252E+02 -0.11442369569E+02  0.44731190806E+01  0.17233672526E+03  0.17120000000E+03 0.  0.
        998    1    1    2    0    0 -0.14336527361E+00  0.29746581129E+01  0.14493197462E+04  0.14493573044E+04  0.10000000000E+02 0. -1.
</event>
<event>
 5    1  0.1145138E-008  0.3748432E+03  0.7957747E-01  0.3473924E+00
         13   -1    0    0    0    0  0.00000000000E+00  0.00000000000E+00  0.14999999963E+04  0.15000000000E+04  0.10566000000E+00 0.  1.
        994   -1    0    0    0    0 -0.00000000000E+00 -0.00000000000E+00  0.11368683772E-12  0.17120000000E+03  0.17120000000E+03 0.  0.
         13    1    1    2    0    0 -0.26909067412E+02  0.18555082582E+03  0.10131678970E+04  0.10303700333E+04  0.10566000000E+00 0.  1.
        994    1    1    2    0    0  0.67856108646E+02 -0.17399922344E+03  0.13651086428E+03  0.28779304597E+03  0.17120000000E+03 0.  0.
        998    1    1    2    0    0 -0.40947041234E+02 -0.11551602373E+02  0.35032123504E+03  0.35303692077E+03  0.10000000000E+02 0.  1.
</event>
<event>
 5    1  0.1145138E-008  0.3693650E+03  0.7957747E-01  0.3498815E+00
         13   -1    0    0    0    0  0.00000000000E+00  0.00000000000E+00  0.14999999963E+04  0.15000000000E+04  0.10566000000E+00 0.  1.
        994   -1    0    0    0    0 -0.00000000000E+00 -0.00000000000E+00  0.11368683772E-12  0.17120000000E+03  0.17120000000E+03 0.  0.
         13    1    1    2    0    0  0.69665068934E+02  0.40543326630E+01  0.33540616553E+03  0.34258862573E+03  0.10566000000E+00 0.  1.
        994    1    1    2    0    0  0.17507116059E+00 -0.38690947139E+02  0.14806760361E+02  0.17614113714E+03  0.17120000000E+03 0.  0.
        998    1    1    2    0    0 -0.69840140095E+02  0.34636614476E+02  0.11497870704E+04  0.11524702371E+04  0.10000000000E+02 0.  1.
</event>
<event>
 5    1  0.1145138E-008  0.3844321E+03  0.7957747E-01  0.3432084E+00
         13   -1    0    0    0    0  0.00000000000E+00  0.00000000000E+00  0.14999999963E+04  0.15000000000E+04  0.10566000000E+00 0. -1.
        994   -1    0    0    0    0 -0.00000000000E+00 -0.00000000000E+00  0.11368683772E-12  0.17120000000E+03  0.17120000000E+03 0.  0.
         13    1    1    2    0    0  0.17817094143E+02 -0.31176818612E+01  0.81376842255E+02  0.83362883848E+02  0.10566000000E+00 0. -1.
        994    1    1    2    0    0 -0.18170451113E+02  0.54966275378E+01  0.31005981697E+01  0.17227719500E+03  0.17120000000E+03 0.  0.
        998    1    1    2    0    0  0.35335696952E+00 -0.23789456767E+01  0.14155225559E+04  0.14155599212E+04  0.10000000000E+02 0. -1.
</event>
<event>
 5    1  0.1145138E-008  0.3720960E+03  0.7957747E-01  0.3486313E+00
         13   -1    0    0    0    0  0.00000000000E+00  0.00000000000E+00  0.14999999963E+04  0.15000000000E+04  0.10566000000E+00 0. -1.
        994   -1    0    0    0    0 -0.00000000000E+00 -0.00000000000E+00  0.11368683772E-12  0.17120000000E+03  0.17120000000E+03 0.  0.
         13    1    1    2    0    0 -0.21802985514E+02  0.24928028192E+02  0.61919534013E+02  0.70219773734E+02  0.10566000000E+00 0. -1.
        994    1    1    2    0    0  0.23974341899E+02 -0.21109065005E+02  0.11688379927E+02  0.17454632600E+03  0.17120000000E+03 0.  0.
        998    1    1    2    0    0 -0.21713563849E+01 -0.38189631870E+01  0.14263920823E+04  0.14264339003E+04  0.10000000000E+02 0. -1.
</event>
<event>
 5    1  0.1145138E-008  0.3847355E+03  0.7957747E-01  0.3430795E+00
         13   -1    0    0    0    0  0.00000000000E+00  0.00000000000E+00  0.14999999963E+04  0.15000000000E+04  0.10566000000E+00 0. -1.
        994   -1    0    0    0    0 -0.00000000000E+00 -0.00000000000E+00  0.11368683772E-12  0.17120000000E+03  0.17120000000E+03 0.  0.
         13    1    1    2    0    0  0.12850855551E+02  0.10195325285E+01  0.47294296754E+02  0.49019849087E+02  0.10566000000E+00 0. -1.
        994    1    1    2    0    0 -0.69054488394E+01 -0.60772702035E+01  0.20401074169E+01  0.17145909272E+03  0.17120000000E+03 0.  0.
        998    1    1    2    0    0 -0.59454067119E+01  0.50577376749E+01  0.14506655921E+04  0.14507210582E+04  0.10000000000E+02 0. -1.
</event>
<event>
 5    1  0.1145138E-008  0.3750463E+03  0.7957747E-01  0.3473016E+00
         13   -1    0    0    0    0  0.00000000000E+00  0.00000000000E+00  0.14999999963E+04  0.15000000000E+04  0.10566000000E+00 0. -1.
        994   -1    0    0    0    0 -0.00000000000E+00 -0.00000000000E+00  0.11368683772E-12  0.17120000000E+03  0.17120000000E+03 0.  0.
         13    1    1    2    0    0 -0.23052169751E+02  0.77207664556E+01  0.41614437981E+02  0.48195283767E+02  0.10566000000E+00 0. -1.
        994    1    1    2    0    0  0.16585192266E+02 -0.53839854128E+01  0.76890184700E+01  0.17225741466E+03  0.17120000000E+03 0.  0.
        998    1    1    2    0    0  0.64669774845E+01 -0.23367810428E+01  0.14506965398E+04  0.14507473016E+04  0.10000000000E+02 0. -1.
</event>
<event>
 5    1  0.1145138E-008  0.3822489E+03  0.7957747E-01  0.3441425E+00
         13   -1    0    0    0    0  0.00000000000E+00  0.00000000000E+00  0.14999999963E+04  0.15000000000E+04  0.10566000000E+00 0. -1.
        994   -1    0    0    0    0 -0.00000000000E+00 -0.00000000000E+00  0.11368683772E-12  0.17120000000E+03  0.17120000000E+03 0.  0.
         13    1    1    2    0    0 -0.63253599061E+01 -0.18416683560E+02  0.63381466632E+02  0.66305398632E+02  0.10566000000E+00 0. -1.
        994    1    1    2    0    0  0.26666076959E+01  0.80985244730E+01  0.32434844484E+01  0.17144286829E+03  0.17120000000E+03 0.  0.
        998    1    1    2    0    0  0.36587522102E+01  0.10318159087E+02  0.14333750452E+04  0.14334517331E+04  0.10000000000E+02 0. -1.
</event>
<event>
 5    1  0.1145138E-008  0.3820262E+03  0.7957747E-01  0.3442383E+00
         13   -1    0    0    0    0  0.00000000000E+00  0.00000000000E+00  0.14999999963E+04  0.15000000000E+04  0.10566000000E+00 0. -1.
        994   -1    0    0    0    0 -0.00000000000E+00 -0.00000000000E+00  0.11368683772E-12  0.17120000000E+03  0.17120000000E+03 0.  0.
         13    1    1    2    0    0 -0.94603020434E+01 -0.45995190120E+01  0.17997096681E+02  0.20846091789E+02  0.10566000000E+00 0. -1.
        994    1    1    2    0    0 -0.17514531969E+02 -0.17445738155E+02  0.51457710094E+01  0.17305210651E+03  0.17120000000E+03 0.  0.
        998    1    1    2    0    0  0.26974834012E+02  0.22045257167E+02  0.14768571286E+04  0.14773018017E+04  0.10000000000E+02 0. -1.
</event>
<event>
 5    1  0.1145138E-008  0.3856075E+03  0.7957747E-01  0.3427100E+00
         13   -1    0    0    0    0  0.00000000000E+00  0.00000000000E+00  0.14999999963E+04  0.15000000000E+04  0.10566000000E+00 0. -1.
        994   -1    0    0    0    0 -0.00000000000E+00 -0.00000000000E+00  0.11368683772E-12  0.17120000000E+03  0.17120000000E+03 0.  0.
         13    1    1    2    0    0  0.11364485342E+02 -0.19582284611E+01  0.50196525210E+02  0.51504257038E+02  0.10566000000E+00 0. -1.
        994    1    1    2    0    0 -0.86526831583E+01 -0.19841208353E+01  0.15875101681E+01  0.17143735255E+03  0.17120000000E+03 0.  0.
        998    1    1    2    0    0 -0.27118021833E+01  0.39423492964E+01  0.14482159609E+04  0.14482583904E+04  0.10000000000E+02 0. -1.
</event>
<event>
 5    1  0.1145138E-008  0.3818394E+03  0.7957747E-01  0.3443188E+00
         13   -1    0    0    0    0  0.00000000000E+00  0.00000000000E+00  0.14999999963E+04  0.15000000000E+04  0.10566000000E+00 0. -1.
        994   -1    0    0    0    0 -0.00000000000E+00 -0.00000000000E+00  0.11368683772E-12  0.17120000000E+03  0.17120000000E+03 0.  0.
         13    1    1    2    0    0  0.26401295465E+02  0.11995612980E+02  0.16690396403E+02  0.33458984281E+02  0.10566000000E+00 0. -1.
        994    1    1    2    0    0 -0.26254613977E+02 -0.14771035278E+02  0.20658879273E+02  0.17505347049E+03  0.17120000000E+03 0.  0.
        998    1    1    2    0    0 -0.14668148794E+00  0.27754222986E+01  0.14626507206E+04  0.14626875452E+04  0.10000000000E+02 0. -1.
</event>
<event>
 5    1  0.1145138E-008  0.3697552E+03  0.7957747E-01  0.3497017E+00
         13   -1    0    0    0    0  0.00000000000E+00  0.00000000000E+00  0.14999999963E+04  0.15000000000E+04  0.10566000000E+00 0. -1.
        994   -1    0    0    0    0 -0.00000000000E+00 -0.00000000000E+00  0.11368683772E-12  0.17120000000E+03  0.17120000000E+03 0.  0.
         13    1    1    2    0    0  0.14172297149E+02  0.44948059070E+02  0.11839859626E+03  0.12743398597E+03  0.10566000000E+00 0. -1.
        994    1    1    2    0    0 -0.87356578601E+00 -0.22527805064E+02  0.11157920801E+02  0.17303815855E+03  0.17120000000E+03 0.  0.
        998    1    1    2    0    0 -0.13298731363E+02 -0.22420254006E+02  0.13704434792E+04  0.13707278555E+04  0.10000000000E+02 0. -1.
</event>
<event>
 5    1  0.1145138E-008  0.3818542E+03  0.7957747E-01  0.3443125E+00
         13   -1    0    0    0    0  0.00000000000E+00  0.00000000000E+00  0.14999999963E+04  0.15000000000E+04  0.10566000000E+00 0.  1.
        994   -1    0    0    0    0 -0.00000000000E+00 -0.00000000000E+00  0.11368683772E-12  0.17120000000E+03  0.17120000000E+03 0.  0.
         13    1    1    2    0    0  0.28663639632E+02  0.62429765481E+01  0.16000487350E+03  0.16267190815E+03  0.10566000000E+00 0.  1.
        994    1    1    2    0    0  0.52599124879E+01  0.61852576282E+01  0.34191533295E+01  0.17142652858E+03  0.17120000000E+03 0.  0.
        998    1    1    2    0    0 -0.33923552120E+02 -0.12428234176E+02  0.13365759695E+04  0.13371015633E+04  0.10000000000E+02 0.  1.
</event>
<event>
 5    1  0.1145138E-008  0.3730290E+03  0.7957747E-01  0.3482085E+00
         13   -1    0    0    0    0  0.00000000000E+00  0.00000000000E+00  0.14999999963E+04  0.15000000000E+04  0.10566000000E+00 0. -1.
        994   -1    0    0    0    0 -0.00000000000E+00 -0.00000000000E+00  0.11368683772E-12  0.17120000000E+03  0.17120000000E+03 0.  0.
         13    1    1    2    0    0  0.84986118119E+02 -0.36320330721E+02  0.33446823007E+03  0.34700261496E+03  0.10566000000E+00 0. -1.
        994    1    1    2    0    0 -0.47171440885E+02  0.29695328611E+02  0.23610307737E+02  0.18158701498E+03  0.17120000000E+03 0.  0.
        998    1    1    2    0    0 -0.37814677233E+02  0.66250021097E+01  0.11419214585E+04  0.11426103701E+04  0.10000000000E+02 0. -1.
</event>
<event>
 5    1  0.1173390E-008  0.3852866E+03  0.7957747E-01  0.3428458E+00
         13   -1    0    0    0    0  0.00000000000E+00  0.00000000000E+00  0.14999999963E+04  0.15000000000E+04  0.10566000000E+00 0. -1.
        994   -1    0    0    0    0 -0.00000000000E+00 -0.00000000000E+00  0.11368683772E-12  0.17120000000E+03  0.17120000000E+03 0.  0.
         13    1    1    2    0    0  0.92773684020E+01  0.10742969494E+02  0.54498973570E+02  0.56317228645E+02  0.10566000000E+00 0. -1.
        994    1    1    2    0    0 -0.17174772393E+02 -0.47574856138E+02  0.99391650142E+01  0.17879196499E+03  0.17120000000E+03 0.  0.
        998    1    1    2    0    0  0.78974039909E+01  0.36831886643E+02  0.14355618577E+04  0.14360908064E+04  0.10000000000E+02 0. -1.
</event>
<event>
 5    1  0.1145138E-008  0.3749667E+03  0.7957747E-01  0.3473372E+00
         13   -1    0    0    0    0  0.00000000000E+00  0.00000000000E+00  0.14999999963E+04  0.15000000000E+04  0.10566000000E+00 0.  1.
        994   -1    0    0    0    0 -0.00000000000E+00 -0.00000000000E+00  0.11368683772E-12  0.17120000000E+03  0.17120000000E+03 0.  0.
         13    1    1    2    0    0  0.49869017572E+02  0.27756383713E+02  0.25840483375E+03  0.26463258496E+03  0.10566000000E+00 0.  1.
        994    1    1    2    0    0 -0.17786526105E+02 -0.14896239998E+02  0.85278220001E+01  0.17297520697E+03  0.17120000000E+03 0.  0.
        998    1    1    2    0    0 -0.32082491467E+02 -0.12860143715E+02  0.12330673405E+04  0.12335922081E+04  0.10000000000E+02 0.  1.
</event>
<event>
 5    1  0.1145138E-008  0.3725812E+03  0.7957747E-01  0.3484112E+00
         13   -1    0    0    0    0  0.00000000000E+00  0.00000000000E+00  0.14999999963E+04  0.15000000000E+04  0.10566000000E+00 0. -1.
        994   -1    0    0    0    0 -0.00000000000E+00 -0.00000000000E+00  0.11368683772E-12  0.17120000000E+03  0.17120000000E+03 0.  0.
         13    1    1    2    0    0 -0.20189486028E+02 -0.66415672189E+02  0.40536971722E+03  0.41127031946E+03  0.10566000000E+00 0. -1.
        994    1    1    2    0    0 -0.11632895733E+03  0.18333963528E+01  0.61730746724E+02  0.21599979803E+03  0.17120000000E+03 0.  0.
        998    1    1    2    0    0  0.13651844336E+03  0.64582275836E+02  0.10328995323E+04  0.10439298825E+04  0.10000000000E+02 0. -1.
</event>
<event>
 5    1  0.1145138E-008  0.3809459E+03  0.7957747E-01  0.3447050E+00
         13   -1    0    0    0    0  0.00000000000E+00  0.00000000000E+00  0.14999999963E+04  0.15000000000E+04  0.10566000000E+00 0.  1.
        994   -1    0    0    0    0 -0.00000000000E+00 -0.00000000000E+00  0.11368683772E-12  0.17120000000E+03  0.17120000000E+03 0.  0.
         13    1    1    2    0    0 -0.24730283424E+01  0.35685837565E+02  0.16365895153E+03  0.16752271026E+03  0.10566000000E+00 0.  1.
        994    1    1    2    0    0 -0.59138397539E+01 -0.30110012068E+02  0.68006283130E+01  0.17406112396E+03  0.17120000000E+03 0.  0.
        998    1    1    2    0    0  0.83868680963E+01 -0.55758254974E+01  0.13295404164E+04  0.13296161658E+04  0.10000000000E+02 0.  1.
</event>
<event>
 5    1  0.1145138E-008  0.3855642E+03  0.7957747E-01  0.3427283E+00
         13   -1    0    0    0    0  0.00000000000E+00  0.00000000000E+00  0.14999999963E+04  0.15000000000E+04  0.10566000000E+00 0.  1.
        994   -1    0    0    0    0 -0.00000000000E+00 -0.00000000000E+00  0.11368683772E-12  0.17120000000E+03  0.17120000000E+03 0.  0.
         13    1    1    2    0    0  0.99236878259E+01 -0.19441345752E+01  0.37632228766E+02  0.38967358715E+02  0.10566000000E+00 0.  1.
        994    1    1    2    0    0 -0.95078871213E+01 -0.34307367050E+01  0.16857226240E+01  0.17150641834E+03  0.17120000000E+03 0.  0.
        998    1    1    2    0    0 -0.41580070465E+00  0.53748712803E+01  0.14606820449E+04  0.14607262229E+04  0.10000000000E+02 0.  1.
</event>
<event>
 5    1  0.1145138E-008  0.3844893E+03  0.7957747E-01  0.3431841E+00
         13   -1    0    0    0    0  0.00000000000E+00  0.00000000000E+00  0.14999999963E+04  0.15000000000E+04  0.10566000000E+00 0. -1.
        994   -1    0    0    0    0 -0.00000000000E+00 -0.00000000000E+00  0.11368683772E-12  0.17120000000E+03  0.17120000000E+03 0.  0.
         13    1    1    2    0    0  0.79631185095E+01  0.80137743335E+01  0.33459689931E+02  0.35315631805E+02  0.10566000000E+00 0. -1.
        994    1    1    2    0    0 -0.60291277751E+01 -0.50402904506E+01  0.20873510556E+01  0.17139297519E+03  0.17120000000E+03 0.  0.
        998    1    1    2    0    0 -0.19339907344E+01 -0.29734838828E+01  0.14644529553E+04  0.14644913930E+04  0.10000000000E+02 0. -1.
</event>
<event>
 5    1  0.1145138E-008  0.3703565E+03  0.7957747E-01  0.3494254E+00
         13   -1    0    0    0    0  0.00000000000E+00  0.00000000000E+00  0.14999999963E+04  0.15000000000E+04  0.10566000000E+00 0.  1.
        994   -1    0    0    0    0 -0.00000000000E+00 -0.00000000000E+00  0.11368683772E-12  0.17120000000E+03  0.17120000000E+03 0.  0.
         13    1    1    2    0    0 -0.11766773617E+03 -0.69058012673E+02  0.54977361148E+03  0.56645012163E+03  0.10566000000E+00 0.  1.
        994    1    1    2    0    0  0.12312354564E+03  0.78575328571E+02  0.86805525308E+02  0.24120142822E+03  0.17120000000E+03 0.  0.
        998    1    1    2    0    0 -0.54558094669E+01 -0.95173158985E+01  0.86342085949E+03  0.86354845016E+03  0.10000000000E+02 0.  1.
</event>
<event>
 5    1  0.1145138E-008  0.3791818E+03  0.7957747E-01  0.3454729E+00
         13   -1    0    0    0    0  0.00000000000E+00  0.00000000000E+00  0.14999999963E+04  0.15000000000E+04  0.10566000000E+00 0.  1.
        994   -1    0    0    0    0 -0.00000000000E+00 -0.00000000000E+00  0.11368683772E-12  0.17120000000E+03  0.17120000000E+03 0.  0.
         13    1    1    2    0    0  0.90542818864E+01  0.73206891447E+01  0.11676864945E+02  0.16490386564E+02  0.10566000000E+00 0.  1.
        994    1    1    2    0    0 -0.39283944204E+02 -0.30262378540E+02  0.12833938982E+02  0.17869860049E+03  0.17120000000E+03 0.  0.
        998    1    1    2    0    0  0.30229662318E+02  0.22941689395E+02  0.14754891924E+04  0.14760110129E+04  0.10000000000E+02 0.  1.
</event>
<event>
 5    1  0.1145138E-008  0.3817707E+03  0.7957747E-01  0.3443484E+00
         13   -1    0    0    0    0  0.00000000000E+00  0.00000000000E+00  0.14999999963E+04  0.15000000000E+04  0.10566000000E+00 0. -1.
        994   -1    0    0    0    0 -0.00000000000E+00 -0.00000000000E+00  0.11368683772E-12  0.17120000000E+03  0.17120000000E+03 0.  0.
         13    1    1    2    0    0 -0.10943100174E+02  0.35572055913E+02  0.15590595699E+03  0.16028662200E+03  0.10566000000E+00 0. -1.
        994    1    1    2    0    0  0.24164603148E+02 -0.62617745263E+02  0.18361338821E+02  0.18480121436E+03  0.17120000000E+03 0.  0.
        998    1    1    2    0    0 -0.13221502973E+02  0.27045689350E+02  0.13257327005E+04  0.13261121636E+04  0.10000000000E+02 0. -1.
</event>
<event>
 5    1  0.1145138E-008  0.3775419E+03  0.7957747E-01  0.3461932E+00
         13   -1    0    0    0    0  0.00000000000E+00  0.00000000000E+00  0.14999999963E+04  0.15000000000E+04  0.10566000000E+00 0.  1.
        994   -1    0    0    0    0 -0.00000000000E+00 -0.00000000000E+00  0.11368683772E-12  0.17120000000E+03  0.17120000000E+03 0.  0.
         13    1    1    2    0    0  0.36939079015E+02 -0.25135295934E+01  0.12338206877E+03  0.12881754324E+03  0.10566000000E+00 0.  1.
        994    1    1    2    0    0 -0.25538841111E+02  0.87236672193E+00  0.75830621900E+01  0.17326262223E+03  0.17120000000E+03 0.  0.
        998    1    1    2    0    0 -0.11400237905E+02  0.16411628714E+01  0.13690348653E+04  0.13691198345E+04  0.10000000000E+02 0.  1.
</event>
<event>
 5    1  0.1145138E-008  0.3839166E+03  0.7957747E-01  0.3434280E+00
         13   -1    0    0    0    0  0.00000000000E+00  0.00000000000E+00  0.14999999963E+04  0.15000000000E+04  0.10566000000E+00 0.  1.
        994   -1    0    0    0    0 -0.00000000000E+00 -0.00000000000E+00  0.11368683772E-12  0.17120000000E+03  0.17120000000E+03 0.  0.
         13    1    1    2    0    0  0.90287556501E+01  0.82238987869E+01  0.33509268543E+02  0.35665574188E+02  0.10566000000E+00 0.  1.
        994    1    1    2    0    0 -0.63688956840E+01 -0.84073784423E+01  0.25362286342E+01  0.17154334525E+03  0.17120000000E+03 0.  0.
        998    1    1    2    0    0 -0.26598599661E+01  0.18347965537E+00  0.14639544991E+04  0.14639910806E+04  0.10000000000E+02 0.  1.
</event>
<event>
 5    1  0.1145138E-008  0.3773230E+03  0.7957747E-01  0.3462898E+00
         13   -1    0    0    0    0  0.00000000000E+00  0.00000000000E+00  0.14999999963E+04  0.15000000000E+04  0.10566000000E+00 0. -1.
        994   -1    0    0    0    0 -0.00000000000E+00 -0.00000000000E+00  0.11368683772E-12  0.17120000000E+03  0.17120000000E+03 0.  0.
         13    1    1    2    0    0 -0.98509769900E+01 -0.39863671815E+02  0.16229145713E+03  0.16740574153E+03  0.10566000000E+00 0. -1.
        994    1    1    2    0    0  0.30760745554E+01  0.12166394882E+02  0.60219687026E+01  0.17176491931E+03  0.17120000000E+03 0.  0.
        998    1    1    2    0    0  0.67749024345E+01  0.27697276932E+02  0.13316865705E+04  0.13320293392E+04  0.10000000000E+02 0. -1.
</event>
<event>
 5    1  0.1145138E-008  0.3801439E+03  0.7957747E-01  0.3450532E+00
         13   -1    0    0    0    0  0.00000000000E+00  0.00000000000E+00  0.14999999963E+04  0.15000000000E+04  0.10566000000E+00 0. -1.
        994   -1    0    0    0    0 -0.00000000000E+00 -0.00000000000E+00  0.11368683772E-12  0.17120000000E+03  0.17120000000E+03 0.  0.
         13    1    1    2    0    0 -0.18774918814E+02 -0.15240510297E+02  0.68152318397E+02  0.72315422958E+02  0.10566000000E+00 0. -1.
        994    1    1    2    0    0  0.31101382113E+02 -0.10385723704E+01  0.73029307390E+01  0.17415839744E+03  0.17120000000E+03 0.  0.
        998    1    1    2    0    0 -0.12326463299E+02  0.16279082667E+02  0.14245447471E+04  0.14247261796E+04  0.10000000000E+02 0. -1.
</event>
<event>
 5    1  0.1145138E-008  0.3823488E+03  0.7957747E-01  0.3440995E+00
         13   -1    0    0    0    0  0.00000000000E+00  0.00000000000E+00  0.14999999963E+04  0.15000000000E+04  0.10566000000E+00 0.  1.
        994   -1    0    0    0    0 -0.00000000000E+00 -0.00000000000E+00  0.11368683772E-12  0.17120000000E+03  0.17120000000E+03 0.  0.
         13    1    1    2    0    0 -0.70352908039E+02  0.15322694288E+02  0.13312343475E+03  0.15134786643E+03  0.10566000000E+00 0.  1.
        994    1    1    2    0    0  0.61695564275E+02 -0.18915938265E+02  0.33006111446E+02  0.18591126584E+03  0.17120000000E+03 0.  0.
        998    1    1    2    0    0  0.86573437634E+01  0.35932439773E+01  0.13338704501E+04  0.13339408677E+04  0.10000000000E+02 0.  1.
</event>
<event>
 5    1  0.1145138E-008  0.3743835E+03  0.7957747E-01  0.3475984E+00
         13   -1    0    0    0    0  0.00000000000E+00  0.00000000000E+00  0.14999999963E+04  0.15000000000E+04  0.10566000000E+00 0.  1.
        994   -1    0    0    0    0 -0.00000000000E+00 -0.00000000000E+00  0.11368683772E-12  0.17120000000E+03  0.17120000000E+03 0.  0.
         13    1    1    2    0    0  0.11513005496E+02 -0.42758094991E+02  0.16594243891E+03  0.17174896849E+03  0.10566000000E+00 0.  1.
        994    1    1    2    0    0  0.97780505790E+00 -0.80610124997E+01  0.72202610977E+01  0.17154447877E+03  0.17120000000E+03 0.  0.
        998    1    1    2    0    0 -0.12490810554E+02  0.50819107491E+02  0.13268372963E+04  0.13279065527E+04  0.10000000000E+02 0.  1.
</event>
<event>
 5    1  0.1145138E-008  0.3769473E+03  0.7957747E-01  0.3464559E+00
         13   -1    0    0    0    0  0.00000000000E+00  0.00000000000E+00  0.14999999963E+04  0.15000000000E+04  0.10566000000E+00 0.  1.
        994   -1    0    0    0    0 -0.00000000000E+00 -0.00000000000E+00  0.11368683772E-12  0.17120000000E+03  0.17120000000E+03 0.  0.
         13    1    1    2    0    0  0.31144626099E+02 -0.73800533207E+01  0.10000960462E+03  0.10500659552E+03  0.10566000000E+00 0.  1.
        994    1    1    2    0    0  0.86247435867E+01  0.11171576187E+01  0.59376069707E+01  0.17152355354E+03  0.17120000000E+03 0.  0.
        998    1    1    2    0    0 -0.39769369685E+02  0.62628957020E+01  0.13940527847E+04  0.13946698509E+04  0.10000000000E+02 0.  1.
</event>
<event>
 5    1  0.1145138E-008  0.3765395E+03  0.7957747E-01  0.3466366E+00
         13   -1    0    0    0    0  0.00000000000E+00  0.00000000000E+00  0.14999999963E+04  0.15000000000E+04  0.10566000000E+00 0.  1.
        994   -1    0    0    0    0 -0.00000000000E+00 -0.00000000000E+00  0.11368683772E-12  0.17120000000E+03  0.17120000000E+03 0.  0.
         13    1    1    2    0    0 -0.79174959551E+01 -0.86309282653E+01  0.88200225740E+01  0.14662319979E+02  0.10566000000E+00 0.  1.
        994    1    1    2    0    0  0.75657043391E+01  0.15468444027E+02  0.68936120361E+01  0.17220184241E+03  0.17120000000E+03 0.  0.
        998    1    1    2    0    0  0.35179161601E+00 -0.68375157621E+01  0.14842863617E+04  0.14843358376E+04  0.10000000000E+02 0.  1.
</event>
<event>
 5    1  0.1145138E-008  0.3772651E+03  0.7957747E-01  0.3463154E+00
         13   -1    0    0    0    0  0.00000000000E+00  0.00000000000E+00  0.14999999963E+04  0.15000000000E+04  0.10566000000E+00 0.  1.
        994   -1    0    0    0    0 -0.00000000000E+00 -0.00000000000E+00  0.11368683772E-12  0.17120000000E+03  0.17120000000E+03 0.  0.
         13    1    1    2    0    0  0.55588977270E+01 -0.17861703615E+02  0.29042935434E+02  0.34546274222E+02  0.10566000000E+00 0.  1.
        994    1    1    2    0    0  0.65619434244E+01  0.20388043680E+02  0.70691586889E+01  0.17267931095E+03  0.17120000000E+03 0.  0.
        998    1    1    2    0    0 -0.12120841151E+02 -0.25263400648E+01  0.14638879022E+04  0.14639744148E+04  0.10000000000E+02 0.  1.
</event>
<event>
 5    1  0.1145138E-008  0.3685396E+03  0.7957747E-01  0.3502630E+00
         13   -1    0    0    0    0  0.00000000000E+00  0.00000000000E+00  0.14999999963E+04  0.15000000000E+04  0.10566000000E+00 0.  1.
        994   -1    0    0    0    0 -0.00000000000E+00 -0.00000000000E+00  0.11368683772E-12  0.17120000000E+03  0.17120000000E+03 0.  0.
         13    1    1    2    0    0 -0.56151677050E+02  0.10424623634E+03  0.44411300744E+03  0.45962665628E+03  0.10566000000E+00 0.  1.
        994    1    1    2    0    0  0.51705336353E+02 -0.11336207569E+03  0.66290631664E+02  0.22187449123E+03  0.17120000000E+03 0.  0.
        998    1    1    2    0    0  0.44463406966E+01  0.91158393596E+01  0.98959635718E+03  0.98969885249E+03  0.10000000000E+02 0.  1.
</event>
<event>
 5    1  0.1145138E-008  0.3736416E+03  0.7957747E-01  0.3479320E+00
         13   -1    0    0    0    0  0.00000000000E+00  0.00000000000E+00  0.14999999963E+04  0.15000000000E+04  0.10566000000E+00 0. -1.
        994   -1    0    0    0    0 -0.00000000000E+00 -0.00000000000E+00  0.11368683772E-12  0.17120000000E+03  0.17120000000E+03 0.  0.
         13    1    1    2    0    0 -0.33322443313E+02  0.68717486637E+01  0.49038446473E+02  0.59685731583E+02  0.10566000000E+00 0. -1.
        994    1    1    2    0    0 -0.57153495113E+02  0.48370668449E+01  0.24620766104E+02  0.18222387698E+03  0.17120000000E+03 0.  0.
        998    1    1    2    0    0  0.90475938427E+02 -0.11708815509E+02  0.14263407837E+04  0.14292903914E+04  0.10000000000E+02 0. -1.
</event>
<event>
 5    1  0.1145138E-008  0.3801866E+03  0.7957747E-01  0.3450347E+00
         13   -1    0    0    0    0  0.00000000000E+00  0.00000000000E+00  0.14999999963E+04  0.15000000000E+04  0.10566000000E+00 0. -1.
        994   -1    0    0    0    0 -0.00000000000E+00 -0.00000000000E+00  0.11368683772E-12  0.17120000000E+03  0.17120000000E+03 0.  0.
         13    1    1    2    0    0  0.31429955099E+02 -0.34314124277E+02  0.59763364290E+02  0.75742802151E+02  0.10566000000E+00 0. -1.
        994    1    1    2    0    0 -0.27078670390E+02  0.21117218300E+02  0.20717363071E+02  0.17583469632E+03  0.17120000000E+03 0.  0.
        998    1    1    2    0    0 -0.43512847088E+01  0.13196905978E+02  0.14195192689E+04  0.14196225015E+04  0.10000000000E+02 0. -1.
</event>
<event>
 5    1  0.1145138E-008  0.3788102E+03  0.7957747E-01  0.3456356E+00
         13   -1    0    0    0    0  0.00000000000E+00  0.00000000000E+00  0.14999999963E+04  0.15000000000E+04  0.10566000000E+00 0. -1.
        994   -1    0    0    0    0 -0.00000000000E+00 -0.00000000000E+00  0.11368683772E-12  0.17120000000E+03  0.17120000000E+03 0.  0.
         13    1    1    2    0    0  0.48765366757E+02  0.34602347893E+02  0.30013726456E+03  0.30603557345E+03  0.10566000000E+00 0. -1.
        994    1    1    2    0    0 -0.46798720265E+02 -0.38765385507E+02  0.17230217250E+02  0.18248067218E+03  0.17120000000E+03 0.  0.
        998    1    1    2    0    0 -0.19666464929E+01  0.41630376134E+01  0.11826325145E+04  0.11826837544E+04  0.10000000000E+02 0. -1.
</event>
<event>
 5    1  0.1145138E-008  0.3794721E+03  0.7957747E-01  0.3453460E+00
         13   -1    0    0    0    0  0.00000000000E+00  0.00000000000E+00  0.14999999963E+04  0.15000000000E+04  0.10566000000E+00 0.  1.
        994   -1    0    0    0    0 -0.00000000000E+00 -0.00000000000E+00  0.11368683772E-12  0.17120000000E+03  0.17120000000E+03 0.  0.
         13    1    1    2    0    0  0.19442614774E+02 -0.11992429502E+02  0.56746124268E+02  0.61171622654E+02  0.10566000000E+00 0. -1.
        994    1    1    2    0    0 -0.13273005040E+02  0.14460834926E+02  0.56911714928E+01  0.17241553829E+03  0.17120000000E+03 0.  0.
        998    1    1    2    0    0 -0.61696097341E+01 -0.24684054232E+01  0.14375627005E+04  0.14376128391E+04  0.10000000000E+02 0.  1.
</event>
<event>
 5    1  0.1145138E-008  0.3842028E+03  0.7957747E-01  0.3433060E+00
         13   -1    0    0    0    0  0.00000000000E+00  0.00000000000E+00  0.14999999963E+04  0.15000000000E+04  0.10566000000E+00 0. -1.
        994   -1    0    0    0    0 -0.00000000000E+00 -0.00000000000E+00  0.11368683772E-12  0.17120000000E+03  0.17120000000E+03 0.  0.
         13    1    1    2    0    0  0.20056191365E+02 -0.11288825413E+02  0.11232925371E+03  0.11466281347E+03  0.10566000000E+00 0. -1.
        994    1    1    2    0    0 -0.23528640616E+02  0.29116433224E+02  0.66607034115E+01  0.17537151588E+03  0.17120000000E+03 0.  0.
        998    1    1    2    0    0  0.34724492507E+01 -0.17827607811E+02  0.13810100392E+04  0.13811656706E+04  0.10000000000E+02 0. -1.
</event>
<event>
 5    1  0.1145138E-008  0.3810073E+03  0.7957747E-01  0.3446784E+00
         13   -1    0    0    0    0  0.00000000000E+00  0.00000000000E+00  0.14999999963E+04  0.15000000000E+04  0.10566000000E+00 0.  1.
        994   -1    0    0    0    0 -0.00000000000E+00 -0.00000000000E+00  0.11368683772E-12  0.17120000000E+03  0.17120000000E+03 0.  0.
         13    1    1    2    0    0 -0.18417875298E+00  0.32310426939E+02  0.13071648948E+03  0.13465069400E+03  0.10566000000E+00 0.  1.
        994    1    1    2    0    0  0.71847859016E+00 -0.33509851813E+02  0.73776641379E+01  0.17460611761E+03  0.17120000000E+03 0.  0.
        998    1    1    2    0    0 -0.53429983718E+00  0.11994248743E+01  0.13619058427E+04  0.13619431884E+04  0.10000000000E+02 0.  1.
</event>
<event>
 5    1  0.1145138E-008  0.3758422E+03  0.7957747E-01  0.3469465E+00
         13   -1    0    0    0    0  0.00000000000E+00  0.00000000000E+00  0.14999999963E+04  0.15000000000E+04  0.10566000000E+00 0. -1.
        994   -1    0    0    0    0 -0.00000000000E+00 -0.00000000000E+00  0.11368683772E-12  0.17120000000E+03  0.17120000000E+03 0.  0.
         13    1    1    2    0    0  0.11137369187E+02  0.21645584426E+01  0.74570023618E+01  0.13577347087E+02  0.10566000000E+00 0. -1.
        994    1    1    2    0    0 -0.76589550982E+01 -0.42051623021E+01  0.65056828781E+01  0.17154622378E+03  0.17120000000E+03 0.  0.
        998    1    1    2    0    0 -0.34784140886E+01  0.20406038594E+01  0.14860373110E+04  0.14860764291E+04  0.10000000000E+02 0. -1.
</event>
<event>
 5    1  0.1145138E-008  0.3844356E+03  0.7957747E-01  0.3432069E+00
         13   -1    0    0    0    0  0.00000000000E+00  0.00000000000E+00  0.14999999963E+04  0.15000000000E+04  0.10566000000E+00 0.  1.
        994   -1    0    0    0    0 -0.00000000000E+00 -0.00000000000E+00  0.11368683772E-12  0.17120000000E+03  0.17120000000E+03 0.  0.
         13    1    1    2    0    0 -0.21682825648E+02 -0.16147192534E+01  0.12747524301E+03  0.12931628278E+03  0.10566000000E+00 0.  1.
        994    1    1    2    0    0  0.96391881010E+01  0.69670156229E-01  0.22168073113E+01  0.17148548929E+03  0.17120000000E+03 0.  0.
        998    1    1    2    0    0  0.12043637547E+02  0.15450490971E+01  0.13703079460E+04  0.13703982279E+04  0.10000000000E+02 0.  1.
</event>
<event>
 5    1  0.1145138E-008  0.3774132E+03  0.7957747E-01  0.3462500E+00
         13   -1    0    0    0    0  0.00000000000E+00  0.00000000000E+00  0.14999999963E+04  0.15000000000E+04  0.10566000000E+00 0. -1.
        994   -1    0    0    0    0 -0.00000000000E+00 -0.00000000000E+00  0.11368683772E-12  0.17120000000E+03  0.17120000000E+03 0.  0.
         13    1    1    2    0    0 -0.23158686193E+02  0.51768526588E+00  0.46616091431E+02  0.52054431978E+02  0.10566000000E+00 0. -1.
        994    1    1    2    0    0  0.18155457487E+02 -0.26266034147E+02  0.88899624535E+01  0.17437888811E+03  0.17120000000E+03 0.  0.
        998    1    1    2    0    0  0.50032287058E+01  0.25748348881E+02  0.14444939424E+04  0.14447666799E+04  0.10000000000E+02 0. -1.
</event>
<event>
 5    1  0.1145138E-008  0.3808394E+03  0.7957747E-01  0.3447512E+00
         13   -1    0    0    0    0  0.00000000000E+00  0.00000000000E+00  0.14999999963E+04  0.15000000000E+04  0.10566000000E+00 0.  1.
        994   -1    0    0    0    0 -0.00000000000E+00 -0.00000000000E+00  0.11368683772E-12  0.17120000000E+03  0.17120000000E+03 0.  0.
         13    1    1    2    0    0  0.28330394014E+01 -0.14414810405E+02  0.27419399996E+02  0.31107033472E+02  0.10566000000E+00 0.  1.
        994    1    1    2    0    0 -0.70198490927E+01  0.11369553790E+02  0.43054350815E+01  0.17177462503E+03  0.17120000000E+03 0.  0.
        998    1    1    2    0    0  0.41868096912E+01  0.30452566152E+01  0.14682751612E+04  0.14683183415E+04  0.10000000000E+02 0.  1.
</event>
<event>
 5    1  0.1145138E-008  0.3804012E+03  0.7957747E-01  0.3449414E+00
         13   -1    0    0    0    0  0.00000000000E+00  0.00000000000E+00  0.14999999963E+04  0.15000000000E+04  0.10566000000E+00 0. -1.
        994   -1    0    0    0    0 -0.00000000000E+00 -0.00000000000E+00  0.11368683772E-12  0.17120000000E+03  0.17120000000E+03 0.  0.
         13    1    1    2    0    0  0.14198042787E+02  0.17665483466E+02  0.72083576385E+02  0.75562602348E+02  0.10566000000E+00 0. -1.
        994    1    1    2    0    0  0.25477593606E+01  0.13220265828E+02  0.45361552738E+01  0.17178848393E+03  0.17120000000E+03 0.  0.
        998    1    1    2    0    0 -0.16745802147E+02 -0.30885749294E+02  0.14233802646E+04  0.14238489137E+04  0.10000000000E+02 0. -1.
</event>
<event>
 5    1  0.1145138E-008  0.3842376E+03  0.7957747E-01  0.3432912E+00
         13   -1    0    0    0    0  0.00000000000E+00  0.00000000000E+00  0.14999999963E+04  0.15000000000E+04  0.10566000000E+00 0.  1.
        994   -1    0    0    0    0 -0.00000000000E+00 -0.00000000000E+00  0.11368683772E-12  0.17120000000E+03  0.17120000000E+03 0.  0.
         13    1    1    2    0    0  0.15954775835E+02 -0.63618056027E+01  0.74690852457E+02  0.76640472645E+02  0.10566000000E+00 0.  1.
        994    1    1    2    0    0 -0.78224938721E+01  0.94259730516E+00  0.22138138209E+01  0.17139551007E+03  0.17120000000E+03 0.  0.
        998    1    1    2    0    0 -0.81322819628E+01  0.54192082975E+01  0.14230953300E+04  0.14231640173E+04  0.10000000000E+02 0.  1.
</event>
<event>
 5    1  0.1145138E-008  0.3840951E+03  0.7957747E-01  0.3433519E+00
         13   -1    0    0    0    0  0.00000000000E+00  0.00000000000E+00  0.14999999963E+04  0.15000000000E+04  0.10566000000E+00 0. -1.
        994   -1    0    0    0    0 -0.00000000000E+00 -0.00000000000E+00  0.11368683772E-12  0.17120000000E+03  0.17120000000E+03 0.  0.
         13    1    1    2    0    0  0.52174268436E+01 -0.23030070563E+02  0.13295656131E+03  0.13503726912E+03  0.10566000000E+00 0. -1.
        994    1    1    2    0    0  0.27305546733E+01  0.16133440658E+02  0.29636642313E+01  0.17200571834E+03  0.17120000000E+03 0.  0.
        998    1    1    2    0    0 -0.79479815169E+01  0.68966299051E+01  0.13640797707E+04  0.13641570125E+04  0.10000000000E+02 0. -1.
</event>
<event>
 5    1  0.1145138E-008  0.3827280E+03  0.7957747E-01  0.3439366E+00
         13   -1    0    0    0    0  0.00000000000E+00  0.00000000000E+00  0.14999999963E+04  0.15000000000E+04  0.10566000000E+00 0. -1.
        994   -1    0    0    0    0 -0.00000000000E+00 -0.00000000000E+00  0.11368683772E-12  0.17120000000E+03  0.17120000000E+03 0.  0.
         13    1    1    2    0    0  0.13581664575E+02  0.54839154180E+00  0.32845084845E+02  0.35546773530E+02  0.10566000000E+00 0. -1.
        994    1    1    2    0    0 -0.61720176754E+01 -0.45414443196E+01  0.29569390587E+01  0.17139691365E+03  0.17120000000E+03 0.  0.
        998    1    1    2    0    0 -0.74096468994E+01  0.39930527778E+01  0.14641979724E+04  0.14642563128E+04  0.10000000000E+02 0. -1.
</event>
<event>
 5    1  0.1228242E-008  0.3845634E+03  0.7957747E-01  0.3431526E+00
         13   -1    0    0    0    0  0.00000000000E+00  0.00000000000E+00  0.14999999963E+04  0.15000000000E+04  0.10566000000E+00 0. -1.
        994   -1    0    0    0    0 -0.00000000000E+00 -0.00000000000E+00  0.11368683772E-12  0.17120000000E+03  0.17120000000E+03 0.  0.
         13    1    1    2    0    0 -0.26313934452E+01  0.10847166616E+02  0.33107365420E+02  0.34938432480E+02  0.10566000000E+00 0. -1.
        994    1    1    2    0    0  0.12725345646E+01 -0.92774731202E+01  0.21358880808E+01  0.17146921843E+03  0.17120000000E+03 0.  0.
        998    1    1    2    0    0  0.13588588806E+01 -0.15696934954E+01  0.14647567428E+04  0.14647923491E+04  0.10000000000E+02 0. -1.
</event>
<event>
 5    1  0.1145138E-008  0.3808415E+03  0.7957747E-01  0.3447503E+00
         13   -1    0    0    0    0  0.00000000000E+00  0.00000000000E+00  0.14999999963E+04  0.15000000000E+04  0.10566000000E+00 0. -1.
        994   -1    0    0    0    0 -0.00000000000E+00 -0.00000000000E+00  0.11368683772E-12  0.17120000000E+03  0.17120000000E+03 0.  0.
         13    1    1    2    0    0  0.12400284187E+02  0.29903373914E+02  0.15380701920E+03  0.15717693577E+03  0.10566000000E+00 0. -1.
        994    1    1    2    0    0  0.56773834959E+00 -0.60621274057E+01  0.38325853051E+01  0.17135110279E+03  0.17120000000E+03 0.  0.
        998    1    1    2    0    0 -0.12968022536E+02 -0.23841246508E+02  0.13423603918E+04  0.13426719614E+04  0.10000000000E+02 0.  1.
</event>
<event>
 5    1  0.1145138E-008  0.3685950E+03  0.7957747E-01  0.3502373E+00
         13   -1    0    0    0    0  0.00000000000E+00  0.00000000000E+00  0.14999999963E+04  0.15000000000E+04  0.10566000000E+00 0. -1.
        994   -1    0    0    0    0 -0.00000000000E+00 -0.00000000000E+00  0.11368683772E-12  0.17120000000E+03  0.17120000000E+03 0.  0.
         13    1    1    2    0    0 -0.49907434841E+02  0.40441502631E+01  0.15156866351E+03  0.15962511747E+03  0.10566000000E+00 0. -1.
        994    1    1    2    0    0 -0.15577735544E+02  0.27109820163E+02  0.13409582567E+02  0.17454760124E+03  0.17120000000E+03 0.  0.
        998    1    1    2    0    0  0.65485170385E+02 -0.31153970427E+02  0.13350217502E+04  0.13370272813E+04  0.10000000000E+02 0. -1.
</event>
<event>
 5    1  0.1145138E-008  0.3792256E+03  0.7957747E-01  0.3454537E+00
         13   -1    0    0    0    0  0.00000000000E+00  0.00000000000E+00  0.14999999963E+04  0.15000000000E+04  0.10566000000E+00 0.  1.
        994   -1    0    0    0    0 -0.00000000000E+00 -0.00000000000E+00  0.11368683772E-12  0.17120000000E+03  0.17120000000E+03 0.  0.
         13    1    1    2    0    0  0.15717320170E+01  0.12688244329E+03  0.74415101137E+03  0.75489228612E+03  0.10566000000E+00 0.  1.
        994    1    1    2    0    0 -0.10898951810E+02 -0.13374695683E+03  0.67453309846E+02  0.22774201330E+03  0.17120000000E+03 0.  0.
        998    1    1    2    0    0  0.93272197930E+01  0.68645135320E+01  0.68839567507E+03  0.68856570059E+03  0.10000000000E+02 0. -1.
</event>
<event>
 5    1  0.1145138E-008  0.3860668E+03  0.7957747E-01  0.3425160E+00
         13   -1    0    0    0    0  0.00000000000E+00  0.00000000000E+00  0.14999999963E+04  0.15000000000E+04  0.10566000000E+00 0. -1.
        994   -1    0    0    0    0 -0.00000000000E+00 -0.00000000000E+00  0.11368683772E-12  0.17120000000E+03  0.17120000000E+03 0.  0.
         13    1    1    2    0    0 -0.10320020316E+02  0.53515902285E+01  0.58230873331E+02  0.59380031242E+02  0.10566000000E+00 0. -1.
        994    1    1    2    0    0  0.72972036275E-02 -0.40814350161E+02  0.65799161475E+01  0.17612082934E+03  0.17120000000E+03 0.  0.
        998    1    1    2    0    0  0.10312723113E+02  0.35462759933E+02  0.14351892068E+04  0.14356991394E+04  0.10000000000E+02 0. -1.
</event>
<event>
 5    1  0.1145138E-008  0.3824472E+03  0.7957747E-01  0.3440572E+00
         13   -1    0    0    0    0  0.00000000000E+00  0.00000000000E+00  0.14999999963E+04  0.15000000000E+04  0.10566000000E+00 0. -1.
        994   -1    0    0    0    0 -0.00000000000E+00 -0.00000000000E+00  0.11368683772E-12  0.17120000000E+03  0.17120000000E+03 0.  0.
         13    1    1    2    0    0 -0.19700980552E+02  0.84479138582E+01  0.78243018549E+02  0.81126302757E+02  0.10566000000E+00 0. -1.
        994    1    1    2    0    0  0.10088056333E+02 -0.10899219083E+02  0.36346268912E+01  0.17188139041E+03  0.17120000000E+03 0.  0.
        998    1    1    2    0    0  0.96129242183E+01  0.24513052249E+01  0.14181223508E+04  0.14181923068E+04  0.10000000000E+02 0. -1.
</event>
<event>
 5    1  0.1145138E-008  0.3818984E+03  0.7957747E-01  0.3442934E+00
         13   -1    0    0    0    0  0.00000000000E+00  0.00000000000E+00  0.14999999963E+04  0.15000000000E+04  0.10566000000E+00 0.  1.
        994   -1    0    0    0    0 -0.00000000000E+00 -0.00000000000E+00  0.11368683772E-12  0.17120000000E+03  0.17120000000E+03 0.  0.
         13    1    1    2    0    0  0.25747442471E+02 -0.22598099747E+02  0.15394443928E+03  0.15771019769E+03  0.10566000000E+00 0.  1.
        994    1    1    2    0    0 -0.33622266012E+02  0.30294780805E+02  0.10012353788E+02  0.17736380055E+03  0.17120000000E+03 0.  0.
        998    1    1    2    0    0  0.78748235402E+01 -0.76966810582E+01  0.13360432032E+04  0.13361260018E+04  0.10000000000E+02 0.  1.
</event>
<event>
 5    1  0.1145138E-008  0.3851847E+03  0.7957747E-01  0.3428889E+00
         13   -1    0    0    0    0  0.00000000000E+00  0.00000000000E+00  0.14999999963E+04  0.15000000000E+04  0.10566000000E+00 0. -1.
        994   -1    0    0    0    0 -0.00000000000E+00 -0.00000000000E+00  0.11368683772E-12  0.17120000000E+03  0.17120000000E+03 0.  0.
         13    1    1    2    0    0  0.10527073092E+02 -0.14981423590E+02  0.10497621896E+03  0.10656115630E+03  0.10566000000E+00 0. -1.
        994    1    1    2    0    0 -0.42351387412E+01  0.17155784770E+02  0.25654224873E+01  0.17212866915E+03  0.17120000000E+03 0.  0.
        998    1    1    2    0    0 -0.62919343505E+01 -0.21743611803E+01  0.13924583548E+04  0.13925101745E+04  0.10000000000E+02 0. -1.
</event>
<event>
 5    1  0.1145138E-008  0.3828508E+03  0.7957747E-01  0.3438838E+00
         13   -1    0    0    0    0  0.00000000000E+00  0.00000000000E+00  0.14999999963E+04  0.15000000000E+04  0.10566000000E+00 0.  1.
        994   -1    0    0    0    0 -0.00000000000E+00 -0.00000000000E+00  0.11368683772E-12  0.17120000000E+03  0.17120000000E+03 0.  0.
         13    1    1    2    0    0  0.26613182335E+01 -0.17250094118E+02  0.52985744530E+02  0.55786635042E+02  0.10566000000E+00 0.  1.
        994    1    1    2    0    0  0.23562839780E+02  0.26213159280E+02  0.68261264281E+01  0.17492390671E+03  0.17120000000E+03 0.  0.
        998    1    1    2    0    0 -0.26224158014E+02 -0.89630651615E+01  0.14401881253E+04  0.14404894582E+04  0.10000000000E+02 0.  1.
</event>
<event>
 5    1  0.1145138E-008  0.3858574E+03  0.7957747E-01  0.3426044E+00
         13   -1    0    0    0    0  0.00000000000E+00  0.00000000000E+00  0.14999999963E+04  0.15000000000E+04  0.10566000000E+00 0. -1.
        994   -1    0    0    0    0 -0.00000000000E+00 -0.00000000000E+00  0.11368683772E-12  0.17120000000E+03  0.17120000000E+03 0.  0.
         13    1    1    2    0    0 -0.12319731923E+02  0.47043432559E+01  0.72219911535E+02  0.73414122799E+02  0.10566000000E+00 0. -1.
        994    1    1    2    0    0  0.14117882403E+02  0.86473778303E+01  0.21044423532E+01  0.17201151248E+03  0.17120000000E+03 0.  0.
        998    1    1    2    0    0 -0.17981504800E+01 -0.13351721086E+02  0.14256756424E+04  0.14257743647E+04  0.10000000000E+02 0. -1.
</event>
<event>
 5    1  0.1145138E-008  0.3694839E+03  0.7957747E-01  0.3498266E+00
         13   -1    0    0    0    0  0.00000000000E+00  0.00000000000E+00  0.14999999963E+04  0.15000000000E+04  0.10566000000E+00 0. -1.
        994   -1    0    0    0    0 -0.00000000000E+00 -0.00000000000E+00  0.11368683772E-12  0.17120000000E+03  0.17120000000E+03 0.  0.
         13    1    1    2    0    0  0.30127841175E+02 -0.51277645217E+02  0.11855310802E+03  0.13263458937E+03  0.10566000000E+00 0. -1.
        994    1    1    2    0    0 -0.12909154056E+03  0.58940284227E+02  0.84649047649E+02  0.23793588257E+03  0.17120000000E+03 0.  0.
        998    1    1    2    0    0  0.98963699383E+02 -0.76626390104E+01  0.12967978406E+04  0.13006295281E+04  0.10000000000E+02 0. -1.
</event>
<event>
 5    1  0.1145138E-008  0.3813971E+03  0.7957747E-01  0.3445098E+00
         13   -1    0    0    0    0  0.00000000000E+00  0.00000000000E+00  0.14999999963E+04  0.15000000000E+04  0.10566000000E+00 0.  1.
        994   -1    0    0    0    0 -0.00000000000E+00 -0.00000000000E+00  0.11368683772E-12  0.17120000000E+03  0.17120000000E+03 0.  0.
         13    1    1    2    0    0 -0.34213869365E+02 -0.31634556432E+01  0.15430851868E+03  0.15808771746E+03  0.10566000000E+00 0.  1.
        994    1    1    2    0    0  0.34686634070E+02  0.64571352919E+01  0.75829756381E+01  0.17496227793E+03  0.17120000000E+03 0.  0.
        998    1    1    2    0    0 -0.47276470469E+00 -0.32936796487E+01  0.13381085020E+04  0.13381500046E+04  0.10000000000E+02 0.  1.
</event>
<event>
 5    1  0.1145138E-008  0.3724098E+03  0.7957747E-01  0.3484888E+00
         13   -1    0    0    0    0  0.00000000000E+00  0.00000000000E+00  0.14999999963E+04  0.15000000000E+04  0.10566000000E+00 0.  1.
        994   -1    0    0    0    0 -0.00000000000E+00 -0.00000000000E+00  0.11368683772E-12  0.17120000000E+03  0.17120000000E+03 0.  0.
         13    1    1    2    0    0 -0.78690012426E+02 -0.66534801231E+02  0.46174066571E+03  0.47309983235E+03  0.10566000000E+00 0.  1.
        994    1    1    2    0    0  0.66465023062E+02  0.76732500710E+02  0.44226319387E+02  0.20388938982E+03  0.17120000000E+03 0.  0.
        998    1    1    2    0    0  0.12224989364E+02 -0.10197699480E+02  0.99403301118E+03  0.99421077783E+03  0.10000000000E+02 0.  1.
</event>
<event>
 5    1  0.1145138E-008  0.3822013E+03  0.7957747E-01  0.3441629E+00
         13   -1    0    0    0    0  0.00000000000E+00  0.00000000000E+00  0.14999999963E+04  0.15000000000E+04  0.10566000000E+00 0. -1.
        994   -1    0    0    0    0 -0.00000000000E+00 -0.00000000000E+00  0.11368683772E-12  0.17120000000E+03  0.17120000000E+03 0.  0.
         13    1    1    2    0    0 -0.20080618941E+02 -0.12713967151E+02  0.88890295290E+02  0.92012890285E+02  0.10566000000E+00 0. -1.
        994    1    1    2    0    0  0.16224255022E+02  0.14975789277E+02  0.46456528634E+01  0.17268040655E+03  0.17120000000E+03 0.  0.
        998    1    1    2    0    0  0.38563639183E+01 -0.22618221263E+01  0.14064640481E+04  0.14065067032E+04  0.10000000000E+02 0. -1.
</event>
<event>
 5    1  0.1145138E-008  0.3843654E+03  0.7957747E-01  0.3432368E+00
         13   -1    0    0    0    0  0.00000000000E+00  0.00000000000E+00  0.14999999963E+04  0.15000000000E+04  0.10566000000E+00 0. -1.
        994   -1    0    0    0    0 -0.00000000000E+00 -0.00000000000E+00  0.11368683772E-12  0.17120000000E+03  0.17120000000E+03 0.  0.
         13    1    1    2    0    0 -0.37656410443E+02  0.61880971643E+02  0.14102115227E+03  0.15853780764E+03  0.10566000000E+00 0. -1.
        994    1    1    2    0    0  0.57906482676E+02 -0.32372826361E+01  0.31239610892E+02  0.18343662127E+03  0.17120000000E+03 0.  0.
        998    1    1    2    0    0 -0.20250072233E+02 -0.58643689007E+02  0.13277392331E+04  0.13292255711E+04  0.10000000000E+02 0. -1.
</event>
<event>
 5    1  0.1145138E-008  0.3849251E+03  0.7957747E-01  0.3429990E+00
         13   -1    0    0    0    0  0.00000000000E+00  0.00000000000E+00  0.14999999963E+04  0.15000000000E+04  0.10566000000E+00 0. -1.
        994   -1    0    0    0    0 -0.00000000000E+00 -0.00000000000E+00  0.11368683772E-12  0.17120000000E+03  0.17120000000E+03 0.  0.
         13    1    1    2    0    0  0.71259591499E+01 -0.10332281297E+02  0.46564927125E+02  0.48226952349E+02  0.10566000000E+00 0. -1.
        994    1    1    2    0    0  0.85511636975E+01  0.19216933458E+02  0.31239759406E+01  0.17251554179E+03  0.17120000000E+03 0.  0.
        998    1    1    2    0    0 -0.15677122847E+02 -0.88846521606E+01  0.14503110932E+04  0.14504575059E+04  0.10000000000E+02 0. -1.
</event>
<event>
 5    1  0.1145138E-008  0.3715892E+03  0.7957747E-01  0.3488619E+00
         13   -1    0    0    0    0  0.00000000000E+00  0.00000000000E+00  0.14999999963E+04  0.15000000000E+04  0.10566000000E+00 0.  1.
        994   -1    0    0    0    0 -0.00000000000E+00 -0.00000000000E+00  0.11368683772E-12  0.17120000000E+03  0.17120000000E+03 0.  0.
         13    1    1    2    0    0 -0.58770886882E+02  0.39924510918E+02  0.37385488244E+03  0.38054627578E+03  0.10566000000E+00 0.  1.
        994    1    1    2    0    0  0.52989305441E+02  0.43498647301E+02  0.24780692767E+02  0.18607396793E+03  0.17120000000E+03 0.  0.
        998    1    1    2    0    0  0.57815814408E+01 -0.83423158219E+02  0.11013644211E+04  0.11045797563E+04  0.10000000000E+02 0.  1.
</event>
<event>
 5    1  0.1145138E-008  0.3788316E+03  0.7957747E-01  0.3456262E+00
         13   -1    0    0    0    0  0.00000000000E+00  0.00000000000E+00  0.14999999963E+04  0.15000000000E+04  0.10566000000E+00 0.  1.
        994   -1    0    0    0    0 -0.00000000000E+00 -0.00000000000E+00  0.11368683772E-12  0.17120000000E+03  0.17120000000E+03 0.  0.
         13    1    1    2    0    0 -0.15680357882E+02  0.77443985842E+01  0.33410114484E+02  0.37710691410E+02  0.10566000000E+00 0.  1.
        994    1    1    2    0    0 -0.40606889686E+02 -0.40145651234E+02  0.15745176143E+02  0.18115723385E+03  0.17120000000E+03 0.  0.
        998    1    1    2    0    0  0.56287247569E+02  0.32401252650E+02  0.14508447057E+04  0.14523320747E+04  0.10000000000E+02 0.  1.
</event>
<event>
 5    1  0.1145138E-008  0.3788353E+03  0.7957747E-01  0.3456246E+00
         13   -1    0    0    0    0  0.00000000000E+00  0.00000000000E+00  0.14999999963E+04  0.15000000000E+04  0.10566000000E+00 0. -1.
        994   -1    0    0    0    0 -0.00000000000E+00 -0.00000000000E+00  0.11368683772E-12  0.17120000000E+03  0.17120000000E+03 0.  0.
         13    1    1    2    0    0 -0.15102059362E+02  0.28695692806E+02  0.10856174042E+03  0.11330126932E+03  0.10566000000E+00 0. -1.
        994    1    1    2    0    0  0.60826754840E+01 -0.21237091356E+02  0.63616426855E+01  0.17273657253E+03  0.17120000000E+03 0.  0.
        998    1    1    2    0    0  0.90193838783E+01 -0.74586014500E+01  0.13850766132E+04  0.13851621582E+04  0.10000000000E+02 0. -1.
</event>
<event>
 5    1  0.1145138E-008  0.3722587E+03  0.7957747E-01  0.3485574E+00
         13   -1    0    0    0    0  0.00000000000E+00  0.00000000000E+00  0.14999999963E+04  0.15000000000E+04  0.10566000000E+00 0. -1.
        994   -1    0    0    0    0 -0.00000000000E+00 -0.00000000000E+00  0.11368683772E-12  0.17120000000E+03  0.17120000000E+03 0.  0.
         13    1    1    2    0    0 -0.34905679983E+02  0.27823569427E+02  0.12541088721E+03  0.13311821553E+03  0.10566000000E+00 0. -1.
        994    1    1    2    0    0  0.12502666645E+02 -0.12584328587E+02  0.91736326883E+01  0.17236089329E+03  0.17120000000E+03 0.  0.
        998    1    1    2    0    0  0.22403013338E+02 -0.15239240840E+02  0.13654154764E+04  0.13657208912E+04  0.10000000000E+02 0. -1.
</event>
<event>
 5    1  0.1145138E-008  0.3830675E+03  0.7957747E-01  0.3437910E+00
         13   -1    0    0    0    0  0.00000000000E+00  0.00000000000E+00  0.14999999963E+04  0.15000000000E+04  0.10566000000E+00 0.  1.
        994   -1    0    0    0    0 -0.00000000000E+00 -0.00000000000E+00  0.11368683772E-12  0.17120000000E+03  0.17120000000E+03 0.  0.
         13    1    1    2    0    0 -0.17284231901E+02 -0.80651142855E+00  0.55976475764E+02  0.58589863766E+02  0.10566000000E+00 0.  1.
        994    1    1    2    0    0  0.15009614731E+02  0.12541340067E+01  0.33437655263E+01  0.17189381069E+03  0.17120000000E+03 0.  0.
        998    1    1    2    0    0  0.22746171703E+01 -0.44762257815E+00  0.14406797550E+04  0.14407163255E+04  0.10000000000E+02 0.  1.
</event>
<event>
 5    1  0.1145138E-008  0.3727550E+03  0.7957747E-01  0.3483325E+00
         13   -1    0    0    0    0  0.00000000000E+00  0.00000000000E+00  0.14999999963E+04  0.15000000000E+04  0.10566000000E+00 0. -1.
        994   -1    0    0    0    0 -0.00000000000E+00 -0.00000000000E+00  0.11368683772E-12  0.17120000000E+03  0.17120000000E+03 0.  0.
         13    1    1    2    0    0  0.35181594838E+02 -0.34624618697E+01  0.75049408353E+02  0.82958773591E+02  0.10566000000E+00 0. -1.
        994    1    1    2    0    0 -0.28971601193E+02  0.43474187755E+01  0.10781422788E+02  0.17402279392E+03  0.17120000000E+03 0.  0.
        998    1    1    2    0    0 -0.62099936456E+01 -0.88495690580E+00  0.14141691651E+04  0.14142184325E+04  0.10000000000E+02 0. -1.
</event>
<event>
 5    1  0.1145138E-008  0.3827119E+03  0.7957747E-01  0.3439435E+00
         13   -1    0    0    0    0  0.00000000000E+00  0.00000000000E+00  0.14999999963E+04  0.15000000000E+04  0.10566000000E+00 0. -1.
        994   -1    0    0    0    0 -0.00000000000E+00 -0.00000000000E+00  0.11368683772E-12  0.17120000000E+03  0.17120000000E+03 0.  0.
         13    1    1    2    0    0  0.37062799986E+02  0.64466247561E+01  0.32078001461E+02  0.49439047881E+02  0.10566000000E+00 0. -1.
        994    1    1    2    0    0 -0.37514691198E+02  0.44187612956E+01  0.23065059902E+02  0.17682848892E+03  0.17120000000E+03 0.  0.
        998    1    1    2    0    0  0.45189121204E+00 -0.10865386052E+02  0.14448569349E+04  0.14449324632E+04  0.10000000000E+02 0. -1.
</event>
<event>
 5    1  0.1145138E-008  0.3849483E+03  0.7957747E-01  0.3429892E+00
         13   -1    0    0    0    0  0.00000000000E+00  0.00000000000E+00  0.14999999963E+04  0.15000000000E+04  0.10566000000E+00 0.  1.
        994   -1    0    0    0    0 -0.00000000000E+00 -0.00000000000E+00  0.11368683772E-12  0.17120000000E+03  0.17120000000E+03 0.  0.
         13    1    1    2    0    0 -0.20747014222E+00  0.11114862519E+02  0.36344749860E+02  0.38007041704E+02  0.10566000000E+00 0.  1.
        994    1    1    2    0    0 -0.12378875642E+02 -0.12394808107E+02  0.26658235502E+01  0.17211453874E+03  0.17120000000E+03 0.  0.
        998    1    1    2    0    0  0.12586345785E+02  0.12799455877E+01  0.14609894229E+04  0.14610784196E+04  0.10000000000E+02 0.  1.
</event>
<event>
 5    1  0.1145138E-008  0.3833396E+03  0.7957747E-01  0.3436745E+00
         13   -1    0    0    0    0  0.00000000000E+00  0.00000000000E+00  0.14999999963E+04  0.15000000000E+04  0.10566000000E+00 0.  1.
        994   -1    0    0    0    0 -0.00000000000E+00 -0.00000000000E+00  0.11368683772E-12  0.17120000000E+03  0.17120000000E+03 0.  0.
         13    1    1    2    0    0 -0.93300381386E+01 -0.20217021699E+02  0.97229208199E+02  0.99746216315E+02  0.10566000000E+00 0.  1.
        994    1    1    2    0    0  0.11615682356E+01  0.20104500530E+02  0.37987837286E+01  0.17242218807E+03  0.17120000000E+03 0.  0.
        998    1    1    2    0    0  0.81684699030E+01  0.11252116863E+00  0.13989720044E+04  0.13990315956E+04  0.10000000000E+02 0.  1.
</event>
<event>
 5    1  0.1145138E-008  0.3807055E+03  0.7957747E-01  0.3448092E+00
         13   -1    0    0    0    0  0.00000000000E+00  0.00000000000E+00  0.14999999963E+04  0.15000000000E+04  0.10566000000E+00 0.  1.
        994   -1    0    0    0    0 -0.00000000000E+00 -0.00000000000E+00  0.11368683772E-12  0.17120000000E+03  0.17120000000E+03 0.  0.
         13    1    1    2    0    0  0.21076612470E+01  0.18945091221E+02  0.47122166495E+02  0.50831766215E+02  0.10566000000E+00 0.  1.
        994    1    1    2    0    0 -0.11643089634E+02 -0.89886911837E+01  0.44993454195E+01  0.17188962218E+03  0.17120000000E+03 0.  0.
        998    1    1    2    0    0  0.95354283874E+01 -0.99564000374E+01  0.14483784844E+04  0.14484786116E+04  0.10000000000E+02 0.  1.
</event>
<event>
 5    1  0.1145138E-008  0.3848435E+03  0.7957747E-01  0.3430336E+00
         13   -1    0    0    0    0  0.00000000000E+00  0.00000000000E+00  0.14999999963E+04  0.15000000000E+04  0.10566000000E+00 0.  1.
        994   -1    0    0    0    0 -0.00000000000E+00 -0.00000000000E+00  0.11368683772E-12  0.17120000000E+03  0.17120000000E+03 0.  0.
         13    1    1    2    0    0 -0.11770959430E+02 -0.60044000762E+01  0.57668803545E+02  0.59163420900E+02  0.10566000000E+00 0.  1.
        994    1    1    2    0    0 -0.37311165187E+01 -0.18092425101E+02  0.28315276819E+01  0.17221705672E+03  0.17120000000E+03 0.  0.
        998    1    1    2    0    0  0.15502075948E+02  0.24096825177E+02  0.14394996651E+04  0.14398195224E+04  0.10000000000E+02 0.  1.
</event>
<event>
 5    1  0.1145138E-008  0.3749772E+03  0.7957747E-01  0.3473325E+00
         13   -1    0    0    0    0  0.00000000000E+00  0.00000000000E+00  0.14999999963E+04  0.15000000000E+04  0.10566000000E+00 0.  1.
        994   -1    0    0    0    0 -0.00000000000E+00 -0.00000000000E+00  0.11368683772E-12  0.17120000000E+03  0.17120000000E+03 0.  0.
         13    1    1    2    0    0 -0.45120733100E+02 -0.61822711013E+01  0.16939558205E+03  0.17541087598E+03  0.10566000000E+00 0.  1.
        994    1    1    2    0    0  0.84487802887E+01 -0.19592608819E+01  0.69462014918E+01  0.17156022356E+03  0.17120000000E+03 0.  0.
        998    1    1    2    0    0  0.36671952811E+02  0.81415319832E+01  0.13236582127E+04  0.13242289005E+04  0.10000000000E+02 0.  1.
</event>
<event>
 5    1  0.1145138E-008  0.3849223E+03  0.7957747E-01  0.3430002E+00
         13   -1    0    0    0    0  0.00000000000E+00  0.00000000000E+00  0.14999999963E+04  0.15000000000E+04  0.10566000000E+00 0. -1.
        994   -1    0    0    0    0 -0.00000000000E+00 -0.00000000000E+00  0.11368683772E-12  0.17120000000E+03  0.17120000000E+03 0.  0.
         13    1    1    2    0    0  0.86305490040E+00  0.15140346086E+02  0.68103428723E+02  0.69771506442E+02  0.10566000000E+00 0. -1.
        994    1    1    2    0    0 -0.29511585677E+01 -0.11605681048E+02  0.21405884608E+01  0.17163165002E+03  0.17120000000E+03 0.  0.
        998    1    1    2    0    0  0.20881036673E+01 -0.35346650378E+01  0.14297559791E+04  0.14297968435E+04  0.10000000000E+02 0. -1.
</event>
<event>
 5    1  0.1145138E-008  0.3792645E+03  0.7957747E-01  0.3454367E+00
         13   -1    0    0    0    0  0.00000000000E+00  0.00000000000E+00  0.14999999963E+04  0.15000000000E+04  0.10566000000E+00 0.  1.
        994   -1    0    0    0    0 -0.00000000000E+00 -0.00000000000E+00  0.11368683772E-12  0.17120000000E+03  0.17120000000E+03 0.  0.
         13    1    1    2    0    0 -0.19000680738E+02 -0.25115065661E+02  0.96770122944E+02  0.10176571255E+03  0.10566000000E+00 0.  1.
        994    1    1    2    0    0  0.21544004247E+02  0.37415189179E+02  0.10776865271E+02  0.17688872583E+03  0.17120000000E+03 0.  0.
        998    1    1    2    0    0 -0.25433235087E+01 -0.12300123518E+02  0.13924530081E+04  0.13925455616E+04  0.10000000000E+02 0.  1.
</event>
<event>
 5    1  0.1145138E-008  0.3767591E+03  0.7957747E-01  0.3465393E+00
         13   -1    0    0    0    0  0.00000000000E+00  0.00000000000E+00  0.14999999963E+04  0.15000000000E+04  0.10566000000E+00 0. -1.
        994   -1    0    0    0    0 -0.00000000000E+00 -0.00000000000E+00  0.11368683772E-12  0.17120000000E+03  0.17120000000E+03 0.  0.
         13    1    1    2    0    0  0.52235129500E+02  0.33000499316E+01  0.83816479477E+02  0.98816053753E+02  0.10566000000E+00 0. -1.
        994    1    1    2    0    0 -0.54897085164E+02  0.53401912976E+01  0.25533921243E+02  0.18166900874E+03  0.17120000000E+03 0.  0.
        998    1    1    2    0    0  0.26619556636E+01 -0.86402412292E+01  0.13906495956E+04  0.13907149375E+04  0.10000000000E+02 0. -1.
</event>
<event>
 5    1  0.1145138E-008  0.3845065E+03  0.7957747E-01  0.3431768E+00
         13   -1    0    0    0    0  0.00000000000E+00  0.00000000000E+00  0.14999999963E+04  0.15000000000E+04  0.10566000000E+00 0.  1.
        994   -1    0    0    0    0 -0.00000000000E+00 -0.00000000000E+00  0.11368683772E-12  0.17120000000E+03  0.17120000000E+03 0.  0.
         13    1    1    2    0    0  0.24369061483E+02 -0.14145860425E+02  0.16392936689E+03  0.16633341522E+03  0.10566000000E+00 0.  1.
        994    1    1    2    0    0 -0.31819105445E+02  0.35354305154E+02  0.93632952862E+01  0.17793114866E+03  0.17120000000E+03 0.  0.
        998    1    1    2    0    0  0.74500439620E+01 -0.21208444730E+02  0.13267073341E+04  0.13269354361E+04  0.10000000000E+02 0.  1.
</event>
<event>
 5    1  0.1145138E-008  0.3802511E+03  0.7957747E-01  0.3450066E+00
         13   -1    0    0    0    0  0.00000000000E+00  0.00000000000E+00  0.14999999963E+04  0.15000000000E+04  0.10566000000E+00 0. -1.
        994   -1    0    0    0    0 -0.00000000000E+00 -0.00000000000E+00  0.11368683772E-12  0.17120000000E+03  0.17120000000E+03 0.  0.
         13    1    1    2    0    0 -0.33232334310E+03 -0.66122613515E+02  0.77249858770E+03  0.84354317231E+03  0.10566000000E+00 0. -1.
        994    1    1    2    0    0  0.33224642319E+03  0.60468257291E+02  0.72122296973E+03  0.81456498079E+03  0.17120000000E+03 0.  0.
        998    1    1    2    0    0  0.76919906333E-01  0.56543562248E+01  0.62784388522E+01  0.13091846906E+02  0.10000000000E+02 0. -1.
</event>
<event>
 5    1  0.1145138E-008  0.3814403E+03  0.7957747E-01  0.3444911E+00
         13   -1    0    0    0    0  0.00000000000E+00  0.00000000000E+00  0.14999999963E+04  0.15000000000E+04  0.10566000000E+00 0. -1.
        994   -1    0    0    0    0 -0.00000000000E+00 -0.00000000000E+00  0.11368683772E-12  0.17120000000E+03  0.17120000000E+03 0.  0.
         13    1    1    2    0    0  0.61436433493E+00 -0.14145589586E+02  0.27982867357E+02  0.31361236867E+02  0.10566000000E+00 0. -1.
        994    1    1    2    0    0 -0.26542603067E+01  0.10960001387E+02  0.38310571943E+01  0.17161376322E+03  0.17120000000E+03 0.  0.
        998    1    1    2    0    0  0.20398959718E+01  0.31855881994E+01  0.14681860717E+04  0.14682249999E+04  0.10000000000E+02 0. -1.
</event>
<event>
 5    1  0.1145138E-008  0.3806746E+03  0.7957747E-01  0.3448226E+00
         13   -1    0    0    0    0  0.00000000000E+00  0.00000000000E+00  0.14999999963E+04  0.15000000000E+04  0.10566000000E+00 0.  1.
        994   -1    0    0    0    0 -0.00000000000E+00 -0.00000000000E+00  0.11368683772E-12  0.17120000000E+03  0.17120000000E+03 0.  0.
         13    1    1    2    0    0 -0.20416547629E+02 -0.30838198853E+02  0.21028056813E+03  0.21350821629E+03  0.10566000000E+00 0.  1.
        994    1    1    2    0    0 -0.89973438991E+01  0.82285997028E+01  0.42889956914E+01  0.17168720842E+03  0.17120000000E+03 0.  0.
        998    1    1    2    0    0  0.29413891528E+02  0.22609599151E+02  0.12854304325E+04  0.12860045753E+04  0.10000000000E+02 0.  1.
</event>
<event>
 5    1  0.1145138E-008  0.3298687E+03  0.7957747E-01  0.3703448E+00
         13   -1    0    0    0    0  0.00000000000E+00  0.00000000000E+00  0.14999999963E+04  0.15000000000E+04  0.10566000000E+00 0.  1.
        994   -1    0    0    0    0 -0.00000000000E+00 -0.00000000000E+00  0.11368683772E-12  0.17120000000E+03  0.17120000000E+03 0.  0.
         13    1    1    2    0    0  0.15421622663E+03 -0.13120871983E+03  0.87156062626E+03  0.89477165195E+03  0.10566000000E+00 0.  1.
        994    1    1    2    0    0 -0.11911423974E+03  0.15075186100E+03  0.15340762139E+03  0.29959583443E+03  0.17120000000E+03 0.  0.
        998    1    1    2    0    0 -0.35101986885E+02 -0.19543141167E+02  0.47503174863E+03  0.47683251363E+03  0.10000000000E+02 0.  1.
</event>
<event>
 5    1  0.1145138E-008  0.3808051E+03  0.7957747E-01  0.3447660E+00
         13   -1    0    0    0    0  0.00000000000E+00  0.00000000000E+00  0.14999999963E+04  0.15000000000E+04  0.10566000000E+00 0. -1.
        994   -1    0    0    0    0 -0.00000000000E+00 -0.00000000000E+00  0.11368683772E-12  0.17120000000E+03  0.17120000000E+03 0.  0.
         13    1    1    2    0    0  0.20944658199E+02 -0.11117194816E+02  0.69491365164E+02  0.73425688448E+02  0.10566000000E+00 0. -1.
        994    1    1    2    0    0 -0.29489591966E+02  0.69916465061E+01  0.67957152719E+01  0.17399465768E+03  0.17120000000E+03 0.  0.
        998    1    1    2    0    0  0.85449337664E+01  0.41255483102E+01  0.14237129158E+04  0.14237796539E+04  0.10000000000E+02 0. -1.
</event>
<event>
 5    1  0.1145138E-008  0.3840530E+03  0.7957747E-01  0.3433699E+00
         13   -1    0    0    0    0  0.00000000000E+00  0.00000000000E+00  0.14999999963E+04  0.15000000000E+04  0.10566000000E+00 0.  1.
        994   -1    0    0    0    0 -0.00000000000E+00 -0.00000000000E+00  0.11368683772E-12  0.17120000000E+03  0.17120000000E+03 0.  0.
         13    1    1    2    0    0 -0.58664550734E+01  0.17118191480E+02  0.74142948344E+02  0.76319301149E+02  0.10566000000E+00 0.  1.
        994    1    1    2    0    0  0.85086729292E+01 -0.17307758823E+02  0.33290193916E+01  0.17231505564E+03  0.17120000000E+03 0.  0.
        998    1    1    2    0    0 -0.26422178558E+01  0.18956734292E+00  0.14225280285E+04  0.14225656432E+04  0.10000000000E+02 0.  0.
</event>
<event>
 5    1  0.1145138E-008  0.3771839E+03  0.7957747E-01  0.3463513E+00
         13   -1    0    0    0    0  0.00000000000E+00  0.00000000000E+00  0.14999999963E+04  0.15000000000E+04  0.10566000000E+00 0. -1.
        994   -1    0    0    0    0 -0.00000000000E+00 -0.00000000000E+00  0.11368683772E-12  0.17120000000E+03  0.17120000000E+03 0.  0.
         13    1    1    2    0    0 -0.61755532550E+02 -0.98509680347E+01  0.26757580407E+03  0.27478647976E+03  0.10566000000E+00 0. -1.
        994    1    1    2    0    0  0.70296874831E+02  0.17437246793E+02  0.23472199782E+02  0.18736619852E+03  0.17120000000E+03 0.  0.
        998    1    1    2    0    0 -0.85413422813E+01 -0.75862787584E+01  0.12089519924E+04  0.12090473217E+04  0.10000000000E+02 0. -1.
</event>
<event>
 5    1  0.1145138E-008  0.3735805E+03  0.7957747E-01  0.3479596E+00
         13   -1    0    0    0    0  0.00000000000E+00  0.00000000000E+00  0.14999999963E+04  0.15000000000E+04  0.10566000000E+00 0. -1.
        994   -1    0    0    0    0 -0.00000000000E+00 -0.00000000000E+00  0.11368683772E-12  0.17120000000E+03  0.17120000000E+03 0.  0.
         13    1    1    2    0    0  0.24495679904E+01  0.11771113126E+02  0.64006787330E+01  0.13621282606E+02  0.10566000000E+00 0. -1.
        994    1    1    2    0    0 -0.30317339930E+01 -0.60643709233E+01  0.75665135316E+01  0.17150119572E+03  0.17120000000E+03 0.  0.
        998    1    1    2    0    0  0.58216600264E+00 -0.57067422025E+01  0.14860328040E+04  0.14860775217E+04  0.10000000000E+02 0. -1.
</event>
<event>
 5    1  0.1145138E-008  0.4058316E+03  0.7957747E-01  0.3345858E+00
         13   -1    0    0    0    0  0.00000000000E+00  0.00000000000E+00  0.14999999963E+04  0.15000000000E+04  0.10566000000E+00 0. -1.
        994   -1    0    0    0    0 -0.00000000000E+00 -0.00000000000E+00  0.11368683772E-12  0.17120000000E+03  0.17120000000E+03 0.  0.
         13    1    1    2    0    0  0.94329700643E+02 -0.68928592724E+02  0.26782961001E+03  0.29220190704E+03  0.10566000000E+00 0. -1.
        994    1    1    2    0    0  0.35041368364E+02  0.78535713415E+02  0.61638925794E+02  0.20125742956E+03  0.17120000000E+03 0.  0.
        998    1    1    2    0    0 -0.12937106901E+03 -0.96071206910E+01  0.11705314605E+04  0.11777406634E+04  0.10000000000E+02 0. -1.
</event>
<event>
 5    1  0.1145138E-008  0.3819326E+03  0.7957747E-01  0.3442786E+00
         13   -1    0    0    0    0  0.00000000000E+00  0.00000000000E+00  0.14999999963E+04  0.15000000000E+04  0.10566000000E+00 0.  1.
        994   -1    0    0    0    0 -0.00000000000E+00 -0.00000000000E+00  0.11368683772E-12  0.17120000000E+03  0.17120000000E+03 0.  0.
         13    1    1    2    0    0  0.78948765493E+01 -0.25808700515E+02  0.10841289894E+03  0.11172191333E+03  0.10566000000E+00 0.  1.
        994    1    1    2    0    0 -0.38096248801E+01  0.25104709962E+02  0.53053889454E+01  0.17315411302E+03  0.17120000000E+03 0.  0.
        998    1    1    2    0    0 -0.40852516693E+01  0.70399055309E+00  0.13862817084E+04  0.13863239737E+04  0.10000000000E+02 0.  1.
</event>
<event>
 5    1  0.1145138E-008  0.3779530E+03  0.7957747E-01  0.3460120E+00
         13   -1    0    0    0    0  0.00000000000E+00  0.00000000000E+00  0.14999999963E+04  0.15000000000E+04  0.10566000000E+00 0. -1.
        994   -1    0    0    0    0 -0.00000000000E+00 -0.00000000000E+00  0.11368683772E-12  0.17120000000E+03  0.17120000000E+03 0.  0.
         13    1    1    2    0    0 -0.12059191469E+02  0.29648127551E+02  0.11035748474E+03  0.11490527041E+03  0.10566000000E+00 0. -1.
        994    1    1    2    0    0  0.11233888358E+01  0.68727672311E+01  0.53332940968E+01  0.17142456346E+03  0.17120000000E+03 0.  0.
        998    1    1    2    0    0  0.10935802633E+02 -0.36520894782E+02  0.13843092174E+04  0.13848701661E+04  0.10000000000E+02 0. -1.
</event>
<event>
 5    1  0.1145138E-008  0.3831592E+03  0.7957747E-01  0.3437517E+00
         13   -1    0    0    0    0  0.00000000000E+00  0.00000000000E+00  0.14999999963E+04  0.15000000000E+04  0.10566000000E+00 0.  1.
        994   -1    0    0    0    0 -0.00000000000E+00 -0.00000000000E+00  0.11368683772E-12  0.17120000000E+03  0.17120000000E+03 0.  0.
         13    1    1    2    0    0  0.14209079834E+02 -0.33050373372E+02  0.20931399862E+03  0.21238311211E+03  0.10566000000E+00 0.  1.
        994    1    1    2    0    0 -0.14730839152E+02  0.39131452609E+02  0.83524157833E+01  0.17642979072E+03  0.17120000000E+03 0.  0.
        998    1    1    2    0    0  0.52175931781E+00 -0.60810792368E+01  0.12823335819E+04  0.12823870972E+04  0.10000000000E+02 0.  1.
</event>
<event>
 5    1  0.1145138E-008  0.3738957E+03  0.7957747E-01  0.3478177E+00
         13   -1    0    0    0    0  0.00000000000E+00  0.00000000000E+00  0.14999999963E+04  0.15000000000E+04  0.10566000000E+00 0. -1.
        994   -1    0    0    0    0 -0.00000000000E+00 -0.00000000000E+00  0.11368683772E-12  0.17120000000E+03  0.17120000000E+03 0.  0.
         13    1    1    2    0    0  0.56917144203E+01 -0.46009474131E+02  0.20043020323E+03  0.20572200868E+03  0.10566000000E+00 0. -1.
        994    1    1    2    0    0 -0.49388326127E+02 -0.28479147285E+02  0.18418791021E+02  0.18138070584E+03  0.17120000000E+03 0.  0.
        998    1    1    2    0    0  0.43696611706E+02  0.74488621417E+02  0.12811510020E+04  0.12840972855E+04  0.10000000000E+02 0. -1.
</event>
<event>
 5    1  0.1145138E-008  0.3850730E+03  0.7957747E-01  0.3429363E+00
         13   -1    0    0    0    0  0.00000000000E+00  0.00000000000E+00  0.14999999963E+04  0.15000000000E+04  0.10566000000E+00 0.  1.
        994   -1    0    0    0    0 -0.00000000000E+00 -0.00000000000E+00  0.11368683772E-12  0.17120000000E+03  0.17120000000E+03 0.  0.
         13    1    1    2    0    0 -0.14163097926E+02  0.14783500836E+01  0.63858775540E+02  0.65427312640E+02  0.10566000000E+00 0.  1.
        994    1    1    2    0    0  0.88924979528E+01 -0.70306398472E+00  0.18555625680E+01  0.17144227580E+03  0.17120000000E+03 0.  0.
        998    1    1    2    0    0  0.52705999735E+01 -0.77528609891E+00  0.14342856582E+04  0.14343304116E+04  0.10000000000E+02 0.  1.
</event>
<event>
 5    1  0.1145138E-008  0.3809170E+03  0.7957747E-01  0.3447176E+00
         13   -1    0    0    0    0  0.00000000000E+00  0.00000000000E+00  0.14999999963E+04  0.15000000000E+04  0.10566000000E+00 0.  1.
        994   -1    0    0    0    0 -0.00000000000E+00 -0.00000000000E+00  0.11368683772E-12  0.17120000000E+03  0.17120000000E+03 0.  0.
         13    1    1    2    0    0 -0.12365558670E+02 -0.78029572238E+01  0.27271210891E+02  0.30943873224E+02  0.10566000000E+00 0.  1.
        994    1    1    2    0    0  0.98090651688E+01  0.12232143512E+02  0.44907624549E+01  0.17197514367E+03  0.17120000000E+03 0.  0.
        998    1    1    2    0    0  0.25564935010E+01 -0.44291862880E+01  0.14682380229E+04  0.14682809831E+04  0.10000000000E+02 0.  1.
</event>
<event>
 5    1  0.1145138E-008  0.4213090E+03  0.7957747E-01  0.3288912E+00
         13   -1    0    0    0    0  0.00000000000E+00  0.00000000000E+00  0.14999999963E+04  0.15000000000E+04  0.10566000000E+00 0. -1.
        994   -1    0    0    0    0 -0.00000000000E+00 -0.00000000000E+00  0.11368683772E-12  0.17120000000E+03  0.17120000000E+03 0.  0.
         13    1    1    2    0    0 -0.76147294333E+02 -0.99671883460E+02  0.15903637796E+03  0.20254746472E+03  0.10566000000E+00 0. -1.
        994    1    1    2    0    0  0.66617937186E+02  0.10589813335E+03  0.11239110264E+03  0.23998659161E+03  0.17120000000E+03 0.  0.
        998    1    1    2    0    0  0.95293571476E+01 -0.62262498900E+01  0.12285725157E+04  0.12286659437E+04  0.10000000000E+02 0. -1.
</event>
<event>
 5    1  0.1145138E-008  0.3830734E+03  0.7957747E-01  0.3437884E+00
         13   -1    0    0    0    0  0.00000000000E+00  0.00000000000E+00  0.14999999963E+04  0.15000000000E+04  0.10566000000E+00 0.  1.
        994   -1    0    0    0    0 -0.00000000000E+00 -0.00000000000E+00  0.11368683772E-12  0.17120000000E+03  0.17120000000E+03 0.  0.
         13    1    1    2    0    0 -0.17538548670E+02 -0.85327103083E+01  0.71707283195E+02  0.74312539062E+02  0.10566000000E+00 0.  1.
        994    1    1    2    0    0  0.74266000715E+01  0.19614238061E+02  0.40467174280E+01  0.17252735622E+03  0.17120000000E+03 0.  0.
        998    1    1    2    0    0  0.10111948598E+02 -0.11081527753E+02  0.14242459957E+04  0.14243601047E+04  0.10000000000E+02 0.  1.
</event>
<event>
 5    1  0.1145138E-008  0.3801872E+03  0.7957747E-01  0.3450344E+00
         13   -1    0    0    0    0  0.00000000000E+00  0.00000000000E+00  0.14999999963E+04  0.15000000000E+04  0.10566000000E+00 0. -1.
        994   -1    0    0    0    0 -0.00000000000E+00 -0.00000000000E+00  0.11368683772E-12  0.17120000000E+03  0.17120000000E+03 0.  0.
         13    1    1    2    0    0 -0.35793399352E+01 -0.15132293904E+02  0.27804071406E+02  0.31857111356E+02  0.10566000000E+00 0. -1.
        994    1    1    2    0    0  0.31420203253E+01  0.16512503880E+02  0.49831713672E+01  0.17209534297E+03  0.17120000000E+03 0.  0.
        998    1    1    2    0    0  0.43731960987E+00 -0.13802099752E+01  0.14672127535E+04  0.14672475457E+04  0.10000000000E+02 0. -1.
</event>
<event>
 5    1  0.1145138E-008  0.3851553E+03  0.7957747E-01  0.3429014E+00
         13   -1    0    0    0    0  0.00000000000E+00  0.00000000000E+00  0.14999999963E+04  0.15000000000E+04  0.10566000000E+00 0. -1.
        994   -1    0    0    0    0 -0.00000000000E+00 -0.00000000000E+00  0.11368683772E-12  0.17120000000E+03  0.17120000000E+03 0.  0.
         13    1    1    2    0    0  0.19245702635E+02  0.59397331758E+00  0.11109403493E+03  0.11275036867E+03  0.10566000000E+00 0. -1.
        994    1    1    2    0    0 -0.21064605513E+02  0.36031578423E+01  0.30556805225E+01  0.17255572299E+03  0.17120000000E+03 0.  0.
        998    1    1    2    0    0  0.18189028774E+01 -0.41971311599E+01  0.13858502808E+04  0.13858939083E+04  0.10000000000E+02 0. -1.
</event>
<event>
 5    1  0.1145138E-008  0.3811912E+03  0.7957747E-01  0.3445988E+00
         13   -1    0    0    0    0  0.00000000000E+00  0.00000000000E+00  0.14999999963E+04  0.15000000000E+04  0.10566000000E+00 0. -1.
        994   -1    0    0    0    0 -0.00000000000E+00 -0.00000000000E+00  0.11368683772E-12  0.17120000000E+03  0.17120000000E+03 0.  0.
         13    1    1    2    0    0  0.60063912822E+01  0.13208772052E+02  0.28501517469E+02  0.31982746246E+02  0.10566000000E+00 0. -1.
        994    1    1    2    0    0 -0.19327345642E+01 -0.91627480266E+01  0.38251018782E+01  0.17149857964E+03  0.17120000000E+03 0.  0.
        998    1    1    2    0    0 -0.40736567179E+01 -0.40460240250E+01  0.14676733769E+04  0.14677186741E+04  0.10000000000E+02 0. -1.
</event>
<event>
 5    1  0.1145138E-008  0.3795100E+03  0.7957747E-01  0.3453295E+00
         13   -1    0    0    0    0  0.00000000000E+00  0.00000000000E+00  0.14999999963E+04  0.15000000000E+04  0.10566000000E+00 0. -1.
        994   -1    0    0    0    0 -0.00000000000E+00 -0.00000000000E+00  0.11368683772E-12  0.17120000000E+03  0.17120000000E+03 0.  0.
         13    1    1    2    0    0 -0.94617173863E+01 -0.66969997483E+01  0.12972131066E+02  0.17397162124E+02  0.10566000000E+00 0. -1.
        994    1    1    2    0    0  0.81762215064E+01  0.27106033514E+02  0.70693172595E+01  0.17366923417E+03  0.17120000000E+03 0.  0.
        998    1    1    2    0    0  0.12854958799E+01 -0.20409033765E+02  0.14799585480E+04  0.14801336037E+04  0.10000000000E+02 0. -1.
</event>
<event>
 5    1  0.1145138E-008  0.3748660E+03  0.7957747E-01  0.3473822E+00
         13   -1    0    0    0    0  0.00000000000E+00  0.00000000000E+00  0.14999999963E+04  0.15000000000E+04  0.10566000000E+00 0.  1.
        994   -1    0    0    0    0 -0.00000000000E+00 -0.00000000000E+00  0.11368683772E-12  0.17120000000E+03  0.17120000000E+03 0.  0.
         13    1    1    2    0    0  0.73341619570E+02  0.21180623957E+02  0.28974976703E+03  0.29963736525E+03  0.10566000000E+00 0.  1.
        994    1    1    2    0    0 -0.90085008753E+02 -0.50101960987E+02  0.43787367952E+02  0.20457831969E+03  0.17120000000E+03 0.  0.
        998    1    1    2    0    0  0.16743389183E+02  0.28921337029E+02  0.11664628613E+04  0.11669843151E+04  0.10000000000E+02 0.  1.
</event>
<event>
 5    1  0.1145138E-008  0.3859863E+03  0.7957747E-01  0.3425500E+00
         13   -1    0    0    0    0  0.00000000000E+00  0.00000000000E+00  0.14999999963E+04  0.15000000000E+04  0.10566000000E+00 0. -1.
        994   -1    0    0    0    0 -0.00000000000E+00 -0.00000000000E+00  0.11368683772E-12  0.17120000000E+03  0.17120000000E+03 0.  0.
         13    1    1    2    0    0 -0.69271463793E+01  0.93907932660E+01  0.59037819411E+02  0.60180126620E+02  0.10566000000E+00 0. -1.
        994    1    1    2    0    0  0.10059233833E+02 -0.61409980756E+01  0.15967317471E+01  0.17161261491E+03  0.17120000000E+03 0.  0.
        998    1    1    2    0    0 -0.31320874540E+01 -0.32497951904E+01  0.14393654451E+04  0.14394072585E+04  0.10000000000E+02 0. -1.
</event>
<event>
 5    1  0.1145138E-008  0.3824555E+03  0.7957747E-01  0.3440536E+00
         13   -1    0    0    0    0  0.00000000000E+00  0.00000000000E+00  0.14999999963E+04  0.15000000000E+04  0.10566000000E+00 0.  1.
        994   -1    0    0    0    0 -0.00000000000E+00 -0.00000000000E+00  0.11368683772E-12  0.17120000000E+03  0.17120000000E+03 0.  0.
         13    1    1    2    0    0 -0.19812964698E+02 -0.16718762067E+01  0.62658650261E+02  0.65737860907E+02  0.10566000000E+00 0.  1.
        994    1    1    2    0    0  0.27494944691E+02  0.37817247847E+01  0.54571608322E+01  0.17352087491E+03  0.17120000000E+03 0.  0.
        998    1    1    2    0    0 -0.76819799929E+01 -0.21098485780E+01  0.14318841852E+04  0.14319412642E+04  0.10000000000E+02 0.  1.
</event>
<event>
 5    1  0.1145138E-008  0.3848360E+03  0.7957747E-01  0.3430368E+00
         13   -1    0    0    0    0  0.00000000000E+00  0.00000000000E+00  0.14999999963E+04  0.15000000000E+04  0.10566000000E+00 0.  1.
        994   -1    0    0    0    0 -0.00000000000E+00 -0.00000000000E+00  0.11368683772E-12  0.17120000000E+03  0.17120000000E+03 0.  0.
         13    1    1    2    0    0 -0.85960858905E+01  0.10332106040E+02  0.54459525379E+02  0.56093637575E+02  0.10566000000E+00 0.  1.
        994    1    1    2    0    0  0.70429582043E+01  0.18369982861E+01  0.18858973067E+01  0.17136503270E+03  0.17120000000E+03 0.  0.
        998    1    1    2    0    0  0.15531276861E+01 -0.12169104326E+02  0.14436545736E+04  0.14437413297E+04  0.10000000000E+02 0.  1.
</event>
<event>
 5    1  0.1145138E-008  0.3763524E+03  0.7957747E-01  0.3467196E+00
         13   -1    0    0    0    0  0.00000000000E+00  0.00000000000E+00  0.14999999963E+04  0.15000000000E+04  0.10566000000E+00 0.  1.
        994   -1    0    0    0    0 -0.00000000000E+00 -0.00000000000E+00  0.11368683772E-12  0.17120000000E+03  0.17120000000E+03 0.  0.
         13    1    1    2    0    0 -0.96838017044E+01 -0.85847492541E+01  0.11209163894E+02  0.17121052959E+02  0.10566000000E+00 0.  1.
        994    1    1    2    0    0  0.21529780464E+02 -0.42071868189E+01  0.76159328955E+01  0.17276768882E+03  0.17120000000E+03 0.  0.
        998    1    1    2    0    0 -0.11845978760E+02  0.12791936073E+02  0.14811748995E+04  0.14813112582E+04  0.10000000000E+02 0.  1.
</event>
<event>
 5    1  0.1145138E-008  0.3834120E+03  0.7957747E-01  0.3436435E+00
         13   -1    0    0    0    0  0.00000000000E+00  0.00000000000E+00  0.14999999963E+04  0.15000000000E+04  0.10566000000E+00 0. -1.
        994   -1    0    0    0    0 -0.00000000000E+00 -0.00000000000E+00  0.11368683772E-12  0.17120000000E+03  0.17120000000E+03 0.  0.
         13    1    1    2    0    0 -0.19903720912E+01  0.98756196707E+01  0.20410262627E+02  0.22761358252E+02  0.10566000000E+00 0. -1.
        994    1    1    2    0    0 -0.81544863518E+01 -0.40088385103E+01  0.26935689318E+01  0.17146212919E+03  0.17120000000E+03 0.  0.
        998    1    1    2    0    0  0.10144858443E+02 -0.58667811605E+01  0.14768961647E+04  0.14769765126E+04  0.10000000000E+02 0. -1.
</event>
<event>
 5    1  0.1145138E-008  0.3791102E+03  0.7957747E-01  0.3455042E+00
         13   -1    0    0    0    0  0.00000000000E+00  0.00000000000E+00  0.14999999963E+04  0.15000000000E+04  0.10566000000E+00 0.  1.
        994   -1    0    0    0    0 -0.00000000000E+00 -0.00000000000E+00  0.11368683772E-12  0.17120000000E+03  0.17120000000E+03 0.  0.
         13    1    1    2    0    0 -0.37240974259E+02  0.69043775336E+01  0.18205563276E+03  0.18595382539E+03  0.10566000000E+00 0.  1.
        994    1    1    2    0    0 -0.30044016581E+01 -0.94282184127E+01  0.49113567668E+01  0.17155605252E+03  0.17120000000E+03 0.  0.
        998    1    1    2    0    0  0.40245375917E+02  0.25238408791E+01  0.13130330068E+04  0.13136901221E+04  0.10000000000E+02 0.  1.
</event>
<event>
 5    1  0.1145138E-008  0.3747468E+03  0.7957747E-01  0.3474356E+00
         13   -1    0    0    0    0  0.00000000000E+00  0.00000000000E+00  0.14999999963E+04  0.15000000000E+04  0.10566000000E+00 0.  1.
        994   -1    0    0    0    0 -0.00000000000E+00 -0.00000000000E+00  0.11368683772E-12  0.17120000000E+03  0.17120000000E+03 0.  0.
         13    1    1    2    0    0  0.51622925851E+02 -0.28093940936E+02  0.11865271332E+03  0.13241100231E+03  0.10566000000E+00 0.  1.
        994    1    1    2    0    0 -0.43283990296E+02  0.23393284083E+02  0.22127577712E+02  0.17949880014E+03  0.17120000000E+03 0.  0.
        998    1    1    2    0    0 -0.83389355549E+01  0.47006568529E+01  0.13592197053E+04  0.13592901976E+04  0.10000000000E+02 0.  1.
</event>
<event>
 5    1  0.1145138E-008  0.3758465E+03  0.7957747E-01  0.3469445E+00
         13   -1    0    0    0    0  0.00000000000E+00  0.00000000000E+00  0.14999999963E+04  0.15000000000E+04  0.10566000000E+00 0. -1.
        994   -1    0    0    0    0 -0.00000000000E+00 -0.00000000000E+00  0.11368683772E-12  0.17120000000E+03  0.17120000000E+03 0.  0.
         13    1    1    2    0    0  0.23895912615E+02  0.14657852920E+02  0.57923322667E+02  0.64350522646E+02  0.10566000000E+00 0. -1.
        994    1    1    2    0    0 -0.27236898604E+02 -0.14881175191E+02  0.95167096653E+01  0.17425069809E+03  0.17120000000E+03 0.  0.
        998    1    1    2    0    0  0.33409859894E+01  0.22332227071E+00  0.14325599639E+04  0.14325987793E+04  0.10000000000E+02 0. -1.
</event>
<event>
 5    1  0.1145138E-008  0.4364876E+03  0.7957747E-01  0.3236915E+00
         13   -1    0    0    0    0  0.00000000000E+00  0.00000000000E+00  0.14999999963E+04  0.15000000000E+04  0.10566000000E+00 0. -1.
        994   -1    0    0    0    0 -0.00000000000E+00 -0.00000000000E+00  0.11368683772E-12  0.17120000000E+03  0.17120000000E+03 0.  0.
         13    1    1    2    0    0  0.88348935948E+02  0.11822052791E+02  0.61695137544E+02  0.10840478115E+03  0.10566000000E+00 0. -1.
        994    1    1    2    0    0 -0.68741731291E+02 -0.42038942624E+02  0.82404878312E+02  0.20637999488E+03  0.17120000000E+03 0.  0.
        998    1    1    2    0    0 -0.19607204657E+02  0.30216889833E+02  0.13558999804E+04  0.13564152240E+04  0.10000000000E+02 0. -1.
</event>
<event>
 5    1  0.1145138E-008  0.4288713E+03  0.7957747E-01  0.3262556E+00
         13   -1    0    0    0    0  0.00000000000E+00  0.00000000000E+00  0.14999999963E+04  0.15000000000E+04  0.10566000000E+00 0.  1.
        994   -1    0    0    0    0 -0.00000000000E+00 -0.00000000000E+00  0.11368683772E-12  0.17120000000E+03  0.17120000000E+03 0.  0.
         13    1    1    2    0    0  0.65512169175E+01 -0.82600384672E+02  0.53654178529E+02  0.98714355738E+02  0.10566000000E+00 0.  1.
        994    1    1    2    0    0 -0.29835469911E+02  0.10083419711E+03  0.97579744182E+02  0.22335831537E+03  0.17120000000E+03 0.  0.
        998    1    1    2    0    0  0.23284252993E+02 -0.18233812435E+02  0.13487660736E+04  0.13491273289E+04  0.10000000000E+02 0.  1.
</event>
<event>
 5    1  0.1145138E-008  0.3808195E+03  0.7957747E-01  0.3447598E+00
         13   -1    0    0    0    0  0.00000000000E+00  0.00000000000E+00  0.14999999963E+04  0.15000000000E+04  0.10566000000E+00 0. -1.
        994   -1    0    0    0    0 -0.00000000000E+00 -0.00000000000E+00  0.11368683772E-12  0.17120000000E+03  0.17120000000E+03 0.  0.
         13    1    1    2    0    0 -0.10482016369E+02 -0.34946380730E+02  0.32874367555E+02  0.49110664825E+02  0.10566000000E+00 0. -1.
        994    1    1    2    0    0  0.27886640773E+01  0.30111180699E+02  0.20108687704E+02  0.17500931167E+03  0.17120000000E+03 0.  0.
        998    1    1    2    0    0  0.76933522920E+01  0.48352000309E+01  0.14470169410E+04  0.14470800235E+04  0.10000000000E+02 0. -1.
</event>
<event>
 5    1  0.1145138E-008  0.3772050E+03  0.7957747E-01  0.3463420E+00
         13   -1    0    0    0    0  0.00000000000E+00  0.00000000000E+00  0.14999999963E+04  0.15000000000E+04  0.10566000000E+00 0.  1.
        994   -1    0    0    0    0 -0.00000000000E+00 -0.00000000000E+00  0.11368683772E-12  0.17120000000E+03  0.17120000000E+03 0.  0.
         13    1    1    2    0    0  0.56295671624E+02 -0.18837851330E+02  0.32148526332E+03  0.32692025477E+03  0.10566000000E+00 0.  1.
        994    1    1    2    0    0 -0.46244258756E+02 -0.28646429074E+02  0.15601191410E+02  0.18031080539E+03  0.17120000000E+03 0.  0.
        998    1    1    2    0    0 -0.10051412868E+02  0.47484280404E+02  0.11629135416E+04  0.11639689398E+04  0.10000000000E+02 0.  1.
</event>
<event>
 5    1  0.1145138E-008  0.3806479E+03  0.7957747E-01  0.3448342E+00
         13   -1    0    0    0    0  0.00000000000E+00  0.00000000000E+00  0.14999999963E+04  0.15000000000E+04  0.10566000000E+00 0. -1.
        994   -1    0    0    0    0 -0.00000000000E+00 -0.00000000000E+00  0.11368683772E-12  0.17120000000E+03  0.17120000000E+03 0.  0.
         13    1    1    2    0    0 -0.29670285772E+02 -0.10598866851E+02  0.13997145448E+03  0.14347362499E+03  0.10566000000E+00 0. -1.
        994    1    1    2    0    0  0.56156004424E+01  0.24295648389E+01  0.39313677761E+01  0.17135440877E+03  0.17120000000E+03 0.  0.
        998    1    1    2    0    0  0.24054685330E+02  0.81693020123E+01  0.13560971740E+04  0.13563719662E+04  0.10000000000E+02 0. -1.
</event>
<event>
 5    1  0.1998001E-008  0.3860526E+03  0.7957747E-01  0.3425220E+00
         13   -1    0    0    0    0  0.00000000000E+00  0.00000000000E+00  0.14999999963E+04  0.15000000000E+04  0.10566000000E+00 0.  1.
        994   -1    0    0    0    0 -0.00000000000E+00 -0.00000000000E+00  0.11368683772E-12  0.17120000000E+03  0.17120000000E+03 0.  0.
         13    1    1    2    0    0 -0.10438097386E+02  0.62046369881E+00  0.49533143364E+02  0.50624917855E+02  0.10566000000E+00 0.  1.
        994    1    1    2    0    0  0.80843829153E+01 -0.38339375958E+01  0.13708800661E+01  0.17143913100E+03  0.17120000000E+03 0.  0.
        998    1    1    2    0    0  0.23537144710E+01  0.32134738970E+01  0.14490959728E+04  0.14491359511E+04  0.10000000000E+02 0.  1.
</event>
<event>
 5    1  0.1145138E-008  0.3761104E+03  0.7957747E-01  0.3468272E+00
         13   -1    0    0    0    0  0.00000000000E+00  0.00000000000E+00  0.14999999963E+04  0.15000000000E+04  0.10566000000E+00 0.  1.
        994   -1    0    0    0    0 -0.00000000000E+00 -0.00000000000E+00  0.11368683772E-12  0.17120000000E+03  0.17120000000E+03 0.  0.
         13    1    1    2    0    0 -0.80666411828E+02 -0.11799538709E+03  0.65650694322E+03  0.67188641825E+03  0.10566000000E+00 0.  1.
        994    1    1    2    0    0  0.11901973845E+03  0.11800553076E+03  0.10808140240E+03  0.26283461145E+03  0.17120000000E+03 0.  0.
        998    1    1    2    0    0 -0.38353326618E+02 -0.10143672351E-01  0.73541165067E+03  0.73647897031E+03  0.10000000000E+02 0.  1.
</event>
<event>
 5    1  0.1145138E-008  0.3728691E+03  0.7957747E-01  0.3482808E+00
         13   -1    0    0    0    0  0.00000000000E+00  0.00000000000E+00  0.14999999963E+04  0.15000000000E+04  0.10566000000E+00 0. -1.
        994   -1    0    0    0    0 -0.00000000000E+00 -0.00000000000E+00  0.11368683772E-12  0.17120000000E+03  0.17120000000E+03 0.  0.
         13    1    1    2    0    0  0.63785139727E+02  0.84266475470E+02  0.55223813829E+03  0.56226004258E+03  0.10566000000E+00 0. -1.
        994    1    1    2    0    0 -0.53439072681E+02 -0.68145243441E+02  0.33907115333E+02  0.19482977484E+03  0.17120000000E+03 0.  0.
        998    1    1    2    0    0 -0.10346067047E+02 -0.16121232028E+02  0.91385474266E+03  0.91411018258E+03  0.10000000000E+02 0. -1.
</event>
<event>
 5    1  0.1145138E-008  0.3823602E+03  0.7957747E-01  0.3440946E+00
         13   -1    0    0    0    0  0.00000000000E+00  0.00000000000E+00  0.14999999963E+04  0.15000000000E+04  0.10566000000E+00 0. -1.
        994   -1    0    0    0    0 -0.00000000000E+00 -0.00000000000E+00  0.11368683772E-12  0.17120000000E+03  0.17120000000E+03 0.  0.
         13    1    1    2    0    0 -0.24259916246E+01  0.18863181379E+02  0.59206450927E+02  0.62186172438E+02  0.10566000000E+00 0. -1.
        994    1    1    2    0    0 -0.17351401059E+02 -0.19341845141E+02  0.51892554289E+01  0.17323840932E+03  0.17120000000E+03 0.  0.
        998    1    1    2    0    0  0.19777392684E+02  0.47866376177E+00  0.14356042899E+04  0.14357754182E+04  0.10000000000E+02 0. -1.
</event>
<event>
 5    1  0.1145138E-008  0.3816179E+03  0.7957747E-01  0.3444144E+00
         13   -1    0    0    0    0  0.00000000000E+00  0.00000000000E+00  0.14999999963E+04  0.15000000000E+04  0.10566000000E+00 0.  1.
        994   -1    0    0    0    0 -0.00000000000E+00 -0.00000000000E+00  0.11368683772E-12  0.17120000000E+03  0.17120000000E+03 0.  0.
         13    1    1    2    0    0  0.33427584529E+02 -0.22957700711E+02  0.22800267206E+03  0.23158084778E+03  0.10566000000E+00 0.  1.
        994    1    1    2    0    0 -0.34149398662E+02  0.79846209006E+01  0.74191591922E+01  0.17491260539E+03  0.17120000000E+03 0.  0.
        998    1    1    2    0    0  0.72181413318E+00  0.14973079810E+02  0.12645781650E+04  0.12647065468E+04  0.10000000000E+02 0.  1.
</event>
<event>
 5    1  0.1145138E-008  0.3829076E+03  0.7957747E-01  0.3438595E+00
         13   -1    0    0    0    0  0.00000000000E+00  0.00000000000E+00  0.14999999963E+04  0.15000000000E+04  0.10566000000E+00 0. -1.
        994   -1    0    0    0    0 -0.00000000000E+00 -0.00000000000E+00  0.11368683772E-12  0.17120000000E+03  0.17120000000E+03 0.  0.
         13    1    1    2    0    0 -0.12251286721E+02  0.31002964267E+02  0.18420247628E+03  0.18719466139E+03  0.10566000000E+00 0. -1.
        994    1    1    2    0    0  0.15061565620E+02 -0.29949324173E+02  0.64025471392E+01  0.17456874115E+03  0.17120000000E+03 0.  0.
        998    1    1    2    0    0 -0.28102788991E+01 -0.10536400945E+01  0.13093949729E+04  0.13094365975E+04  0.10000000000E+02 0. -1.
</event>
<event>
 5    1  0.1145138E-008  0.3750701E+03  0.7957747E-01  0.3472909E+00
         13   -1    0    0    0    0  0.00000000000E+00  0.00000000000E+00  0.14999999963E+04  0.15000000000E+04  0.10566000000E+00 0. -1.
        994   -1    0    0    0    0 -0.00000000000E+00 -0.00000000000E+00  0.11368683772E-12  0.17120000000E+03  0.17120000000E+03 0.  0.
         13    1    1    2    0    0  0.53108762768E+02 -0.14797303569E+02  0.25775372535E+03  0.26358394293E+03  0.10566000000E+00 0. -1.
        994    1    1    2    0    0 -0.94792804928E+01  0.16757709048E+02  0.79034600904E+01  0.17246037879E+03  0.17120000000E+03 0.  0.
        998    1    1    2    0    0 -0.43629482275E+02 -0.19604054790E+01  0.12343428108E+04  0.12351556783E+04  0.10000000000E+02 0. -1.
</event>
<event>
 5    1  0.1145138E-008  0.3758713E+03  0.7957747E-01  0.3469335E+00
         13   -1    0    0    0    0  0.00000000000E+00  0.00000000000E+00  0.14999999963E+04  0.15000000000E+04  0.10566000000E+00 0. -1.
        994   -1    0    0    0    0 -0.00000000000E+00 -0.00000000000E+00  0.11368683772E-12  0.17120000000E+03  0.17120000000E+03 0.  0.
         13    1    1    2    0    0 -0.76533436505E+01  0.10836287103E+02  0.11258111945E+02  0.17399857350E+02  0.10566000000E+00 0. -1.
        994    1    1    2    0    0  0.23611435337E+01 -0.13959353021E+02  0.69116049869E+01  0.17192338066E+03  0.17120000000E+03 0.  0.
        998    1    1    2    0    0  0.52922001169E+01  0.31230659174E+01  0.14818302793E+04  0.14818767620E+04  0.10000000000E+02 0. -1.
</event>
<event>
 5    1  0.1145138E-008  0.3849472E+03  0.7957747E-01  0.3429896E+00
         13   -1    0    0    0    0  0.00000000000E+00  0.00000000000E+00  0.14999999963E+04  0.15000000000E+04  0.10566000000E+00 0. -1.
        994   -1    0    0    0    0 -0.00000000000E+00 -0.00000000000E+00  0.11368683772E-12  0.17120000000E+03  0.17120000000E+03 0.  0.
         13    1    1    2    0    0  0.25066387091E+01 -0.15268770614E+02  0.71688504892E+02  0.73339426582E+02  0.10566000000E+00 0. -1.
        994    1    1    2    0    0 -0.47326706413E+01  0.10752584085E+02  0.21104516911E+01  0.17161558858E+03  0.17120000000E+03 0.  0.
        998    1    1    2    0    0  0.22260319322E+01  0.45161865291E+01  0.14262010397E+04  0.14262449848E+04  0.10000000000E+02 0. -1.
</event>
<event>
 5    1  0.1145138E-008  0.3853746E+03  0.7957747E-01  0.3428085E+00
         13   -1    0    0    0    0  0.00000000000E+00  0.00000000000E+00  0.14999999963E+04  0.15000000000E+04  0.10566000000E+00 0. -1.
        994   -1    0    0    0    0 -0.00000000000E+00 -0.00000000000E+00  0.11368683772E-12  0.17120000000E+03  0.17120000000E+03 0.  0.
         13    1    1    2    0    0 -0.21088540765E+01 -0.14423160433E+02  0.72557817046E+02  0.74007586104E+02  0.10566000000E+00 0. -1.
        994    1    1    2    0    0  0.27209740795E+01  0.11783532389E+02  0.19248244840E+01  0.17163740934E+03  0.17120000000E+03 0.  0.
        998    1    1    2    0    0 -0.61212000305E+00  0.26396280443E+01  0.14255173547E+04  0.14255550046E+04  0.10000000000E+02 0. -1.
</event>
<event>
 5    1  0.1145138E-008  0.3820748E+03  0.7957747E-01  0.3442174E+00
         13   -1    0    0    0    0  0.00000000000E+00  0.00000000000E+00  0.14999999963E+04  0.15000000000E+04  0.10566000000E+00 0. -1.
        994   -1    0    0    0    0 -0.00000000000E+00 -0.00000000000E+00  0.11368683772E-12  0.17120000000E+03  0.17120000000E+03 0.  0.
         13    1    1    2    0    0 -0.27706264173E+01 -0.31801701754E+02  0.14881008559E+03  0.15219552340E+03  0.10566000000E+00 0. -1.
        994    1    1    2    0    0 -0.84753339950E+01  0.33592065266E+02  0.70847475564E+01  0.17481387755E+03  0.17120000000E+03 0.  0.
        998    1    1    2    0    0  0.11245960412E+02 -0.17903635127E+01  0.13441051631E+04  0.13441905991E+04  0.10000000000E+02 0. -1.
</event>
<event>
 5    1  0.1145138E-008  0.3763307E+03  0.7957747E-01  0.3467293E+00
         13   -1    0    0    0    0  0.00000000000E+00  0.00000000000E+00  0.14999999963E+04  0.15000000000E+04  0.10566000000E+00 0.  1.
        994   -1    0    0    0    0 -0.00000000000E+00 -0.00000000000E+00  0.11368683772E-12  0.17120000000E+03  0.17120000000E+03 0.  0.
         13    1    1    2    0    0  0.63761891919E+02 -0.80806736168E+02  0.49812015829E+03  0.50864428703E+03  0.10566000000E+00 0.  1.
        994    1    1    2    0    0 -0.83252873754E+02  0.81984666479E+02  0.53691820802E+02  0.21411393730E+03  0.17120000000E+03 0.  0.
        998    1    1    2    0    0  0.19490981835E+02 -0.11779303110E+01  0.94818801719E+03  0.94844177567E+03  0.10000000000E+02 0.  1.
</event>
<event>
 5    1  0.1145138E-008  0.3717337E+03  0.7957747E-01  0.3487961E+00
         13   -1    0    0    0    0  0.00000000000E+00  0.00000000000E+00  0.14999999963E+04  0.15000000000E+04  0.10566000000E+00 0. -1.
        994   -1    0    0    0    0 -0.00000000000E+00 -0.00000000000E+00  0.11368683772E-12  0.17120000000E+03  0.17120000000E+03 0.  0.
         13    1    1    2    0    0  0.29277383675E+02 -0.58605272176E+02  0.29501971126E+03  0.30220586414E+03  0.10566000000E+00 0. -1.
        994    1    1    2    0    0  0.86201906229E+00  0.18453641042E+02  0.95395917779E+01  0.17245788980E+03  0.17120000000E+03 0.  0.
        998    1    1    2    0    0 -0.30139402737E+02  0.40151631135E+02  0.11954406932E+04  0.11965362461E+04  0.10000000000E+02 0. -1.
</event>
<event>
 5    1  0.1145138E-008  0.3687426E+03  0.7957747E-01  0.3501690E+00
         13   -1    0    0    0    0  0.00000000000E+00  0.00000000000E+00  0.14999999963E+04  0.15000000000E+04  0.10566000000E+00 0.  1.
        994   -1    0    0    0    0 -0.00000000000E+00 -0.00000000000E+00  0.11368683772E-12  0.17120000000E+03  0.17120000000E+03 0.  0.
         13    1    1    2    0    0 -0.15105896186E+02  0.43903607769E+01  0.83430849426E+01  0.17806785160E+02  0.10566000000E+00 0.  1.
        994    1    1    2    0    0 -0.57192156534E+00  0.20613824901E+02  0.11405977787E+02  0.17281433158E+03  0.17120000000E+03 0.  0.
        998    1    1    2    0    0  0.15677817752E+02 -0.25004185678E+02  0.14802509335E+04  0.14805788833E+04  0.10000000000E+02 0.  1.
</event>
<event>
 5    1  0.1145138E-008  0.3803015E+03  0.7957747E-01  0.3449847E+00
         13   -1    0    0    0    0  0.00000000000E+00  0.00000000000E+00  0.14999999963E+04  0.15000000000E+04  0.10566000000E+00 0. -1.
        994   -1    0    0    0    0 -0.00000000000E+00 -0.00000000000E+00  0.11368683772E-12  0.17120000000E+03  0.17120000000E+03 0.  0.
         13    1    1    2    0    0  0.18161040578E+02  0.32937927357E+02  0.17061030102E+03  0.17470723062E+03  0.10566000000E+00 0. -1.
        994    1    1    2    0    0 -0.55952481393E+01 -0.27541510955E+02  0.66232382122E+01  0.17361782429E+03  0.17120000000E+03 0.  0.
        998    1    1    2    0    0 -0.12565792438E+02 -0.53964164023E+01  0.13227664570E+04  0.13228749451E+04  0.10000000000E+02 0. -1.
</event>
