<event>
 5    1  0.1658612E-008  0.3822212E+03  0.7957747E-01  0.3441544E+00
         13   -1    0    0    0    0  0.00000000000E+00  0.00000000000E+00  0.14999999963E+04  0.15000000000E+04  0.10566000000E+00 0.  1.
        994   -1    0    0    0    0 -0.00000000000E+00 -0.00000000000E+00  0.11368683772E-12  0.17120000000E+03  0.17120000000E+03 0.  0.
         13    1    1    2    0    0  0.16699305421E+02  0.74735393401E+00  0.48883239942E+02  0.51662439458E+02  0.10566000000E+00 0.  1.
        994    1    1    2    0    0  0.69799517511E+01 -0.28986884704E+01  0.32056626561E+01  0.17139672807E+03  0.17120000000E+03 0.  0.
        998    1    1    2    0    0 -0.23679257172E+02  0.21513345364E+01  0.14479110937E+04  0.14481408325E+04  0.10000000000E+02 0.  1.
</event>
<event>
 5    1  0.1658612E-008  0.3728910E+03  0.7957747E-01  0.3482709E+00
         13   -1    0    0    0    0  0.00000000000E+00  0.00000000000E+00  0.14999999963E+04  0.15000000000E+04  0.10566000000E+00 0. -1.
        994   -1    0    0    0    0 -0.00000000000E+00 -0.00000000000E+00  0.11368683772E-12  0.17120000000E+03  0.17120000000E+03 0.  0.
         13    1    1    2    0    0  0.27676368126E+02  0.65654230619E+02  0.30591602555E+03  0.31410362176E+03  0.10566000000E+00 0. -1.
        994    1    1    2    0    0  0.32818524026E+02 -0.72004273311E+02  0.29516729863E+02  0.19089879056E+03  0.17120000000E+03 0.  0.
        998    1    1    2    0    0 -0.60494892153E+02  0.63500426923E+01  0.11645672409E+04  0.11661975877E+04  0.10000000000E+02 0. -1.
</event>
<event>
 5    1  0.1658612E-008  0.3817433E+03  0.7957747E-01  0.3443603E+00
         13   -1    0    0    0    0  0.00000000000E+00  0.00000000000E+00  0.14999999963E+04  0.15000000000E+04  0.10566000000E+00 0. -1.
        994   -1    0    0    0    0 -0.00000000000E+00 -0.00000000000E+00  0.11368683772E-12  0.17120000000E+03  0.17120000000E+03 0.  0.
         13    1    1    2    0    0  0.11959747241E+02 -0.13632315540E+02  0.49242722988E+02  0.52476018450E+02  0.10566000000E+00 0. -1.
        994    1    1    2    0    0 -0.39852386669E+01  0.13239985234E+02  0.38913974316E+01  0.17180152010E+03  0.17120000000E+03 0.  0.
        998    1    1    2    0    0 -0.79745085743E+01  0.39233030621E+00  0.14468658759E+04  0.14469224614E+04  0.10000000000E+02 0. -1.
</event>
<event>
 5    1  0.1658612E-008  0.3824987E+03  0.7957747E-01  0.3440350E+00
         13   -1    0    0    0    0  0.00000000000E+00  0.00000000000E+00  0.14999999963E+04  0.15000000000E+04  0.10566000000E+00 0. -1.
        994   -1    0    0    0    0 -0.00000000000E+00 -0.00000000000E+00  0.11368683772E-12  0.17120000000E+03  0.17120000000E+03 0.  0.
         13    1    1    2    0    0 -0.17937434524E+02  0.29414099129E+01  0.49915068878E+02  0.53121828985E+02  0.10566000000E+00 0. -1.
        994    1    1    2    0    0  0.38604548873E+02 -0.16235519854E+02  0.87141534595E+01  0.17646325331E+03  0.17120000000E+03 0.  0.
        998    1    1    2    0    0 -0.20667114349E+02  0.13294109941E+02  0.14413707739E+04  0.14416149177E+04  0.10000000000E+02 0. -1.
</event>
<event>
 5    1  0.1658612E-008  0.3743326E+03  0.7957747E-01  0.3476213E+00
         13   -1    0    0    0    0  0.00000000000E+00  0.00000000000E+00  0.14999999963E+04  0.15000000000E+04  0.10566000000E+00 0. -1.
        994   -1    0    0    0    0 -0.00000000000E+00 -0.00000000000E+00  0.11368683772E-12  0.17120000000E+03  0.17120000000E+03 0.  0.
         13    1    1    2    0    0 -0.26319260490E+02  0.47440197593E+01  0.20780920486E+02  0.33868377824E+02  0.10566000000E+00 0. -1.
        994    1    1    2    0    0  0.31655423945E+02 -0.10675100672E+02  0.17220357413E+02  0.17527693616E+03  0.17120000000E+03 0.  0.
        998    1    1    2    0    0 -0.53361634557E+01  0.59310809128E+01  0.14619987184E+04  0.14620546860E+04  0.10000000000E+02 0. -1.
</event>
<event>
 5    1  0.1658612E-008  0.3826634E+03  0.7957747E-01  0.3439643E+00
         13   -1    0    0    0    0  0.00000000000E+00  0.00000000000E+00  0.14999999963E+04  0.15000000000E+04  0.10566000000E+00 0.  1.
        994   -1    0    0    0    0 -0.00000000000E+00 -0.00000000000E+00  0.11368683772E-12  0.17120000000E+03  0.17120000000E+03 0.  0.
         13    1    1    2    0    0 -0.12807321954E+02 -0.13867312157E+02  0.61078028074E+02  0.63928604862E+02  0.10566000000E+00 0.  1.
        994    1    1    2    0    0  0.88594024972E+01  0.16736882880E+02  0.39839495239E+01  0.17229023221E+03  0.17120000000E+03 0.  0.
        998    1    1    2    0    0  0.39479194573E+01 -0.28695707226E+01  0.14349380187E+04  0.14349811629E+04  0.10000000000E+02 0.  1.
</event>
<event>
 5    1  0.1658612E-008  0.3811285E+03  0.7957747E-01  0.3446260E+00
         13   -1    0    0    0    0  0.00000000000E+00  0.00000000000E+00  0.14999999963E+04  0.15000000000E+04  0.10566000000E+00 0. -1.
        994   -1    0    0    0    0 -0.00000000000E+00 -0.00000000000E+00  0.11368683772E-12  0.17120000000E+03  0.17120000000E+03 0.  0.
         13    1    1    2    0    0  0.14554794838E+02  0.34963580011E+01  0.31662451391E+02  0.35022686421E+02  0.10566000000E+00 0. -1.
        994    1    1    2    0    0  0.74265636636E+01 -0.72063141948E+01  0.39213170129E+01  0.17155728355E+03  0.17120000000E+03 0.  0.
        998    1    1    2    0    0 -0.21981358502E+02  0.37099561937E+01  0.14644162279E+04  0.14646200300E+04  0.10000000000E+02 0. -1.
</event>
<event>
 5    1  0.1658612E-008  0.3839668E+03  0.7957747E-01  0.3434066E+00
         13   -1    0    0    0    0  0.00000000000E+00  0.00000000000E+00  0.14999999963E+04  0.15000000000E+04  0.10566000000E+00 0. -1.
        994   -1    0    0    0    0 -0.00000000000E+00 -0.00000000000E+00  0.11368683772E-12  0.17120000000E+03  0.17120000000E+03 0.  0.
         13    1    1    2    0    0 -0.19009677285E+02  0.76711519922E+01  0.98393055778E+02  0.10050581572E+03  0.10566000000E+00 0. -1.
        994    1    1    2    0    0  0.15494737539E+02  0.67328672618E+01  0.30863429139E+01  0.17205924534E+03  0.17120000000E+03 0.  0.
        998    1    1    2    0    0  0.35149397462E+01 -0.14404019254E+02  0.13985205976E+04  0.13986349389E+04  0.10000000000E+02 0. -1.
</event>
<event>
 5    1  0.1658612E-008  0.3801003E+03  0.7957747E-01  0.3450722E+00
         13   -1    0    0    0    0  0.00000000000E+00  0.00000000000E+00  0.14999999963E+04  0.15000000000E+04  0.10566000000E+00 0.  1.
        994   -1    0    0    0    0 -0.00000000000E+00 -0.00000000000E+00  0.11368683772E-12  0.17120000000E+03  0.17120000000E+03 0.  0.
         13    1    1    2    0    0  0.25487214635E+02  0.36136809333E+02  0.23212278164E+03  0.23629740586E+03  0.10566000000E+00 0.  1.
        994    1    1    2    0    0  0.28059178958E+02 -0.61764071112E+02  0.19618364154E+02  0.18519297561E+03  0.17120000000E+03 0.  0.
        998    1    1    2    0    0 -0.53546393592E+02  0.25627261779E+02  0.12482588505E+04  0.12497096185E+04  0.10000000000E+02 0.  1.
</event>
<event>
 5    1  0.1658612E-008  0.3695887E+03  0.7957747E-01  0.3497783E+00
         13   -1    0    0    0    0  0.00000000000E+00  0.00000000000E+00  0.14999999963E+04  0.15000000000E+04  0.10566000000E+00 0.  1.
        994   -1    0    0    0    0 -0.00000000000E+00 -0.00000000000E+00  0.11368683772E-12  0.17120000000E+03  0.17120000000E+03 0.  0.
         13    1    1    2    0    0 -0.12765788938E+03 -0.67996167817E+00  0.49781331501E+03  0.51392130412E+03  0.10566000000E+00 0.  1.
        994    1    1    2    0    0  0.12467639423E+03  0.34073002657E+01  0.67183889306E+02  0.22221369885E+03  0.17120000000E+03 0.  0.
        998    1    1    2    0    0  0.29814951587E+01 -0.27273385875E+01  0.93500279197E+03  0.93506499703E+03  0.10000000000E+02 0. -1.
</event>
<event>
 5    1  0.1658612E-008  0.3780797E+03  0.7957747E-01  0.3459563E+00
         13   -1    0    0    0    0  0.00000000000E+00  0.00000000000E+00  0.14999999963E+04  0.15000000000E+04  0.10566000000E+00 0.  1.
        994   -1    0    0    0    0 -0.00000000000E+00 -0.00000000000E+00  0.11368683772E-12  0.17120000000E+03  0.17120000000E+03 0.  0.
         13    1    1    2    0    0 -0.34458141502E+02 -0.56169526854E+02  0.39263164187E+03  0.39812309231E+03  0.10566000000E+00 0.  1.
        994    1    1    2    0    0  0.39448833924E+01  0.51961164118E+02  0.14296429871E+02  0.17952535361E+03  0.17120000000E+03 0.  0.
        998    1    1    2    0    0  0.30513258109E+02  0.42083627361E+01  0.10930719245E+04  0.10935515541E+04  0.10000000000E+02 0.  1.
</event>
<event>
 5    1  0.1658612E-008  0.3833342E+03  0.7957747E-01  0.3436768E+00
         13   -1    0    0    0    0  0.00000000000E+00  0.00000000000E+00  0.14999999963E+04  0.15000000000E+04  0.10566000000E+00 0.  1.
        994   -1    0    0    0    0 -0.00000000000E+00 -0.00000000000E+00  0.11368683772E-12  0.17120000000E+03  0.17120000000E+03 0.  0.
         13    1    1    2    0    0 -0.15322714907E+02 -0.11554952389E+02  0.81152144242E+02  0.83390552198E+02  0.10566000000E+00 0.  1.
        994    1    1    2    0    0 -0.32131203863E+01 -0.38789815157E+00  0.24940840785E+01  0.17124875200E+03  0.17120000000E+03 0.  0.
        998    1    1    2    0    0  0.18535835293E+02  0.11942850541E+02  0.14163537680E+04  0.14165606958E+04  0.10000000000E+02 0.  1.
</event>
<event>
 5    1  0.1658612E-008  0.3830025E+03  0.7957747E-01  0.3438188E+00
         13   -1    0    0    0    0  0.00000000000E+00  0.00000000000E+00  0.14999999963E+04  0.15000000000E+04  0.10566000000E+00 0.  1.
        994   -1    0    0    0    0 -0.00000000000E+00 -0.00000000000E+00  0.11368683772E-12  0.17120000000E+03  0.17120000000E+03 0.  0.
         13    1    1    2    0    0 -0.33545295087E+02 -0.58743200230E+02  0.38118715468E+03  0.38714300776E+03  0.10566000000E+00 0.  1.
        994    1    1    2    0    0  0.74740199899E+02  0.86110318956E+02  0.46921930505E+02  0.21097912710E+03  0.17120000000E+03 0.  0.
        998    1    1    2    0    0 -0.41194904812E+02 -0.27367118726E+02  0.10718909111E+04  0.10730778651E+04  0.10000000000E+02 0.  1.
</event>
<event>
 5    1  0.1658612E-008  0.3816471E+03  0.7957747E-01  0.3444018E+00
         13   -1    0    0    0    0  0.00000000000E+00  0.00000000000E+00  0.14999999963E+04  0.15000000000E+04  0.10566000000E+00 0.  1.
        994   -1    0    0    0    0 -0.00000000000E+00 -0.00000000000E+00  0.11368683772E-12  0.17120000000E+03  0.17120000000E+03 0.  0.
         13    1    1    2    0    0  0.24594018095E+02 -0.17969998461E+03  0.10004640185E+04  0.10167719575E+04  0.10566000000E+00 0.  1.
        994    1    1    2    0    0 -0.26835136133E+02  0.18689300351E+03  0.13264003870E+03  0.28731853257E+03  0.17120000000E+03 0.  0.
        998    1    1    2    0    0  0.22411180383E+01 -0.71930188997E+01  0.36689593910E+03  0.36710950990E+03  0.10000000000E+02 0.  1.
</event>
<event>
 5    1  0.1658612E-008  0.3721370E+03  0.7957747E-01  0.3486127E+00
         13   -1    0    0    0    0  0.00000000000E+00  0.00000000000E+00  0.14999999963E+04  0.15000000000E+04  0.10566000000E+00 0.  1.
        994   -1    0    0    0    0 -0.00000000000E+00 -0.00000000000E+00  0.11368683772E-12  0.17120000000E+03  0.17120000000E+03 0.  0.
         13    1    1    2    0    0 -0.14197879606E+02 -0.14580753675E+02  0.11732612033E+02  0.23491349732E+02  0.10566000000E+00 0.  1.
        994    1    1    2    0    0  0.92862630173E+01  0.18789959786E+02  0.13622144056E+02  0.17301531747E+03  0.17120000000E+03 0.  0.
        998    1    1    2    0    0  0.49116165891E+01 -0.42092061105E+01  0.14746452402E+04  0.14746933328E+04  0.10000000000E+02 0.  1.
</event>
<event>
 5    1  0.1658612E-008  0.3762466E+03  0.7957747E-01  0.3467666E+00
         13   -1    0    0    0    0  0.00000000000E+00  0.00000000000E+00  0.14999999963E+04  0.15000000000E+04  0.10566000000E+00 0. -1.
        994   -1    0    0    0    0 -0.00000000000E+00 -0.00000000000E+00  0.11368683772E-12  0.17120000000E+03  0.17120000000E+03 0.  0.
         13    1    1    2    0    0  0.14165813854E+03  0.15624988285E+03  0.95549935635E+03  0.97849889384E+03  0.10566000000E+00 0. -1.
        994    1    1    2    0    0 -0.13762489074E+03 -0.15892388738E+03  0.17426029099E+03  0.32229412273E+03  0.17120000000E+03 0.  0.
        998    1    1    2    0    0 -0.40332478062E+01  0.26740045215E+01  0.37024034895E+03  0.37040698343E+03  0.10000000000E+02 0.  0.
</event>
<event>
 5    1  0.1658612E-008  0.3756803E+03  0.7957747E-01  0.3470186E+00
         13   -1    0    0    0    0  0.00000000000E+00  0.00000000000E+00  0.14999999963E+04  0.15000000000E+04  0.10566000000E+00 0.  1.
        994   -1    0    0    0    0 -0.00000000000E+00 -0.00000000000E+00  0.11368683772E-12  0.17120000000E+03  0.17120000000E+03 0.  0.
         13    1    1    2    0    0 -0.78036743887E+01  0.45416305634E+02  0.18313606773E+03  0.18884482682E+03  0.10566000000E+00 0.  1.
        994    1    1    2    0    0  0.71214964677E+01 -0.88393548167E+01  0.67668746401E+01  0.17170929066E+03  0.17120000000E+03 0.  0.
        998    1    1    2    0    0  0.68217792091E+00 -0.36576950818E+02  0.13100970539E+04  0.13106458825E+04  0.10000000000E+02 0.  1.
</event>
<event>
 5    1  0.1658612E-008  0.3740867E+03  0.7957747E-01  0.3477317E+00
         13   -1    0    0    0    0  0.00000000000E+00  0.00000000000E+00  0.14999999963E+04  0.15000000000E+04  0.10566000000E+00 0. -1.
        994   -1    0    0    0    0 -0.00000000000E+00 -0.00000000000E+00  0.11368683772E-12  0.17120000000E+03  0.17120000000E+03 0.  0.
         13    1    1    2    0    0  0.40769834257E+01 -0.33790038492E+02  0.79795558153E+02  0.86750969793E+02  0.10566000000E+00 0. -1.
        994    1    1    2    0    0 -0.48913924592E+01  0.16251794301E+02  0.81312074573E+01  0.17223124883E+03  0.17120000000E+03 0.  0.
        998    1    1    2    0    0  0.81440903343E+00  0.17538244190E+02  0.14120732307E+04  0.14122177814E+04  0.10000000000E+02 0. -1.
</event>
<event>
 5    1  0.1658612E-008  0.3847017E+03  0.7957747E-01  0.3430938E+00
         13   -1    0    0    0    0  0.00000000000E+00  0.00000000000E+00  0.14999999963E+04  0.15000000000E+04  0.10566000000E+00 0.  1.
        994   -1    0    0    0    0 -0.00000000000E+00 -0.00000000000E+00  0.11368683772E-12  0.17120000000E+03  0.17120000000E+03 0.  0.
         13    1    1    2    0    0 -0.87999755854E+01  0.49170112759E+01  0.31162534659E+02  0.32752577007E+02  0.10566000000E+00 0.  1.
        994    1    1    2    0    0 -0.90605684431E+01  0.16297306666E+02  0.29237170871E+01  0.17223729046E+03  0.17120000000E+03 0.  0.
        998    1    1    2    0    0  0.17860544028E+02 -0.21214317942E+02  0.14659137445E+04  0.14662101325E+04  0.10000000000E+02 0.  1.
</event>
<event>
 5    1  0.1658612E-008  0.3791643E+03  0.7957747E-01  0.3454805E+00
         13   -1    0    0    0    0  0.00000000000E+00  0.00000000000E+00  0.14999999963E+04  0.15000000000E+04  0.10566000000E+00 0.  1.
        994   -1    0    0    0    0 -0.00000000000E+00 -0.00000000000E+00  0.11368683772E-12  0.17120000000E+03  0.17120000000E+03 0.  0.
         13    1    1    2    0    0 -0.36189745401E+02 -0.26112770838E+01  0.20249280823E+03  0.20571792579E+03  0.10566000000E+00 0.  1.
        994    1    1    2    0    0 -0.25477514602E+02  0.27301258871E+02  0.92442618257E+01  0.17546896838E+03  0.17120000000E+03 0.  0.
        998    1    1    2    0    0  0.61667260003E+02 -0.24689981787E+02  0.12882629262E+04  0.12900131058E+04  0.10000000000E+02 0.  1.
</event>
<event>
 5    1  0.1658612E-008  0.3782978E+03  0.7957747E-01  0.3458604E+00
         13   -1    0    0    0    0  0.00000000000E+00  0.00000000000E+00  0.14999999963E+04  0.15000000000E+04  0.10566000000E+00 0.  1.
        994   -1    0    0    0    0 -0.00000000000E+00 -0.00000000000E+00  0.11368683772E-12  0.17120000000E+03  0.17120000000E+03 0.  0.
         13    1    1    2    0    0 -0.30217060178E+02 -0.11300334783E+02  0.93618936303E+02  0.99021637487E+02  0.10566000000E+00 0.  1.
        994    1    1    2    0    0  0.37175231390E+02  0.12855535317E+02  0.10214186662E+02  0.17595747278E+03  0.17120000000E+03 0.  0.
        998    1    1    2    0    0 -0.69581712115E+01 -0.15552005340E+01  0.13961668733E+04  0.13962208897E+04  0.10000000000E+02 0.  1.
</event>
<event>
 5    1  0.1658612E-008  0.3798244E+03  0.7957747E-01  0.3451923E+00
         13   -1    0    0    0    0  0.00000000000E+00  0.00000000000E+00  0.14999999963E+04  0.15000000000E+04  0.10566000000E+00 0. -1.
        994   -1    0    0    0    0 -0.00000000000E+00 -0.00000000000E+00  0.11368683772E-12  0.17120000000E+03  0.17120000000E+03 0.  0.
         13    1    1    2    0    0  0.80342894127E+01  0.10350113622E+02  0.18329326281E+02  0.22531090172E+02  0.10566000000E+00 0. -1.
        994    1    1    2    0    0 -0.68159961259E+01 -0.12281136805E+02  0.48819560112E+01  0.17184457402E+03  0.17120000000E+03 0.  0.
        998    1    1    2    0    0 -0.12182932868E+01  0.19310231827E+01  0.14767887140E+04  0.14768243358E+04  0.10000000000E+02 0. -1.
</event>
<event>
 5    1  0.1658612E-008  0.3829924E+03  0.7957747E-01  0.3438232E+00
         13   -1    0    0    0    0  0.00000000000E+00  0.00000000000E+00  0.14999999963E+04  0.15000000000E+04  0.10566000000E+00 0. -1.
        994   -1    0    0    0    0 -0.00000000000E+00 -0.00000000000E+00  0.11368683772E-12  0.17120000000E+03  0.17120000000E+03 0.  0.
         13    1    1    2    0    0 -0.15766473605E+02 -0.87514973896E+01  0.63696688408E+02  0.66200073071E+02  0.10566000000E+00 0. -1.
        994    1    1    2    0    0  0.23953791373E+01  0.25320525192E+01  0.26703976649E+01  0.17125629961E+03  0.17120000000E+03 0.  0.
        998    1    1    2    0    0  0.13371094468E+02  0.62194448704E+01  0.14336329102E+04  0.14337436273E+04  0.10000000000E+02 0. -1.
</event>
<event>
 5    1  0.1658612E-008  0.3820228E+03  0.7957747E-01  0.3442398E+00
         13   -1    0    0    0    0  0.00000000000E+00  0.00000000000E+00  0.14999999963E+04  0.15000000000E+04  0.10566000000E+00 0.  1.
        994   -1    0    0    0    0 -0.00000000000E+00 -0.00000000000E+00  0.11368683772E-12  0.17120000000E+03  0.17120000000E+03 0.  0.
         13    1    1    2    0    0 -0.21425834426E+02 -0.11970342472E+02  0.91194960801E+02  0.94439861919E+02  0.10566000000E+00 0.  1.
        994    1    1    2    0    0  0.17237829069E+02  0.18123374734E+02  0.51957032569E+01  0.17309544995E+03  0.17120000000E+03 0.  0.
        998    1    1    2    0    0  0.41880053574E+01 -0.61530322624E+01  0.14036093322E+04  0.14036646881E+04  0.10000000000E+02 0.  1.
</event>
<event>
 5    1  0.1658612E-008  0.3861539E+03  0.7957747E-01  0.3424793E+00
         13   -1    0    0    0    0  0.00000000000E+00  0.00000000000E+00  0.14999999963E+04  0.15000000000E+04  0.10566000000E+00 0.  1.
        994   -1    0    0    0    0 -0.00000000000E+00 -0.00000000000E+00  0.11368683772E-12  0.17120000000E+03  0.17120000000E+03 0.  0.
         13    1    1    2    0    0 -0.12594624534E+02  0.76491871356E+01  0.75395658124E+02  0.76822204206E+02  0.10566000000E+00 0.  1.
        994    1    1    2    0    0  0.43607323528E+02 -0.25080989024E+02  0.93939869053E+01  0.17868503481E+03  0.17120000000E+03 0.  0.
        998    1    1    2    0    0 -0.31012698994E+02  0.17431801889E+02  0.14152103512E+04  0.14156927610E+04  0.10000000000E+02 0.  1.
</event>
<event>
 5    1  0.1658612E-008  0.3712746E+03  0.7957747E-01  0.3490054E+00
         13   -1    0    0    0    0  0.00000000000E+00  0.00000000000E+00  0.14999999963E+04  0.15000000000E+04  0.10566000000E+00 0.  1.
        994   -1    0    0    0    0 -0.00000000000E+00 -0.00000000000E+00  0.11368683772E-12  0.17120000000E+03  0.17120000000E+03 0.  0.
         13    1    1    2    0    0  0.30320192931E+02  0.79521463874E-01  0.48468545717E+02  0.57171072327E+02  0.10566000000E+00 0.  1.
        994    1    1    2    0    0 -0.31429139489E+02 -0.32234999849E+01  0.12048381823E+02  0.17450726422E+03  0.17120000000E+03 0.  0.
        998    1    1    2    0    0  0.11089465572E+01  0.31439785211E+01  0.14394830687E+04  0.14395216635E+04  0.10000000000E+02 0.  1.
</event>
<event>
 5    1  0.1658612E-008  0.3828002E+03  0.7957747E-01  0.3439056E+00
         13   -1    0    0    0    0  0.00000000000E+00  0.00000000000E+00  0.14999999963E+04  0.15000000000E+04  0.10566000000E+00 0.  1.
        994   -1    0    0    0    0 -0.00000000000E+00 -0.00000000000E+00  0.11368683772E-12  0.17120000000E+03  0.17120000000E+03 0.  0.
         13    1    1    2    0    0 -0.19919347100E+02  0.17613294279E+02  0.12582516579E+03  0.12860401252E+03  0.10566000000E+00 0.  1.
        994    1    1    2    0    0  0.10885512583E+02 -0.17195269691E+02  0.40992802036E+01  0.17245409761E+03  0.17120000000E+03 0.  0.
        998    1    1    2    0    0  0.90338345179E+01 -0.41802458856E+00  0.13700755503E+04  0.13701418899E+04  0.10000000000E+02 0.  1.
</event>
<event>
 5    1  0.1658612E-008  0.3742274E+03  0.7957747E-01  0.3476685E+00
         13   -1    0    0    0    0  0.00000000000E+00  0.00000000000E+00  0.14999999963E+04  0.15000000000E+04  0.10566000000E+00 0. -1.
        994   -1    0    0    0    0 -0.00000000000E+00 -0.00000000000E+00  0.11368683772E-12  0.17120000000E+03  0.17120000000E+03 0.  0.
         13    1    1    2    0    0 -0.33108728453E+02 -0.24966566352E+02  0.11772382026E+03  0.12481356639E+03  0.10566000000E+00 0. -1.
        994    1    1    2    0    0  0.29626573793E+02  0.66765298852E+01  0.10225734793E+02  0.17417323439E+03  0.17120000000E+03 0.  0.
        998    1    1    2    0    0  0.34821546603E+01  0.18290036467E+02  0.13720504412E+04  0.13722131992E+04  0.10000000000E+02 0. -1.
</event>
<event>
 5    1  0.1658612E-008  0.2420194E+03  0.7957747E-01  0.4422727E+00
         13   -1    0    0    0    0  0.00000000000E+00  0.00000000000E+00  0.14999999963E+04  0.15000000000E+04  0.10566000000E+00 0.  1.
        994   -1    0    0    0    0 -0.00000000000E+00 -0.00000000000E+00  0.11368683772E-12  0.17120000000E+03  0.17120000000E+03 0.  0.
         13    1    1    2    0    0 -0.14201600434E+03  0.95354802331E+02  0.23210801090E+03  0.28833179448E+03  0.10566000000E+00 0.  1.
        994    1    1    2    0    0  0.13549608494E+03 -0.84952984128E+02  0.18149190294E+03  0.29635274485E+03  0.17120000000E+03 0.  0.
        998    1    1    2    0    0  0.65199193995E+01 -0.10401818203E+02  0.10864000824E+04  0.10865154607E+04  0.10000000000E+02 0.  1.
</event>
<event>
 5    1  0.1658612E-008  0.3844356E+03  0.7957747E-01  0.3432070E+00
         13   -1    0    0    0    0  0.00000000000E+00  0.00000000000E+00  0.14999999963E+04  0.15000000000E+04  0.10566000000E+00 0.  1.
        994   -1    0    0    0    0 -0.00000000000E+00 -0.00000000000E+00  0.11368683772E-12  0.17120000000E+03  0.17120000000E+03 0.  0.
         13    1    1    2    0    0 -0.15928194850E+02  0.63761292497E+00  0.67316025192E+02  0.69177831370E+02  0.10566000000E+00 0.  1.
        994    1    1    2    0    0  0.77132566959E+01 -0.98504900720E+00  0.21098680316E+01  0.17138948682E+03  0.17120000000E+03 0.  0.
        998    1    1    2    0    0  0.82149381545E+01  0.34743608223E+00  0.14305741031E+04  0.14306326818E+04  0.10000000000E+02 0.  1.
</event>
<event>
 5    1  0.1658612E-008  0.3832989E+03  0.7957747E-01  0.3436919E+00
         13   -1    0    0    0    0  0.00000000000E+00  0.00000000000E+00  0.14999999963E+04  0.15000000000E+04  0.10566000000E+00 0. -1.
        994   -1    0    0    0    0 -0.00000000000E+00 -0.00000000000E+00  0.11368683772E-12  0.17120000000E+03  0.17120000000E+03 0.  0.
         13    1    1    2    0    0  0.14558474766E+01 -0.80221040588E+02  0.15248017536E+03  0.17230133454E+03  0.10566000000E+00 0. -1.
        994    1    1    2    0    0  0.78539254846E+01  0.83700047348E+02  0.44560892258E+02  0.19586346058E+03  0.17120000000E+03 0.  0.
        998    1    1    2    0    0 -0.93097729611E+01 -0.34790067600E+01  0.13029589287E+04  0.13030352049E+04  0.10000000000E+02 0. -1.
</event>
<event>
 5    1  0.1658612E-008  0.3884646E+03  0.7957747E-01  0.3415110E+00
         13   -1    0    0    0    0  0.00000000000E+00  0.00000000000E+00  0.14999999963E+04  0.15000000000E+04  0.10566000000E+00 0.  1.
        994   -1    0    0    0    0 -0.00000000000E+00 -0.00000000000E+00  0.11368683772E-12  0.17120000000E+03  0.17120000000E+03 0.  0.
         13    1    1    2    0    0  0.42254478765E+02 -0.70548788115E+02  0.14568256317E+03  0.16729014572E+03  0.10566000000E+00 0.  1.
        994    1    1    2    0    0  0.42999420833E+02  0.10593273906E+03  0.71784960567E+02  0.21802113650E+03  0.17120000000E+03 0.  0.
        998    1    1    2    0    0 -0.85253899599E+02 -0.35383950947E+02  0.12825324725E+04  0.12858887178E+04  0.10000000000E+02 0.  1.
</event>
<event>
 5    1  0.1658612E-008  0.3818842E+03  0.7957747E-01  0.3442995E+00
         13   -1    0    0    0    0  0.00000000000E+00  0.00000000000E+00  0.14999999963E+04  0.15000000000E+04  0.10566000000E+00 0.  1.
        994   -1    0    0    0    0 -0.00000000000E+00 -0.00000000000E+00  0.11368683772E-12  0.17120000000E+03  0.17120000000E+03 0.  0.
         13    1    1    2    0    0 -0.27284699693E+02  0.20114323189E+01  0.12865212602E+03  0.13152901350E+03  0.10566000000E+00 0.  1.
        994    1    1    2    0    0  0.64994768635E+00 -0.18855967384E+02  0.43685527639E+01  0.17229188661E+03  0.17120000000E+03 0.  0.
        998    1    1    2    0    0  0.26634752007E+02  0.16844535065E+02  0.13669793175E+04  0.13673790999E+04  0.10000000000E+02 0.  1.
</event>
<event>
 5    1  0.1658612E-008  0.3838769E+03  0.7957747E-01  0.3434449E+00
         13   -1    0    0    0    0  0.00000000000E+00  0.00000000000E+00  0.14999999963E+04  0.15000000000E+04  0.10566000000E+00 0. -1.
        994   -1    0    0    0    0 -0.00000000000E+00 -0.00000000000E+00  0.11368683772E-12  0.17120000000E+03  0.17120000000E+03 0.  0.
         13    1    1    2    0    0  0.11958089606E+02  0.29600933645E+01  0.33791455094E+02  0.35967091363E+02  0.10566000000E+00 0. -1.
        994    1    1    2    0    0 -0.11175375891E+02  0.19842914475E+01  0.26141011277E+01  0.17159574576E+03  0.17120000000E+03 0.  0.
        998    1    1    2    0    0 -0.78271371548E+00 -0.49443848120E+01  0.14635944401E+04  0.14636371629E+04  0.10000000000E+02 0. -1.
</event>
<event>
 5    1  0.1658612E-008  0.3831554E+03  0.7957747E-01  0.3437533E+00
         13   -1    0    0    0    0  0.00000000000E+00  0.00000000000E+00  0.14999999963E+04  0.15000000000E+04  0.10566000000E+00 0.  1.
        994   -1    0    0    0    0 -0.00000000000E+00 -0.00000000000E+00  0.11368683772E-12  0.17120000000E+03  0.17120000000E+03 0.  0.
         13    1    1    2    0    0 -0.22040871775E+02  0.16379006477E+02  0.14787776796E+03  0.15040584198E+03  0.10566000000E+00 0.  1.
        994    1    1    2    0    0  0.12040905912E+02 -0.10389593056E+02  0.33859479203E+01  0.17197043845E+03  0.17120000000E+03 0.  0.
        998    1    1    2    0    0  0.99999658631E+01 -0.59894134200E+01  0.13487362804E+04  0.13488237196E+04  0.10000000000E+02 0.  1.
</event>
<event>
 5    1  0.1658612E-008  0.3693504E+03  0.7957747E-01  0.3498882E+00
         13   -1    0    0    0    0  0.00000000000E+00  0.00000000000E+00  0.14999999963E+04  0.15000000000E+04  0.10566000000E+00 0.  1.
        994   -1    0    0    0    0 -0.00000000000E+00 -0.00000000000E+00  0.11368683772E-12  0.17120000000E+03  0.17120000000E+03 0.  0.
         13    1    1    2    0    0 -0.40206839847E+02  0.24092121606E+01  0.75280270563E+02  0.85378712651E+02  0.10566000000E+00 0.  1.
        994    1    1    2    0    0  0.47636104752E+02 -0.36219569201E+01  0.17560138654E+02  0.17860603438E+03  0.17120000000E+03 0.  0.
        998    1    1    2    0    0 -0.74292649047E+01  0.12127447594E+01  0.14071595871E+04  0.14072152530E+04  0.10000000000E+02 0.  1.
</event>
<event>
 5    1  0.1658612E-008  0.3690871E+03  0.7957747E-01  0.3500097E+00
         13   -1    0    0    0    0  0.00000000000E+00  0.00000000000E+00  0.14999999963E+04  0.15000000000E+04  0.10566000000E+00 0. -1.
        994   -1    0    0    0    0 -0.00000000000E+00 -0.00000000000E+00  0.11368683772E-12  0.17120000000E+03  0.17120000000E+03 0.  0.
         13    1    1    2    0    0 -0.22117455112E+02  0.33642183201E+01  0.21165476093E+02  0.30797537691E+02  0.10566000000E+00 0. -1.
        994    1    1    2    0    0  0.22959086511E+02 -0.54274310471E+01  0.11679947140E+02  0.17321211801E+03  0.17120000000E+03 0.  0.
        998    1    1    2    0    0 -0.84163139897E+00  0.20632127270E+01  0.14671545730E+04  0.14671903443E+04  0.10000000000E+02 0. -1.
</event>
<event>
 5    1  0.1658612E-008  0.3848716E+03  0.7957747E-01  0.3430217E+00
         13   -1    0    0    0    0  0.00000000000E+00  0.00000000000E+00  0.14999999963E+04  0.15000000000E+04  0.10566000000E+00 0.  1.
        994   -1    0    0    0    0 -0.00000000000E+00 -0.00000000000E+00  0.11368683772E-12  0.17120000000E+03  0.17120000000E+03 0.  0.
         13    1    1    2    0    0 -0.96588413541E+01  0.55589614732E+01  0.37333856707E+02  0.38961818356E+02  0.10566000000E+00 0.  1.
        994    1    1    2    0    0  0.30042253942E+01  0.16757701886E+00  0.17236751170E+01  0.17123511471E+03  0.17120000000E+03 0.  0.
        998    1    1    2    0    0  0.66546159599E+01 -0.57265384921E+01  0.14609424645E+04  0.14610030669E+04  0.10000000000E+02 0.  1.
</event>
<event>
 5    1  0.2335804E-008  0.3862905E+03  0.7957747E-01  0.3424217E+00
         13   -1    0    0    0    0  0.00000000000E+00  0.00000000000E+00  0.14999999963E+04  0.15000000000E+04  0.10566000000E+00 0. -1.
        994   -1    0    0    0    0 -0.00000000000E+00 -0.00000000000E+00  0.11368683772E-12  0.17120000000E+03  0.17120000000E+03 0.  0.
         13    1    1    2    0    0 -0.66586119739E+01 -0.89872336488E+01  0.62737429481E+02  0.63726789532E+02  0.10566000000E+00 0. -1.
        994    1    1    2    0    0  0.84990836710E+01  0.66951234374E+01  0.13742284142E+01  0.17154704196E+03  0.17120000000E+03 0.  0.
        998    1    1    2    0    0 -0.18404716972E+01  0.22921102114E+01  0.14358883384E+04  0.14359261685E+04  0.10000000000E+02 0. -1.
</event>
<event>
 5    1  0.1658612E-008  0.3794744E+03  0.7957747E-01  0.3453450E+00
         13   -1    0    0    0    0  0.00000000000E+00  0.00000000000E+00  0.14999999963E+04  0.15000000000E+04  0.10566000000E+00 0. -1.
        994   -1    0    0    0    0 -0.00000000000E+00 -0.00000000000E+00  0.11368683772E-12  0.17120000000E+03  0.17120000000E+03 0.  0.
         13    1    1    2    0    0 -0.27351741915E+00 -0.14750358765E+03  0.79468600330E+03  0.80825938794E+03  0.10566000000E+00 0. -1.
        994    1    1    2    0    0  0.27774120030E+02  0.16422875808E+03  0.10371982265E+03  0.26040301137E+03  0.17120000000E+03 0.  0.
        998    1    1    2    0    0 -0.27500602611E+02 -0.16725170427E+02  0.60159417033E+03  0.60253760069E+03  0.10000000000E+02 0.  1.
</event>
<event>
 5    1  0.1658612E-008  0.3802583E+03  0.7957747E-01  0.3450034E+00
         13   -1    0    0    0    0  0.00000000000E+00  0.00000000000E+00  0.14999999963E+04  0.15000000000E+04  0.10566000000E+00 0. -1.
        994   -1    0    0    0    0 -0.00000000000E+00 -0.00000000000E+00  0.11368683772E-12  0.17120000000E+03  0.17120000000E+03 0.  0.
         13    1    1    2    0    0  0.26155528566E+02  0.14681424503E+01  0.90060556122E+02  0.93793294269E+02  0.10566000000E+00 0. -1.
        994    1    1    2    0    0 -0.39189104404E+01  0.13310009736E+02  0.46460735801E+01  0.17182415493E+03  0.17120000000E+03 0.  0.
        998    1    1    2    0    0 -0.22236618125E+02 -0.14778152186E+02  0.14052933666E+04  0.14055825508E+04  0.10000000000E+02 0. -1.
</event>
<event>
 5    1  0.1658612E-008  0.3740606E+03  0.7957747E-01  0.3477435E+00
         13   -1    0    0    0    0  0.00000000000E+00  0.00000000000E+00  0.14999999963E+04  0.15000000000E+04  0.10566000000E+00 0.  1.
        994   -1    0    0    0    0 -0.00000000000E+00 -0.00000000000E+00  0.11368683772E-12  0.17120000000E+03  0.17120000000E+03 0.  0.
         13    1    1    2    0    0 -0.11605468323E+02  0.18598831680E+02  0.30252971038E+02  0.37361167748E+02  0.10566000000E+00 0.  1.
        994    1    1    2    0    0  0.27435596530E+02 -0.55675721389E+01  0.98389843671E+01  0.17375256956E+03  0.17120000000E+03 0.  0.
        998    1    1    2    0    0 -0.15830128206E+02 -0.13031259541E+02  0.14599080409E+04  0.14600862627E+04  0.10000000000E+02 0.  1.
</event>
<event>
 5    1  0.1658612E-008  0.3706724E+03  0.7957747E-01  0.3492806E+00
         13   -1    0    0    0    0  0.00000000000E+00  0.00000000000E+00  0.14999999963E+04  0.15000000000E+04  0.10566000000E+00 0. -1.
        994   -1    0    0    0    0 -0.00000000000E+00 -0.00000000000E+00  0.11368683772E-12  0.17120000000E+03  0.17120000000E+03 0.  0.
         13    1    1    2    0    0 -0.11605662747E+02  0.13033359602E+02  0.83212158013E+01  0.19334261474E+02  0.10566000000E+00 0. -1.
        994    1    1    2    0    0  0.11592388349E+02 -0.14616203615E+02  0.12515257999E+02  0.17266756661E+03  0.17120000000E+03 0.  0.
        998    1    1    2    0    0  0.13274398072E-01  0.15828440126E+01  0.14791635225E+04  0.14791981719E+04  0.10000000000E+02 0. -1.
</event>
<event>
 5    1  0.1658612E-008  0.3779252E+03  0.7957747E-01  0.3460243E+00
         13   -1    0    0    0    0  0.00000000000E+00  0.00000000000E+00  0.14999999963E+04  0.15000000000E+04  0.10566000000E+00 0.  1.
        994   -1    0    0    0    0 -0.00000000000E+00 -0.00000000000E+00  0.11368683772E-12  0.17120000000E+03  0.17120000000E+03 0.  0.
         13    1    1    2    0    0 -0.20173405027E+02 -0.26426635083E+02  0.35040481253E+02  0.48302999935E+02  0.10566000000E+00 0.  1.
        994    1    1    2    0    0 -0.11947571914E+02 -0.38956788070E+02  0.21186957452E+02  0.17725321711E+03  0.17120000000E+03 0.  0.
        998    1    1    2    0    0  0.32120976941E+02  0.65383423153E+02  0.14437725576E+04  0.14456437830E+04  0.10000000000E+02 0.  1.
</event>
<event>
 5    1  0.1658612E-008  0.3721811E+03  0.7957747E-01  0.3485927E+00
         13   -1    0    0    0    0  0.00000000000E+00  0.00000000000E+00  0.14999999963E+04  0.15000000000E+04  0.10566000000E+00 0. -1.
        994   -1    0    0    0    0 -0.00000000000E+00 -0.00000000000E+00  0.11368683772E-12  0.17120000000E+03  0.17120000000E+03 0.  0.
         13    1    1    2    0    0  0.12588672641E+02  0.44296454924E+01  0.73255485508E+01  0.15224035722E+02  0.10566000000E+00 0. -1.
        994    1    1    2    0    0 -0.16709080244E+01 -0.11885790543E+02  0.86280405411E+01  0.17183697808E+03  0.17120000000E+03 0.  0.
        998    1    1    2    0    0 -0.10917764617E+02  0.74561450505E+01  0.14840464072E+04  0.14841389862E+04  0.10000000000E+02 0. -1.
</event>
<event>
 5    1  0.1658612E-008  0.3805355E+03  0.7957747E-01  0.3448830E+00
         13   -1    0    0    0    0  0.00000000000E+00  0.00000000000E+00  0.14999999963E+04  0.15000000000E+04  0.10566000000E+00 0.  1.
        994   -1    0    0    0    0 -0.00000000000E+00 -0.00000000000E+00  0.11368683772E-12  0.17120000000E+03  0.17120000000E+03 0.  0.
         13    1    1    2    0    0  0.29092021305E+02  0.28164282668E+01  0.12705164904E+03  0.13037028289E+03  0.10566000000E+00 0.  1.
        994    1    1    2    0    0  0.55055374227E+01  0.14400671629E+02  0.46566225268E+01  0.17195585020E+03  0.17120000000E+03 0.  0.
        998    1    1    2    0    0 -0.34597558728E+02 -0.17217099896E+02  0.13682917247E+04  0.13688738669E+04  0.10000000000E+02 0.  1.
</event>
<event>
 5    1  0.1658612E-008  0.3836161E+03  0.7957747E-01  0.3435563E+00
         13   -1    0    0    0    0  0.00000000000E+00  0.00000000000E+00  0.14999999963E+04  0.15000000000E+04  0.10566000000E+00 0.  1.
        994   -1    0    0    0    0 -0.00000000000E+00 -0.00000000000E+00  0.11368683772E-12  0.17120000000E+03  0.17120000000E+03 0.  0.
         13    1    1    2    0    0  0.39375810270E+01 -0.24927196762E+02  0.14872573932E+03  0.15085167013E+03  0.10566000000E+00 0.  1.
        994    1    1    2    0    0  0.28152995264E+01  0.57104864526E+01  0.24526794134E+01  0.17133590168E+03  0.17120000000E+03 0.  0.
        998    1    1    2    0    0 -0.67528805534E+01  0.19216710309E+02  0.13488215775E+04  0.13490124282E+04  0.10000000000E+02 0.  1.
</event>
<event>
 5    1  0.1658612E-008  0.3838580E+03  0.7957747E-01  0.3434530E+00
         13   -1    0    0    0    0  0.00000000000E+00  0.00000000000E+00  0.14999999963E+04  0.15000000000E+04  0.10566000000E+00 0. -1.
        994   -1    0    0    0    0 -0.00000000000E+00 -0.00000000000E+00  0.11368683772E-12  0.17120000000E+03  0.17120000000E+03 0.  0.
         13    1    1    2    0    0  0.27143594361E+01 -0.19400256656E+02  0.83123358885E+02  0.85400478112E+02  0.10566000000E+00 0. -1.
        994    1    1    2    0    0  0.26635492727E+00  0.19717235591E+02  0.34827482053E+01  0.17236707882E+03  0.17120000000E+03 0.  0.
        998    1    1    2    0    0 -0.29807143634E+01 -0.31697893466E+00  0.14133938892E+04  0.14134324431E+04  0.10000000000E+02 0. -1.
</event>
<event>
 5    1  0.1658612E-008  0.3852594E+03  0.7957747E-01  0.3428573E+00
         13   -1    0    0    0    0  0.00000000000E+00  0.00000000000E+00  0.14999999963E+04  0.15000000000E+04  0.10566000000E+00 0.  1.
        994   -1    0    0    0    0 -0.00000000000E+00 -0.00000000000E+00  0.11368683772E-12  0.17120000000E+03  0.17120000000E+03 0.  0.
         13    1    1    2    0    0 -0.11023817449E+02  0.32649451206E+01  0.45636692437E+02  0.47062758933E+02  0.10566000000E+00 0.  1.
        994    1    1    2    0    0  0.24723692541E+01  0.33382011952E+01  0.15581291926E+01  0.17125747856E+03  0.17120000000E+03 0.  0.
        998    1    1    2    0    0  0.85514481949E+01 -0.66031463158E+01  0.14528051746E+04  0.14528797625E+04  0.10000000000E+02 0.  1.
</event>
<event>
 5    1  0.1658612E-008  0.3809337E+03  0.7957747E-01  0.3447103E+00
         13   -1    0    0    0    0  0.00000000000E+00  0.00000000000E+00  0.14999999963E+04  0.15000000000E+04  0.10566000000E+00 0. -1.
        994   -1    0    0    0    0 -0.00000000000E+00 -0.00000000000E+00  0.11368683772E-12  0.17120000000E+03  0.17120000000E+03 0.  0.
         13    1    1    2    0    0 -0.60964538994E+01  0.13659152360E+02  0.30309622740E+02  0.33799757218E+02  0.10566000000E+00 0. -1.
        994    1    1    2    0    0 -0.10967594028E+02 -0.24407906297E+01  0.40834072967E+01  0.17161689833E+03  0.17120000000E+03 0.  0.
        998    1    1    2    0    0  0.17064047928E+02 -0.11218361730E+02  0.14656069662E+04  0.14657833445E+04  0.10000000000E+02 0. -1.
</event>
<event>
 5    1  0.1658612E-008  0.3785362E+03  0.7957747E-01  0.3457557E+00
         13   -1    0    0    0    0  0.00000000000E+00  0.00000000000E+00  0.14999999963E+04  0.15000000000E+04  0.10566000000E+00 0. -1.
        994   -1    0    0    0    0 -0.00000000000E+00 -0.00000000000E+00  0.11368683772E-12  0.17120000000E+03  0.17120000000E+03 0.  0.
         13    1    1    2    0    0  0.10327995705E+03  0.57440219215E+02  0.48651440276E+03  0.50066196537E+03  0.10566000000E+00 0. -1.
        994    1    1    2    0    0 -0.76284902768E+02  0.12335483460E+02  0.37376647691E+02  0.19151502378E+03  0.17120000000E+03 0.  0.
        998    1    1    2    0    0 -0.26995054282E+02 -0.69775702676E+02  0.97610894583E+03  0.97902301084E+03  0.10000000000E+02 0. -1.
</event>
<event>
 5    1  0.1658612E-008  0.3703574E+03  0.7957747E-01  0.3494250E+00
         13   -1    0    0    0    0  0.00000000000E+00  0.00000000000E+00  0.14999999963E+04  0.15000000000E+04  0.10566000000E+00 0. -1.
        994   -1    0    0    0    0 -0.00000000000E+00 -0.00000000000E+00  0.11368683772E-12  0.17120000000E+03  0.17120000000E+03 0.  0.
         13    1    1    2    0    0  0.16747200459E+02 -0.59545492013E+01  0.90780352833E+01  0.19958638933E+02  0.10566000000E+00 0. -1.
        994    1    1    2    0    0 -0.21141405167E+02  0.14438964039E+01  0.12701262159E+02  0.17297342544E+03  0.17120000000E+03 0.  0.
        998    1    1    2    0    0  0.43942047084E+01  0.45106527974E+01  0.14782206988E+04  0.14782679356E+04  0.10000000000E+02 0. -1.
</event>
<event>
 5    1  0.1658612E-008  0.3768489E+03  0.7957747E-01  0.3464995E+00
         13   -1    0    0    0    0  0.00000000000E+00  0.00000000000E+00  0.14999999963E+04  0.15000000000E+04  0.10566000000E+00 0. -1.
        994   -1    0    0    0    0 -0.00000000000E+00 -0.00000000000E+00  0.11368683772E-12  0.17120000000E+03  0.17120000000E+03 0.  0.
         13    1    1    2    0    0 -0.10330776951E+02 -0.28742827073E+01  0.74268042938E+01  0.13044348951E+02  0.10566000000E+00 0. -1.
        994    1    1    2    0    0  0.76740677637E+01 -0.22179144066E+00  0.59314411933E+01  0.17147467015E+03  0.17120000000E+03 0.  0.
        998    1    1    2    0    0  0.26567091876E+01  0.30960741480E+01  0.14866417508E+04  0.14866809809E+04  0.10000000000E+02 0. -1.
</event>
<event>
 5    1  0.1658612E-008  0.3803779E+03  0.7957747E-01  0.3449514E+00
         13   -1    0    0    0    0  0.00000000000E+00  0.00000000000E+00  0.14999999963E+04  0.15000000000E+04  0.10566000000E+00 0. -1.
        994   -1    0    0    0    0 -0.00000000000E+00 -0.00000000000E+00  0.11368683772E-12  0.17120000000E+03  0.17120000000E+03 0.  0.
         13    1    1    2    0    0 -0.12443997550E+02  0.68977068303E+01  0.23729593236E+02  0.27668324737E+02  0.10566000000E+00 0. -1.
        994    1    1    2    0    0  0.10701011794E+02 -0.11372396482E+02  0.47570294501E+01  0.17197648788E+03  0.17120000000E+03 0.  0.
        998    1    1    2    0    0  0.17429857563E+01  0.44746896516E+01  0.14715133736E+04  0.14715551874E+04  0.10000000000E+02 0. -1.
</event>
<event>
 5    1  0.1774232E-008  0.3860942E+03  0.7957747E-01  0.3425045E+00
         13   -1    0    0    0    0  0.00000000000E+00  0.00000000000E+00  0.14999999963E+04  0.15000000000E+04  0.10566000000E+00 0. -1.
        994   -1    0    0    0    0 -0.00000000000E+00 -0.00000000000E+00  0.11368683772E-12  0.17120000000E+03  0.17120000000E+03 0.  0.
         13    1    1    2    0    0 -0.10745688670E+02  0.45980192707E+01  0.63664016712E+02  0.64728122128E+02  0.10566000000E+00 0. -1.
        994    1    1    2    0    0  0.73924144718E+01 -0.23578136566E+01  0.12851764635E+01  0.17138056703E+03  0.17120000000E+03 0.  0.
        998    1    1    2    0    0  0.33532741982E+01 -0.22402056140E+01  0.14350508031E+04  0.14350913108E+04  0.10000000000E+02 0. -1.
</event>
<event>
 5    1  0.1658612E-008  0.3690613E+03  0.7957747E-01  0.3500216E+00
         13   -1    0    0    0    0  0.00000000000E+00  0.00000000000E+00  0.14999999963E+04  0.15000000000E+04  0.10566000000E+00 0.  1.
        994   -1    0    0    0    0 -0.00000000000E+00 -0.00000000000E+00  0.11368683772E-12  0.17120000000E+03  0.17120000000E+03 0.  0.
         13    1    1    2    0    0 -0.11108558626E+03 -0.79096209398E+02  0.56058938064E+03  0.57693732993E+03  0.10566000000E+00 0.  1.
        994    1    1    2    0    0  0.10031960582E+03  0.95389567406E+02  0.79509995714E+02  0.23408219134E+03  0.17120000000E+03 0.  0.
        998    1    1    2    0    0  0.10765980432E+02 -0.16293358009E+02  0.85990061993E+03  0.86018047874E+03  0.10000000000E+02 0.  1.
</event>
<event>
 5    1  0.1658612E-008  0.3826443E+03  0.7957747E-01  0.3439725E+00
         13   -1    0    0    0    0  0.00000000000E+00  0.00000000000E+00  0.14999999963E+04  0.15000000000E+04  0.10566000000E+00 0. -1.
        994   -1    0    0    0    0 -0.00000000000E+00 -0.00000000000E+00  0.11368683772E-12  0.17120000000E+03  0.17120000000E+03 0.  0.
         13    1    1    2    0    0 -0.27655713675E+02 -0.35533462420E+00  0.13703663659E+03  0.13979991307E+03  0.10566000000E+00 0.  1.
        994    1    1    2    0    0  0.15037892585E+02  0.57683552526E+01  0.36643929127E+01  0.17199499967E+03  0.17120000000E+03 0.  0.
        998    1    1    2    0    0  0.12617821090E+02 -0.54130206284E+01  0.13592989668E+04  0.13594050873E+04  0.10000000000E+02 0. -1.
</event>
<event>
 5    1  0.1658612E-008  0.3853334E+03  0.7957747E-01  0.3428260E+00
         13   -1    0    0    0    0  0.00000000000E+00  0.00000000000E+00  0.14999999963E+04  0.15000000000E+04  0.10566000000E+00 0.  1.
        994   -1    0    0    0    0 -0.00000000000E+00 -0.00000000000E+00  0.11368683772E-12  0.17120000000E+03  0.17120000000E+03 0.  0.
         13    1    1    2    0    0  0.70551341661E+01  0.17681107160E+02  0.11131282019E+03  0.11292896693E+03  0.10566000000E+00 0.  1.
        994    1    1    2    0    0  0.38294155657E+00 -0.26944440108E+02  0.38538346315E+01  0.17335063178E+03  0.17120000000E+03 0.  0.
        998    1    1    2    0    0 -0.74380757227E+01  0.92633329479E+01  0.13848333415E+04  0.13849204013E+04  0.10000000000E+02 0.  1.
</event>
<event>
 5    1  0.1658612E-008  0.3850800E+03  0.7957747E-01  0.3429333E+00
         13   -1    0    0    0    0  0.00000000000E+00  0.00000000000E+00  0.14999999963E+04  0.15000000000E+04  0.10566000000E+00 0.  1.
        994   -1    0    0    0    0 -0.00000000000E+00 -0.00000000000E+00  0.11368683772E-12  0.17120000000E+03  0.17120000000E+03 0.  0.
         13    1    1    2    0    0 -0.13905466387E+02 -0.75257617317E+01  0.79407644308E+02  0.80966562380E+02  0.10566000000E+00 0.  1.
        994    1    1    2    0    0  0.71071487890E+01  0.58167373164E+01  0.18678086198E+01  0.17145633469E+03  0.17120000000E+03 0.  0.
        998    1    1    2    0    0  0.67983175978E+01  0.17090244153E+01  0.14187245434E+04  0.14187771029E+04  0.10000000000E+02 0.  1.
</event>
<event>
 5    1  0.1658612E-008  0.3698382E+03  0.7957747E-01  0.3496635E+00
         13   -1    0    0    0    0  0.00000000000E+00  0.00000000000E+00  0.14999999963E+04  0.15000000000E+04  0.10566000000E+00 0. -1.
        994   -1    0    0    0    0 -0.00000000000E+00 -0.00000000000E+00  0.11368683772E-12  0.17120000000E+03  0.17120000000E+03 0.  0.
         13    1    1    2    0    0  0.36757616174E+02 -0.29151990600E+01  0.67125108439E+02  0.76585978347E+02  0.10566000000E+00 0. -1.
        994    1    1    2    0    0 -0.31758792718E+02  0.23871619994E+02  0.14834294994E+02  0.17637452045E+03  0.17120000000E+03 0.  0.
        998    1    1    2    0    0 -0.49988234557E+01 -0.20956420934E+02  0.14180405928E+04  0.14182395012E+04  0.10000000000E+02 0. -1.
</event>
<event>
 5    1  0.1658612E-008  0.3710617E+03  0.7957747E-01  0.3491026E+00
         13   -1    0    0    0    0  0.00000000000E+00  0.00000000000E+00  0.14999999963E+04  0.15000000000E+04  0.10566000000E+00 0. -1.
        994   -1    0    0    0    0 -0.00000000000E+00 -0.00000000000E+00  0.11368683772E-12  0.17120000000E+03  0.17120000000E+03 0.  0.
         13    1    1    2    0    0 -0.27135068187E+02  0.58593532692E+02  0.17970990879E+03  0.19095857268E+03  0.10566000000E+00 0. -1.
        994    1    1    2    0    0  0.23540517888E+01 -0.39084726428E+02  0.16900454082E+02  0.17643192100E+03  0.17120000000E+03 0.  0.
        998    1    1    2    0    0  0.24781016398E+02 -0.19508806264E+02  0.13033896334E+04  0.13038095063E+04  0.10000000000E+02 0. -1.
</event>
<event>
 5    1  0.1658612E-008  0.3846707E+03  0.7957747E-01  0.3431070E+00
         13   -1    0    0    0    0  0.00000000000E+00  0.00000000000E+00  0.14999999963E+04  0.15000000000E+04  0.10566000000E+00 0. -1.
        994   -1    0    0    0    0 -0.00000000000E+00 -0.00000000000E+00  0.11368683772E-12  0.17120000000E+03  0.17120000000E+03 0.  0.
         13    1    1    2    0    0  0.45147942595E+01 -0.14354418107E+02  0.65266089836E+02  0.66978401989E+02  0.10566000000E+00 0. -1.
        994    1    1    2    0    0 -0.44949456109E+01  0.28022272371E+01  0.18860775850E+01  0.17129230661E+03  0.17120000000E+03 0.  0.
        998    1    1    2    0    0 -0.19848648632E-01  0.11552190870E+02  0.14328478289E+04  0.14329292914E+04  0.10000000000E+02 0. -1.
</event>
<event>
 5    1  0.1658612E-008  0.3838012E+03  0.7957747E-01  0.3434773E+00
         13   -1    0    0    0    0  0.00000000000E+00  0.00000000000E+00  0.14999999963E+04  0.15000000000E+04  0.10566000000E+00 0. -1.
        994   -1    0    0    0    0 -0.00000000000E+00 -0.00000000000E+00  0.11368683772E-12  0.17120000000E+03  0.17120000000E+03 0.  0.
         13    1    1    2    0    0 -0.13588557593E+02 -0.28850069138E+02  0.18292398191E+03  0.18568298175E+03  0.10566000000E+00 0. -1.
        994    1    1    2    0    0  0.20931777781E+02  0.37928413509E+02  0.84471977859E+01  0.17679790446E+03  0.17120000000E+03 0.  0.
        998    1    1    2    0    0 -0.73432201879E+01 -0.90783443715E+01  0.13086288166E+04  0.13087191138E+04  0.10000000000E+02 0. -1.
</event>
<event>
 5    1  0.1658612E-008  0.3808965E+03  0.7957747E-01  0.3447264E+00
         13   -1    0    0    0    0  0.00000000000E+00  0.00000000000E+00  0.14999999963E+04  0.15000000000E+04  0.10566000000E+00 0. -1.
        994   -1    0    0    0    0 -0.00000000000E+00 -0.00000000000E+00  0.11368683772E-12  0.17120000000E+03  0.17120000000E+03 0.  0.
         13    1    1    2    0    0  0.17381733624E+02  0.76300754041E+00  0.39460535042E+02  0.43125999514E+02  0.10566000000E+00 0. -1.
        994    1    1    2    0    0 -0.13107275349E+02 -0.11677880572E+02  0.47090959275E+01  0.17216210136E+03  0.17120000000E+03 0.  0.
        998    1    1    2    0    0 -0.42744582741E+01  0.10914873032E+02  0.14558303653E+04  0.14559118991E+04  0.10000000000E+02 0. -1.
</event>
<event>
 5    1  0.1658612E-008  0.3860305E+03  0.7957747E-01  0.3425313E+00
         13   -1    0    0    0    0  0.00000000000E+00  0.00000000000E+00  0.14999999963E+04  0.15000000000E+04  0.10566000000E+00 0.  1.
        994   -1    0    0    0    0 -0.00000000000E+00 -0.00000000000E+00  0.11368683772E-12  0.17120000000E+03  0.17120000000E+03 0.  0.
         13    1    1    2    0    0  0.31450560942E+01  0.10225246572E+02  0.50976963843E+02  0.52087513398E+02  0.10566000000E+00 0.  1.
        994    1    1    2    0    0  0.23014778195E+01 -0.10625126360E+02  0.15068410622E+01  0.17155145199E+03  0.17120000000E+03 0.  0.
        998    1    1    2    0    0 -0.54465339137E+01  0.39987978891E+00  0.14475161914E+04  0.14475610346E+04  0.10000000000E+02 0.  1.
</event>
<event>
 5    1  0.1658612E-008  0.3837042E+03  0.7957747E-01  0.3435186E+00
         13   -1    0    0    0    0  0.00000000000E+00  0.00000000000E+00  0.14999999963E+04  0.15000000000E+04  0.10566000000E+00 0.  1.
        994   -1    0    0    0    0 -0.00000000000E+00 -0.00000000000E+00  0.11368683772E-12  0.17120000000E+03  0.17120000000E+03 0.  0.
         13    1    1    2    0    0 -0.13921954086E+02  0.70821990459E+00  0.40928747425E+02  0.43237667731E+02  0.10566000000E+00 0.  1.
        994    1    1    2    0    0  0.15856407963E+02  0.23659263486E+00  0.31057972362E+01  0.17196094797E+03  0.17120000000E+03 0.  0.
        998    1    1    2    0    0 -0.19344538770E+01 -0.94481253945E+00  0.14559654516E+04  0.14560013843E+04  0.10000000000E+02 0.  1.
</event>
<event>
 5    1  0.1658612E-008  0.3833172E+03  0.7957747E-01  0.3436841E+00
         13   -1    0    0    0    0  0.00000000000E+00  0.00000000000E+00  0.14999999963E+04  0.15000000000E+04  0.10566000000E+00 0. -1.
        994   -1    0    0    0    0 -0.00000000000E+00 -0.00000000000E+00  0.11368683772E-12  0.17120000000E+03  0.17120000000E+03 0.  0.
         13    1    1    2    0    0  0.32722674694E+01 -0.14931475446E+02  0.47834295901E+02  0.50217404571E+02  0.10566000000E+00 0. -1.
        994    1    1    2    0    0 -0.77140289034E-01  0.46608375763E+01  0.25397809390E+01  0.17128228118E+03  0.17120000000E+03 0.  0.
        998    1    1    2    0    0 -0.31951271803E+01  0.10270637870E+02  0.14496259194E+04  0.14497003143E+04  0.10000000000E+02 0. -1.
</event>
<event>
 5    1  0.1658612E-008  0.3855817E+03  0.7957747E-01  0.3427209E+00
         13   -1    0    0    0    0  0.00000000000E+00  0.00000000000E+00  0.14999999963E+04  0.15000000000E+04  0.10566000000E+00 0.  1.
        994   -1    0    0    0    0 -0.00000000000E+00 -0.00000000000E+00  0.11368683772E-12  0.17120000000E+03  0.17120000000E+03 0.  0.
         13    1    1    2    0    0  0.31384544272E+01 -0.13924215962E+02  0.75845906536E+02  0.77177369667E+02  0.10566000000E+00 0.  1.
        994    1    1    2    0    0 -0.13769023086E+01  0.10262009166E+02  0.16935876201E+01  0.17152117342E+03  0.17120000000E+03 0.  0.
        998    1    1    2    0    0 -0.17615521186E+01  0.36622067959E+01  0.14224605021E+04  0.14225014569E+04  0.10000000000E+02 0.  1.
</event>
<event>
 5    1  0.2189197E-008  0.3861887E+03  0.7957747E-01  0.3424646E+00
         13   -1    0    0    0    0  0.00000000000E+00  0.00000000000E+00  0.14999999963E+04  0.15000000000E+04  0.10566000000E+00 0. -1.
        994   -1    0    0    0    0 -0.00000000000E+00 -0.00000000000E+00  0.11368683772E-12  0.17120000000E+03  0.17120000000E+03 0.  0.
         13    1    1    2    0    0  0.55831043865E+01  0.87052739921E+01  0.50460408812E+02  0.51509386246E+02  0.10566000000E+00 0. -1.
        994    1    1    2    0    0 -0.62341206356E+01 -0.99422594914E+01  0.14923938865E+01  0.17160821665E+03  0.17120000000E+03 0.  0.
        998    1    1    2    0    0  0.65101624903E+00  0.12369854994E+01  0.14480471936E+04  0.14480823971E+04  0.10000000000E+02 0. -1.
</event>
<event>
 5    1  0.1658612E-008  0.3724854E+03  0.7957747E-01  0.3484546E+00
         13   -1    0    0    0    0  0.00000000000E+00  0.00000000000E+00  0.14999999963E+04  0.15000000000E+04  0.10566000000E+00 0.  1.
        994   -1    0    0    0    0 -0.00000000000E+00 -0.00000000000E+00  0.11368683772E-12  0.17120000000E+03  0.17120000000E+03 0.  0.
         13    1    1    2    0    0  0.61539185920E+02 -0.87299799673E+02  0.47369817964E+03  0.48559067432E+03  0.10566000000E+00 0.  1.
        994    1    1    2    0    0 -0.52344048580E+02  0.94652326433E+02  0.49214327942E+02  0.20839974183E+03  0.17120000000E+03 0.  0.
        998    1    1    2    0    0 -0.91951373396E+01 -0.73525267603E+01  0.97708748869E+03  0.97720958385E+03  0.10000000000E+02 0.  1.
</event>
<event>
 5    1  0.1658612E-008  0.3855298E+03  0.7957747E-01  0.3427428E+00
         13   -1    0    0    0    0  0.00000000000E+00  0.00000000000E+00  0.14999999963E+04  0.15000000000E+04  0.10566000000E+00 0. -1.
        994   -1    0    0    0    0 -0.00000000000E+00 -0.00000000000E+00  0.11368683772E-12  0.17120000000E+03  0.17120000000E+03 0.  0.
         13    1    1    2    0    0  0.16166385553E+01  0.15109737935E+02  0.83169426247E+02  0.84546332428E+02  0.10566000000E+00 0. -1.
        994    1    1    2    0    0 -0.22400440806E+01 -0.12371453449E+02  0.18864250742E+01  0.17167139907E+03  0.17120000000E+03 0.  0.
        998    1    1    2    0    0  0.62340552536E+00 -0.27382844861E+01  0.14149441450E+04  0.14149822685E+04  0.10000000000E+02 0. -1.
</event>
<event>
 5    1  0.1658612E-008  0.3746116E+03  0.7957747E-01  0.3474962E+00
         13   -1    0    0    0    0  0.00000000000E+00  0.00000000000E+00  0.14999999963E+04  0.15000000000E+04  0.10566000000E+00 0. -1.
        994   -1    0    0    0    0 -0.00000000000E+00 -0.00000000000E+00  0.11368683772E-12  0.17120000000E+03  0.17120000000E+03 0.  0.
         13    1    1    2    0    0  0.12262938886E+02 -0.46121202298E+01  0.17539639824E+00  0.13103177136E+02  0.10566000000E+00 0. -1.
        994    1    1    2    0    0 -0.14364539414E+02  0.61197004426E+01  0.14265055075E+02  0.17250136962E+03  0.17120000000E+03 0.  0.
        998    1    1    2    0    0  0.21016005285E+01 -0.15075802128E+01  0.14855595448E+04  0.14855954532E+04  0.10000000000E+02 0. -1.
</event>
<event>
 5    1  0.1658612E-008  0.3857024E+03  0.7957747E-01  0.3426699E+00
         13   -1    0    0    0    0  0.00000000000E+00  0.00000000000E+00  0.14999999963E+04  0.15000000000E+04  0.10566000000E+00 0. -1.
        994   -1    0    0    0    0 -0.00000000000E+00 -0.00000000000E+00  0.11368683772E-12  0.17120000000E+03  0.17120000000E+03 0.  0.
         13    1    1    2    0    0 -0.11819246932E+02  0.29634603697E+01  0.63854573654E+02  0.65006879912E+02  0.10566000000E+00 0. -1.
        994    1    1    2    0    0 -0.24540049765E+01  0.82284417835E+01  0.15237745792E+01  0.17142196850E+03  0.17120000000E+03 0.  0.
        998    1    1    2    0    0  0.14273251908E+02 -0.11191902153E+02  0.14346216480E+04  0.14347711516E+04  0.10000000000E+02 0. -1.
</event>
<event>
 5    1  0.1658612E-008  0.3951072E+03  0.7957747E-01  0.3387906E+00
         13   -1    0    0    0    0  0.00000000000E+00  0.00000000000E+00  0.14999999963E+04  0.15000000000E+04  0.10566000000E+00 0. -1.
        994   -1    0    0    0    0 -0.00000000000E+00 -0.00000000000E+00  0.11368683772E-12  0.17120000000E+03  0.17120000000E+03 0.  0.
         13    1    1    2    0    0 -0.27579608132E+02 -0.11425005513E+02  0.74150906813E+01  0.30759718294E+02  0.10566000000E+00 0. -1.
        994    1    1    2    0    0  0.24560834083E+02  0.11943428771E+02  0.27754213551E+02  0.17557225416E+03  0.17120000000E+03 0.  0.
        998    1    1    2    0    0  0.30187740489E+01 -0.51842325755E+00  0.14648306920E+04  0.14648680275E+04  0.10000000000E+02 0. -1.
</event>
<event>
 5    1  0.1658612E-008  0.3715867E+03  0.7957747E-01  0.3488630E+00
         13   -1    0    0    0    0  0.00000000000E+00  0.00000000000E+00  0.14999999963E+04  0.15000000000E+04  0.10566000000E+00 0.  1.
        994   -1    0    0    0    0 -0.00000000000E+00 -0.00000000000E+00  0.11368683772E-12  0.17120000000E+03  0.17120000000E+03 0.  0.
         13    1    1    2    0    0 -0.77171616350E+00 -0.23320253450E+02  0.29167486589E+02  0.37352151274E+02  0.10566000000E+00 0.  1.
        994    1    1    2    0    0  0.18200828604E+01  0.10584865285E+02  0.88388348615E+01  0.17176413210E+03  0.17120000000E+03 0.  0.
        998    1    1    2    0    0 -0.10483666969E+01  0.12735388165E+02  0.14619936748E+04  0.14620837166E+04  0.10000000000E+02 0.  1.
</event>
<event>
 5    1  0.1658612E-008  0.3550938E+03  0.7957747E-01  0.3567333E+00
         13   -1    0    0    0    0  0.00000000000E+00  0.00000000000E+00  0.14999999963E+04  0.15000000000E+04  0.10566000000E+00 0.  1.
        994   -1    0    0    0    0 -0.00000000000E+00 -0.00000000000E+00  0.11368683772E-12  0.17120000000E+03  0.17120000000E+03 0.  0.
         13    1    1    2    0    0 -0.10593188797E+03  0.18008078290E+03  0.11422617775E+04  0.11612117089E+04  0.10566000000E+00 0.  1.
        994    1    1    2    0    0  0.54697464508E+02 -0.16468509879E+03  0.13085443687E+03  0.27666824544E+03  0.17120000000E+03 0.  0.
        998    1    1    2    0    0  0.51234423459E+02 -0.15395684110E+02  0.22688378187E+03  0.23332004568E+03  0.10000000000E+02 0. -1.
</event>
<event>
 5    1  0.1658612E-008  0.3830160E+03  0.7957747E-01  0.3438130E+00
         13   -1    0    0    0    0  0.00000000000E+00  0.00000000000E+00  0.14999999963E+04  0.15000000000E+04  0.10566000000E+00 0.  1.
        994   -1    0    0    0    0 -0.00000000000E+00 -0.00000000000E+00  0.11368683772E-12  0.17120000000E+03  0.17120000000E+03 0.  0.
         13    1    1    2    0    0 -0.10495452777E+02 -0.69014532930E+01  0.29439460539E+02  0.32007461434E+02  0.10566000000E+00 0.  1.
        994    1    1    2    0    0 -0.46016235979E+01  0.19350617108E+02  0.39289579944E+01  0.17239633996E+03  0.17120000000E+03 0.  0.
        998    1    1    2    0    0  0.15097076375E+02 -0.12449163815E+02  0.14666315777E+04  0.14667961986E+04  0.10000000000E+02 0.  1.
</event>
<event>
 5    1  0.1658612E-008  0.3775463E+03  0.7957747E-01  0.3461913E+00
         13   -1    0    0    0    0  0.00000000000E+00  0.00000000000E+00  0.14999999963E+04  0.15000000000E+04  0.10566000000E+00 0.  1.
        994   -1    0    0    0    0 -0.00000000000E+00 -0.00000000000E+00  0.11368683772E-12  0.17120000000E+03  0.17120000000E+03 0.  0.
         13    1    1    2    0    0 -0.89690345167E+01 -0.65617705077E+02  0.14636265371E+03  0.16064919659E+03  0.10566000000E+00 0.  1.
        994    1    1    2    0    0  0.29390587413E+01  0.32996483582E+02  0.18937039556E+02  0.17540084795E+03  0.17120000000E+03 0.  0.
        998    1    1    2    0    0  0.60299757755E+01  0.32621221495E+02  0.13347003030E+04  0.13351499555E+04  0.10000000000E+02 0.  1.
</event>
<event>
 5    1  0.1658612E-008  0.4024174E+03  0.7957747E-01  0.3359003E+00
         13   -1    0    0    0    0  0.00000000000E+00  0.00000000000E+00  0.14999999963E+04  0.15000000000E+04  0.10566000000E+00 0.  1.
        994   -1    0    0    0    0 -0.00000000000E+00 -0.00000000000E+00  0.11368683772E-12  0.17120000000E+03  0.17120000000E+03 0.  0.
         13    1    1    2    0    0 -0.40973279512E+02 -0.68477089006E+02  0.10384111383E+03  0.13096148074E+03  0.10566000000E+00 0.  1.
        994    1    1    2    0    0  0.18496751588E+02  0.41759945404E+02  0.37522854963E+02  0.18111716513E+03  0.17120000000E+03 0.  0.
        998    1    1    2    0    0  0.22476527924E+02  0.26717143601E+02  0.13586360275E+04  0.13591213541E+04  0.10000000000E+02 0.  1.
</event>
<event>
 5    1  0.1658612E-008  0.4099904E+03  0.7957747E-01  0.3330140E+00
         13   -1    0    0    0    0  0.00000000000E+00  0.00000000000E+00  0.14999999963E+04  0.15000000000E+04  0.10566000000E+00 0.  1.
        994   -1    0    0    0    0 -0.00000000000E+00 -0.00000000000E+00  0.11368683772E-12  0.17120000000E+03  0.17120000000E+03 0.  0.
         13    1    1    2    0    0  0.12274710760E+03  0.89706887189E+02  0.24834911807E+03  0.29118975539E+03  0.10566000000E+00 0.  1.
        994    1    1    2    0    0 -0.12060706090E+03 -0.11228566577E+03  0.15638544526E+03  0.28446437627E+03  0.17120000000E+03 0.  0.
        998    1    1    2    0    0 -0.21400467073E+01  0.22578778576E+02  0.10952654329E+04  0.10955458683E+04  0.10000000000E+02 0.  1.
</event>
<event>
 5    1  0.1658612E-008  0.3714423E+03  0.7957747E-01  0.3489288E+00
         13   -1    0    0    0    0  0.00000000000E+00  0.00000000000E+00  0.14999999963E+04  0.15000000000E+04  0.10566000000E+00 0. -1.
        994   -1    0    0    0    0 -0.00000000000E+00 -0.00000000000E+00  0.11368683772E-12  0.17120000000E+03  0.17120000000E+03 0.  0.
         13    1    1    2    0    0  0.64499961785E+02  0.28133196515E+02  0.18019340452E+03  0.19344610623E+03  0.10566000000E+00 0. -1.
        994    1    1    2    0    0 -0.62304958918E+02 -0.42185519991E+02  0.31871869706E+02  0.18970182414E+03  0.17120000000E+03 0.  0.
        998    1    1    2    0    0 -0.21950028674E+01  0.14052323476E+02  0.12879347220E+04  0.12880520696E+04  0.10000000000E+02 0.  0.
</event>
<event>
 5    1  0.1658612E-008  0.3793300E+03  0.7957747E-01  0.3454081E+00
         13   -1    0    0    0    0  0.00000000000E+00  0.00000000000E+00  0.14999999963E+04  0.15000000000E+04  0.10566000000E+00 0.  1.
        994   -1    0    0    0    0 -0.00000000000E+00 -0.00000000000E+00  0.11368683772E-12  0.17120000000E+03  0.17120000000E+03 0.  0.
         13    1    1    2    0    0  0.21576386851E+03  0.43099186725E+02  0.11144230829E+04  0.11359359162E+04  0.10566000000E+00 0.  1.
        994    1    1    2    0    0 -0.21200335578E+03 -0.30590815843E+02  0.17773606191E+03  0.32677326785E+03  0.17120000000E+03 0.  0.
        998    1    1    2    0    0 -0.37605127296E+01 -0.12508370882E+02  0.20784085151E+03  0.20849081600E+03  0.10000000000E+02 0. -1.
</event>
<event>
 5    1  0.1658612E-008  0.3809824E+03  0.7957747E-01  0.3446892E+00
         13   -1    0    0    0    0  0.00000000000E+00  0.00000000000E+00  0.14999999963E+04  0.15000000000E+04  0.10566000000E+00 0.  1.
        994   -1    0    0    0    0 -0.00000000000E+00 -0.00000000000E+00  0.11368683772E-12  0.17120000000E+03  0.17120000000E+03 0.  0.
         13    1    1    2    0    0  0.33638742317E+02  0.73025985611E+01  0.13365149884E+03  0.13801314153E+03  0.10566000000E+00 0.  1.
        994    1    1    2    0    0 -0.43671117626E+02 -0.47927621765E+02  0.17776158011E+02  0.18392839704E+03  0.17120000000E+03 0.  0.
        998    1    1    2    0    0  0.10032375309E+02  0.40625023204E+02  0.13485723394E+04  0.13492584614E+04  0.10000000000E+02 0.  1.
</event>
<event>
 5    1  0.1658612E-008  0.3848391E+03  0.7957747E-01  0.3430355E+00
         13   -1    0    0    0    0  0.00000000000E+00  0.00000000000E+00  0.14999999963E+04  0.15000000000E+04  0.10566000000E+00 0.  1.
        994   -1    0    0    0    0 -0.00000000000E+00 -0.00000000000E+00  0.11368683772E-12  0.17120000000E+03  0.17120000000E+03 0.  0.
         13    1    1    2    0    0  0.81300653295E+01  0.10400366426E+02  0.53684774269E+02  0.55284100213E+02  0.10566000000E+00 0.  1.
        994    1    1    2    0    0 -0.23945367942E+01  0.28634840561E+01  0.17559017033E+01  0.17124969062E+03  0.17120000000E+03 0.  0.
        998    1    1    2    0    0 -0.57355285353E+01 -0.13263850483E+02  0.14445593203E+04  0.14446662092E+04  0.10000000000E+02 0.  1.
</event>
<event>
 5    1  0.1658612E-008  0.3850317E+03  0.7957747E-01  0.3429538E+00
         13   -1    0    0    0    0  0.00000000000E+00  0.00000000000E+00  0.14999999963E+04  0.15000000000E+04  0.10566000000E+00 0.  1.
        994   -1    0    0    0    0 -0.00000000000E+00 -0.00000000000E+00  0.11368683772E-12  0.17120000000E+03  0.17120000000E+03 0.  0.
         13    1    1    2    0    0  0.94233256480E+01 -0.63388893407E+01  0.38869343893E+02  0.40494661908E+02  0.10566000000E+00 0.  1.
        994    1    1    2    0    0 -0.10653186462E+02  0.67024794466E+01  0.21354627968E+01  0.17167531510E+03  0.17120000000E+03 0.  0.
        998    1    1    2    0    0  0.12298608141E+01 -0.36359010592E+00  0.14589951896E+04  0.14590300230E+04  0.10000000000E+02 0.  1.
</event>
<event>
 5    1  0.1658612E-008  0.2845986E+03  0.7957747E-01  0.4012501E+00
         13   -1    0    0    0    0  0.00000000000E+00  0.00000000000E+00  0.14999999963E+04  0.15000000000E+04  0.10566000000E+00 0.  1.
        994   -1    0    0    0    0 -0.00000000000E+00 -0.00000000000E+00  0.11368683772E-12  0.17120000000E+03  0.17120000000E+03 0.  0.
         13    1    1    2    0    0 -0.11387157621E+03 -0.97992580113E+02  0.62831012058E+03  0.64602082041E+03  0.10566000000E+00 0.  1.
        994    1    1    2    0    0  0.79701630729E+02  0.78840536033E+02  0.61079146882E+02  0.21356095675E+03  0.17120000000E+03 0.  0.
        998    1    1    2    0    0  0.34169945479E+02  0.19152044081E+02  0.81061072882E+03  0.81161822284E+03  0.10000000000E+02 0. -1.
</event>
<event>
 5    1  0.2359855E-008  0.3836478E+03  0.7957747E-01  0.3435427E+00
         13   -1    0    0    0    0  0.00000000000E+00  0.00000000000E+00  0.14999999963E+04  0.15000000000E+04  0.10566000000E+00 0.  1.
        994   -1    0    0    0    0 -0.00000000000E+00 -0.00000000000E+00  0.11368683772E-12  0.17120000000E+03  0.17120000000E+03 0.  0.
         13    1    1    2    0    0  0.10205751628E+02 -0.11663815599E+00  0.21806471688E+02  0.24077050116E+02  0.10566000000E+00 0.  1.
        994    1    1    2    0    0 -0.75705170850E+01 -0.72623273696E+00  0.24940402538E+01  0.17138699011E+03  0.17120000000E+03 0.  0.
        998    1    1    2    0    0 -0.26352345435E+01  0.84287089295E+00  0.14756994843E+04  0.14757359598E+04  0.10000000000E+02 0.  1.
</event>
<event>
 5    1  0.1658612E-008  0.3857246E+03  0.7957747E-01  0.3426605E+00
         13   -1    0    0    0    0  0.00000000000E+00  0.00000000000E+00  0.14999999963E+04  0.15000000000E+04  0.10566000000E+00 0. -1.
        994   -1    0    0    0    0 -0.00000000000E+00 -0.00000000000E+00  0.11368683772E-12  0.17120000000E+03  0.17120000000E+03 0.  0.
         13    1    1    2    0    0 -0.90193234258E+01  0.79268597411E+01  0.57583124158E+02  0.58821855226E+02  0.10566000000E+00 0. -1.
        994    1    1    2    0    0  0.72685446043E+01 -0.22737660214E+01  0.14611210445E+01  0.17137554268E+03  0.17120000000E+03 0.  0.
        998    1    1    2    0    0  0.17507788215E+01 -0.56530937196E+01  0.14409557511E+04  0.14410026021E+04  0.10000000000E+02 0. -1.
</event>
<event>
 5    1  0.1658612E-008  0.3824679E+03  0.7957747E-01  0.3440482E+00
         13   -1    0    0    0    0  0.00000000000E+00  0.00000000000E+00  0.14999999963E+04  0.15000000000E+04  0.10566000000E+00 0.  1.
        994   -1    0    0    0    0 -0.00000000000E+00 -0.00000000000E+00  0.11368683772E-12  0.17120000000E+03  0.17120000000E+03 0.  0.
         13    1    1    2    0    0 -0.17981498359E+02 -0.18751136645E+02  0.10638019899E+03  0.10950660852E+03  0.10566000000E+00 0.  1.
        994    1    1    2    0    0  0.16723465692E+02  0.25087852113E+02  0.59127346197E+01  0.17393526111E+03  0.17120000000E+03 0.  0.
        998    1    1    2    0    0  0.12580326664E+01 -0.63367154673E+01  0.13877070627E+04  0.13877581304E+04  0.10000000000E+02 0.  1.
</event>
<event>
 5    1  0.1658612E-008  0.3779990E+03  0.7957747E-01  0.3459918E+00
         13   -1    0    0    0    0  0.00000000000E+00  0.00000000000E+00  0.14999999963E+04  0.15000000000E+04  0.10566000000E+00 0.  1.
        994   -1    0    0    0    0 -0.00000000000E+00 -0.00000000000E+00  0.11368683772E-12  0.17120000000E+03  0.17120000000E+03 0.  0.
         13    1    1    2    0    0  0.25494777804E+01  0.17259188585E+02  0.26843015455E+02  0.32014653994E+02  0.10566000000E+00 0.  1.
        994    1    1    2    0    0 -0.53974757584E+01 -0.19467337564E+02  0.65212446869E+01  0.17251109126E+03  0.17120000000E+03 0.  0.
        998    1    1    2    0    0  0.28479979781E+01  0.22081489791E+01  0.14666357361E+04  0.14666742547E+04  0.10000000000E+02 0.  1.
</event>
<event>
 5    1  0.1658612E-008  0.3705901E+03  0.7957747E-01  0.3493183E+00
         13   -1    0    0    0    0  0.00000000000E+00  0.00000000000E+00  0.14999999963E+04  0.15000000000E+04  0.10566000000E+00 0.  1.
        994   -1    0    0    0    0 -0.00000000000E+00 -0.00000000000E+00  0.11368683772E-12  0.17120000000E+03  0.17120000000E+03 0.  0.
         13    1    1    2    0    0  0.73540071364E+02 -0.19691944969E+02  0.30464987163E+03  0.31401826418E+03  0.10566000000E+00 0.  1.
        994    1    1    2    0    0 -0.53388387943E+02  0.44345022514E+00  0.18862075311E+02  0.18032119814E+03  0.17120000000E+03 0.  0.
        998    1    1    2    0    0 -0.20151683421E+02  0.19248494744E+02  0.11764880493E+04  0.11768605377E+04  0.10000000000E+02 0.  1.
</event>
<event>
 5    1  0.1658612E-008  0.3843818E+03  0.7957747E-01  0.3432298E+00
         13   -1    0    0    0    0  0.00000000000E+00  0.00000000000E+00  0.14999999963E+04  0.15000000000E+04  0.10566000000E+00 0. -1.
        994   -1    0    0    0    0 -0.00000000000E+00 -0.00000000000E+00  0.11368683772E-12  0.17120000000E+03  0.17120000000E+03 0.  0.
         13    1    1    2    0    0  0.20067204459E+02  0.17984763328E+01  0.11196196977E+03  0.11376036678E+03  0.10566000000E+00 0. -1.
        994    1    1    2    0    0 -0.35968370802E+01 -0.21849175558E+01  0.19957203993E+01  0.17126334693E+03  0.17120000000E+03 0.  0.
        998    1    1    2    0    0 -0.16470367379E+02  0.38644122298E+00  0.13860423061E+04  0.13861762863E+04  0.10000000000E+02 0. -1.
</event>
<event>
 5    1  0.1658612E-008  0.3798478E+03  0.7957747E-01  0.3451822E+00
         13   -1    0    0    0    0  0.00000000000E+00  0.00000000000E+00  0.14999999963E+04  0.15000000000E+04  0.10566000000E+00 0. -1.
        994   -1    0    0    0    0 -0.00000000000E+00 -0.00000000000E+00  0.11368683772E-12  0.17120000000E+03  0.17120000000E+03 0.  0.
         13    1    1    2    0    0 -0.61929209749E+01 -0.85937217502E+01  0.11449969997E+02  0.15598631372E+02  0.10566000000E+00 0. -1.
        994    1    1    2    0    0  0.38462362092E+01  0.78426650274E+01  0.44652356397E+01  0.17148084224E+03  0.17120000000E+03 0.  0.
        998    1    1    2    0    0  0.23466847658E+01  0.75105672274E+00  0.14840847906E+04  0.14841205264E+04  0.10000000000E+02 0. -1.
</event>
<event>
 5    1  0.1658612E-008  0.3745674E+03  0.7957747E-01  0.3475160E+00
         13   -1    0    0    0    0  0.00000000000E+00  0.00000000000E+00  0.14999999963E+04  0.15000000000E+04  0.10566000000E+00 0. -1.
        994   -1    0    0    0    0 -0.00000000000E+00 -0.00000000000E+00  0.11368683772E-12  0.17120000000E+03  0.17120000000E+03 0.  0.
         13    1    1    2    0    0 -0.25792277939E+02 -0.18407452288E+02  0.10044102559E+03  0.10532087489E+03  0.10566000000E+00 0. -1.
        994    1    1    2    0    0 -0.69324728187E+02 -0.99491420346E+01  0.23786025977E+02  0.18649428516E+03  0.17120000000E+03 0.  0.
        998    1    1    2    0    0  0.95117006126E+02  0.28356594322E+02  0.13757729447E+04  0.13793848400E+04  0.10000000000E+02 0. -1.
</event>
<event>
 5    1  0.1658612E-008  0.3881254E+03  0.7957747E-01  0.3416524E+00
         13   -1    0    0    0    0  0.00000000000E+00  0.00000000000E+00  0.14999999963E+04  0.15000000000E+04  0.10566000000E+00 0.  1.
        994   -1    0    0    0    0 -0.00000000000E+00 -0.00000000000E+00  0.11368683772E-12  0.17120000000E+03  0.17120000000E+03 0.  0.
         13    1    1    2    0    0  0.87625335860E+02 -0.41142681534E+02  0.23944043466E+03  0.25826856689E+03  0.10566000000E+00 0.  1.
        994    1    1    2    0    0 -0.31881942059E+02  0.25140397171E+02  0.27046520876E+02  0.17801531420E+03  0.17120000000E+03 0.  0.
        998    1    1    2    0    0 -0.55743393801E+02  0.16002284364E+02  0.12335130407E+04  0.12349161189E+04  0.10000000000E+02 0.  1.
</event>
<event>
 5    1  0.1658612E-008  0.4667966E+03  0.7957747E-01  0.3142912E+00
         13   -1    0    0    0    0  0.00000000000E+00  0.00000000000E+00  0.14999999963E+04  0.15000000000E+04  0.10566000000E+00 0.  1.
        994   -1    0    0    0    0 -0.00000000000E+00 -0.00000000000E+00  0.11368683772E-12  0.17120000000E+03  0.17120000000E+03 0.  0.
         13    1    1    2    0    0  0.47484802503E+02  0.45395196775E+01 -0.11502128970E+02  0.49068562670E+02  0.10566000000E+00 0.  1.
        994    1    1    2    0    0 -0.33845451754E+02 -0.14983512240E+02  0.83586952439E+02  0.19407791956E+03  0.17120000000E+03 0.  0.
        998    1    1    2    0    0 -0.13639350748E+02  0.10443992562E+02  0.14279151728E+04  0.14280535178E+04  0.10000000000E+02 0.  1.
</event>
<event>
 5    1  0.1658612E-008  0.3782703E+03  0.7957747E-01  0.3458725E+00
         13   -1    0    0    0    0  0.00000000000E+00  0.00000000000E+00  0.14999999963E+04  0.15000000000E+04  0.10566000000E+00 0.  1.
        994   -1    0    0    0    0 -0.00000000000E+00 -0.00000000000E+00  0.11368683772E-12  0.17120000000E+03  0.17120000000E+03 0.  0.
         13    1    1    2    0    0  0.35002820172E+02  0.34868811377E+01  0.15625609106E+03  0.16016657866E+03  0.10566000000E+00 0.  1.
        994    1    1    2    0    0  0.21416504089E+02 -0.28135135477E+02  0.92238784843E+01  0.17505648354E+03  0.17120000000E+03 0.  0.
        998    1    1    2    0    0 -0.56419324261E+02  0.24648254339E+02  0.13345200267E+04  0.13359769378E+04  0.10000000000E+02 0. -1.
</event>
<event>
 5    1  0.1658612E-008  0.3797202E+03  0.7957747E-01  0.3452378E+00
         13   -1    0    0    0    0  0.00000000000E+00  0.00000000000E+00  0.14999999963E+04  0.15000000000E+04  0.10566000000E+00 0.  1.
        994   -1    0    0    0    0 -0.00000000000E+00 -0.00000000000E+00  0.11368683772E-12  0.17120000000E+03  0.17120000000E+03 0.  0.
         13    1    1    2    0    0  0.64056572257E+01 -0.49537199372E+02  0.27555016854E+03  0.28004084187E+03  0.10566000000E+00 0.  1.
        994    1    1    2    0    0 -0.29054050430E+02  0.32155885855E+02  0.10584489567E+02  0.17691695866E+03  0.17120000000E+03 0.  0.
        998    1    1    2    0    0  0.22648393205E+02  0.17381313517E+02  0.12138653382E+04  0.12142421995E+04  0.10000000000E+02 0.  1.
</event>
<event>
 5    1  0.1658612E-008  0.3728332E+03  0.7957747E-01  0.3482971E+00
         13   -1    0    0    0    0  0.00000000000E+00  0.00000000000E+00  0.14999999963E+04  0.15000000000E+04  0.10566000000E+00 0.  1.
        994   -1    0    0    0    0 -0.00000000000E+00 -0.00000000000E+00  0.11368683772E-12  0.17120000000E+03  0.17120000000E+03 0.  0.
         13    1    1    2    0    0 -0.28513910832E+02 -0.17836332841E+02  0.37283883482E+02  0.50212319322E+02  0.10566000000E+00 0.  1.
        994    1    1    2    0    0  0.43981998570E+02  0.35287893956E+02  0.23758499782E+02  0.18180637494E+03  0.17120000000E+03 0.  0.
        998    1    1    2    0    0 -0.15468087738E+02 -0.17451561115E+02  0.14389576130E+04  0.14391813057E+04  0.10000000000E+02 0.  1.
</event>
<event>
 5    1  0.3109825E-008  0.3862670E+03  0.7957747E-01  0.3424317E+00
         13   -1    0    0    0    0  0.00000000000E+00  0.00000000000E+00  0.14999999963E+04  0.15000000000E+04  0.10566000000E+00 0. -1.
        994   -1    0    0    0    0 -0.00000000000E+00 -0.00000000000E+00  0.11368683772E-12  0.17120000000E+03  0.17120000000E+03 0.  0.
         13    1    1    2    0    0  0.12035593317E+02  0.32418670187E+00  0.70736930609E+02  0.71754338681E+02  0.10566000000E+00 0. -1.
        994    1    1    2    0    0 -0.12518050993E+02 -0.24472079231E+01  0.15354405602E+01  0.17168135602E+03  0.17120000000E+03 0.  0.
        998    1    1    2    0    0  0.48245767553E+00  0.21230212213E+01  0.14277276251E+04  0.14277643053E+04  0.10000000000E+02 0. -1.
</event>
<event>
 5    1  0.1658612E-008  0.3845266E+03  0.7957747E-01  0.3431683E+00
         13   -1    0    0    0    0  0.00000000000E+00  0.00000000000E+00  0.14999999963E+04  0.15000000000E+04  0.10566000000E+00 0. -1.
        994   -1    0    0    0    0 -0.00000000000E+00 -0.00000000000E+00  0.11368683772E-12  0.17120000000E+03  0.17120000000E+03 0.  0.
         13    1    1    2    0    0  0.81270177909E+01 -0.13997532945E+02  0.68856615435E+02  0.70733471567E+02  0.10566000000E+00 0. -1.
        994    1    1    2    0    0 -0.14849976645E+02  0.68559323329E+01  0.27470169398E+01  0.17200148754E+03  0.17120000000E+03 0.  0.
        998    1    1    2    0    0  0.67229588537E+01  0.71416006117E+01  0.14283963639E+04  0.14284650409E+04  0.10000000000E+02 0. -1.
</event>
<event>
 5    1  0.1658612E-008  0.3712946E+03  0.7957747E-01  0.3489962E+00
         13   -1    0    0    0    0  0.00000000000E+00  0.00000000000E+00  0.14999999963E+04  0.15000000000E+04  0.10566000000E+00 0.  1.
        994   -1    0    0    0    0 -0.00000000000E+00 -0.00000000000E+00  0.11368683772E-12  0.17120000000E+03  0.17120000000E+03 0.  0.
         13    1    1    2    0    0 -0.10356031774E+02  0.75823538977E+02  0.26421546765E+03  0.27507504606E+03  0.10566000000E+00 0.  1.
        994    1    1    2    0    0  0.21629807488E+01 -0.84862391370E+02  0.33824517655E+02  0.19406143859E+03  0.17120000000E+03 0.  0.
        998    1    1    2    0    0  0.81930510255E+01  0.90388523931E+01  0.12019600110E+04  0.12020635153E+04  0.10000000000E+02 0.  1.
</event>
<event>
 5    1  0.1658612E-008  0.3783186E+03  0.7957747E-01  0.3458513E+00
         13   -1    0    0    0    0  0.00000000000E+00  0.00000000000E+00  0.14999999963E+04  0.15000000000E+04  0.10566000000E+00 0.  1.
        994   -1    0    0    0    0 -0.00000000000E+00 -0.00000000000E+00  0.11368683772E-12  0.17120000000E+03  0.17120000000E+03 0.  0.
         13    1    1    2    0    0 -0.13224742294E+02  0.85198465850E+01  0.23517758781E+02  0.28294482442E+02  0.10566000000E+00 0.  1.
        994    1    1    2    0    0  0.26673820000E+01  0.71212530118E+01  0.51787483386E+01  0.17144703732E+03  0.17120000000E+03 0.  0.
        998    1    1    2    0    0  0.10557360294E+02 -0.15641099597E+02  0.14713034892E+04  0.14714584802E+04  0.10000000000E+02 0.  1.
</event>
<event>
 5    1  0.1658612E-008  0.3815136E+03  0.7957747E-01  0.3444594E+00
         13   -1    0    0    0    0  0.00000000000E+00  0.00000000000E+00  0.14999999963E+04  0.15000000000E+04  0.10566000000E+00 0.  1.
        994   -1    0    0    0    0 -0.00000000000E+00 -0.00000000000E+00  0.11368683772E-12  0.17120000000E+03  0.17120000000E+03 0.  0.
         13    1    1    2    0    0  0.43713764496E+02  0.24370053129E+01  0.21754946497E+03  0.22191127298E+03  0.10566000000E+00 0.  1.
        994    1    1    2    0    0 -0.57388709315E+02 -0.55532386415E+01  0.14508610358E+02  0.18122980492E+03  0.17120000000E+03 0.  0.
        998    1    1    2    0    0  0.13674944819E+02  0.31162333286E+01  0.12679419209E+04  0.12680589221E+04  0.10000000000E+02 0.  1.
</event>
<event>
 5    1  0.1658612E-008  0.4259100E+03  0.7957747E-01  0.3272768E+00
         13   -1    0    0    0    0  0.00000000000E+00  0.00000000000E+00  0.14999999963E+04  0.15000000000E+04  0.10566000000E+00 0.  1.
        994   -1    0    0    0    0 -0.00000000000E+00 -0.00000000000E+00  0.11368683772E-12  0.17120000000E+03  0.17120000000E+03 0.  0.
         13    1    1    2    0    0 -0.44765953489E+02 -0.39764034591E+02  0.21258877683E+02  0.63538335539E+02  0.10566000000E+00 0.  1.
        994    1    1    2    0    0  0.85415832217E+02  0.43312067238E+02  0.85837354541E+02  0.21412447547E+03  0.17120000000E+03 0.  0.
        998    1    1    2    0    0 -0.40649878728E+02 -0.35480326469E+01  0.13929037641E+04  0.13935371890E+04  0.10000000000E+02 0.  1.
</event>
<event>
 5    1  0.1658612E-008  0.3848957E+03  0.7957747E-01  0.3430115E+00
         13   -1    0    0    0    0  0.00000000000E+00  0.00000000000E+00  0.14999999963E+04  0.15000000000E+04  0.10566000000E+00 0. -1.
        994   -1    0    0    0    0 -0.00000000000E+00 -0.00000000000E+00  0.11368683772E-12  0.17120000000E+03  0.17120000000E+03 0.  0.
         13    1    1    2    0    0 -0.10389675771E+02  0.46213420371E+01  0.35597059688E+02  0.37369292037E+02  0.10566000000E+00 0. -1.
        994    1    1    2    0    0  0.22126931497E+02 -0.70527176924E+01  0.34582304009E+01  0.17280260786E+03  0.17120000000E+03 0.  0.
        998    1    1    2    0    0 -0.11737255726E+02  0.24313756552E+01  0.14609447062E+04  0.14610281001E+04  0.10000000000E+02 0. -1.
</event>
<event>
 5    1  0.1658612E-008  0.3819815E+03  0.7957747E-01  0.3442576E+00
         13   -1    0    0    0    0  0.00000000000E+00  0.00000000000E+00  0.14999999963E+04  0.15000000000E+04  0.10566000000E+00 0. -1.
        994   -1    0    0    0    0 -0.00000000000E+00 -0.00000000000E+00  0.11368683772E-12  0.17120000000E+03  0.17120000000E+03 0.  0.
         13    1    1    2    0    0  0.44370139168E+01 -0.15663462000E+02  0.41696306086E+02  0.44761861440E+02  0.10566000000E+00 0. -1.
        994    1    1    2    0    0 -0.34734958082E+01  0.67898695959E+01  0.33294304632E+01  0.17140213712E+03  0.17120000000E+03 0.  0.
        998    1    1    2    0    0 -0.96351810865E+00  0.88735924045E+01  0.14549742597E+04  0.14550360014E+04  0.10000000000E+02 0. -1.
</event>
<event>
 5    1  0.1658612E-008  0.3847704E+03  0.7957747E-01  0.3430647E+00
         13   -1    0    0    0    0  0.00000000000E+00  0.00000000000E+00  0.14999999963E+04  0.15000000000E+04  0.10566000000E+00 0. -1.
        994   -1    0    0    0    0 -0.00000000000E+00 -0.00000000000E+00  0.11368683772E-12  0.17120000000E+03  0.17120000000E+03 0.  0.
         13    1    1    2    0    0 -0.10062344738E+02  0.15840903806E+02  0.10026725137E+03  0.10200842062E+03  0.10566000000E+00 0. -1.
        994    1    1    2    0    0  0.23033364807E+02 -0.11235746435E+01  0.34963271178E+01  0.17278154594E+03  0.17120000000E+03 0.  0.
        998    1    1    2    0    0 -0.12971020069E+02 -0.14717329162E+02  0.13962364178E+04  0.13964100334E+04  0.10000000000E+02 0. -1.
</event>
<event>
 5    1  0.1658612E-008  0.3814299E+03  0.7957747E-01  0.3444956E+00
         13   -1    0    0    0    0  0.00000000000E+00  0.00000000000E+00  0.14999999963E+04  0.15000000000E+04  0.10566000000E+00 0. -1.
        994   -1    0    0    0    0 -0.00000000000E+00 -0.00000000000E+00  0.11368683772E-12  0.17120000000E+03  0.17120000000E+03 0.  0.
         13    1    1    2    0    0 -0.28393318428E+02  0.60976999698E+01  0.12644744596E+03  0.12973947059E+03  0.10566000000E+00 0. -1.
        994    1    1    2    0    0  0.12480366124E+02 -0.53518658384E+00  0.39324330193E+01  0.17170017470E+03  0.17120000000E+03 0.  0.
        998    1    1    2    0    0  0.15912952304E+02 -0.55625133859E+01  0.13696201173E+04  0.13697603547E+04  0.10000000000E+02 0. -1.
</event>
<event>
 5    1  0.1658612E-008  0.3818670E+03  0.7957747E-01  0.3443069E+00
         13   -1    0    0    0    0  0.00000000000E+00  0.00000000000E+00  0.14999999963E+04  0.15000000000E+04  0.10566000000E+00 0.  1.
        994   -1    0    0    0    0 -0.00000000000E+00 -0.00000000000E+00  0.11368683772E-12  0.17120000000E+03  0.17120000000E+03 0.  0.
         13    1    1    2    0    0 -0.28889363719E+02  0.67811792178E+01  0.12928121857E+03  0.13264322209E+03  0.10566000000E+00 0.  1.
        994    1    1    2    0    0  0.25614845478E+02 -0.66435982811E+01  0.55236723164E+01  0.17332111430E+03  0.17120000000E+03 0.  0.
        998    1    1    2    0    0  0.32745182410E+01 -0.13758093677E+00  0.13651951054E+04  0.13652356636E+04  0.10000000000E+02 0.  1.
</event>
<event>
 5    1  0.1658612E-008  0.4072743E+03  0.7957747E-01  0.3340370E+00
         13   -1    0    0    0    0  0.00000000000E+00  0.00000000000E+00  0.14999999963E+04  0.15000000000E+04  0.10566000000E+00 0.  1.
        994   -1    0    0    0    0 -0.00000000000E+00 -0.00000000000E+00  0.11368683772E-12  0.17120000000E+03  0.17120000000E+03 0.  0.
         13    1    1    2    0    0  0.85078526015E+02  0.85905759181E+02  0.31246743384E+03  0.33504337544E+03  0.10566000000E+00 0.  1.
        994    1    1    2    0    0 -0.97958730977E+01  0.13259872827E+02  0.33300630253E+02  0.17518605918E+03  0.17120000000E+03 0.  0.
        998    1    1    2    0    0 -0.75282652917E+02 -0.99165632008E+02  0.11542319322E+04  0.11609705654E+04  0.10000000000E+02 0.  1.
</event>
<event>
 5    1  0.1658612E-008  0.3847525E+03  0.7957747E-01  0.3430723E+00
         13   -1    0    0    0    0  0.00000000000E+00  0.00000000000E+00  0.14999999963E+04  0.15000000000E+04  0.10566000000E+00 0. -1.
        994   -1    0    0    0    0 -0.00000000000E+00 -0.00000000000E+00  0.11368683772E-12  0.17120000000E+03  0.17120000000E+03 0.  0.
         13    1    1    2    0    0  0.46507108170E+01 -0.16259071753E+02  0.77675056088E+02  0.79494729560E+02  0.10566000000E+00 0. -1.
        994    1    1    2    0    0 -0.12417446882E+02  0.15421412597E+02  0.30443778159E+01  0.17236798192E+03  0.17120000000E+03 0.  0.
        998    1    1    2    0    0  0.77667360650E+01  0.83765915521E+00  0.14192805624E+04  0.14193372885E+04  0.10000000000E+02 0. -1.
</event>
<event>
 5    1  0.1658612E-008  0.3725842E+03  0.7957747E-01  0.3484098E+00
         13   -1    0    0    0    0  0.00000000000E+00  0.00000000000E+00  0.14999999963E+04  0.15000000000E+04  0.10566000000E+00 0.  1.
        994   -1    0    0    0    0 -0.00000000000E+00 -0.00000000000E+00  0.11368683772E-12  0.17120000000E+03  0.17120000000E+03 0.  0.
         13    1    1    2    0    0  0.26806960950E+02 -0.13942117770E+02  0.35554446659E+02  0.46659679001E+02  0.10566000000E+00 0.  1.
        994    1    1    2    0    0  0.17202237301E+02 -0.10910992500E+02  0.13777124834E+02  0.17295726609E+03  0.17120000000E+03 0.  0.
        998    1    1    2    0    0 -0.44009198251E+02  0.24853110270E+02  0.14506684248E+04  0.14515830549E+04  0.10000000000E+02 0.  1.
</event>
<event>
 5    1  0.1658612E-008  0.3737063E+03  0.7957747E-01  0.3479029E+00
         13   -1    0    0    0    0  0.00000000000E+00  0.00000000000E+00  0.14999999963E+04  0.15000000000E+04  0.10566000000E+00 0. -1.
        994   -1    0    0    0    0 -0.00000000000E+00 -0.00000000000E+00  0.11368683772E-12  0.17120000000E+03  0.17120000000E+03 0.  0.
         13    1    1    2    0    0  0.16149582964E+02  0.19834622761E+02  0.20619251949E+02  0.32854010485E+02  0.10566000000E+00 0. -1.
        994    1    1    2    0    0 -0.10810047373E+02  0.41384560452E+01  0.13386843297E+02  0.17211226428E+03  0.17120000000E+03 0.  0.
        998    1    1    2    0    0 -0.53395355911E+01 -0.23973078806E+02  0.14659939010E+04  0.14662337252E+04  0.10000000000E+02 0. -1.
</event>
<event>
 5    1  0.1658612E-008  0.3734931E+03  0.7957747E-01  0.3479990E+00
         13   -1    0    0    0    0  0.00000000000E+00  0.00000000000E+00  0.14999999963E+04  0.15000000000E+04  0.10566000000E+00 0.  1.
        994   -1    0    0    0    0 -0.00000000000E+00 -0.00000000000E+00  0.11368683772E-12  0.17120000000E+03  0.17120000000E+03 0.  0.
         13    1    1    2    0    0  0.20524631391E+02 -0.30871891843E+01  0.11456562711E+02  0.23707703895E+02  0.10566000000E+00 0.  1.
        994    1    1    2    0    0 -0.98380428619E+01 -0.16728301047E+02  0.14131946682E+02  0.17287502729E+03  0.17120000000E+03 0.  0.
        998    1    1    2    0    0 -0.10686588529E+02  0.19815490231E+02  0.14744114869E+04  0.14746172688E+04  0.10000000000E+02 0.  1.
</event>
<event>
 5    1  0.2188708E-008  0.3854172E+03  0.7957747E-01  0.3427905E+00
         13   -1    0    0    0    0  0.00000000000E+00  0.00000000000E+00  0.14999999963E+04  0.15000000000E+04  0.10566000000E+00 0. -1.
        994   -1    0    0    0    0 -0.00000000000E+00 -0.00000000000E+00  0.11368683772E-12  0.17120000000E+03  0.17120000000E+03 0.  0.
         13    1    1    2    0    0  0.11072965120E+02 -0.91695645278E+01  0.74423422463E+02  0.75799396075E+02  0.10566000000E+00 0. -1.
        994    1    1    2    0    0 -0.58475368016E+01  0.33606263705E+01  0.15725305202E+01  0.17134001386E+03  0.17120000000E+03 0.  0.
        998    1    1    2    0    0 -0.52254283184E+01  0.58089381572E+01  0.14240040433E+04  0.14240605901E+04  0.10000000000E+02 0. -1.
</event>
<event>
 5    1  0.1658612E-008  0.3828017E+03  0.7957747E-01  0.3439049E+00
         13   -1    0    0    0    0  0.00000000000E+00  0.00000000000E+00  0.14999999963E+04  0.15000000000E+04  0.10566000000E+00 0.  1.
        994   -1    0    0    0    0 -0.00000000000E+00 -0.00000000000E+00  0.11368683772E-12  0.17120000000E+03  0.17120000000E+03 0.  0.
         13    1    1    2    0    0 -0.99340852486E+01 -0.46601162632E+01  0.21028713251E+02  0.23719626438E+02  0.10566000000E+00 0.  1.
        994    1    1    2    0    0  0.86847010739E+01  0.10321610093E+01  0.29788992006E+01  0.17144912723E+03  0.17120000000E+03 0.  0.
        998    1    1    2    0    0  0.12493841747E+01  0.36279552539E+01  0.14759923838E+04  0.14760312463E+04  0.10000000000E+02 0.  1.
</event>
<event>
 5    1  0.2159723E-008  0.3857446E+03  0.7957747E-01  0.3426520E+00
         13   -1    0    0    0    0  0.00000000000E+00  0.00000000000E+00  0.14999999963E+04  0.15000000000E+04  0.10566000000E+00 0. -1.
        994   -1    0    0    0    0 -0.00000000000E+00 -0.00000000000E+00  0.11368683772E-12  0.17120000000E+03  0.17120000000E+03 0.  0.
         13    1    1    2    0    0 -0.59459819653E+01 -0.90181380542E+01  0.47245443262E+02  0.48464673615E+02  0.10566000000E+00 0. -1.
        994    1    1    2    0    0 -0.21877097421E+01  0.75834715314E+01  0.14652831196E+01  0.17138810393E+03  0.17120000000E+03 0.  0.
        998    1    1    2    0    0  0.81336917074E+01  0.14346665228E+01  0.14512892699E+04  0.14513472225E+04  0.10000000000E+02 0. -1.
</event>
<event>
 5    1  0.1658612E-008  0.3829931E+03  0.7957747E-01  0.3438229E+00
         13   -1    0    0    0    0  0.00000000000E+00  0.00000000000E+00  0.14999999963E+04  0.15000000000E+04  0.10566000000E+00 0.  1.
        994   -1    0    0    0    0 -0.00000000000E+00 -0.00000000000E+00  0.11368683772E-12  0.17120000000E+03  0.17120000000E+03 0.  0.
         13    1    1    2    0    0  0.49511922148E+01 -0.88737447632E+01  0.18828495349E+02  0.21395818555E+02  0.10566000000E+00 0.  1.
        994    1    1    2    0    0 -0.13186085727E+01  0.36627153835E+01  0.26800059090E+01  0.17126522310E+03  0.17120000000E+03 0.  0.
        998    1    1    2    0    0 -0.36325836421E+01  0.52110293797E+01  0.14784914950E+04  0.14785389583E+04  0.10000000000E+02 0.  1.
</event>
<event>
 5    1  0.1658612E-008  0.3849358E+03  0.7957747E-01  0.3429944E+00
         13   -1    0    0    0    0  0.00000000000E+00  0.00000000000E+00  0.14999999963E+04  0.15000000000E+04  0.10566000000E+00 0. -1.
        994   -1    0    0    0    0 -0.00000000000E+00 -0.00000000000E+00  0.11368683772E-12  0.17120000000E+03  0.17120000000E+03 0.  0.
         13    1    1    2    0    0 -0.13529875854E+02 -0.63898817829E+01  0.69160583048E+02  0.70760762725E+02  0.10566000000E+00 0. -1.
        994    1    1    2    0    0  0.49374464143E+01  0.29614749168E+01  0.17710469264E+01  0.17130594070E+03  0.17120000000E+03 0.  0.
        998    1    1    2    0    0  0.85924294402E+01  0.34284068661E+01  0.14290683663E+04  0.14291332966E+04  0.10000000000E+02 0. -1.
</event>
<event>
 5    1  0.1658612E-008  0.3901820E+03  0.7957747E-01  0.3407988E+00
         13   -1    0    0    0    0  0.00000000000E+00  0.00000000000E+00  0.14999999963E+04  0.15000000000E+04  0.10566000000E+00 0. -1.
        994   -1    0    0    0    0 -0.00000000000E+00 -0.00000000000E+00  0.11368683772E-12  0.17120000000E+03  0.17120000000E+03 0.  0.
         13    1    1    2    0    0 -0.18558915975E+02  0.25699935355E+02  0.13485818839E+02  0.34449942137E+02  0.10566000000E+00 0. -1.
        994    1    1    2    0    0  0.15731930612E+02 -0.26972428140E+02  0.25715650237E+02  0.17591401362E+03  0.17120000000E+03 0.  0.
        998    1    1    2    0    0  0.28269853629E+01  0.12724927849E+01  0.14607985272E+04  0.14608360442E+04  0.10000000000E+02 0. -1.
</event>
<event>
 5    1  0.1658612E-008  0.3754661E+03  0.7957747E-01  0.3471141E+00
         13   -1    0    0    0    0  0.00000000000E+00  0.00000000000E+00  0.14999999963E+04  0.15000000000E+04  0.10566000000E+00 0. -1.
        994   -1    0    0    0    0 -0.00000000000E+00 -0.00000000000E+00  0.11368683772E-12  0.17120000000E+03  0.17120000000E+03 0.  0.
         13    1    1    2    0    0  0.49962927910E+02 -0.50191677419E+01  0.82589123419E+02  0.96656405278E+02  0.10566000000E+00 0. -1.
        994    1    1    2    0    0 -0.51535301994E+02 -0.53626680364E+02  0.33848743525E+02  0.18970209708E+03  0.17120000000E+03 0.  0.
        998    1    1    2    0    0  0.15723740849E+01  0.58645848106E+02  0.13835621293E+04  0.13848414976E+04  0.10000000000E+02 0. -1.
</event>
<event>
 5    1  0.1658612E-008  0.3822850E+03  0.7957747E-01  0.3441269E+00
         13   -1    0    0    0    0  0.00000000000E+00  0.00000000000E+00  0.14999999963E+04  0.15000000000E+04  0.10566000000E+00 0. -1.
        994   -1    0    0    0    0 -0.00000000000E+00 -0.00000000000E+00  0.11368683772E-12  0.17120000000E+03  0.17120000000E+03 0.  0.
         13    1    1    2    0    0 -0.21983761237E+02  0.20130497023E+02  0.15632935288E+03  0.15914584634E+03  0.10566000000E+00 0. -1.
        994    1    1    2    0    0 -0.31735566050E+01 -0.19449170455E+02  0.42736514895E+01  0.17238342667E+03  0.17120000000E+03 0.  0.
        998    1    1    2    0    0  0.25157317842E+02 -0.68132656735E+00  0.13393969919E+04  0.13396707270E+04  0.10000000000E+02 0. -1.
</event>
<event>
 5    1  0.1866564E-008  0.3861517E+03  0.7957747E-01  0.3424802E+00
         13   -1    0    0    0    0  0.00000000000E+00  0.00000000000E+00  0.14999999963E+04  0.15000000000E+04  0.10566000000E+00 0. -1.
        994   -1    0    0    0    0 -0.00000000000E+00 -0.00000000000E+00  0.11368683772E-12  0.17120000000E+03  0.17120000000E+03 0.  0.
         13    1    1    2    0    0  0.70200352496E+01  0.74890183611E+01  0.49357019515E+02  0.50413220790E+02  0.10566000000E+00 0. -1.
        994    1    1    2    0    0 -0.39321640596E+01 -0.10255985258E+02  0.14547941565E+01  0.17155816382E+03  0.17120000000E+03 0.  0.
        998    1    1    2    0    0 -0.30878711900E+01  0.27669668965E+01  0.14491881826E+04  0.14492286154E+04  0.10000000000E+02 0. -1.
</event>
<event>
 5    1  0.1658612E-008  0.3827854E+03  0.7957747E-01  0.3439119E+00
         13   -1    0    0    0    0  0.00000000000E+00  0.00000000000E+00  0.14999999963E+04  0.15000000000E+04  0.10566000000E+00 0.  1.
        994   -1    0    0    0    0 -0.00000000000E+00 -0.00000000000E+00  0.11368683772E-12  0.17120000000E+03  0.17120000000E+03 0.  0.
         13    1    1    2    0    0  0.84294011576E+01  0.57164849564E+01  0.17745344561E+02  0.20460728769E+02  0.10566000000E+00 0.  1.
        994    1    1    2    0    0 -0.87009667427E+01 -0.58625825327E+01  0.30983822113E+01  0.17154916691E+03  0.17120000000E+03 0.  0.
        998    1    1    2    0    0  0.27156558518E+00  0.14609757629E+00  0.14791562695E+04  0.14791901043E+04  0.10000000000E+02 0.  1.
</event>
<event>
 5    1  0.1658612E-008  0.3778064E+03  0.7957747E-01  0.3460766E+00
         13   -1    0    0    0    0  0.00000000000E+00  0.00000000000E+00  0.14999999963E+04  0.15000000000E+04  0.10566000000E+00 0. -1.
        994   -1    0    0    0    0 -0.00000000000E+00 -0.00000000000E+00  0.11368683772E-12  0.17120000000E+03  0.17120000000E+03 0.  0.
         13    1    1    2    0    0  0.11038550477E+02 -0.13453133012E+01  0.94225550932E+01  0.14575842104E+02  0.10566000000E+00 0. -1.
        994    1    1    2    0    0 -0.83313001470E+01  0.19859178586E+01  0.54916037557E+01  0.17150204705E+03  0.17120000000E+03 0.  0.
        998    1    1    2    0    0 -0.27072503300E+01 -0.64060455737E+00  0.14850858374E+04  0.14851221108E+04  0.10000000000E+02 0. -1.
</event>
<event>
 5    1  0.1658612E-008  0.3818282E+03  0.7957747E-01  0.3443237E+00
         13   -1    0    0    0    0  0.00000000000E+00  0.00000000000E+00  0.14999999963E+04  0.15000000000E+04  0.10566000000E+00 0.  1.
        994   -1    0    0    0    0 -0.00000000000E+00 -0.00000000000E+00  0.11368683772E-12  0.17120000000E+03  0.17120000000E+03 0.  0.
         13    1    1    2    0    0 -0.13018703912E+02 -0.19659413293E+02  0.83355365689E+02  0.86626250847E+02  0.10566000000E+00 0.  1.
        994    1    1    2    0    0  0.13351577360E+02  0.14529716532E+02  0.45080448075E+01  0.17239240050E+03  0.17120000000E+03 0.  0.
        998    1    1    2    0    0 -0.33287344785E+00  0.51296967615E+01  0.14121365858E+04  0.14121813487E+04  0.10000000000E+02 0.  1.
</event>
<event>
 5    1  0.1658612E-008  0.3850489E+03  0.7957747E-01  0.3429465E+00
         13   -1    0    0    0    0  0.00000000000E+00  0.00000000000E+00  0.14999999963E+04  0.15000000000E+04  0.10566000000E+00 0.  1.
        994   -1    0    0    0    0 -0.00000000000E+00 -0.00000000000E+00  0.11368683772E-12  0.17120000000E+03  0.17120000000E+03 0.  0.
         13    1    1    2    0    0  0.14547797617E+02  0.16592456470E+01  0.68196547963E+02  0.69750783721E+02  0.10566000000E+00 0.  1.
        994    1    1    2    0    0 -0.67845370484E+01  0.21887895230E+01  0.17729778890E+01  0.17135753323E+03  0.17120000000E+03 0.  0.
        998    1    1    2    0    0 -0.77632605688E+01 -0.38480351699E+01  0.14300304704E+04  0.14300916831E+04  0.10000000000E+02 0.  1.
</event>
<event>
 5    1  0.1658612E-008  0.3839583E+03  0.7957747E-01  0.3434102E+00
         13   -1    0    0    0    0  0.00000000000E+00  0.00000000000E+00  0.14999999963E+04  0.15000000000E+04  0.10566000000E+00 0.  1.
        994   -1    0    0    0    0 -0.00000000000E+00 -0.00000000000E+00  0.11368683772E-12  0.17120000000E+03  0.17120000000E+03 0.  0.
         13    1    1    2    0    0  0.78807265936E+00  0.16129173756E+02  0.61846859644E+02  0.63920392023E+02  0.10566000000E+00 0.  1.
        994    1    1    2    0    0 -0.24530676184E+01 -0.56498299073E+01  0.22734029765E+01  0.17132584884E+03  0.17120000000E+03 0.  0.
        998    1    1    2    0    0  0.16649949590E+01 -0.10479343849E+02  0.14358797337E+04  0.14359537591E+04  0.10000000000E+02 0.  1.
</event>
<event>
 5    1  0.1658612E-008  0.3735786E+03  0.7957747E-01  0.3479604E+00
         13   -1    0    0    0    0  0.00000000000E+00  0.00000000000E+00  0.14999999963E+04  0.15000000000E+04  0.10566000000E+00 0. -1.
        994   -1    0    0    0    0 -0.00000000000E+00 -0.00000000000E+00  0.11368683772E-12  0.17120000000E+03  0.17120000000E+03 0.  0.
         13    1    1    2    0    0  0.11040797446E+02 -0.66655335715E+01  0.78199538856E+01  0.15082817669E+02  0.10566000000E+00 0. -1.
        994    1    1    2    0    0 -0.86952870701E+01  0.79946034419E+01  0.78871447435E+01  0.17178815080E+03  0.17120000000E+03 0.  0.
        998    1    1    2    0    0 -0.23455103761E+01 -0.13290698705E+01  0.14842928976E+04  0.14843290315E+04  0.10000000000E+02 0. -1.
</event>
<event>
 5    1  0.1658612E-008  0.3798679E+03  0.7957747E-01  0.3451734E+00
         13   -1    0    0    0    0  0.00000000000E+00  0.00000000000E+00  0.14999999963E+04  0.15000000000E+04  0.10566000000E+00 0. -1.
        994   -1    0    0    0    0 -0.00000000000E+00 -0.00000000000E+00  0.11368683772E-12  0.17120000000E+03  0.17120000000E+03 0.  0.
         13    1    1    2    0    0 -0.31959030967E+02  0.66153745668E+02  0.44059558071E+03  0.44667905103E+03  0.10566000000E+00 0. -1.
        994    1    1    2    0    0  0.38295975446E+02 -0.65616587538E+02  0.23752000070E+02  0.18880073041E+03  0.17120000000E+03 0.  0.
        998    1    1    2    0    0 -0.63369444795E+01 -0.53715812999E+00  0.10356524155E+04  0.10357202186E+04  0.10000000000E+02 0. -1.
</event>
<event>
 5    1  0.1658612E-008  0.4048272E+03  0.7957747E-01  0.3349702E+00
         13   -1    0    0    0    0  0.00000000000E+00  0.00000000000E+00  0.14999999963E+04  0.15000000000E+04  0.10566000000E+00 0.  1.
        994   -1    0    0    0    0 -0.00000000000E+00 -0.00000000000E+00  0.11368683772E-12  0.17120000000E+03  0.17120000000E+03 0.  0.
         13    1    1    2    0    0  0.21166926818E+02  0.39156241026E+02  0.21576721947E+02  0.49465301943E+02  0.10566000000E+00 0.  1.
        994    1    1    2    0    0 -0.12060835725E+02 -0.16130642103E+02  0.32319390260E+02  0.17538427626E+03  0.17120000000E+03 0.  0.
        998    1    1    2    0    0 -0.91060910933E+01 -0.23025598923E+02  0.14461038841E+04  0.14463504218E+04  0.10000000000E+02 0.  1.
</event>
<event>
 5    1  0.1658612E-008  0.3733499E+03  0.7957747E-01  0.3480635E+00
         13   -1    0    0    0    0  0.00000000000E+00  0.00000000000E+00  0.14999999963E+04  0.15000000000E+04  0.10566000000E+00 0. -1.
        994   -1    0    0    0    0 -0.00000000000E+00 -0.00000000000E+00  0.11368683772E-12  0.17120000000E+03  0.17120000000E+03 0.  0.
         13    1    1    2    0    0 -0.21278131078E+02 -0.59481221833E+02  0.14026308983E+03  0.15383276682E+03  0.10566000000E+00 0. -1.
        994    1    1    2    0    0  0.32836851289E+02  0.53038463766E+02  0.26617556574E+02  0.18414470332E+03  0.17120000000E+03 0.  0.
        998    1    1    2    0    0 -0.11558720211E+02  0.64427580664E+01  0.13331193499E+04  0.13332225299E+04  0.10000000000E+02 0. -1.
</event>
<event>
 5    1  0.1658612E-008  0.3847742E+03  0.7957747E-01  0.3430630E+00
         13   -1    0    0    0    0  0.00000000000E+00  0.00000000000E+00  0.14999999963E+04  0.15000000000E+04  0.10566000000E+00 0.  1.
        994   -1    0    0    0    0 -0.00000000000E+00 -0.00000000000E+00  0.11368683772E-12  0.17120000000E+03  0.17120000000E+03 0.  0.
         13    1    1    2    0    0  0.17907304652E+02 -0.63154323290E+00  0.10372424573E+03  0.10526063235E+03  0.10566000000E+00 0.  1.
        994    1    1    2    0    0  0.37472049486E+01  0.95443760091E+01  0.20883821913E+01  0.17151949743E+03  0.17120000000E+03 0.  0.
        998    1    1    2    0    0 -0.21654509600E+02 -0.89128327762E+01  0.13941873684E+04  0.13944198702E+04  0.10000000000E+02 0.  1.
</event>
<event>
 5    1  0.1658612E-008  0.3817891E+03  0.7957747E-01  0.3443405E+00
         13   -1    0    0    0    0  0.00000000000E+00  0.00000000000E+00  0.14999999963E+04  0.15000000000E+04  0.10566000000E+00 0. -1.
        994   -1    0    0    0    0 -0.00000000000E+00 -0.00000000000E+00  0.11368683772E-12  0.17120000000E+03  0.17120000000E+03 0.  0.
         13    1    1    2    0    0  0.10500514370E+02 -0.12050532219E+01  0.15733947982E+02  0.18954715467E+02  0.10566000000E+00 0. -1.
        994    1    1    2    0    0 -0.11975700082E+02  0.56758823670E+01  0.38166135695E+01  0.17175459112E+03  0.17120000000E+03 0.  0.
        998    1    1    2    0    0  0.14751857124E+01 -0.44708291452E+01  0.14804494347E+04  0.14804906934E+04  0.10000000000E+02 0. -1.
</event>
<event>
 5    1  0.1658612E-008  0.4027440E+03  0.7957747E-01  0.3357736E+00
         13   -1    0    0    0    0  0.00000000000E+00  0.00000000000E+00  0.14999999963E+04  0.15000000000E+04  0.10566000000E+00 0. -1.
        994   -1    0    0    0    0 -0.00000000000E+00 -0.00000000000E+00  0.11368683772E-12  0.17120000000E+03  0.17120000000E+03 0.  0.
         13    1    1    2    0    0  0.53935486614E+01  0.10434748881E+02 -0.10989922501E+02  0.16086140369E+02  0.10566000000E+00 0. -1.
        994    1    1    2    0    0  0.30093888159E+01 -0.27562262825E+02  0.32478487473E+02  0.17644553523E+03  0.17120000000E+03 0.  0.
        998    1    1    2    0    0 -0.84029374773E+01  0.17127513945E+02  0.14785114313E+04  0.14786683244E+04  0.10000000000E+02 0. -1.
</event>
<event>
 5    1  0.1658612E-008  0.3854943E+03  0.7957747E-01  0.3427579E+00
         13   -1    0    0    0    0  0.00000000000E+00  0.00000000000E+00  0.14999999963E+04  0.15000000000E+04  0.10566000000E+00 0.  1.
        994   -1    0    0    0    0 -0.00000000000E+00 -0.00000000000E+00  0.11368683772E-12  0.17120000000E+03  0.17120000000E+03 0.  0.
         13    1    1    2    0    0  0.88108002015E+01 -0.11619775968E+02  0.81324496844E+02  0.82621633636E+02  0.10566000000E+00 0.  1.
        994    1    1    2    0    0 -0.19587428378E+01  0.19551948588E+01  0.14101006057E+01  0.17122817480E+03  0.17120000000E+03 0.  0.
        998    1    1    2    0    0 -0.68520573637E+01  0.96645811092E+01  0.14172653988E+04  0.14173501916E+04  0.10000000000E+02 0.  0.
</event>
<event>
 5    1  0.1658612E-008  0.3801708E+03  0.7957747E-01  0.3450415E+00
         13   -1    0    0    0    0  0.00000000000E+00  0.00000000000E+00  0.14999999963E+04  0.15000000000E+04  0.10566000000E+00 0.  1.
        994   -1    0    0    0    0 -0.00000000000E+00 -0.00000000000E+00  0.11368683772E-12  0.17120000000E+03  0.17120000000E+03 0.  0.
         13    1    1    2    0    0  0.20504531820E+02  0.44270227927E+02  0.25133517179E+03  0.25602669518E+03  0.10566000000E+00 0.  1.
        994    1    1    2    0    0 -0.22050888502E+02 -0.40768459905E+02  0.11258116495E+02  0.17772026951E+03  0.17120000000E+03 0.  0.
        998    1    1    2    0    0  0.15463566829E+01 -0.35017680219E+01  0.12374067080E+04  0.12374530353E+04  0.10000000000E+02 0.  1.
</event>
<event>
 5    1  0.1658612E-008  0.3833260E+03  0.7957747E-01  0.3436803E+00
         13   -1    0    0    0    0  0.00000000000E+00  0.00000000000E+00  0.14999999963E+04  0.15000000000E+04  0.10566000000E+00 0. -1.
        994   -1    0    0    0    0 -0.00000000000E+00 -0.00000000000E+00  0.11368683772E-12  0.17120000000E+03  0.17120000000E+03 0.  0.
         13    1    1    2    0    0  0.12190999763E+02  0.12863396922E+02  0.61197907065E+02  0.63712498372E+02  0.10566000000E+00 0. -1.
        994    1    1    2    0    0 -0.15520489068E+02 -0.94036123469E+01  0.35532133257E+01  0.17219575730E+03  0.17120000000E+03 0.  0.
        998    1    1    2    0    0  0.33294893046E+01 -0.34597845754E+01  0.14352488759E+04  0.14352917443E+04  0.10000000000E+02 0. -1.
</event>
<event>
 5    1  0.1825442E-008  0.3862461E+03  0.7957747E-01  0.3424405E+00
         13   -1    0    0    0    0  0.00000000000E+00  0.00000000000E+00  0.14999999963E+04  0.15000000000E+04  0.10566000000E+00 0. -1.
        994   -1    0    0    0    0 -0.00000000000E+00 -0.00000000000E+00  0.11368683772E-12  0.17120000000E+03  0.17120000000E+03 0.  0.
         13    1    1    2    0    0  0.28443698073E+01  0.11524292217E+02  0.68411704365E+02  0.69433941332E+02  0.10566000000E+00 0. -1.
        994    1    1    2    0    0 -0.13095575820E+01 -0.11929466754E+02  0.14846220799E+01  0.17162654579E+03  0.17120000000E+03 0.  0.
        998    1    1    2    0    0 -0.15348122253E+01  0.40517453680E+00  0.14301036698E+04  0.14301395129E+04  0.10000000000E+02 0. -1.
</event>
<event>
 5    1  0.1658612E-008  0.3686747E+03  0.7957747E-01  0.3502004E+00
         13   -1    0    0    0    0  0.00000000000E+00  0.00000000000E+00  0.14999999963E+04  0.15000000000E+04  0.10566000000E+00 0. -1.
        994   -1    0    0    0    0 -0.00000000000E+00 -0.00000000000E+00  0.11368683772E-12  0.17120000000E+03  0.17120000000E+03 0.  0.
         13    1    1    2    0    0 -0.18844899264E+01  0.44486713954E+02  0.86277151844E+02  0.97089531439E+02  0.10566000000E+00 0. -1.
        994    1    1    2    0    0  0.60292268299E+02 -0.56297177698E+02  0.33986799089E+02  0.19305199389E+03  0.17120000000E+03 0.  0.
        998    1    1    2    0    0 -0.58407778372E+02  0.11810463744E+02  0.13797360453E+04  0.13810584747E+04  0.10000000000E+02 0. -1.
</event>
<event>
 5    1  0.1658612E-008  0.3753845E+03  0.7957747E-01  0.3471505E+00
         13   -1    0    0    0    0  0.00000000000E+00  0.00000000000E+00  0.14999999963E+04  0.15000000000E+04  0.10566000000E+00 0. -1.
        994   -1    0    0    0    0 -0.00000000000E+00 -0.00000000000E+00  0.11368683772E-12  0.17120000000E+03  0.17120000000E+03 0.  0.
         13    1    1    2    0    0  0.70652593034E+01  0.15896323184E+02  0.20881634827E+02  0.27178388784E+02  0.10566000000E+00 0. -1.
        994    1    1    2    0    0  0.39587194801E+01 -0.86080540216E+01  0.67862376925E+01  0.17159622104E+03  0.17120000000E+03 0.  0.
        998    1    1    2    0    0 -0.11023978783E+02 -0.72882691627E+01  0.14723321238E+04  0.14724253902E+04  0.10000000000E+02 0. -1.
</event>
<event>
 5    1  0.1658612E-008  0.3721246E+03  0.7957747E-01  0.3486183E+00
         13   -1    0    0    0    0  0.00000000000E+00  0.00000000000E+00  0.14999999963E+04  0.15000000000E+04  0.10566000000E+00 0. -1.
        994   -1    0    0    0    0 -0.00000000000E+00 -0.00000000000E+00  0.11368683772E-12  0.17120000000E+03  0.17120000000E+03 0.  0.
         13    1    1    2    0    0 -0.44963850045E+02 -0.53856991920E+02  0.34339173142E+03  0.35048568553E+03  0.10566000000E+00 0. -1.
        994    1    1    2    0    0  0.35426068032E+02  0.71074611408E+00  0.12484554896E+02  0.17527354497E+03  0.17120000000E+03 0.  0.
        998    1    1    2    0    0  0.95377820125E+01  0.53146245806E+02  0.11441237100E+04  0.11454407695E+04  0.10000000000E+02 0. -1.
</event>
<event>
 5    1  0.1658612E-008  0.3701585E+03  0.7957747E-01  0.3495163E+00
         13   -1    0    0    0    0  0.00000000000E+00  0.00000000000E+00  0.14999999963E+04  0.15000000000E+04  0.10566000000E+00 0.  1.
        994   -1    0    0    0    0 -0.00000000000E+00 -0.00000000000E+00  0.11368683772E-12  0.17120000000E+03  0.17120000000E+03 0.  0.
         13    1    1    2    0    0 -0.28904027928E+01  0.38500827232E+02  0.74113970166E+02  0.83567696292E+02  0.10566000000E+00 0.  1.
        994    1    1    2    0    0 -0.79178019293E+01  0.23447474882E+02  0.13167963532E+02  0.17348000153E+03  0.17120000000E+03 0.  0.
        998    1    1    2    0    0  0.10808204722E+02 -0.61948302114E+02  0.14127180626E+04  0.14141523022E+04  0.10000000000E+02 0.  1.
</event>
<event>
 5    1  0.1658612E-008  0.3848537E+03  0.7957747E-01  0.3430293E+00
         13   -1    0    0    0    0  0.00000000000E+00  0.00000000000E+00  0.14999999963E+04  0.15000000000E+04  0.10566000000E+00 0. -1.
        994   -1    0    0    0    0 -0.00000000000E+00 -0.00000000000E+00  0.11368683772E-12  0.17120000000E+03  0.17120000000E+03 0.  0.
         13    1    1    2    0    0  0.77517595985E+01  0.10388924104E+02  0.50461257431E+02  0.52099608314E+02  0.10566000000E+00 0. -1.
        994    1    1    2    0    0 -0.16235117060E+01 -0.39054309372E+01  0.17616652884E+01  0.17126129640E+03  0.17120000000E+03 0.  0.
        998    1    1    2    0    0 -0.61282478925E+01 -0.64834931672E+01  0.14477770736E+04  0.14478390953E+04  0.10000000000E+02 0. -1.
</event>
<event>
 5    1  0.1658612E-008  0.3828232E+03  0.7957747E-01  0.3438957E+00
         13   -1    0    0    0    0  0.00000000000E+00  0.00000000000E+00  0.14999999963E+04  0.15000000000E+04  0.10566000000E+00 0.  1.
        994   -1    0    0    0    0 -0.00000000000E+00 -0.00000000000E+00  0.11368683772E-12  0.17120000000E+03  0.17120000000E+03 0.  0.
         13    1    1    2    0    0  0.15484323706E+02 -0.60903826299E+01  0.49914304777E+02  0.52614694018E+02  0.10566000000E+00 0.  1.
        994    1    1    2    0    0 -0.10712633835E+02  0.56131659810E+01  0.31993599113E+01  0.17165647107E+03  0.17120000000E+03 0.  0.
        998    1    1    2    0    0 -0.47716898701E+01  0.47721664885E+00  0.14468863316E+04  0.14469288349E+04  0.10000000000E+02 0.  1.
</event>
<event>
 5    1  0.1658612E-008  0.3693936E+03  0.7957747E-01  0.3498683E+00
         13   -1    0    0    0    0  0.00000000000E+00  0.00000000000E+00  0.14999999963E+04  0.15000000000E+04  0.10566000000E+00 0. -1.
        994   -1    0    0    0    0 -0.00000000000E+00 -0.00000000000E+00  0.11368683772E-12  0.17120000000E+03  0.17120000000E+03 0.  0.
         13    1    1    2    0    0  0.72729224637E+02  0.42751395067E+02  0.30900154501E+03  0.32031107986E+03  0.10566000000E+00 0. -1.
        994    1    1    2    0    0 -0.76348273458E+02 -0.20565396217E+02  0.31572715512E+02  0.19120217244E+03  0.17120000000E+03 0.  0.
        998    1    1    2    0    0  0.36190488213E+01 -0.22185998850E+02  0.11594257358E+04  0.11596867477E+04  0.10000000000E+02 0. -1.
</event>
<event>
 5    1  0.1658612E-008  0.3730942E+03  0.7957747E-01  0.3481790E+00
         13   -1    0    0    0    0  0.00000000000E+00  0.00000000000E+00  0.14999999963E+04  0.15000000000E+04  0.10566000000E+00 0.  1.
        994   -1    0    0    0    0 -0.00000000000E+00 -0.00000000000E+00  0.11368683772E-12  0.17120000000E+03  0.17120000000E+03 0.  0.
         13    1    1    2    0    0 -0.13140894387E+02 -0.41868703161E+02  0.12297538165E+03  0.13057039123E+03  0.10566000000E+00 0.  1.
        994    1    1    2    0    0  0.12017422184E+02  0.24219480228E+02  0.10165631746E+02  0.17361964672E+03  0.17120000000E+03 0.  0.
        998    1    1    2    0    0  0.11234722039E+01  0.17649222932E+02  0.13668589829E+04  0.13670099620E+04  0.10000000000E+02 0.  1.
</event>
<event>
 5    1  0.1658612E-008  0.3831071E+03  0.7957747E-01  0.3437740E+00
         13   -1    0    0    0    0  0.00000000000E+00  0.00000000000E+00  0.14999999963E+04  0.15000000000E+04  0.10566000000E+00 0.  1.
        994   -1    0    0    0    0 -0.00000000000E+00 -0.00000000000E+00  0.11368683772E-12  0.17120000000E+03  0.17120000000E+03 0.  0.
         13    1    1    2    0    0  0.24732041351E+02 -0.12892227321E+02  0.15170758372E+03  0.15425007461E+03  0.10566000000E+00 0.  1.
        994    1    1    2    0    0 -0.16113548501E+02  0.28953097704E+01  0.34602562414E+01  0.17201582089E+03  0.17120000000E+03 0.  0.
        998    1    1    2    0    0 -0.86184928501E+01  0.99969175508E+01  0.13448321563E+04  0.13449341045E+04  0.10000000000E+02 0.  1.
</event>
<event>
 5    1  0.1658612E-008  0.3841636E+03  0.7957747E-01  0.3433227E+00
         13   -1    0    0    0    0  0.00000000000E+00  0.00000000000E+00  0.14999999963E+04  0.15000000000E+04  0.10566000000E+00 0.  1.
        994   -1    0    0    0    0 -0.00000000000E+00 -0.00000000000E+00  0.11368683772E-12  0.17120000000E+03  0.17120000000E+03 0.  0.
         13    1    1    2    0    0 -0.15472981034E+02  0.55081340150E+01  0.75469367511E+02  0.77235932564E+02  0.10566000000E+00 0.  1.
        994    1    1    2    0    0 -0.14571640417E+02 -0.64277133936E+01  0.28828267817E+01  0.17196336498E+03  0.17120000000E+03 0.  0.
        998    1    1    2    0    0  0.30044621451E+02  0.91957937859E+00  0.14216478020E+04  0.14220007025E+04  0.10000000000E+02 0.  1.
</event>
<event>
 5    1  0.1658612E-008  0.3858640E+03  0.7957747E-01  0.3426016E+00
         13   -1    0    0    0    0  0.00000000000E+00  0.00000000000E+00  0.14999999963E+04  0.15000000000E+04  0.10566000000E+00 0. -1.
        994   -1    0    0    0    0 -0.00000000000E+00 -0.00000000000E+00  0.11368683772E-12  0.17120000000E+03  0.17120000000E+03 0.  0.
         13    1    1    2    0    0 -0.12452362725E+02  0.48481395912E+01  0.79464473556E+02  0.80580267538E+02  0.10566000000E+00 0. -1.
        994    1    1    2    0    0  0.33683971198E+01  0.37459077984E+01  0.12850306398E+01  0.17127892231E+03  0.17120000000E+03 0.  0.
        998    1    1    2    0    0  0.90839656051E+01 -0.85940473896E+01  0.14192504921E+04  0.14193408102E+04  0.10000000000E+02 0. -1.
</event>
<event>
 5    1  0.1658612E-008  0.3934789E+03  0.7957747E-01  0.3394489E+00
         13   -1    0    0    0    0  0.00000000000E+00  0.00000000000E+00  0.14999999963E+04  0.15000000000E+04  0.10566000000E+00 0.  1.
        994   -1    0    0    0    0 -0.00000000000E+00 -0.00000000000E+00  0.11368683772E-12  0.17120000000E+03  0.17120000000E+03 0.  0.
         13    1    1    2    0    0 -0.15471879283E+02 -0.69086559263E+02  0.91664816412E+02  0.11582219758E+03  0.10566000000E+00 0.  1.
        994    1    1    2    0    0  0.10070984260E+02  0.69120205465E+02  0.42793338010E+02  0.18978866485E+03  0.17120000000E+03 0.  0.
        998    1    1    2    0    0  0.54008950231E+01 -0.33646201759E-01  0.13655418419E+04  0.13655891376E+04  0.10000000000E+02 0.  1.
</event>
<event>
 5    1  0.1658612E-008  0.3798731E+03  0.7957747E-01  0.3451711E+00
         13   -1    0    0    0    0  0.00000000000E+00  0.00000000000E+00  0.14999999963E+04  0.15000000000E+04  0.10566000000E+00 0. -1.
        994   -1    0    0    0    0 -0.00000000000E+00 -0.00000000000E+00  0.11368683772E-12  0.17120000000E+03  0.17120000000E+03 0.  0.
         13    1    1    2    0    0 -0.69415958111E+01 -0.17723548295E+02  0.43572817653E+02  0.47549043301E+02  0.10566000000E+00 0. -1.
        994    1    1    2    0    0 -0.68117385122E+01  0.18243490666E+01  0.43635448535E+01  0.17140072507E+03  0.17120000000E+03 0.  0.
        998    1    1    2    0    0  0.13753334323E+02  0.15899199229E+02  0.14520636338E+04  0.14522502316E+04  0.10000000000E+02 0. -1.
</event>
<event>
 5    1  0.1658612E-008  0.3845978E+03  0.7957747E-01  0.3431380E+00
         13   -1    0    0    0    0  0.00000000000E+00  0.00000000000E+00  0.14999999963E+04  0.15000000000E+04  0.10566000000E+00 0. -1.
        994   -1    0    0    0    0 -0.00000000000E+00 -0.00000000000E+00  0.11368683772E-12  0.17120000000E+03  0.17120000000E+03 0.  0.
         13    1    1    2    0    0  0.94219932691E+01  0.45401709644E+01  0.29246153457E+02  0.31060195840E+02  0.10566000000E+00 0. -1.
        994    1    1    2    0    0 -0.63054825477E+01 -0.80979385959E+01  0.21768790271E+01  0.17152117806E+03  0.17120000000E+03 0.  0.
        998    1    1    2    0    0 -0.31165107214E+01  0.35577676315E+01  0.14685769638E+04  0.14686186261E+04  0.10000000000E+02 0. -1.
</event>
<event>
 5    1  0.1658612E-008  0.3710803E+03  0.7957747E-01  0.3490941E+00
         13   -1    0    0    0    0  0.00000000000E+00  0.00000000000E+00  0.14999999963E+04  0.15000000000E+04  0.10566000000E+00 0. -1.
        994   -1    0    0    0    0 -0.00000000000E+00 -0.00000000000E+00  0.11368683772E-12  0.17120000000E+03  0.17120000000E+03 0.  0.
         13    1    1    2    0    0  0.86489782012E+01  0.22706540633E+02  0.29877766385E+02  0.38510828343E+02  0.10566000000E+00 0. -1.
        994    1    1    2    0    0 -0.89624011389E+01 -0.20989079729E+02  0.10501866559E+02  0.17303350919E+03  0.17120000000E+03 0.  0.
        998    1    1    2    0    0  0.31342293770E+00 -0.17174609039E+01  0.14596203633E+04  0.14596556625E+04  0.10000000000E+02 0. -1.
</event>
<event>
 5    1  0.1658612E-008  0.3756068E+03  0.7957747E-01  0.3470513E+00
         13   -1    0    0    0    0  0.00000000000E+00  0.00000000000E+00  0.14999999963E+04  0.15000000000E+04  0.10566000000E+00 0.  1.
        994   -1    0    0    0    0 -0.00000000000E+00 -0.00000000000E+00  0.11368683772E-12  0.17120000000E+03  0.17120000000E+03 0.  0.
         13    1    1    2    0    0 -0.88754747254E+01  0.24750758104E+02  0.54747288085E+02  0.60734263765E+02  0.10566000000E+00 0.  1.
        994    1    1    2    0    0 -0.71692106781E+01 -0.33210912522E+01  0.65792337503E+01  0.17150846494E+03  0.17120000000E+03 0.  0.
        998    1    1    2    0    0  0.16044685403E+02 -0.21429666852E+02  0.14386734744E+04  0.14389572713E+04  0.10000000000E+02 0.  1.
</event>
<event>
 5    1  0.1658612E-008  0.3837166E+03  0.7957747E-01  0.3435134E+00
         13   -1    0    0    0    0  0.00000000000E+00  0.00000000000E+00  0.14999999963E+04  0.15000000000E+04  0.10566000000E+00 0.  1.
        994   -1    0    0    0    0 -0.00000000000E+00 -0.00000000000E+00  0.11368683772E-12  0.17120000000E+03  0.17120000000E+03 0.  0.
         13    1    1    2    0    0  0.11167482820E+02 -0.63978935768E+01  0.35206149189E+02  0.37485061284E+02  0.10566000000E+00 0.  1.
        994    1    1    2    0    0 -0.13979939977E+02  0.22942828397E+01  0.29317548758E+01  0.17181017910E+03  0.17120000000E+03 0.  0.
        998    1    1    2    0    0  0.28124571571E+01  0.41036107372E+01  0.14618620922E+04  0.14619047596E+04  0.10000000000E+02 0.  1.
</event>
<event>
 5    1  0.1658612E-008  0.3769566E+03  0.7957747E-01  0.3464518E+00
         13   -1    0    0    0    0  0.00000000000E+00  0.00000000000E+00  0.14999999963E+04  0.15000000000E+04  0.10566000000E+00 0.  1.
        994   -1    0    0    0    0 -0.00000000000E+00 -0.00000000000E+00  0.11368683772E-12  0.17120000000E+03  0.17120000000E+03 0.  0.
         13    1    1    2    0    0  0.12103258147E+02 -0.81077152758E+01  0.16866954342E+02  0.22287422856E+02  0.10566000000E+00 0.  1.
        994    1    1    2    0    0 -0.44591218094E+01 -0.17496506928E+02  0.67790484985E+01  0.17228292725E+03  0.17120000000E+03 0.  0.
        998    1    1    2    0    0 -0.76441363378E+01  0.25604222204E+02  0.14763539934E+04  0.14766296499E+04  0.10000000000E+02 0.  1.
</event>
<event>
 5    1  0.1658612E-008  0.4419658E+03  0.7957747E-01  0.3219003E+00
         13   -1    0    0    0    0  0.00000000000E+00  0.00000000000E+00  0.14999999963E+04  0.15000000000E+04  0.10566000000E+00 0.  1.
        994   -1    0    0    0    0 -0.00000000000E+00 -0.00000000000E+00  0.11368683772E-12  0.17120000000E+03  0.17120000000E+03 0.  0.
         13    1    1    2    0    0 -0.37269153975E+02 -0.33129332675E+02  0.31013675403E+01  0.49961706998E+02  0.10566000000E+00 0.  1.
        994    1    1    2    0    0 -0.13765206672E+01  0.32177372965E+02  0.60686277595E+02  0.18447097991E+03  0.17120000000E+03 0.  0.
        998    1    1    2    0    0  0.38645674643E+02  0.95195970991E+00  0.14362123511E+04  0.14367673131E+04  0.10000000000E+02 0.  1.
</event>
<event>
 5    1  0.1658612E-008  0.3829120E+03  0.7957747E-01  0.3438576E+00
         13   -1    0    0    0    0  0.00000000000E+00  0.00000000000E+00  0.14999999963E+04  0.15000000000E+04  0.10566000000E+00 0.  1.
        994   -1    0    0    0    0 -0.00000000000E+00 -0.00000000000E+00  0.11368683772E-12  0.17120000000E+03  0.17120000000E+03 0.  0.
         13    1    1    2    0    0 -0.22455397363E+02  0.14166962778E+02  0.13032996344E+03  0.13300698568E+03  0.10566000000E+00 0.  1.
        994    1    1    2    0    0  0.17117648472E+02 -0.47348924603E+01  0.37154887305E+01  0.17215887416E+03  0.17120000000E+03 0.  0.
        998    1    1    2    0    0  0.53377488906E+01 -0.94320703174E+01  0.13659545441E+04  0.13660341402E+04  0.10000000000E+02 0.  0.
</event>
<event>
 5    1  0.1658612E-008  0.3851253E+03  0.7957747E-01  0.3429141E+00
         13   -1    0    0    0    0  0.00000000000E+00  0.00000000000E+00  0.14999999963E+04  0.15000000000E+04  0.10566000000E+00 0.  1.
        994   -1    0    0    0    0 -0.00000000000E+00 -0.00000000000E+00  0.11368683772E-12  0.17120000000E+03  0.17120000000E+03 0.  0.
         13    1    1    2    0    0  0.14314986185E+02  0.34851771101E+01  0.68521786008E+02  0.70087884907E+02  0.10566000000E+00 0.  1.
        994    1    1    2    0    0 -0.10711679735E+02 -0.43785445054E+01  0.20082970712E+01  0.17160240381E+03  0.17120000000E+03 0.  0.
        998    1    1    2    0    0 -0.36033064505E+01  0.89336739533E+00  0.14294699132E+04  0.14295097113E+04  0.10000000000E+02 0.  1.
</event>
<event>
 5    1  0.1658612E-008  0.3787659E+03  0.7957747E-01  0.3456549E+00
         13   -1    0    0    0    0  0.00000000000E+00  0.00000000000E+00  0.14999999963E+04  0.15000000000E+04  0.10566000000E+00 0. -1.
        994   -1    0    0    0    0 -0.00000000000E+00 -0.00000000000E+00  0.11368683772E-12  0.17120000000E+03  0.17120000000E+03 0.  0.
         13    1    1    2    0    0  0.23923067155E+02  0.14681381490E+02  0.77845394839E+02  0.82751270481E+02  0.10566000000E+00 0. -1.
        994    1    1    2    0    0 -0.16557592351E+02 -0.24694200132E+02  0.77301725449E+01  0.17393433517E+03  0.17120000000E+03 0.  0.
        998    1    1    2    0    0 -0.73654748045E+01  0.10012818642E+02  0.14144244289E+04  0.14145143943E+04  0.10000000000E+02 0. -1.
</event>
<event>
 5    1  0.1658612E-008  0.3858631E+03  0.7957747E-01  0.3426020E+00
         13   -1    0    0    0    0  0.00000000000E+00  0.00000000000E+00  0.14999999963E+04  0.15000000000E+04  0.10566000000E+00 0. -1.
        994   -1    0    0    0    0 -0.00000000000E+00 -0.00000000000E+00  0.11368683772E-12  0.17120000000E+03  0.17120000000E+03 0.  0.
         13    1    1    2    0    0 -0.11264855663E+02  0.68361588470E+01  0.72993326104E+02  0.74173221992E+02  0.10566000000E+00 0. -1.
        994    1    1    2    0    0  0.22315689926E+01 -0.13101004961E+02  0.17816549096E+01  0.17172428636E+03  0.17120000000E+03 0.  0.
        998    1    1    2    0    0  0.90332866707E+01  0.62648461142E+01  0.14252250153E+04  0.14253024916E+04  0.10000000000E+02 0. -1.
</event>
<event>
 5    1  0.1658612E-008  0.3802817E+03  0.7957747E-01  0.3449933E+00
         13   -1    0    0    0    0  0.00000000000E+00  0.00000000000E+00  0.14999999963E+04  0.15000000000E+04  0.10566000000E+00 0.  1.
        994   -1    0    0    0    0 -0.00000000000E+00 -0.00000000000E+00  0.11368683772E-12  0.17120000000E+03  0.17120000000E+03 0.  0.
         13    1    1    2    0    0 -0.48767275067E+01  0.15265352854E+02  0.33647679654E+02  0.37269169284E+02  0.10566000000E+00 0.  1.
        994    1    1    2    0    0  0.12827010536E+02  0.23326992986E+02  0.63614606238E+01  0.17337413008E+03  0.17120000000E+03 0.  0.
        998    1    1    2    0    0 -0.79502830289E+01 -0.38592345840E+02  0.14599908560E+04  0.14605567006E+04  0.10000000000E+02 0.  1.
</event>
<event>
 5    1  0.1658612E-008  0.3817073E+03  0.7957747E-01  0.3443758E+00
         13   -1    0    0    0    0  0.00000000000E+00  0.00000000000E+00  0.14999999963E+04  0.15000000000E+04  0.10566000000E+00 0. -1.
        994   -1    0    0    0    0 -0.00000000000E+00 -0.00000000000E+00  0.11368683772E-12  0.17120000000E+03  0.17120000000E+03 0.  0.
         13    1    1    2    0    0  0.99630425313E+01 -0.27263790139E+02  0.13316845800E+03  0.13629536250E+03  0.10566000000E+00 0. -1.
        994    1    1    2    0    0 -0.95937834796E+01  0.82093350289E+01  0.38039550597E+01  0.17170714585E+03  0.17120000000E+03 0.  0.
        998    1    1    2    0    0 -0.36925905171E+00  0.19054455111E+02  0.13630275832E+04  0.13631974916E+04  0.10000000000E+02 0. -1.
</event>
<event>
 5    1  0.1658612E-008  0.3859628E+03  0.7957747E-01  0.3425599E+00
         13   -1    0    0    0    0  0.00000000000E+00  0.00000000000E+00  0.14999999963E+04  0.15000000000E+04  0.10566000000E+00 0. -1.
        994   -1    0    0    0    0 -0.00000000000E+00 -0.00000000000E+00  0.11368683772E-12  0.17120000000E+03  0.17120000000E+03 0.  0.
         13    1    1    2    0    0  0.98242605641E+01 -0.52181330864E+01  0.56323049291E+02  0.57411166631E+02  0.10566000000E+00 0. -1.
        994    1    1    2    0    0  0.21433614577E+01  0.88964163831E+01  0.14274588586E+01  0.17145033643E+03  0.17120000000E+03 0.  0.
        998    1    1    2    0    0 -0.11967622022E+02 -0.36782832967E+01  0.14422494881E+04  0.14423384969E+04  0.10000000000E+02 0. -1.
</event>
<event>
 5    1  0.1658612E-008  0.3826618E+03  0.7957747E-01  0.3439650E+00
         13   -1    0    0    0    0  0.00000000000E+00  0.00000000000E+00  0.14999999963E+04  0.15000000000E+04  0.10566000000E+00 0. -1.
        994   -1    0    0    0    0 -0.00000000000E+00 -0.00000000000E+00  0.11368683772E-12  0.17120000000E+03  0.17120000000E+03 0.  0.
         13    1    1    2    0    0 -0.21757622474E+02 -0.76816584197E+01  0.90550313658E+02  0.93443953680E+02  0.10566000000E+00 0. -1.
        994    1    1    2    0    0  0.23341217439E+02 -0.12223318873E+01  0.46079218889E+01  0.17284958626E+03  0.17120000000E+03 0.  0.
        998    1    1    2    0    0 -0.15835949654E+01  0.89039903071E+01  0.14048417607E+04  0.14049064601E+04  0.10000000000E+02 0. -1.
</event>
<event>
 5    1  0.1658612E-008  0.3851506E+03  0.7957747E-01  0.3429034E+00
         13   -1    0    0    0    0  0.00000000000E+00  0.00000000000E+00  0.14999999963E+04  0.15000000000E+04  0.10566000000E+00 0. -1.
        994   -1    0    0    0    0 -0.00000000000E+00 -0.00000000000E+00  0.11368683772E-12  0.17120000000E+03  0.17120000000E+03 0.  0.
         13    1    1    2    0    0 -0.76232200776E+01 -0.74442573300E+01  0.37907268361E+02  0.39376422009E+02  0.10566000000E+00 0. -1.
        994    1    1    2    0    0 -0.24599846171E+01  0.13402284374E+01  0.15811631318E+01  0.17123021875E+03  0.17120000000E+03 0.  0.
        998    1    1    2    0    0  0.10083204695E+02  0.61040288926E+01  0.14605115648E+04  0.14605933592E+04  0.10000000000E+02 0. -1.
</event>
<event>
 5    1  0.1658612E-008  0.3750906E+03  0.7957747E-01  0.3472818E+00
         13   -1    0    0    0    0  0.00000000000E+00  0.00000000000E+00  0.14999999963E+04  0.15000000000E+04  0.10566000000E+00 0. -1.
        994   -1    0    0    0    0 -0.00000000000E+00 -0.00000000000E+00  0.11368683772E-12  0.17120000000E+03  0.17120000000E+03 0.  0.
         13    1    1    2    0    0 -0.18979269227E+02  0.10969992243E+01  0.24420793327E+02  0.30948382485E+02  0.10566000000E+00 0. -1.
        994    1    1    2    0    0  0.14085660750E+02  0.37561767348E+01  0.73546925070E+01  0.17197687695E+03  0.17120000000E+03 0.  0.
        998    1    1    2    0    0  0.48936084772E+01 -0.48531759591E+01  0.14682245104E+04  0.14682747406E+04  0.10000000000E+02 0. -1.
</event>
<event>
 5    1  0.2563281E-008  0.3860423E+03  0.7957747E-01  0.3425264E+00
         13   -1    0    0    0    0  0.00000000000E+00  0.00000000000E+00  0.14999999963E+04  0.15000000000E+04  0.10566000000E+00 0. -1.
        994   -1    0    0    0    0 -0.00000000000E+00 -0.00000000000E+00  0.11368683772E-12  0.17120000000E+03  0.17120000000E+03 0.  0.
         13    1    1    2    0    0 -0.69728953471E+01 -0.10528041496E+02  0.72963197280E+02  0.74047959112E+02  0.10566000000E+00 0. -1.
        994    1    1    2    0    0  0.88053078797E+01  0.32606964532E+01  0.14025660781E+01  0.17146303619E+03  0.17120000000E+03 0.  0.
        998    1    1    2    0    0 -0.18324125326E+01  0.72673450430E+01  0.14256342329E+04  0.14256890047E+04  0.10000000000E+02 0. -1.
</event>
<event>
 5    1  0.1658612E-008  0.3774930E+03  0.7957747E-01  0.3462148E+00
         13   -1    0    0    0    0  0.00000000000E+00  0.00000000000E+00  0.14999999963E+04  0.15000000000E+04  0.10566000000E+00 0.  1.
        994   -1    0    0    0    0 -0.00000000000E+00 -0.00000000000E+00  0.11368683772E-12  0.17120000000E+03  0.17120000000E+03 0.  0.
         13    1    1    2    0    0  0.99939211539E+01  0.24038535643E+01  0.72885421871E+01  0.12601229434E+02  0.10566000000E+00 0.  1.
        994    1    1    2    0    0 -0.86711253991E+01 -0.24849042861E+01  0.56783731887E+01  0.17153147550E+03  0.17120000000E+03 0.  0.
        998    1    1    2    0    0 -0.13227957549E+01  0.81050721767E-01  0.14870330809E+04  0.14870672951E+04  0.10000000000E+02 0.  1.
</event>
<event>
 5    1  0.1658612E-008  0.3854925E+03  0.7957747E-01  0.3427586E+00
         13   -1    0    0    0    0  0.00000000000E+00  0.00000000000E+00  0.14999999963E+04  0.15000000000E+04  0.10566000000E+00 0. -1.
        994   -1    0    0    0    0 -0.00000000000E+00 -0.00000000000E+00  0.11368683772E-12  0.17120000000E+03  0.17120000000E+03 0.  0.
         13    1    1    2    0    0 -0.15024970212E+02 -0.65770760347E+01  0.88692269060E+02  0.90196105316E+02  0.10566000000E+00 0. -1.
        994    1    1    2    0    0  0.21479412217E+02  0.74821631643E+01  0.30863317205E+01  0.17273191181E+03  0.17120000000E+03 0.  0.
        998    1    1    2    0    0 -0.64544420048E+01 -0.90508712964E+00  0.14082213955E+04  0.14082719829E+04  0.10000000000E+02 0. -1.
</event>
<event>
 5    1  0.1658612E-008  0.3833579E+03  0.7957747E-01  0.3436667E+00
         13   -1    0    0    0    0  0.00000000000E+00  0.00000000000E+00  0.14999999963E+04  0.15000000000E+04  0.10566000000E+00 0. -1.
        994   -1    0    0    0    0 -0.00000000000E+00 -0.00000000000E+00  0.11368683772E-12  0.17120000000E+03  0.17120000000E+03 0.  0.
         13    1    1    2    0    0  0.49765830277E+01 -0.27913919352E+02  0.15923483357E+03  0.16173959521E+03  0.10566000000E+00 0. -1.
        994    1    1    2    0    0 -0.71080610852E+01  0.19201448677E+02  0.38348957714E+01  0.17246265274E+03  0.17120000000E+03 0.  0.
        998    1    1    2    0    0  0.21314780575E+01  0.87124706748E+01  0.13369302669E+04  0.13369977520E+04  0.10000000000E+02 0. -1.
</event>
<event>
 5    1  0.1658612E-008  0.3818512E+03  0.7957747E-01  0.3443137E+00
         13   -1    0    0    0    0  0.00000000000E+00  0.00000000000E+00  0.14999999963E+04  0.15000000000E+04  0.10566000000E+00 0.  1.
        994   -1    0    0    0    0 -0.00000000000E+00 -0.00000000000E+00  0.11368683772E-12  0.17120000000E+03  0.17120000000E+03 0.  0.
         13    1    1    2    0    0  0.12566538738E+02 -0.65551653948E-01  0.23684564911E+02  0.26812160896E+02  0.10566000000E+00 0.  1.
        994    1    1    2    0    0 -0.50784412295E+01  0.33538149302E+01  0.33246368831E+01  0.17134039760E+03  0.17120000000E+03 0.  0.
        998    1    1    2    0    0 -0.74880975080E+01 -0.32882632762E+01  0.14729907945E+04  0.14730474415E+04  0.10000000000E+02 0.  1.
</event>
<event>
 5    1  0.1658612E-008  0.3850065E+03  0.7957747E-01  0.3429645E+00
         13   -1    0    0    0    0  0.00000000000E+00  0.00000000000E+00  0.14999999963E+04  0.15000000000E+04  0.10566000000E+00 0. -1.
        994   -1    0    0    0    0 -0.00000000000E+00 -0.00000000000E+00  0.11368683772E-12  0.17120000000E+03  0.17120000000E+03 0.  0.
         13    1    1    2    0    0 -0.12039577286E+02 -0.83719665489E+00  0.43408144570E+02  0.45054750011E+02  0.10566000000E+00 0. -1.
        994    1    1    2    0    0  0.13459675672E+02  0.30414472056E+01  0.22533388063E+01  0.17176999390E+03  0.17120000000E+03 0.  0.
        998    1    1    2    0    0 -0.14200983861E+01 -0.22042505507E+01  0.14543385129E+04  0.14543752561E+04  0.10000000000E+02 0. -1.
</event>
<event>
 5    1  0.1658612E-008  0.3784320E+03  0.7957747E-01  0.3458014E+00
         13   -1    0    0    0    0  0.00000000000E+00  0.00000000000E+00  0.14999999963E+04  0.15000000000E+04  0.10566000000E+00 0. -1.
        994   -1    0    0    0    0 -0.00000000000E+00 -0.00000000000E+00  0.11368683772E-12  0.17120000000E+03  0.17120000000E+03 0.  0.
         13    1    1    2    0    0 -0.16605602481E+02  0.32299014038E+02  0.12003335003E+03  0.12540729095E+03  0.10566000000E+00 0. -1.
        994    1    1    2    0    0  0.22635769935E+02 -0.33663168978E+02  0.10476445490E+02  0.17625204378E+03  0.17120000000E+03 0.  0.
        998    1    1    2    0    0 -0.60301674535E+01  0.13641549407E+01  0.13694902008E+04  0.13695406653E+04  0.10000000000E+02 0. -1.
</event>
<event>
 5    1  0.1658612E-008  0.3753820E+03  0.7957747E-01  0.3471516E+00
         13   -1    0    0    0    0  0.00000000000E+00  0.00000000000E+00  0.14999999963E+04  0.15000000000E+04  0.10566000000E+00 0.  1.
        994   -1    0    0    0    0 -0.00000000000E+00 -0.00000000000E+00  0.11368683772E-12  0.17120000000E+03  0.17120000000E+03 0.  0.
         13    1    1    2    0    0 -0.11121918113E+03  0.26275319641E+03  0.10545714003E+04  0.10924878938E+04  0.10566000000E+00 0.  1.
        994    1    1    2    0    0  0.10821996642E+03 -0.25635831855E+03  0.33619242665E+03  0.46879199690E+03  0.17120000000E+03 0.  0.
        998    1    1    2    0    0  0.29992147132E+01 -0.63948778647E+01  0.10923616928E+03  0.10992010931E+03  0.10000000000E+02 0.  0.
</event>
<event>
 5    1  0.1658612E-008  0.3847829E+03  0.7957747E-01  0.3430594E+00
         13   -1    0    0    0    0  0.00000000000E+00  0.00000000000E+00  0.14999999963E+04  0.15000000000E+04  0.10566000000E+00 0. -1.
        994   -1    0    0    0    0 -0.00000000000E+00 -0.00000000000E+00  0.11368683772E-12  0.17120000000E+03  0.17120000000E+03 0.  0.
         13    1    1    2    0    0  0.87166291053E+01 -0.16169670527E+02  0.10812303109E+03  0.10967241624E+03  0.10566000000E+00 0. -1.
        994    1    1    2    0    0  0.10706599250E+02  0.41008182627E+01  0.21706846358E+01  0.17159720234E+03  0.17120000000E+03 0.  0.
        998    1    1    2    0    0 -0.19423228355E+02  0.12068852264E+02  0.13897062806E+04  0.13899303814E+04  0.10000000000E+02 0. -1.
</event>
<event>
 5    1  0.1658612E-008  0.2662742E+03  0.7957747E-01  0.4170713E+00
         13   -1    0    0    0    0  0.00000000000E+00  0.00000000000E+00  0.14999999963E+04  0.15000000000E+04  0.10566000000E+00 0.  1.
        994   -1    0    0    0    0 -0.00000000000E+00 -0.00000000000E+00  0.11368683772E-12  0.17120000000E+03  0.17120000000E+03 0.  0.
         13    1    1    2    0    0  0.13152291431E+03  0.93493116128E+02  0.50263899050E+03  0.52790643649E+03  0.10566000000E+00 0.  1.
        994    1    1    2    0    0 -0.18473064847E+03  0.37255027986E+02  0.17524085854E+03  0.30908275283E+03  0.17120000000E+03 0.  0.
        998    1    1    2    0    0  0.53207734157E+02 -0.13074814411E+03  0.82212014724E+03  0.83421081068E+03  0.10000000000E+02 0.  1.
</event>
<event>
 5    1  0.1658612E-008  0.3744289E+03  0.7957747E-01  0.3475781E+00
         13   -1    0    0    0    0  0.00000000000E+00  0.00000000000E+00  0.14999999963E+04  0.15000000000E+04  0.10566000000E+00 0.  1.
        994   -1    0    0    0    0 -0.00000000000E+00 -0.00000000000E+00  0.11368683772E-12  0.17120000000E+03  0.17120000000E+03 0.  0.
         13    1    1    2    0    0  0.28890518090E+01  0.64975387267E+02  0.36250544807E+03  0.36829384819E+03  0.10566000000E+00 0.  1.
        994    1    1    2    0    0 -0.99434640726E+01 -0.15299288229E+02  0.81069975602E+01  0.17236039019E+03  0.17120000000E+03 0.  0.
        998    1    1    2    0    0  0.70544122636E+01 -0.49676099038E+02  0.11293875507E+04  0.11305457616E+04  0.10000000000E+02 0.  1.
</event>
<event>
 5    1  0.1658612E-008  0.3751877E+03  0.7957747E-01  0.3472384E+00
         13   -1    0    0    0    0  0.00000000000E+00  0.00000000000E+00  0.14999999963E+04  0.15000000000E+04  0.10566000000E+00 0. -1.
        994   -1    0    0    0    0 -0.00000000000E+00 -0.00000000000E+00  0.11368683772E-12  0.17120000000E+03  0.17120000000E+03 0.  0.
         13    1    1    2    0    0 -0.43381013453E+02  0.34357058925E+02  0.27447519944E+03  0.27999815374E+03  0.10566000000E+00 0. -1.
        994    1    1    2    0    0  0.22166627536E+01 -0.10367309854E+02  0.69642901400E+01  0.17166926354E+03  0.17120000000E+03 0.  0.
        998    1    1    2    0    0  0.41164350699E+02 -0.23989749071E+02  0.12185605067E+04  0.12195325827E+04  0.10000000000E+02 0. -1.
</event>
<event>
 5    1  0.1658612E-008  0.3817142E+03  0.7957747E-01  0.3443728E+00
         13   -1    0    0    0    0  0.00000000000E+00  0.00000000000E+00  0.14999999963E+04  0.15000000000E+04  0.10566000000E+00 0.  1.
        994   -1    0    0    0    0 -0.00000000000E+00 -0.00000000000E+00  0.11368683772E-12  0.17120000000E+03  0.17120000000E+03 0.  0.
         13    1    1    2    0    0 -0.25072287144E+02 -0.25915905474E+02  0.21782348329E+03  0.22078798603E+03  0.10566000000E+00 0.  1.
        994    1    1    2    0    0  0.16393289588E+01  0.12262010225E+02  0.37792392934E+01  0.17168799301E+03  0.17120000000E+03 0.  0.
        998    1    1    2    0    0  0.23432958186E+02  0.13653895248E+02  0.12783972737E+04  0.12787240210E+04  0.10000000000E+02 0. -1.
</event>
<event>
 5    1  0.1658612E-008  0.3834995E+03  0.7957747E-01  0.3436061E+00
         13   -1    0    0    0    0  0.00000000000E+00  0.00000000000E+00  0.14999999963E+04  0.15000000000E+04  0.10566000000E+00 0. -1.
        994   -1    0    0    0    0 -0.00000000000E+00 -0.00000000000E+00  0.11368683772E-12  0.17120000000E+03  0.17120000000E+03 0.  0.
         13    1    1    2    0    0 -0.19262777593E+02 -0.13473050964E+01  0.87470960617E+02  0.89577061500E+02  0.10566000000E+00 0. -1.
        994    1    1    2    0    0 -0.60941864767E+01 -0.28239260305E+01  0.25260341247E+01  0.17135032686E+03  0.17120000000E+03 0.  0.
        998    1    1    2    0    0  0.25356964070E+02  0.41712311269E+01  0.14100030015E+04  0.14102726116E+04  0.10000000000E+02 0. -1.
</event>
<event>
 5    1  0.1658612E-008  0.3841063E+03  0.7957747E-01  0.3433471E+00
         13   -1    0    0    0    0  0.00000000000E+00  0.00000000000E+00  0.14999999963E+04  0.15000000000E+04  0.10566000000E+00 0. -1.
        994   -1    0    0    0    0 -0.00000000000E+00 -0.00000000000E+00  0.11368683772E-12  0.17120000000E+03  0.17120000000E+03 0.  0.
         13    1    1    2    0    0 -0.15958102271E+02 -0.11975867506E+00  0.59280145411E+02  0.61390733618E+02  0.10566000000E+00 0. -1.
        994    1    1    2    0    0  0.15741184113E+02 -0.27606015463E+01  0.29173176966E+01  0.17196905693E+03  0.17120000000E+03 0.  0.
        998    1    1    2    0    0  0.21691815795E+00  0.28803602214E+01  0.14378025332E+04  0.14378402095E+04  0.10000000000E+02 0. -1.
</event>
<event>
 5    1  0.1658612E-008  0.3766728E+03  0.7957747E-01  0.3465775E+00
         13   -1    0    0    0    0  0.00000000000E+00  0.00000000000E+00  0.14999999963E+04  0.15000000000E+04  0.10566000000E+00 0. -1.
        994   -1    0    0    0    0 -0.00000000000E+00 -0.00000000000E+00  0.11368683772E-12  0.17120000000E+03  0.17120000000E+03 0.  0.
         13    1    1    2    0    0 -0.88733161041E+01  0.10229175222E+02  0.13242414386E+02  0.18940550869E+02  0.10566000000E+00 0. -1.
        994    1    1    2    0    0  0.33078061220E+01 -0.72673737701E+01  0.60377424536E+01  0.17149242151E+03  0.17120000000E+03 0.  0.
        998    1    1    2    0    0  0.55655099820E+01 -0.29618014520E+01  0.14807198394E+04  0.14807670276E+04  0.10000000000E+02 0. -1.
</event>
<event>
 5    1  0.1658612E-008  0.3828034E+03  0.7957747E-01  0.3439042E+00
         13   -1    0    0    0    0  0.00000000000E+00  0.00000000000E+00  0.14999999963E+04  0.15000000000E+04  0.10566000000E+00 0. -1.
        994   -1    0    0    0    0 -0.00000000000E+00 -0.00000000000E+00  0.11368683772E-12  0.17120000000E+03  0.17120000000E+03 0.  0.
         13    1    1    2    0    0 -0.30656560400E+00  0.16291090644E+02  0.48379157791E+02  0.51049463165E+02  0.10566000000E+00 0. -1.
        994    1    1    2    0    0  0.10490516397E+01 -0.83289400268E+01  0.29581031192E+01  0.17143121689E+03  0.17120000000E+03 0.  0.
        998    1    1    2    0    0 -0.74248603566E+00 -0.79621506175E+01  0.14486627354E+04  0.14487193199E+04  0.10000000000E+02 0. -1.
</event>
<event>
 5    1  0.1658612E-008  0.3845250E+03  0.7957747E-01  0.3431689E+00
         13   -1    0    0    0    0  0.00000000000E+00  0.00000000000E+00  0.14999999963E+04  0.15000000000E+04  0.10566000000E+00 0. -1.
        994   -1    0    0    0    0 -0.00000000000E+00 -0.00000000000E+00  0.11368683772E-12  0.17120000000E+03  0.17120000000E+03 0.  0.
         13    1    1    2    0    0 -0.67399762725E+01 -0.78950301125E+01  0.28123879222E+02  0.29978701226E+02  0.10566000000E+00 0. -1.
        994    1    1    2    0    0  0.68737273348E+01  0.71269705660E+01  0.21891156715E+01  0.17150007016E+03  0.17120000000E+03 0.  0.
        998    1    1    2    0    0 -0.13375106229E+00  0.76805954652E+00  0.14696870014E+04  0.14697212286E+04  0.10000000000E+02 0. -1.
</event>
<event>
 5    1  0.1658612E-008  0.3839702E+03  0.7957747E-01  0.3434051E+00
         13   -1    0    0    0    0  0.00000000000E+00  0.00000000000E+00  0.14999999963E+04  0.15000000000E+04  0.10566000000E+00 0. -1.
        994   -1    0    0    0    0 -0.00000000000E+00 -0.00000000000E+00  0.11368683772E-12  0.17120000000E+03  0.17120000000E+03 0.  0.
         13    1    1    2    0    0 -0.17045742547E+01  0.12689331878E+02  0.36960620792E+02  0.39115513166E+02  0.10566000000E+00 0. -1.
        994    1    1    2    0    0  0.29054710591E+01 -0.13090800505E+02  0.27358134354E+01  0.17174613677E+03  0.17120000000E+03 0.  0.
        998    1    1    2    0    0 -0.12008968045E+01  0.40146862745E+00  0.14603035621E+04  0.14603383501E+04  0.10000000000E+02 0. -1.
</event>
<event>
 5    1  0.1658612E-008  0.3811438E+03  0.7957747E-01  0.3446193E+00
         13   -1    0    0    0    0  0.00000000000E+00  0.00000000000E+00  0.14999999963E+04  0.15000000000E+04  0.10566000000E+00 0. -1.
        994   -1    0    0    0    0 -0.00000000000E+00 -0.00000000000E+00  0.11368683772E-12  0.17120000000E+03  0.17120000000E+03 0.  0.
         13    1    1    2    0    0 -0.95509608011E+01 -0.70282991015E+01  0.18708097947E+02  0.22149987208E+02  0.10566000000E+00 0. -1.
        994    1    1    2    0    0 -0.53266607583E+01  0.78918011481E+01  0.38588569760E+01  0.17150797246E+03  0.17120000000E+03 0.  0.
        998    1    1    2    0    0  0.14877621559E+02 -0.86350204667E+00  0.14774330414E+04  0.14775420403E+04  0.10000000000E+02 0. -1.
</event>
<event>
 5    1  0.1658612E-008  0.3705029E+03  0.7957747E-01  0.3493583E+00
         13   -1    0    0    0    0  0.00000000000E+00  0.00000000000E+00  0.14999999963E+04  0.15000000000E+04  0.10566000000E+00 0.  1.
        994   -1    0    0    0    0 -0.00000000000E+00 -0.00000000000E+00  0.11368683772E-12  0.17120000000E+03  0.17120000000E+03 0.  0.
         13    1    1    2    0    0  0.13583495933E+02  0.60252774391E+02  0.26630456646E+03  0.27337344689E+03  0.10566000000E+00 0.  1.
        994    1    1    2    0    0 -0.13135246707E+02  0.48342249152E+01  0.96829324936E+01  0.17204390026E+03  0.17120000000E+03 0.  0.
        998    1    1    2    0    0 -0.44824922592E+00 -0.65086999306E+02  0.12240124973E+04  0.12257826528E+04  0.10000000000E+02 0.  1.
</event>
<event>
 5    1  0.1658612E-008  0.3693608E+03  0.7957747E-01  0.3498834E+00
         13   -1    0    0    0    0  0.00000000000E+00  0.00000000000E+00  0.14999999963E+04  0.15000000000E+04  0.10566000000E+00 0. -1.
        994   -1    0    0    0    0 -0.00000000000E+00 -0.00000000000E+00  0.11368683772E-12  0.17120000000E+03  0.17120000000E+03 0.  0.
         13    1    1    2    0    0  0.59141411818E+01  0.84895164722E+01  0.95863407462E-01  0.10347430100E+02  0.10566000000E+00 0. -1.
        994    1    1    2    0    0 -0.72467452048E+01 -0.30923639123E+01  0.10817801252E+02  0.17172228409E+03  0.17120000000E+03 0.  0.
        998    1    1    2    0    0  0.13326040230E+01 -0.53971525599E+01  0.14890863316E+04  0.14891302858E+04  0.10000000000E+02 0. -1.
</event>
<event>
 5    1  0.1845254E-008  0.3862273E+03  0.7957747E-01  0.3424484E+00
         13   -1    0    0    0    0  0.00000000000E+00  0.00000000000E+00  0.14999999963E+04  0.15000000000E+04  0.10566000000E+00 0.  1.
        994   -1    0    0    0    0 -0.00000000000E+00 -0.00000000000E+00  0.11368683772E-12  0.17120000000E+03  0.17120000000E+03 0.  0.
         13    1    1    2    0    0 -0.31021454109E+01 -0.96493503214E+01  0.56243288470E+02  0.57149382584E+02  0.10566000000E+00 0.  1.
        994    1    1    2    0    0  0.49881175230E+01 -0.78311701437E+01  0.13044540562E+01  0.17145655468E+03  0.17120000000E+03 0.  0.
        998    1    1    2    0    0 -0.18859721121E+01  0.17480520465E+02  0.14424522538E+04  0.14425940627E+04  0.10000000000E+02 0.  1.
</event>
<event>
 5    1  0.1658612E-008  0.3840823E+03  0.7957747E-01  0.3433574E+00
         13   -1    0    0    0    0  0.00000000000E+00  0.00000000000E+00  0.14999999963E+04  0.15000000000E+04  0.10566000000E+00 0. -1.
        994   -1    0    0    0    0 -0.00000000000E+00 -0.00000000000E+00  0.11368683772E-12  0.17120000000E+03  0.17120000000E+03 0.  0.
         13    1    1    2    0    0  0.19904821011E+02 -0.97060368398E+01  0.13337157199E+03  0.13519761991E+03  0.10566000000E+00 0. -1.
        994    1    1    2    0    0  0.56317739887E+01  0.74976345078E+01  0.23765418774E+01  0.17147308638E+03  0.17120000000E+03 0.  0.
        998    1    1    2    0    0 -0.25536595000E+02  0.22084023320E+01  0.13642518824E+04  0.13645292937E+04  0.10000000000E+02 0. -1.
</event>
<event>
 5    1  0.1658612E-008  0.3853081E+03  0.7957747E-01  0.3428367E+00
         13   -1    0    0    0    0  0.00000000000E+00  0.00000000000E+00  0.14999999963E+04  0.15000000000E+04  0.10566000000E+00 0.  1.
        994   -1    0    0    0    0 -0.00000000000E+00 -0.00000000000E+00  0.11368683772E-12  0.17120000000E+03  0.17120000000E+03 0.  0.
         13    1    1    2    0    0  0.78747309132E+01  0.11743405054E+02  0.74191157801E+02  0.75526538443E+02  0.10566000000E+00 0.  1.
        994    1    1    2    0    0  0.47562739211E+01  0.43513213572E+00  0.15521958756E+01  0.17127364302E+03  0.17120000000E+03 0.  0.
        998    1    1    2    0    0 -0.12631004834E+02 -0.12178537190E+02  0.14242566426E+04  0.14243998185E+04  0.10000000000E+02 0.  1.
</event>
<event>
 5    1  0.1658612E-008  0.3832136E+03  0.7957747E-01  0.3437284E+00
         13   -1    0    0    0    0  0.00000000000E+00  0.00000000000E+00  0.14999999963E+04  0.15000000000E+04  0.10566000000E+00 0. -1.
        994   -1    0    0    0    0 -0.00000000000E+00 -0.00000000000E+00  0.11368683772E-12  0.17120000000E+03  0.17120000000E+03 0.  0.
         13    1    1    2    0    0 -0.17340855967E+01  0.26060354366E+02  0.15221498254E+03  0.15443950659E+03  0.10566000000E+00 0. -1.
        994    1    1    2    0    0 -0.26719173853E+01 -0.91800411183E+00  0.25460673151E+01  0.17124223875E+03  0.17120000000E+03 0.  0.
        998    1    1    2    0    0  0.44060029819E+01 -0.25142350255E+02  0.13452389464E+04  0.13455182547E+04  0.10000000000E+02 0. -1.
</event>
<event>
 5    1  0.1658612E-008  0.3789487E+03  0.7957747E-01  0.3455749E+00
         13   -1    0    0    0    0  0.00000000000E+00  0.00000000000E+00  0.14999999963E+04  0.15000000000E+04  0.10566000000E+00 0. -1.
        994   -1    0    0    0    0 -0.00000000000E+00 -0.00000000000E+00  0.11368683772E-12  0.17120000000E+03  0.17120000000E+03 0.  0.
         13    1    1    2    0    0 -0.17091251411E+02  0.30822353147E+02  0.11633943626E+03  0.12156070056E+03  0.10566000000E+00 0. -1.
        994    1    1    2    0    0  0.16074381732E+02 -0.42204109736E+02  0.11537301121E+02  0.17743202063E+03  0.17120000000E+03 0.  0.
        998    1    1    2    0    0  0.10168696797E+01  0.11381756589E+02  0.13721232589E+04  0.13722072788E+04  0.10000000000E+02 0. -1.
</event>
<event>
 5    1  0.1658612E-008  0.3687322E+03  0.7957747E-01  0.3501738E+00
         13   -1    0    0    0    0  0.00000000000E+00  0.00000000000E+00  0.14999999963E+04  0.15000000000E+04  0.10566000000E+00 0.  1.
        994   -1    0    0    0    0 -0.00000000000E+00 -0.00000000000E+00  0.11368683772E-12  0.17120000000E+03  0.17120000000E+03 0.  0.
         13    1    1    2    0    0  0.60908860753E+01 -0.13663108646E+03  0.59870940001E+03  0.61413199680E+03  0.10566000000E+00 0.  1.
        994    1    1    2    0    0  0.29191178597E+01  0.12368189041E+03  0.65609435252E+02  0.22117813920E+03  0.17120000000E+03 0.  0.
        998    1    1    2    0    0 -0.90100039351E+01  0.12949196047E+02  0.83568116102E+03  0.83588986400E+03  0.10000000000E+02 0.  1.
</event>
<event>
 5    1  0.1658612E-008  0.3843131E+03  0.7957747E-01  0.3432591E+00
         13   -1    0    0    0    0  0.00000000000E+00  0.00000000000E+00  0.14999999963E+04  0.15000000000E+04  0.10566000000E+00 0.  1.
        994   -1    0    0    0    0 -0.00000000000E+00 -0.00000000000E+00  0.11368683772E-12  0.17120000000E+03  0.17120000000E+03 0.  0.
         13    1    1    2    0    0 -0.15246470131E+02  0.44871727724E+01  0.65298332617E+02  0.67204709489E+02  0.10566000000E+00 0.  1.
        994    1    1    2    0    0  0.32435640974E+01 -0.11609334601E+02  0.24506028415E+01  0.17164132024E+03  0.17120000000E+03 0.  0.
        998    1    1    2    0    0  0.12002906034E+02  0.71221618281E+01  0.14322510608E+04  0.14323539703E+04  0.10000000000E+02 0.  1.
</event>
<event>
 5    1  0.1658612E-008  0.3832452E+03  0.7957747E-01  0.3437149E+00
         13   -1    0    0    0    0  0.00000000000E+00  0.00000000000E+00  0.14999999963E+04  0.15000000000E+04  0.10566000000E+00 0. -1.
        994   -1    0    0    0    0 -0.00000000000E+00 -0.00000000000E+00  0.11368683772E-12  0.17120000000E+03  0.17120000000E+03 0.  0.
         13    1    1    2    0    0  0.29115002921E+01  0.13743509899E+02  0.36703529387E+02  0.39300396077E+02  0.10566000000E+00 0. -1.
        994    1    1    2    0    0 -0.71461733212E+01 -0.21307804957E+02  0.41762233732E+01  0.17271934225E+03  0.17120000000E+03 0.  0.
        998    1    1    2    0    0  0.42346730291E+01  0.75642950580E+01  0.14591202435E+04  0.14591802617E+04  0.10000000000E+02 0. -1.
</event>
<event>
 5    1  0.1658612E-008  0.3823316E+03  0.7957747E-01  0.3441069E+00
         13   -1    0    0    0    0  0.00000000000E+00  0.00000000000E+00  0.14999999963E+04  0.15000000000E+04  0.10566000000E+00 0. -1.
        994   -1    0    0    0    0 -0.00000000000E+00 -0.00000000000E+00  0.11368683772E-12  0.17120000000E+03  0.17120000000E+03 0.  0.
         13    1    1    2    0    0 -0.13186840633E+02  0.19418344546E+02  0.93907887244E+02  0.96797041905E+02  0.10566000000E+00 0. -1.
        994    1    1    2    0    0  0.60801868593E+01 -0.94572206647E+01  0.33802441066E+01  0.17160207966E+03  0.17120000000E+03 0.  0.
        998    1    1    2    0    0  0.71066537739E+01 -0.99611238816E+01  0.14027118649E+04  0.14028008784E+04  0.10000000000E+02 0. -1.
</event>
<event>
 5    1  0.1658612E-008  0.3813675E+03  0.7957747E-01  0.3445226E+00
         13   -1    0    0    0    0  0.00000000000E+00  0.00000000000E+00  0.14999999963E+04  0.15000000000E+04  0.10566000000E+00 0. -1.
        994   -1    0    0    0    0 -0.00000000000E+00 -0.00000000000E+00  0.11368683772E-12  0.17120000000E+03  0.17120000000E+03 0.  0.
         13    1    1    2    0    0 -0.10001735933E+02  0.85676260319E+01  0.24899333081E+02  0.28167834305E+02  0.10566000000E+00 0. -1.
        994    1    1    2    0    0 -0.49563584001E+01  0.25305299391E+01  0.35474949437E+01  0.17132715427E+03  0.17120000000E+03 0.  0.
        998    1    1    2    0    0  0.14958094333E+02 -0.11098155971E+02  0.14715531683E+04  0.14717050114E+04  0.10000000000E+02 0. -1.
</event>
<event>
 5    1  0.1658612E-008  0.3826777E+03  0.7957747E-01  0.3439581E+00
         13   -1    0    0    0    0  0.00000000000E+00  0.00000000000E+00  0.14999999963E+04  0.15000000000E+04  0.10566000000E+00 0.  1.
        994   -1    0    0    0    0 -0.00000000000E+00 -0.00000000000E+00  0.11368683772E-12  0.17120000000E+03  0.17120000000E+03 0.  0.
         13    1    1    2    0    0  0.15548623620E+01 -0.17603235486E+02  0.53849143597E+02  0.56674799750E+02  0.10566000000E+00 0. -1.
        994    1    1    2    0    0 -0.23875776160E+01  0.16646399354E+02  0.37251638195E+01  0.17206429026E+03  0.17120000000E+03 0.  0.
        998    1    1    2    0    0  0.83271525396E+00  0.95683613201E+00  0.14424256889E+04  0.14424609100E+04  0.10000000000E+02 0.  1.
</event>
<event>
 5    1  0.1658612E-008  0.3781208E+03  0.7957747E-01  0.3459382E+00
         13   -1    0    0    0    0  0.00000000000E+00  0.00000000000E+00  0.14999999963E+04  0.15000000000E+04  0.10566000000E+00 0. -1.
        994   -1    0    0    0    0 -0.00000000000E+00 -0.00000000000E+00  0.11368683772E-12  0.17120000000E+03  0.17120000000E+03 0.  0.
         13    1    1    2    0    0 -0.30742182183E+02  0.12171191804E+02  0.10447930575E+03  0.10958629554E+03  0.10566000000E+00 0. -1.
        994    1    1    2    0    0  0.25312421497E+02  0.26585126225E+01  0.72668659461E+01  0.17323404317E+03  0.17120000000E+03 0.  0.
        998    1    1    2    0    0  0.54297606860E+01 -0.14829704426E+02  0.13882538246E+04  0.13883796613E+04  0.10000000000E+02 0. -1.
</event>
<event>
 5    1  0.1658612E-008  0.3801818E+03  0.7957747E-01  0.3450367E+00
         13   -1    0    0    0    0  0.00000000000E+00  0.00000000000E+00  0.14999999963E+04  0.15000000000E+04  0.10566000000E+00 0.  1.
        994   -1    0    0    0    0 -0.00000000000E+00 -0.00000000000E+00  0.11368683772E-12  0.17120000000E+03  0.17120000000E+03 0.  0.
         13    1    1    2    0    0 -0.16994103702E+02 -0.77710355530E+01  0.43582257984E+02  0.47419541639E+02  0.10566000000E+00 0.  1.
        994    1    1    2    0    0 -0.28173166113E+01  0.58391280692E+01  0.41818639693E+01  0.17137374558E+03  0.17120000000E+03 0.  0.
        998    1    1    2    0    0  0.19811420313E+02  0.19319074838E+01  0.14522358743E+04  0.14524067128E+04  0.10000000000E+02 0.  1.
</event>
<event>
 5    1  0.2351406E-008  0.3862843E+03  0.7957747E-01  0.3424244E+00
         13   -1    0    0    0    0  0.00000000000E+00  0.00000000000E+00  0.14999999963E+04  0.15000000000E+04  0.10566000000E+00 0.  1.
        994   -1    0    0    0    0 -0.00000000000E+00 -0.00000000000E+00  0.11368683772E-12  0.17120000000E+03  0.17120000000E+03 0.  0.
         13    1    1    2    0    0 -0.95467980277E+01 -0.32397734126E+01  0.48672823893E+02  0.49706060336E+02  0.10566000000E+00 0.  1.
        994    1    1    2    0    0  0.15172694072E+02  0.64472046720E+01  0.18844279758E+01  0.17200223302E+03  0.17120000000E+03 0.  0.
        998    1    1    2    0    0 -0.56258960441E+01 -0.32074312594E+01  0.14494427444E+04  0.14494917066E+04  0.10000000000E+02 0.  1.
</event>
<event>
 5    1  0.1658612E-008  0.3770708E+03  0.7957747E-01  0.3464013E+00
         13   -1    0    0    0    0  0.00000000000E+00  0.00000000000E+00  0.14999999963E+04  0.15000000000E+04  0.10566000000E+00 0.  1.
        994   -1    0    0    0    0 -0.00000000000E+00 -0.00000000000E+00  0.11368683772E-12  0.17120000000E+03  0.17120000000E+03 0.  0.
         13    1    1    2    0    0  0.25392089122E+02  0.12886658832E+02  0.68231064393E+02  0.73934521559E+02  0.10566000000E+00 0.  1.
        994    1    1    2    0    0 -0.26530959293E+02 -0.29412526622E+01  0.80281782620E+01  0.17345441596E+03  0.17120000000E+03 0.  0.
        998    1    1    2    0    0  0.11388701709E+01 -0.99454061695E+01  0.14237407536E+04  0.14238110625E+04  0.10000000000E+02 0.  1.
</event>
<event>
 5    1  0.1709816E-008  0.3847780E+03  0.7957747E-01  0.3430614E+00
         13   -1    0    0    0    0  0.00000000000E+00  0.00000000000E+00  0.14999999963E+04  0.15000000000E+04  0.10566000000E+00 0.  1.
        994   -1    0    0    0    0 -0.00000000000E+00 -0.00000000000E+00  0.11368683772E-12  0.17120000000E+03  0.17120000000E+03 0.  0.
         13    1    1    2    0    0  0.41079541313E+01 -0.97985186986E+01  0.31296415793E+02  0.33050916195E+02  0.10566000000E+00 0.  1.
        994    1    1    2    0    0 -0.42464649405E+01  0.12617340714E+02  0.23238636227E+01  0.17173255397E+03  0.17120000000E+03 0.  0.
        998    1    1    2    0    0  0.13851080915E+00 -0.28188220151E+01  0.14663797169E+04  0.14664165298E+04  0.10000000000E+02 0.  1.
</event>
<event>
 5    1  0.1658612E-008  0.3713305E+03  0.7957747E-01  0.3489798E+00
         13   -1    0    0    0    0  0.00000000000E+00  0.00000000000E+00  0.14999999963E+04  0.15000000000E+04  0.10566000000E+00 0. -1.
        994   -1    0    0    0    0 -0.00000000000E+00 -0.00000000000E+00  0.11368683772E-12  0.17120000000E+03  0.17120000000E+03 0.  0.
         13    1    1    2    0    0  0.17178558997E+02 -0.35516136276E+02  0.59676046543E+02  0.71538384942E+02  0.10566000000E+00 0. -1.
        994    1    1    2    0    0 -0.15638452209E+02  0.39622415878E+02  0.18044427413E+02  0.17734017703E+03  0.17120000000E+03 0.  0.
        998    1    1    2    0    0 -0.15401067877E+01 -0.41062796021E+01  0.14222795223E+04  0.14223214380E+04  0.10000000000E+02 0. -1.
</event>
<event>
 5    1  0.1658612E-008  0.3747561E+03  0.7957747E-01  0.3474314E+00
         13   -1    0    0    0    0  0.00000000000E+00  0.00000000000E+00  0.14999999963E+04  0.15000000000E+04  0.10566000000E+00 0.  1.
        994   -1    0    0    0    0 -0.00000000000E+00 -0.00000000000E+00  0.11368683772E-12  0.17120000000E+03  0.17120000000E+03 0.  0.
         13    1    1    2    0    0  0.51178748567E+02 -0.47594104710E+01  0.88799753658E+02  0.10260274707E+03  0.10566000000E+00 0.  1.
        994    1    1    2    0    0 -0.49762086354E+02 -0.17534270777E+01  0.22343653924E+02  0.17968867136E+03  0.17120000000E+03 0.  0.
        998    1    1    2    0    0 -0.14166622125E+01  0.65128375486E+01  0.13888565887E+04  0.13889085816E+04  0.10000000000E+02 0.  1.
</event>
<event>
 5    1  0.1658612E-008  0.3764351E+03  0.7957747E-01  0.3466829E+00
         13   -1    0    0    0    0  0.00000000000E+00  0.00000000000E+00  0.14999999963E+04  0.15000000000E+04  0.10566000000E+00 0.  1.
        994   -1    0    0    0    0 -0.00000000000E+00 -0.00000000000E+00  0.11368683772E-12  0.17120000000E+03  0.17120000000E+03 0.  0.
         13    1    1    2    0    0 -0.14560351392E+02  0.49698337301E+00  0.14936861786E+02  0.20865565633E+02  0.10566000000E+00 0.  1.
        994    1    1    2    0    0  0.19392085857E+02  0.11208751066E+01  0.72209968083E+01  0.17244968005E+03  0.17120000000E+03 0.  0.
        998    1    1    2    0    0 -0.48317344646E+01 -0.16178584796E+01  0.14778421377E+04  0.14778847543E+04  0.10000000000E+02 0.  1.
</event>
<event>
 5    1  0.1658612E-008  0.3851342E+03  0.7957747E-01  0.3429103E+00
         13   -1    0    0    0    0  0.00000000000E+00  0.00000000000E+00  0.14999999963E+04  0.15000000000E+04  0.10566000000E+00 0. -1.
        994   -1    0    0    0    0 -0.00000000000E+00 -0.00000000000E+00  0.11368683772E-12  0.17120000000E+03  0.17120000000E+03 0.  0.
         13    1    1    2    0    0  0.64969077957E+01  0.47713868393E+02  0.51398732766E+02  0.70431980959E+02  0.10566000000E+00 0. -1.
        994    1    1    2    0    0  0.10232608641E+00 -0.50752365039E+02  0.28751338822E+02  0.18086429308E+03  0.17120000000E+03 0.  0.
        998    1    1    2    0    0 -0.65992338821E+01  0.30384966460E+01  0.14198499247E+04  0.14199037260E+04  0.10000000000E+02 0. -1.
</event>
<event>
 5    1  0.1658612E-008  0.3687522E+03  0.7957747E-01  0.3501645E+00
         13   -1    0    0    0    0  0.00000000000E+00  0.00000000000E+00  0.14999999963E+04  0.15000000000E+04  0.10566000000E+00 0.  1.
        994   -1    0    0    0    0 -0.00000000000E+00 -0.00000000000E+00  0.11368683772E-12  0.17120000000E+03  0.17120000000E+03 0.  0.
         13    1    1    2    0    0  0.28214770270E+02  0.20129712627E+02  0.47701246496E+02  0.58963536810E+02  0.10566000000E+00 0.  1.
        994    1    1    2    0    0 -0.33855455833E+02 -0.71509015815E+02  0.32398421680E+02  0.19136046864E+03  0.17120000000E+03 0.  0.
        998    1    1    2    0    0  0.56406855638E+01  0.51379303188E+02  0.14199003281E+04  0.14208759945E+04  0.10000000000E+02 0.  1.
</event>
<event>
 5    1  0.1658612E-008  0.3773351E+03  0.7957747E-01  0.3462845E+00
         13   -1    0    0    0    0  0.00000000000E+00  0.00000000000E+00  0.14999999963E+04  0.15000000000E+04  0.10566000000E+00 0.  1.
        994   -1    0    0    0    0 -0.00000000000E+00 -0.00000000000E+00  0.11368683772E-12  0.17120000000E+03  0.17120000000E+03 0.  0.
         13    1    1    2    0    0 -0.47299974081E+02  0.10736922586E+02  0.29047708423E+03  0.29449875497E+03  0.10566000000E+00 0.  1.
        994    1    1    2    0    0 -0.49096591061E+01  0.16108606575E+02  0.64415130054E+01  0.17214681248E+03  0.17120000000E+03 0.  0.
        998    1    1    2    0    0  0.52209633187E+02 -0.26845529161E+02  0.12030813990E+04  0.12045544325E+04  0.10000000000E+02 0.  1.
</event>
<event>
 5    1  0.1658612E-008  0.3783732E+03  0.7957747E-01  0.3458273E+00
         13   -1    0    0    0    0  0.00000000000E+00  0.00000000000E+00  0.14999999963E+04  0.15000000000E+04  0.10566000000E+00 0.  1.
        994   -1    0    0    0    0 -0.00000000000E+00 -0.00000000000E+00  0.11368683772E-12  0.17120000000E+03  0.17120000000E+03 0.  0.
         13    1    1    2    0    0  0.96090548282E+01  0.11558270602E+02  0.20496194841E+02  0.25417173742E+02  0.10566000000E+00 0.  1.
        994    1    1    2    0    0 -0.10133197576E+02 -0.10140594129E+02  0.56476440389E+01  0.17189196964E+03  0.17120000000E+03 0.  0.
        998    1    1    2    0    0  0.52414274794E+00 -0.14176764725E+01  0.14738561574E+04  0.14738908566E+04  0.10000000000E+02 0.  1.
</event>
<event>
 5    1  0.1658612E-008  0.3811087E+03  0.7957747E-01  0.3446345E+00
         13   -1    0    0    0    0  0.00000000000E+00  0.00000000000E+00  0.14999999963E+04  0.15000000000E+04  0.10566000000E+00 0. -1.
        994   -1    0    0    0    0 -0.00000000000E+00 -0.00000000000E+00  0.11368683772E-12  0.17120000000E+03  0.17120000000E+03 0.  0.
         13    1    1    2    0    0 -0.39577955971E+02  0.25603569326E+02  0.25328027406E+03  0.25762931850E+03  0.10566000000E+00 0. -1.
        994    1    1    2    0    0  0.41150710716E+02 -0.28334559378E+02  0.11933825347E+02  0.17874027088E+03  0.17120000000E+03 0.  0.
        998    1    1    2    0    0 -0.15727547453E+01  0.27309900520E+01  0.12347858969E+04  0.12348304106E+04  0.10000000000E+02 0. -1.
</event>
<event>
 5    1  0.1658612E-008  0.3947427E+03  0.7957747E-01  0.3389375E+00
         13   -1    0    0    0    0  0.00000000000E+00  0.00000000000E+00  0.14999999963E+04  0.15000000000E+04  0.10566000000E+00 0.  1.
        994   -1    0    0    0    0 -0.00000000000E+00 -0.00000000000E+00  0.11368683772E-12  0.17120000000E+03  0.17120000000E+03 0.  0.
         13    1    1    2    0    0  0.32761761324E+02 -0.17617058297E+02  0.18220917111E+02  0.41421090431E+02  0.10566000000E+00 0.  1.
        994    1    1    2    0    0 -0.21105059549E+02  0.23151071438E+02  0.28443382330E+02  0.17635152862E+03  0.17120000000E+03 0.  0.
        998    1    1    2    0    0 -0.11656701775E+02 -0.55340131416E+01  0.14533356968E+04  0.14534273810E+04  0.10000000000E+02 0.  1.
</event>
<event>
 5    1  0.1658612E-008  0.3852909E+03  0.7957747E-01  0.3428439E+00
         13   -1    0    0    0    0  0.00000000000E+00  0.00000000000E+00  0.14999999963E+04  0.15000000000E+04  0.10566000000E+00 0.  1.
        994   -1    0    0    0    0 -0.00000000000E+00 -0.00000000000E+00  0.11368683772E-12  0.17120000000E+03  0.17120000000E+03 0.  0.
         13    1    1    2    0    0 -0.61892833041E+01  0.15685797285E+02  0.95027561065E+02  0.96512175348E+02  0.10566000000E+00 0.  1.
        994    1    1    2    0    0 -0.14633321643E+01 -0.13631708572E+02  0.21035942501E+01  0.17176096742E+03  0.17120000000E+03 0.  0.
        998    1    1    2    0    0  0.76526154684E+01 -0.20540887133E+01  0.14028688410E+04  0.14029268572E+04  0.10000000000E+02 0.  1.
</event>
<event>
 5    1  0.1658612E-008  0.3822881E+03  0.7957747E-01  0.3441256E+00
         13   -1    0    0    0    0  0.00000000000E+00  0.00000000000E+00  0.14999999963E+04  0.15000000000E+04  0.10566000000E+00 0.  1.
        994   -1    0    0    0    0 -0.00000000000E+00 -0.00000000000E+00  0.11368683772E-12  0.17120000000E+03  0.17120000000E+03 0.  0.
         13    1    1    2    0    0 -0.16678412330E+02 -0.28914254652E+01  0.47960460471E+02  0.50860069914E+02  0.10566000000E+00 0.  1.
        994    1    1    2    0    0  0.62987029354E+01  0.20578139182E+01  0.31282774191E+01  0.17135674593E+03  0.17120000000E+03 0.  0.
        998    1    1    2    0    0  0.10379709394E+02  0.83361154695E+00  0.14489112584E+04  0.14489831842E+04  0.10000000000E+02 0.  1.
</event>
<event>
 5    1  0.1658612E-008  0.3802246E+03  0.7957747E-01  0.3450181E+00
         13   -1    0    0    0    0  0.00000000000E+00  0.00000000000E+00  0.14999999963E+04  0.15000000000E+04  0.10566000000E+00 0. -1.
        994   -1    0    0    0    0 -0.00000000000E+00 -0.00000000000E+00  0.11368683772E-12  0.17120000000E+03  0.17120000000E+03 0.  0.
         13    1    1    2    0    0 -0.31799781898E+02  0.10311532005E+02  0.13895179495E+03  0.14291664111E+03  0.10566000000E+00 0. -1.
        994    1    1    2    0    0  0.20370367064E+02  0.33298623658E+01  0.54442432563E+01  0.17252570713E+03  0.17120000000E+03 0.  0.
        998    1    1    2    0    0  0.11429414834E+02 -0.13641394371E+02  0.13556039581E+04  0.13557576518E+04  0.10000000000E+02 0. -1.
</event>
<event>
 5    1  0.2926221E-008  0.3860297E+03  0.7957747E-01  0.3425317E+00
         13   -1    0    0    0    0  0.00000000000E+00  0.00000000000E+00  0.14999999963E+04  0.15000000000E+04  0.10566000000E+00 0.  1.
        994   -1    0    0    0    0 -0.00000000000E+00 -0.00000000000E+00  0.11368683772E-12  0.17120000000E+03  0.17120000000E+03 0.  0.
         13    1    1    2    0    0  0.10750191655E+02  0.60804240379E+01  0.69309323346E+02  0.70401219051E+02  0.10566000000E+00 0.  1.
        994    1    1    2    0    0 -0.71084214656E+01 -0.26986127642E+01  0.13092734638E+01  0.17137376218E+03  0.17120000000E+03 0.  0.
        998    1    1    2    0    0 -0.36417701891E+01 -0.33818112737E+01  0.14293813995E+04  0.14294250188E+04  0.10000000000E+02 0.  1.
</event>
<event>
 5    1  0.1658612E-008  0.3847157E+03  0.7957747E-01  0.3430879E+00
         13   -1    0    0    0    0  0.00000000000E+00  0.00000000000E+00  0.14999999963E+04  0.15000000000E+04  0.10566000000E+00 0. -1.
        994   -1    0    0    0    0 -0.00000000000E+00 -0.00000000000E+00  0.11368683772E-12  0.17120000000E+03  0.17120000000E+03 0.  0.
         13    1    1    2    0    0  0.92564088025E+01 -0.70446548169E+01  0.38937272411E+02  0.40637797827E+02  0.10566000000E+00 0. -1.
        994    1    1    2    0    0 -0.39181948509E+00  0.34297982870E+01  0.18105594245E+01  0.17124437265E+03  0.17120000000E+03 0.  0.
        998    1    1    2    0    0 -0.88645893174E+01  0.36148565298E+01  0.14592521644E+04  0.14593178295E+04  0.10000000000E+02 0. -1.
</event>
<event>
 5    1  0.1658612E-008  0.3809466E+03  0.7957747E-01  0.3447047E+00
         13   -1    0    0    0    0  0.00000000000E+00  0.00000000000E+00  0.14999999963E+04  0.15000000000E+04  0.10566000000E+00 0. -1.
        994   -1    0    0    0    0 -0.00000000000E+00 -0.00000000000E+00  0.11368683772E-12  0.17120000000E+03  0.17120000000E+03 0.  0.
         13    1    1    2    0    0 -0.17469234915E+02 -0.25583288317E+02  0.14409321163E+03  0.14738569677E+03  0.10566000000E+00 0. -1.
        994    1    1    2    0    0 -0.27937887685E+01  0.55204496748E+01  0.37836387861E+01  0.17135354255E+03  0.17120000000E+03 0.  0.
        998    1    1    2    0    0  0.20263023684E+02  0.20062838642E+02  0.13521231459E+04  0.13524607607E+04  0.10000000000E+02 0. -1.
</event>
<event>
 5    1  0.1658612E-008  0.3703853E+03  0.7957747E-01  0.3494122E+00
         13   -1    0    0    0    0  0.00000000000E+00  0.00000000000E+00  0.14999999963E+04  0.15000000000E+04  0.10566000000E+00 0.  1.
        994   -1    0    0    0    0 -0.00000000000E+00 -0.00000000000E+00  0.11368683772E-12  0.17120000000E+03  0.17120000000E+03 0.  0.
         13    1    1    2    0    0 -0.39964522356E+02 -0.53400064207E+02  0.34717396815E+03  0.35352299109E+03  0.10566000000E+00 0.  1.
        994    1    1    2    0    0  0.14197487873E+02 -0.20020551781E+02  0.11150698608E+02  0.17330946089E+03  0.17120000000E+03 0.  0.
        998    1    1    2    0    0  0.25767034483E+02  0.73420615988E+02  0.11416753295E+04  0.11443675480E+04  0.10000000000E+02 0. -1.
</event>
<event>
 5    1  0.1658612E-008  0.3686832E+03  0.7957747E-01  0.3501964E+00
         13   -1    0    0    0    0  0.00000000000E+00  0.00000000000E+00  0.14999999963E+04  0.15000000000E+04  0.10566000000E+00 0. -1.
        994   -1    0    0    0    0 -0.00000000000E+00 -0.00000000000E+00  0.11368683772E-12  0.17120000000E+03  0.17120000000E+03 0.  0.
         13    1    1    2    0    0  0.17515126256E+02 -0.55188864786E+02  0.18114214588E+03  0.19017118242E+03  0.10566000000E+00 0. -1.
        994    1    1    2    0    0  0.84485283119E+01  0.12550993834E+02  0.11041182658E+02  0.17222152244E+03  0.17120000000E+03 0.  0.
        998    1    1    2    0    0 -0.25963654568E+02  0.42637870953E+02  0.13078166677E+04  0.13088072951E+04  0.10000000000E+02 0. -1.
</event>
<event>
 5    1  0.1658612E-008  0.3822139E+03  0.7957747E-01  0.3441575E+00
         13   -1    0    0    0    0  0.00000000000E+00  0.00000000000E+00  0.14999999963E+04  0.15000000000E+04  0.10566000000E+00 0. -1.
        994   -1    0    0    0    0 -0.00000000000E+00 -0.00000000000E+00  0.11368683772E-12  0.17120000000E+03  0.17120000000E+03 0.  0.
         13    1    1    2    0    0  0.70021236110E+01 -0.86074115366E+01  0.19065414969E+02  0.22059430646E+02  0.10566000000E+00 0. -1.
        994    1    1    2    0    0 -0.73875744491E+01  0.70763832082E+01  0.33671125920E+01  0.17153841815E+03  0.17120000000E+03 0.  0.
        998    1    1    2    0    0  0.38545083812E+00  0.15310283284E+01  0.14775674687E+04  0.14776021512E+04  0.10000000000E+02 0. -1.
</event>
<event>
 5    1  0.1658612E-008  0.3780241E+03  0.7957747E-01  0.3459807E+00
         13   -1    0    0    0    0  0.00000000000E+00  0.00000000000E+00  0.14999999963E+04  0.15000000000E+04  0.10566000000E+00 0. -1.
        994   -1    0    0    0    0 -0.00000000000E+00 -0.00000000000E+00  0.11368683772E-12  0.17120000000E+03  0.17120000000E+03 0.  0.
         13    1    1    2    0    0 -0.14435413861E+01 -0.26330083255E+02  0.66551650157E+02  0.71585546017E+02  0.10566000000E+00 0. -1.
        994    1    1    2    0    0  0.11090538942E+02  0.13334048591E+02  0.61466858951E+01  0.17218600017E+03  0.17120000000E+03 0.  0.
        998    1    1    2    0    0 -0.96469975562E+01  0.12996034664E+02  0.14273016602E+04  0.14274284538E+04  0.10000000000E+02 0. -1.
</event>
<event>
 5    1  0.1658612E-008  0.3851070E+03  0.7957747E-01  0.3429219E+00
         13   -1    0    0    0    0  0.00000000000E+00  0.00000000000E+00  0.14999999963E+04  0.15000000000E+04  0.10566000000E+00 0.  1.
        994   -1    0    0    0    0 -0.00000000000E+00 -0.00000000000E+00  0.11368683772E-12  0.17120000000E+03  0.17120000000E+03 0.  0.
         13    1    1    2    0    0  0.11633131258E+02  0.94950637988E+01  0.72895251218E+02  0.74425901362E+02  0.10566000000E+00 0.  1.
        994    1    1    2    0    0 -0.98245231457E+01  0.56803413395E+00  0.18954822736E+01  0.17149308083E+03  0.17120000000E+03 0.  0.
        998    1    1    2    0    0 -0.18086081121E+01 -0.10063097933E+02  0.14252092628E+04  0.14252810178E+04  0.10000000000E+02 0.  1.
</event>
<event>
 5    1  0.1658612E-008  0.3794927E+03  0.7957747E-01  0.3453370E+00
         13   -1    0    0    0    0  0.00000000000E+00  0.00000000000E+00  0.14999999963E+04  0.15000000000E+04  0.10566000000E+00 0.  1.
        994   -1    0    0    0    0 -0.00000000000E+00 -0.00000000000E+00  0.11368683772E-12  0.17120000000E+03  0.17120000000E+03 0.  0.
         13    1    1    2    0    0 -0.33699976055E+02  0.23006209760E+02  0.16927867791E+03  0.17412712607E+03  0.10566000000E+00 0.  1.
        994    1    1    2    0    0  0.30364390105E+02 -0.26680334997E+02  0.98798651144E+01  0.17618424503E+03  0.17120000000E+03 0.  0.
        998    1    1    2    0    0  0.33355859500E+01  0.36741252379E+01  0.13208414533E+04  0.13208886289E+04  0.10000000000E+02 0.  1.
</event>
<event>
 5    1  0.1658612E-008  0.3837503E+03  0.7957747E-01  0.3434990E+00
         13   -1    0    0    0    0  0.00000000000E+00  0.00000000000E+00  0.14999999963E+04  0.15000000000E+04  0.10566000000E+00 0.  1.
        994   -1    0    0    0    0 -0.00000000000E+00 -0.00000000000E+00  0.11368683772E-12  0.17120000000E+03  0.17120000000E+03 0.  0.
         13    1    1    2    0    0 -0.46924815450E+01 -0.91685320831E+01  0.22506632141E+02  0.24751586170E+02  0.10566000000E+00 0.  1.
        994    1    1    2    0    0  0.31341023472E-01  0.12507614170E+02  0.27686149827E+01  0.17167861434E+03  0.17120000000E+03 0.  0.
        998    1    1    2    0    0  0.46611405215E+01 -0.33390820872E+01  0.14747247492E+04  0.14747697995E+04  0.10000000000E+02 0.  1.
</event>
<event>
 5    1  0.1658612E-008  0.3714391E+03  0.7957747E-01  0.3489303E+00
         13   -1    0    0    0    0  0.00000000000E+00  0.00000000000E+00  0.14999999963E+04  0.15000000000E+04  0.10566000000E+00 0. -1.
        994   -1    0    0    0    0 -0.00000000000E+00 -0.00000000000E+00  0.11368683772E-12  0.17120000000E+03  0.17120000000E+03 0.  0.
         13    1    1    2    0    0  0.31084020758E+02  0.47404746282E+02  0.20031871131E+03  0.20818507051E+03  0.10566000000E+00 0. -1.
        994    1    1    2    0    0 -0.54434053229E+01 -0.19786388999E+02  0.99690871621E+01  0.17271350425E+03  0.17120000000E+03 0.  0.
        998    1    1    2    0    0 -0.25640615435E+02 -0.27618357283E+02  0.12897121978E+04  0.12903014252E+04  0.10000000000E+02 0. -1.
</event>
<event>
 5    1  0.1658612E-008  0.3808217E+03  0.7957747E-01  0.3447588E+00
         13   -1    0    0    0    0  0.00000000000E+00  0.00000000000E+00  0.14999999963E+04  0.15000000000E+04  0.10566000000E+00 0. -1.
        994   -1    0    0    0    0 -0.00000000000E+00 -0.00000000000E+00  0.11368683772E-12  0.17120000000E+03  0.17120000000E+03 0.  0.
         13    1    1    2    0    0 -0.17107284933E+02 -0.10811605847E+02  0.55562928675E+02  0.59133748619E+02  0.10566000000E+00 0. -1.
        994    1    1    2    0    0 -0.10541276256E+02  0.26515962651E+02  0.64381311960E+01  0.17368104189E+03  0.17120000000E+03 0.  0.
        998    1    1    2    0    0  0.27648561188E+02 -0.15704356803E+02  0.14379989364E+04  0.14383852095E+04  0.10000000000E+02 0. -1.
</event>
<event>
 5    1  0.1658612E-008  0.3833051E+03  0.7957747E-01  0.3436892E+00
         13   -1    0    0    0    0  0.00000000000E+00  0.00000000000E+00  0.14999999963E+04  0.15000000000E+04  0.10566000000E+00 0.  1.
        994   -1    0    0    0    0 -0.00000000000E+00 -0.00000000000E+00  0.11368683772E-12  0.17120000000E+03  0.17120000000E+03 0.  0.
         13    1    1    2    0    0  0.24815880175E+02  0.15681500213E+03  0.89302869784E+03  0.90703199455E+03  0.10566000000E+00 0.  1.
        994    1    1    2    0    0 -0.31571264730E+02 -0.17995239314E+03  0.12204326526E+03  0.27853834054E+03  0.17120000000E+03 0.  0.
        998    1    1    2    0    0  0.67553845554E+01  0.23137391015E+02  0.48492803318E+03  0.48562966492E+03  0.10000000000E+02 0.  1.
</event>
<event>
 5    1  0.2665935E-008  0.3857180E+03  0.7957747E-01  0.3426633E+00
         13   -1    0    0    0    0  0.00000000000E+00  0.00000000000E+00  0.14999999963E+04  0.15000000000E+04  0.10566000000E+00 0. -1.
        994   -1    0    0    0    0 -0.00000000000E+00 -0.00000000000E+00  0.11368683772E-12  0.17120000000E+03  0.17120000000E+03 0.  0.
         13    1    1    2    0    0  0.10436761685E+02 -0.58711320118E+00  0.43154360002E+02  0.44402484701E+02  0.10566000000E+00 0. -1.
        994    1    1    2    0    0 -0.69081804504E+01  0.39469155315E+01  0.14818126085E+01  0.17139118083E+03  0.17120000000E+03 0.  0.
        998    1    1    2    0    0 -0.35285812346E+01 -0.33598023303E+01  0.14553638237E+04  0.14554063345E+04  0.10000000000E+02 0. -1.
</event>
<event>
 5    1  0.4355058E-008  0.3864938E+03  0.7957747E-01  0.3423361E+00
         13   -1    0    0    0    0  0.00000000000E+00  0.00000000000E+00  0.14999999963E+04  0.15000000000E+04  0.10566000000E+00 0.  1.
        994   -1    0    0    0    0 -0.00000000000E+00 -0.00000000000E+00  0.11368683772E-12  0.17120000000E+03  0.17120000000E+03 0.  0.
         13    1    1    2    0    0  0.94257040697E+01  0.43751804637E+01  0.62585130128E+02  0.63442066316E+02  0.10566000000E+00 0.  1.
        994    1    1    2    0    0 -0.57292051810E+01 -0.13832778753E+01  0.10039773457E+01  0.17130436428E+03  0.17120000000E+03 0.  0.
        998    1    1    2    0    0 -0.36964988887E+01 -0.29919025884E+01  0.14364108888E+04  0.14364535694E+04  0.10000000000E+02 0.  1.
</event>
<event>
 5    1  0.1658612E-008  0.3831826E+03  0.7957747E-01  0.3437417E+00
         13   -1    0    0    0    0  0.00000000000E+00  0.00000000000E+00  0.14999999963E+04  0.15000000000E+04  0.10566000000E+00 0.  1.
        994   -1    0    0    0    0 -0.00000000000E+00 -0.00000000000E+00  0.11368683772E-12  0.17120000000E+03  0.17120000000E+03 0.  0.
         13    1    1    2    0    0  0.10954166893E+02  0.68553182288E+01  0.34074770519E+02  0.36442973401E+02  0.10566000000E+00 0.  1.
        994    1    1    2    0    0 -0.55310183740E+01  0.20695815788E+02  0.40547555092E+01  0.17258270480E+03  0.17120000000E+03 0.  0.
        998    1    1    2    0    0 -0.54231485193E+01 -0.27551134016E+02  0.14618704703E+04  0.14621743218E+04  0.10000000000E+02 0.  1.
</event>
<event>
 5    1  0.1658612E-008  0.3768799E+03  0.7957747E-01  0.3464858E+00
         13   -1    0    0    0    0  0.00000000000E+00  0.00000000000E+00  0.14999999963E+04  0.15000000000E+04  0.10566000000E+00 0.  1.
        994   -1    0    0    0    0 -0.00000000000E+00 -0.00000000000E+00  0.11368683772E-12  0.17120000000E+03  0.17120000000E+03 0.  0.
         13    1    1    2    0    0  0.19026273087E+02 -0.10602201917E+03  0.28543739721E+03  0.30508553966E+03  0.10566000000E+00 0.  1.
        994    1    1    2    0    0 -0.35551409456E+02  0.11886379883E+03  0.72051916752E+02  0.22336835966E+03  0.17120000000E+03 0.  0.
        998    1    1    2    0    0  0.16525136369E+02 -0.12841779670E+02  0.11425106823E+04  0.11427461007E+04  0.10000000000E+02 0.  1.
</event>
<event>
 5    1  0.1658612E-008  0.3855896E+03  0.7957747E-01  0.3427175E+00
         13   -1    0    0    0    0  0.00000000000E+00  0.00000000000E+00  0.14999999963E+04  0.15000000000E+04  0.10566000000E+00 0.  1.
        994   -1    0    0    0    0 -0.00000000000E+00 -0.00000000000E+00  0.11368683772E-12  0.17120000000E+03  0.17120000000E+03 0.  0.
         13    1    1    2    0    0  0.41176258385E+01 -0.14412986394E+02  0.86979552806E+02  0.88261785557E+02  0.10566000000E+00 0.  1.
        994    1    1    2    0    0  0.38245545746E+01  0.75648097697E+01  0.15735570158E+01  0.17141694679E+03  0.17120000000E+03 0.  0.
        998    1    1    2    0    0 -0.79421804130E+01  0.68481766244E+01  0.14114468865E+04  0.14115212677E+04  0.10000000000E+02 0.  1.
</event>
<event>
 5    1  0.1658612E-008  0.3838642E+03  0.7957747E-01  0.3434504E+00
         13   -1    0    0    0    0  0.00000000000E+00  0.00000000000E+00  0.14999999963E+04  0.15000000000E+04  0.10566000000E+00 0. -1.
        994   -1    0    0    0    0 -0.00000000000E+00 -0.00000000000E+00  0.11368683772E-12  0.17120000000E+03  0.17120000000E+03 0.  0.
         13    1    1    2    0    0  0.24430085414E+01 -0.17101421518E+02  0.73115994793E+02  0.75129133945E+02  0.10566000000E+00 0. -1.
        994    1    1    2    0    0  0.31486793209E+00 -0.22892784337E+01  0.22127432332E+01  0.17122989275E+03  0.17120000000E+03 0.  0.
        998    1    1    2    0    0 -0.27578764735E+01  0.19390699952E+02  0.14246712583E+04  0.14248409733E+04  0.10000000000E+02 0. -1.
</event>
<event>
 5    1  0.1658612E-008  0.3698556E+03  0.7957747E-01  0.3496555E+00
         13   -1    0    0    0    0  0.00000000000E+00  0.00000000000E+00  0.14999999963E+04  0.15000000000E+04  0.10566000000E+00 0.  1.
        994   -1    0    0    0    0 -0.00000000000E+00 -0.00000000000E+00  0.11368683772E-12  0.17120000000E+03  0.17120000000E+03 0.  0.
         13    1    1    2    0    0  0.29297930759E+02  0.16619150206E+02  0.59680354190E+02  0.68529706993E+02  0.10566000000E+00 0.  1.
        994    1    1    2    0    0 -0.40911586766E+01 -0.91911991455E+01  0.96947802515E+01  0.17176916046E+03  0.17120000000E+03 0.  0.
        998    1    1    2    0    0 -0.25206772083E+02 -0.74279510607E+01  0.14306248618E+04  0.14309011325E+04  0.10000000000E+02 0.  1.
</event>
<event>
 5    1  0.1658612E-008  0.4595449E+03  0.7957747E-01  0.3164316E+00
         13   -1    0    0    0    0  0.00000000000E+00  0.00000000000E+00  0.14999999963E+04  0.15000000000E+04  0.10566000000E+00 0.  1.
        994   -1    0    0    0    0 -0.00000000000E+00 -0.00000000000E+00  0.11368683772E-12  0.17120000000E+03  0.17120000000E+03 0.  0.
         13    1    1    2    0    0 -0.25247071803E+02  0.80583463485E+02  0.37487317857E+02  0.92392745310E+02  0.10566000000E+00 0.  1.
        994    1    1    2    0    0 -0.11093311188E+03  0.18590467961E+03  0.50414463552E+03  0.57475034470E+03  0.17120000000E+03 0.  0.
        998    1    1    2    0    0  0.13618018368E+03 -0.26648814310E+03  0.95836804290E+03  0.10040569100E+04  0.10000000000E+02 0.  1.
</event>
<event>
 5    1  0.1658612E-008  0.3851502E+03  0.7957747E-01  0.3429036E+00
         13   -1    0    0    0    0  0.00000000000E+00  0.00000000000E+00  0.14999999963E+04  0.15000000000E+04  0.10566000000E+00 0. -1.
        994   -1    0    0    0    0 -0.00000000000E+00 -0.00000000000E+00  0.11368683772E-12  0.17120000000E+03  0.17120000000E+03 0.  0.
         13    1    1    2    0    0 -0.12230704935E+02  0.15276507409E+01  0.52246275930E+02  0.53680614495E+02  0.10566000000E+00 0. -1.
        994    1    1    2    0    0  0.11307774969E+01  0.27885814504E+02  0.41200619582E+01  0.17350882461E+03  0.17120000000E+03 0.  0.
        998    1    1    2    0    0  0.11099927438E+02 -0.29413465245E+02  0.14436336584E+04  0.14440105609E+04  0.10000000000E+02 0. -1.
</event>
<event>
 5    1  0.1658612E-008  0.3822793E+03  0.7957747E-01  0.3441294E+00
         13   -1    0    0    0    0  0.00000000000E+00  0.00000000000E+00  0.14999999963E+04  0.15000000000E+04  0.10566000000E+00 0. -1.
        994   -1    0    0    0    0 -0.00000000000E+00 -0.00000000000E+00  0.11368683772E-12  0.17120000000E+03  0.17120000000E+03 0.  0.
         13    1    1    2    0    0  0.26873681164E+01  0.15032487445E+02  0.38811059008E+02  0.41707398523E+02  0.10566000000E+00 0. -1.
        994    1    1    2    0    0 -0.67835332162E+01 -0.36208563847E+01  0.31831971201E+01  0.17140215771E+03  0.17120000000E+03 0.  0.
        998    1    1    2    0    0  0.40961650998E+01 -0.11411631061E+02  0.14580057402E+04  0.14580904438E+04  0.10000000000E+02 0. -1.
</event>
<event>
 5    1  0.1658612E-008  0.3820638E+03  0.7957747E-01  0.3442221E+00
         13   -1    0    0    0    0  0.00000000000E+00  0.00000000000E+00  0.14999999963E+04  0.15000000000E+04  0.10566000000E+00 0.  1.
        994   -1    0    0    0    0 -0.00000000000E+00 -0.00000000000E+00  0.11368683772E-12  0.17120000000E+03  0.17120000000E+03 0.  0.
         13    1    1    2    0    0 -0.80220221103E+02 -0.24115088926E+02  0.45027034874E+03  0.45799587281E+03  0.10566000000E+00 0.  1.
        994    1    1    2    0    0  0.15403136539E+03 -0.24243747369E+02  0.88532250614E+02  0.24791292868E+03  0.17120000000E+03 0.  0.
        998    1    1    2    0    0 -0.73811144285E+02  0.48358836295E+02  0.96119739692E+03  0.96529119851E+03  0.10000000000E+02 0.  1.
</event>
<event>
 5    1  0.1658612E-008  0.3830234E+03  0.7957747E-01  0.3438099E+00
         13   -1    0    0    0    0  0.00000000000E+00  0.00000000000E+00  0.14999999963E+04  0.15000000000E+04  0.10566000000E+00 0. -1.
        994   -1    0    0    0    0 -0.00000000000E+00 -0.00000000000E+00  0.11368683772E-12  0.17120000000E+03  0.17120000000E+03 0.  0.
         13    1    1    2    0    0 -0.19748366993E+02  0.33411748802E-01  0.75491086648E+02  0.78031496478E+02  0.10566000000E+00 0. -1.
        994    1    1    2    0    0  0.85622082393E+01 -0.13023437234E+00  0.28574270996E+01  0.17143784081E+03  0.17120000000E+03 0.  0.
        998    1    1    2    0    0  0.11186158753E+02  0.96822623541E-01  0.14216514825E+04  0.14217306627E+04  0.10000000000E+02 0. -1.
</event>
<event>
 5    1  0.1658612E-008  0.3838507E+03  0.7957747E-01  0.3434561E+00
         13   -1    0    0    0    0  0.00000000000E+00  0.00000000000E+00  0.14999999963E+04  0.15000000000E+04  0.10566000000E+00 0. -1.
        994   -1    0    0    0    0 -0.00000000000E+00 -0.00000000000E+00  0.11368683772E-12  0.17120000000E+03  0.17120000000E+03 0.  0.
         13    1    1    2    0    0  0.22485214991E+02 -0.12072416574E+02  0.14135956975E+03  0.14364493468E+03  0.10566000000E+00 0. -1.
        994    1    1    2    0    0 -0.17215917563E+02  0.11486657563E+02  0.36169900632E+01  0.17248435795E+03  0.17120000000E+03 0.  0.
        998    1    1    2    0    0 -0.52692974276E+01  0.58575901151E+00  0.13550234365E+04  0.13550707074E+04  0.10000000000E+02 0. -1.
</event>
<event>
 5    1  0.1658612E-008  0.3887412E+03  0.7957747E-01  0.3413959E+00
         13   -1    0    0    0    0  0.00000000000E+00  0.00000000000E+00  0.14999999963E+04  0.15000000000E+04  0.10566000000E+00 0. -1.
        994   -1    0    0    0    0 -0.00000000000E+00 -0.00000000000E+00  0.11368683772E-12  0.17120000000E+03  0.17120000000E+03 0.  0.
         13    1    1    2    0    0  0.18082937179E+02 -0.41422062810E+00 -0.15281237855E+01  0.18152424689E+02  0.10566000000E+00 0. -1.
        994    1    1    2    0    0  0.21371164128E+02 -0.62335198748E+02  0.37660259943E+02  0.18727022945E+03  0.17120000000E+03 0.  0.
        998    1    1    2    0    0 -0.39454101307E+02  0.62749419377E+02  0.14638678601E+04  0.14657773459E+04  0.10000000000E+02 0. -1.
</event>
<event>
 5    1  0.1658612E-008  0.3849604E+03  0.7957747E-01  0.3429840E+00
         13   -1    0    0    0    0  0.00000000000E+00  0.00000000000E+00  0.14999999963E+04  0.15000000000E+04  0.10566000000E+00 0. -1.
        994   -1    0    0    0    0 -0.00000000000E+00 -0.00000000000E+00  0.11368683772E-12  0.17120000000E+03  0.17120000000E+03 0.  0.
         13    1    1    2    0    0  0.95197230998E+01 -0.74377111203E+01  0.48160416900E+02  0.49652609142E+02  0.10566000000E+00 0. -1.
        994    1    1    2    0    0  0.31229007030E+01 -0.85243778221E+01  0.19209421270E+01  0.17145129788E+03  0.17120000000E+03 0.  0.
        998    1    1    2    0    0 -0.12642623803E+02  0.15962088942E+02  0.14499186373E+04  0.14500960930E+04  0.10000000000E+02 0. -1.
</event>
<event>
 5    1  0.1658612E-008  0.3687847E+03  0.7957747E-01  0.3501495E+00
         13   -1    0    0    0    0  0.00000000000E+00  0.00000000000E+00  0.14999999963E+04  0.15000000000E+04  0.10566000000E+00 0.  1.
        994   -1    0    0    0    0 -0.00000000000E+00 -0.00000000000E+00  0.11368683772E-12  0.17120000000E+03  0.17120000000E+03 0.  0.
         13    1    1    2    0    0  0.50262534366E+02 -0.38184995182E+02  0.17301764057E+03  0.18417255857E+03  0.10566000000E+00 0.  1.
        994    1    1    2    0    0 -0.55223790393E+02  0.36847407216E+02  0.25369139986E+02  0.18536567025E+03  0.17120000000E+03 0.  0.
        998    1    1    2    0    0  0.49612560274E+01  0.13375879658E+01  0.13016132157E+04  0.13016617712E+04  0.10000000000E+02 0.  1.
</event>
<event>
 5    1  0.1658612E-008  0.3797635E+03  0.7957747E-01  0.3452189E+00
         13   -1    0    0    0    0  0.00000000000E+00  0.00000000000E+00  0.14999999963E+04  0.15000000000E+04  0.10566000000E+00 0. -1.
        994   -1    0    0    0    0 -0.00000000000E+00 -0.00000000000E+00  0.11368683772E-12  0.17120000000E+03  0.17120000000E+03 0.  0.
         13    1    1    2    0    0  0.46908749152E+01  0.42906539808E+02  0.19663410934E+03  0.20131557214E+03  0.10566000000E+00 0. -1.
        994    1    1    2    0    0 -0.53912825492E+01 -0.38778157689E+02  0.93977628374E+01  0.17587088840E+03  0.17120000000E+03 0.  0.
        998    1    1    2    0    0  0.70040763402E+00 -0.41283821192E+01  0.12939681241E+04  0.12940135395E+04  0.10000000000E+02 0.  0.
</event>
<event>
 5    1  0.1658612E-008  0.3827369E+03  0.7957747E-01  0.3439327E+00
         13   -1    0    0    0    0  0.00000000000E+00  0.00000000000E+00  0.14999999963E+04  0.15000000000E+04  0.10566000000E+00 0.  1.
        994   -1    0    0    0    0 -0.00000000000E+00 -0.00000000000E+00  0.11368683772E-12  0.17120000000E+03  0.17120000000E+03 0.  0.
         13    1    1    2    0    0  0.22018448855E+01 -0.11197690805E+02  0.22642401525E+02  0.25355983734E+02  0.10566000000E+00 0.  1.
        994    1    1    2    0    0 -0.31516106544E+01  0.67460527420E+01  0.29416067712E+01  0.17138709090E+03  0.17120000000E+03 0.  0.
        998    1    1    2    0    0  0.94976576890E+00  0.44516380633E+01  0.14744159880E+04  0.14744569254E+04  0.10000000000E+02 0.  1.
</event>
<event>
 5    1  0.1658612E-008  0.3843017E+03  0.7957747E-01  0.3432639E+00
         13   -1    0    0    0    0  0.00000000000E+00  0.00000000000E+00  0.14999999963E+04  0.15000000000E+04  0.10566000000E+00 0.  1.
        994   -1    0    0    0    0 -0.00000000000E+00 -0.00000000000E+00  0.11368683772E-12  0.17120000000E+03  0.17120000000E+03 0.  0.
         13    1    1    2    0    0 -0.21947559715E+02  0.35739436120E+00  0.12178210944E+03  0.12374456130E+03  0.10566000000E+00 0.  1.
        994    1    1    2    0    0  0.13592908841E+02  0.84503190766E+01  0.28220785064E+01  0.17196970428E+03  0.17120000000E+03 0.  0.
        998    1    1    2    0    0  0.83546508745E+01 -0.88077134378E+01  0.13753958083E+04  0.13754857344E+04  0.10000000000E+02 0.  1.
</event>
<event>
 5    1  0.1658612E-008  0.3724139E+03  0.7957747E-01  0.3484870E+00
         13   -1    0    0    0    0  0.00000000000E+00  0.00000000000E+00  0.14999999963E+04  0.15000000000E+04  0.10566000000E+00 0. -1.
        994   -1    0    0    0    0 -0.00000000000E+00 -0.00000000000E+00  0.11368683772E-12  0.17120000000E+03  0.17120000000E+03 0.  0.
         13    1    1    2    0    0  0.32735193854E+02  0.15118299041E+02  0.47647841545E+02  0.59753525842E+02  0.10566000000E+00 0. -1.
        994    1    1    2    0    0 -0.26121469719E+02 -0.18806976393E+02  0.15882510117E+02  0.17492206170E+03  0.17120000000E+03 0.  0.
        998    1    1    2    0    0 -0.66137241344E+01  0.36886773523E+01  0.14364696446E+04  0.14365244125E+04  0.10000000000E+02 0. -1.
</event>
<event>
 5    1  0.1658612E-008  0.3688676E+03  0.7957747E-01  0.3501111E+00
         13   -1    0    0    0    0  0.00000000000E+00  0.00000000000E+00  0.14999999963E+04  0.15000000000E+04  0.10566000000E+00 0. -1.
        994   -1    0    0    0    0 -0.00000000000E+00 -0.00000000000E+00  0.11368683772E-12  0.17120000000E+03  0.17120000000E+03 0.  0.
         13    1    1    2    0    0  0.14502537850E+03 -0.10252876278E+03  0.64801811306E+03  0.67191665675E+03  0.10566000000E+00 0. -1.
        994    1    1    2    0    0 -0.15537469629E+03  0.10749481671E+03  0.14733399025E+03  0.29447101139E+03  0.17120000000E+03 0.  0.
        998    1    1    2    0    0  0.10349317785E+02 -0.49660539327E+01  0.70464789297E+03  0.70481233186E+03  0.10000000000E+02 0.  0.
</event>
<event>
 5    1  0.1658612E-008  0.3854424E+03  0.7957747E-01  0.3427798E+00
         13   -1    0    0    0    0  0.00000000000E+00  0.00000000000E+00  0.14999999963E+04  0.15000000000E+04  0.10566000000E+00 0. -1.
        994   -1    0    0    0    0 -0.00000000000E+00 -0.00000000000E+00  0.11368683772E-12  0.17120000000E+03  0.17120000000E+03 0.  0.
         13    1    1    2    0    0  0.10175560266E+01 -0.11243314875E+02  0.46448677653E+02  0.47801028958E+02  0.10566000000E+00 0. -1.
        994    1    1    2    0    0 -0.28355265489E+01  0.30959231382E+01  0.14685380413E+01  0.17125776349E+03  0.17120000000E+03 0.  0.
        998    1    1    2    0    0  0.18179705223E+01  0.81473917364E+01  0.14520827806E+04  0.14521412076E+04  0.10000000000E+02 0. -1.
</event>
<event>
 5    1  0.1658612E-008  0.4202483E+03  0.7957747E-01  0.3292683E+00
         13   -1    0    0    0    0  0.00000000000E+00  0.00000000000E+00  0.14999999963E+04  0.15000000000E+04  0.10566000000E+00 0.  1.
        994   -1    0    0    0    0 -0.00000000000E+00 -0.00000000000E+00  0.11368683772E-12  0.17120000000E+03  0.17120000000E+03 0.  0.
         13    1    1    2    0    0  0.14108570816E+03 -0.50282601992E+02  0.20874037052E+03  0.25691646611E+03  0.10566000000E+00 0.  1.
        994    1    1    2    0    0 -0.15326664380E+03  0.47934403169E+02  0.16268051873E+03  0.28559195066E+03  0.17120000000E+03 0.  0.
        998    1    1    2    0    0  0.12180935643E+02  0.23481988229E+01  0.11285791070E+04  0.11286915832E+04  0.10000000000E+02 0.  0.
</event>
<event>
 5    1  0.1658612E-008  0.3718044E+03  0.7957747E-01  0.3487639E+00
         13   -1    0    0    0    0  0.00000000000E+00  0.00000000000E+00  0.14999999963E+04  0.15000000000E+04  0.10566000000E+00 0. -1.
        994   -1    0    0    0    0 -0.00000000000E+00 -0.00000000000E+00  0.11368683772E-12  0.17120000000E+03  0.17120000000E+03 0.  0.
         13    1    1    2    0    0  0.27054823824E+02  0.42021593364E+02  0.91740740038E+02  0.10447082056E+03  0.10566000000E+00 0. -1.
        994    1    1    2    0    0 -0.89684944596E+02 -0.13154559828E+02  0.41394508561E+02  0.19808931589E+03  0.17120000000E+03 0.  0.
        998    1    1    2    0    0  0.62630120771E+02 -0.28867033536E+02  0.13668647477E+04  0.13686398636E+04  0.10000000000E+02 0. -1.
</event>
<event>
 5    1  0.1658612E-008  0.3854678E+03  0.7957747E-01  0.3427691E+00
         13   -1    0    0    0    0  0.00000000000E+00  0.00000000000E+00  0.14999999963E+04  0.15000000000E+04  0.10566000000E+00 0. -1.
        994   -1    0    0    0    0 -0.00000000000E+00 -0.00000000000E+00  0.11368683772E-12  0.17120000000E+03  0.17120000000E+03 0.  0.
         13    1    1    2    0    0 -0.12983125013E+02  0.68509945800E+01  0.77291023261E+02  0.78672810441E+02  0.10566000000E+00 0. -1.
        994    1    1    2    0    0  0.12063422424E+02  0.15546473271E+01  0.18840076936E+01  0.17164187302E+03  0.17120000000E+03 0.  0.
        998    1    1    2    0    0  0.91970258909E+00 -0.84056419071E+01  0.14208249653E+04  0.14208853165E+04  0.10000000000E+02 0. -1.
</event>
<event>
 5    1  0.1658612E-008  0.3771149E+03  0.7957747E-01  0.3463818E+00
         13   -1    0    0    0    0  0.00000000000E+00  0.00000000000E+00  0.14999999963E+04  0.15000000000E+04  0.10566000000E+00 0.  1.
        994   -1    0    0    0    0 -0.00000000000E+00 -0.00000000000E+00  0.11368683772E-12  0.17120000000E+03  0.17120000000E+03 0.  0.
         13    1    1    2    0    0  0.10822754546E+02 -0.44710499683E+01  0.96242602112E+01  0.15157831390E+02  0.10566000000E+00 0.  1.
        994    1    1    2    0    0 -0.10871396504E+02  0.90183492041E+01  0.62703415716E+01  0.17189611708E+03  0.17120000000E+03 0.  0.
        998    1    1    2    0    0  0.48641957403E-01 -0.45472992359E+01  0.14841053945E+04  0.14841460515E+04  0.10000000000E+02 0.  1.
</event>
<event>
 5    1  0.1658612E-008  0.3832825E+03  0.7957747E-01  0.3436989E+00
         13   -1    0    0    0    0  0.00000000000E+00  0.00000000000E+00  0.14999999963E+04  0.15000000000E+04  0.10566000000E+00 0.  1.
        994   -1    0    0    0    0 -0.00000000000E+00 -0.00000000000E+00  0.11368683772E-12  0.17120000000E+03  0.17120000000E+03 0.  0.
         13    1    1    2    0    0 -0.18885086973E+02 -0.10535037624E+02  0.48385654828E+01  0.22159792591E+02  0.10566000000E+00 0.  1.
        994    1    1    2    0    0  0.13246392096E+02  0.19527360186E+02  0.20186790233E+02  0.17399348034E+03  0.17120000000E+03 0.  0.
        998    1    1    2    0    0  0.56386948767E+01 -0.89923225619E+01  0.14749746406E+04  0.14750467271E+04  0.10000000000E+02 0.  1.
</event>
<event>
 5    1  0.1658612E-008  0.3844893E+03  0.7957747E-01  0.3431841E+00
         13   -1    0    0    0    0  0.00000000000E+00  0.00000000000E+00  0.14999999963E+04  0.15000000000E+04  0.10566000000E+00 0. -1.
        994   -1    0    0    0    0 -0.00000000000E+00 -0.00000000000E+00  0.11368683772E-12  0.17120000000E+03  0.17120000000E+03 0.  0.
         13    1    1    2    0    0 -0.17058972182E+02  0.11852861125E+02  0.11159621836E+03  0.11351310922E+03  0.10566000000E+00 0. -1.
        994    1    1    2    0    0  0.66587037176E+01 -0.19005780470E+02  0.32209697729E+01  0.17241047727E+03  0.17120000000E+03 0.  0.
        998    1    1    2    0    0  0.10400268464E+02  0.71529193454E+01  0.13851828082E+04  0.13852764135E+04  0.10000000000E+02 0. -1.
</event>
<event>
 5    1  0.1658612E-008  0.3702850E+03  0.7957747E-01  0.3494582E+00
         13   -1    0    0    0    0  0.00000000000E+00  0.00000000000E+00  0.14999999963E+04  0.15000000000E+04  0.10566000000E+00 0.  1.
        994   -1    0    0    0    0 -0.00000000000E+00 -0.00000000000E+00  0.11368683772E-12  0.17120000000E+03  0.17120000000E+03 0.  0.
         13    1    1    2    0    0  0.20063379120E+02  0.11031433337E+01  0.18332450749E+02  0.27200110688E+02  0.10566000000E+00 0.  1.
        994    1    1    2    0    0 -0.72100090881E+01 -0.44770319618E+02  0.16257097047E+02  0.17784852812E+03  0.17120000000E+03 0.  0.
        998    1    1    2    0    0 -0.12853370032E+02  0.43667176284E+02  0.14654104485E+04  0.14661513612E+04  0.10000000000E+02 0.  1.
</event>
<event>
 5    1  0.1658612E-008  0.3844736E+03  0.7957747E-01  0.3431908E+00
         13   -1    0    0    0    0  0.00000000000E+00  0.00000000000E+00  0.14999999963E+04  0.15000000000E+04  0.10566000000E+00 0. -1.
        994   -1    0    0    0    0 -0.00000000000E+00 -0.00000000000E+00  0.11368683772E-12  0.17120000000E+03  0.17120000000E+03 0.  0.
         13    1    1    2    0    0  0.15491259296E+03  0.15502418239E+03  0.95246723258E+03  0.97735574326E+03  0.10566000000E+00 0. -1.
        994    1    1    2    0    0 -0.17263684549E+03 -0.17841620949E+03  0.24178864391E+03  0.38653203303E+03  0.17120000000E+03 0.  0.
        998    1    1    2    0    0  0.17724252527E+02  0.23392027107E+02  0.30574411979E+03  0.30731222372E+03  0.10000000000E+02 0.  1.
</event>
<event>
 5    1  0.1658612E-008  0.3846292E+03  0.7957747E-01  0.3431246E+00
         13   -1    0    0    0    0  0.00000000000E+00  0.00000000000E+00  0.14999999963E+04  0.15000000000E+04  0.10566000000E+00 0.  1.
        994   -1    0    0    0    0 -0.00000000000E+00 -0.00000000000E+00  0.11368683772E-12  0.17120000000E+03  0.17120000000E+03 0.  0.
         13    1    1    2    0    0  0.14152398777E+02  0.10931954364E+02  0.94618597647E+02  0.96293759934E+02  0.10566000000E+00 0.  1.
        994    1    1    2    0    0 -0.26834816879E+01  0.89256647373E+00  0.18406946657E+01  0.17123325000E+03  0.17120000000E+03 0.  0.
        998    1    1    2    0    0 -0.11468917090E+02 -0.11824520838E+02  0.14035407040E+04  0.14036729901E+04  0.10000000000E+02 0.  1.
</event>
<event>
 5    1  0.1658612E-008  0.3807423E+03  0.7957747E-01  0.3447933E+00
         13   -1    0    0    0    0  0.00000000000E+00  0.00000000000E+00  0.14999999963E+04  0.15000000000E+04  0.10566000000E+00 0. -1.
        994   -1    0    0    0    0 -0.00000000000E+00 -0.00000000000E+00  0.11368683772E-12  0.17120000000E+03  0.17120000000E+03 0.  0.
         13    1    1    2    0    0 -0.55251564875E+02  0.20412417424E+02  0.92768815530E+02  0.10988842753E+03  0.10566000000E+00 0. -1.
        994    1    1    2    0    0  0.48975423319E+02 -0.32898775921E+02  0.29494110191E+02  0.18346733792E+03  0.17120000000E+03 0.  0.
        998    1    1    2    0    0  0.62761415552E+01  0.12486358498E+02  0.13777370706E+04  0.13778442346E+04  0.10000000000E+02 0. -1.
</event>
<event>
 5    1  0.1658612E-008  0.3838612E+03  0.7957747E-01  0.3434517E+00
         13   -1    0    0    0    0  0.00000000000E+00  0.00000000000E+00  0.14999999963E+04  0.15000000000E+04  0.10566000000E+00 0.  1.
        994   -1    0    0    0    0 -0.00000000000E+00 -0.00000000000E+00  0.11368683772E-12  0.17120000000E+03  0.17120000000E+03 0.  0.
         13    1    1    2    0    0  0.18003486449E+02 -0.95157093705E+01  0.99819115910E+02  0.10187512608E+03  0.10566000000E+00 0.  1.
        994    1    1    2    0    0 -0.70792611026E+01 -0.47271112079E+01  0.24358299010E+01  0.17142880384E+03  0.17120000000E+03 0.  0.
        998    1    1    2    0    0 -0.10924225346E+02  0.14242820578E+02  0.13977450505E+04  0.13978960701E+04  0.10000000000E+02 0.  1.
</event>
<event>
 5    1  0.1658612E-008  0.3817803E+03  0.7957747E-01  0.3443443E+00
         13   -1    0    0    0    0  0.00000000000E+00  0.00000000000E+00  0.14999999963E+04  0.15000000000E+04  0.10566000000E+00 0.  1.
        994   -1    0    0    0    0 -0.00000000000E+00 -0.00000000000E+00  0.11368683772E-12  0.17120000000E+03  0.17120000000E+03 0.  0.
         13    1    1    2    0    0  0.13857877517E+02 -0.16898736765E+01  0.29405344152E+02  0.32551219195E+02  0.10566000000E+00 0.  1.
        994    1    1    2    0    0 -0.27548668862E+01  0.12023401940E+02  0.37429711843E+01  0.17168459837E+03  0.17120000000E+03 0.  0.
        998    1    1    2    0    0 -0.11103010631E+02 -0.10333528263E+02  0.14668516809E+04  0.14669641824E+04  0.10000000000E+02 0.  1.
</event>
<event>
 5    1  0.1658612E-008  0.3755703E+03  0.7957747E-01  0.3470676E+00
         13   -1    0    0    0    0  0.00000000000E+00  0.00000000000E+00  0.14999999963E+04  0.15000000000E+04  0.10566000000E+00 0.  1.
        994   -1    0    0    0    0 -0.00000000000E+00 -0.00000000000E+00  0.11368683772E-12  0.17120000000E+03  0.17120000000E+03 0.  0.
         13    1    1    2    0    0  0.74886665579E+02  0.40449292102E+02  0.41171156567E+03  0.42041715282E+03  0.10566000000E+00 0.  1.
        994    1    1    2    0    0 -0.77646705395E+02 -0.33038146553E+02  0.30940336066E+02  0.19335789196E+03  0.17120000000E+03 0.  0.
        998    1    1    2    0    0  0.27600398164E+01 -0.74111455481E+01  0.10573480945E+04  0.10574249552E+04  0.10000000000E+02 0.  1.
</event>
<event>
 5    1  0.1658612E-008  0.3778964E+03  0.7957747E-01  0.3460369E+00
         13   -1    0    0    0    0  0.00000000000E+00  0.00000000000E+00  0.14999999963E+04  0.15000000000E+04  0.10566000000E+00 0. -1.
        994   -1    0    0    0    0 -0.00000000000E+00 -0.00000000000E+00  0.11368683772E-12  0.17120000000E+03  0.17120000000E+03 0.  0.
         13    1    1    2    0    0 -0.60180947809E+01 -0.22344702351E+02  0.49034940472E+02  0.54221211155E+02  0.10566000000E+00 0. -1.
        994    1    1    2    0    0  0.44806826104E+01  0.17325982722E+02  0.62776614701E+01  0.17224725028E+03  0.17120000000E+03 0.  0.
        998    1    1    2    0    0  0.15374121705E+01  0.50187196291E+01  0.14446873943E+04  0.14447315386E+04  0.10000000000E+02 0. -1.
</event>
<event>
 5    1  0.1658612E-008  0.3786797E+03  0.7957747E-01  0.3456927E+00
         13   -1    0    0    0    0  0.00000000000E+00  0.00000000000E+00  0.14999999963E+04  0.15000000000E+04  0.10566000000E+00 0.  1.
        994   -1    0    0    0    0 -0.00000000000E+00 -0.00000000000E+00  0.11368683772E-12  0.17120000000E+03  0.17120000000E+03 0.  0.
         13    1    1    2    0    0 -0.40171120018E+02  0.78670391389E+02  0.50187951623E+03  0.50959376894E+03  0.10566000000E+00 0.  1.
        994    1    1    2    0    0  0.41210136997E+02 -0.83571428893E+02  0.34529036187E+02  0.19794987613E+03  0.17120000000E+03 0.  0.
        998    1    1    2    0    0 -0.10390169790E+01  0.49010375037E+01  0.96359144386E+03  0.96365635493E+03  0.10000000000E+02 0.  0.
</event>
<event>
 5    1  0.1658612E-008  0.3698867E+03  0.7957747E-01  0.3496412E+00
         13   -1    0    0    0    0  0.00000000000E+00  0.00000000000E+00  0.14999999963E+04  0.15000000000E+04  0.10566000000E+00 0.  1.
        994   -1    0    0    0    0 -0.00000000000E+00 -0.00000000000E+00  0.11368683772E-12  0.17120000000E+03  0.17120000000E+03 0.  0.
         13    1    1    2    0    0 -0.16594427860E+02  0.44971228304E+02  0.11072256267E+03  0.12065356795E+03  0.10566000000E+00 0.  1.
        994    1    1    2    0    0 -0.12642503537E+01 -0.86645046519E+01  0.11146912417E+02  0.17178581323E+03  0.17120000000E+03 0.  0.
        998    1    1    2    0    0  0.17858678214E+02 -0.36306723652E+02  0.13781305212E+04  0.13787606188E+04  0.10000000000E+02 0.  1.
</event>
<event>
 5    1  0.1658612E-008  0.3697038E+03  0.7957747E-01  0.3497253E+00
         13   -1    0    0    0    0  0.00000000000E+00  0.00000000000E+00  0.14999999963E+04  0.15000000000E+04  0.10566000000E+00 0.  1.
        994   -1    0    0    0    0 -0.00000000000E+00 -0.00000000000E+00  0.11368683772E-12  0.17120000000E+03  0.17120000000E+03 0.  0.
         13    1    1    2    0    0 -0.30851805964E+02  0.21980252485E+02  0.55294978526E+02  0.67026198197E+02  0.10566000000E+00 0.  1.
        994    1    1    2    0    0  0.57504650904E+02 -0.34674026301E+02  0.26700007468E+02  0.18582627202E+03  0.17120000000E+03 0.  0.
        998    1    1    2    0    0 -0.26652844941E+02  0.12693773816E+02  0.14180050103E+04  0.14183475298E+04  0.10000000000E+02 0.  1.
</event>
<event>
 5    1  0.1658612E-008  0.3729947E+03  0.7957747E-01  0.3482240E+00
         13   -1    0    0    0    0  0.00000000000E+00  0.00000000000E+00  0.14999999963E+04  0.15000000000E+04  0.10566000000E+00 0. -1.
        994   -1    0    0    0    0 -0.00000000000E+00 -0.00000000000E+00  0.11368683772E-12  0.17120000000E+03  0.17120000000E+03 0.  0.
         13    1    1    2    0    0  0.13168677066E+02 -0.34742084496E+01  0.83809648180E+01  0.15991745224E+02  0.10566000000E+00 0. -1.
        994    1    1    2    0    0 -0.22766458643E+02 -0.19678812080E+02  0.10817551680E+02  0.17416092188E+03  0.17120000000E+03 0.  0.
        998    1    1    2    0    0  0.95977815773E+01  0.23153020530E+02  0.14808014798E+04  0.14810473329E+04  0.10000000000E+02 0. -1.
</event>
<event>
 5    1  0.1658612E-008  0.3708023E+03  0.7957747E-01  0.3492212E+00
         13   -1    0    0    0    0  0.00000000000E+00  0.00000000000E+00  0.14999999963E+04  0.15000000000E+04  0.10566000000E+00 0. -1.
        994   -1    0    0    0    0 -0.00000000000E+00 -0.00000000000E+00  0.11368683772E-12  0.17120000000E+03  0.17120000000E+03 0.  0.
         13    1    1    2    0    0  0.47821014684E+02  0.14310524690E+02  0.13055818313E+03  0.13977514410E+03  0.10566000000E+00 0. -1.
        994    1    1    2    0    0 -0.39349903993E+02 -0.17944210576E+02  0.15327399754E+02  0.17724214742E+03  0.17120000000E+03 0.  0.
        998    1    1    2    0    0 -0.84711106909E+01  0.36336858859E+01  0.13541144134E+04  0.13541827085E+04  0.10000000000E+02 0. -1.
</event>
<event>
 5    1  0.1658612E-008  0.3791737E+03  0.7957747E-01  0.3454764E+00
         13   -1    0    0    0    0  0.00000000000E+00  0.00000000000E+00  0.14999999963E+04  0.15000000000E+04  0.10566000000E+00 0. -1.
        994   -1    0    0    0    0 -0.00000000000E+00 -0.00000000000E+00  0.11368683772E-12  0.17120000000E+03  0.17120000000E+03 0.  0.
         13    1    1    2    0    0  0.14190809530E+03 -0.74494636977E+02  0.86567835309E+03  0.88038990261E+03  0.10566000000E+00 0. -1.
        994    1    1    2    0    0 -0.14533146406E+03  0.85140009082E+02  0.10640676441E+03  0.26268211797E+03  0.17120000000E+03 0.  0.
        998    1    1    2    0    0  0.34233687559E+01 -0.10645372106E+02  0.52791487878E+03  0.52812797941E+03  0.10000000000E+02 0.  1.
</event>
<event>
 5    1  0.1658612E-008  0.3851060E+03  0.7957747E-01  0.3429223E+00
         13   -1    0    0    0    0  0.00000000000E+00  0.00000000000E+00  0.14999999963E+04  0.15000000000E+04  0.10566000000E+00 0. -1.
        994   -1    0    0    0    0 -0.00000000000E+00 -0.00000000000E+00  0.11368683772E-12  0.17120000000E+03  0.17120000000E+03 0.  0.
         13    1    1    2    0    0 -0.10644282029E+02  0.24155396416E+00  0.33725190271E+02  0.35366067227E+02  0.10566000000E+00 0. -1.
        994    1    1    2    0    0  0.20066530990E+02  0.33503990035E+01  0.29393943580E+01  0.17242961137E+03  0.17120000000E+03 0.  0.
        998    1    1    2    0    0 -0.94222489604E+01 -0.35919529677E+01  0.14633354116E+04  0.14634043214E+04  0.10000000000E+02 0. -1.
</event>
<event>
 5    1  0.1658612E-008  0.3817188E+03  0.7957747E-01  0.3443708E+00
         13   -1    0    0    0    0  0.00000000000E+00  0.00000000000E+00  0.14999999963E+04  0.15000000000E+04  0.10566000000E+00 0.  1.
        994   -1    0    0    0    0 -0.00000000000E+00 -0.00000000000E+00  0.11368683772E-12  0.17120000000E+03  0.17120000000E+03 0.  0.
         13    1    1    2    0    0 -0.64508275829E+02  0.13369143077E+01  0.38865437133E+03  0.39397377642E+03  0.10566000000E+00 0.  1.
        994    1    1    2    0    0  0.80686888965E+02 -0.10114518581E+02  0.25569799321E+02  0.19124835208E+03  0.17120000000E+03 0.  0.
        998    1    1    2    0    0 -0.16178613136E+02  0.87776042738E+01  0.10857758256E+04  0.10859778715E+04  0.10000000000E+02 0.  1.
</event>
<event>
 5    1  0.1658612E-008  0.3837355E+03  0.7957747E-01  0.3435053E+00
         13   -1    0    0    0    0  0.00000000000E+00  0.00000000000E+00  0.14999999963E+04  0.15000000000E+04  0.10566000000E+00 0.  1.
        994   -1    0    0    0    0 -0.00000000000E+00 -0.00000000000E+00  0.11368683772E-12  0.17120000000E+03  0.17120000000E+03 0.  0.
         13    1    1    2    0    0 -0.21010090701E+02 -0.55713032320E+01  0.10616520437E+03  0.10836754640E+03  0.10566000000E+00 0.  1.
        994    1    1    2    0    0  0.79524314326E+01  0.11991319817E+02  0.29431874781E+01  0.17182879639E+03  0.17120000000E+03 0.  0.
        998    1    1    2    0    0  0.13057659268E+02 -0.64200165854E+01  0.13908916044E+04  0.13910036572E+04  0.10000000000E+02 0.  1.
</event>
<event>
 5    1  0.1658612E-008  0.3826426E+03  0.7957747E-01  0.3439732E+00
         13   -1    0    0    0    0  0.00000000000E+00  0.00000000000E+00  0.14999999963E+04  0.15000000000E+04  0.10566000000E+00 0.  1.
        994   -1    0    0    0    0 -0.00000000000E+00 -0.00000000000E+00  0.11368683772E-12  0.17120000000E+03  0.17120000000E+03 0.  0.
         13    1    1    2    0    0  0.14539153441E+02 -0.23759455683E+02  0.13384539261E+03  0.13671319981E+03  0.10566000000E+00 0.  1.
        994    1    1    2    0    0 -0.11917043859E+02  0.16713536060E+02  0.42026851684E+01  0.17247742109E+03  0.17120000000E+03 0.  0.
        998    1    1    2    0    0 -0.26221095819E+01  0.70459196234E+01  0.13619519185E+04  0.13620093791E+04  0.10000000000E+02 0.  1.
</event>
<event>
 5    1  0.1658612E-008  0.3787073E+03  0.7957747E-01  0.3456807E+00
         13   -1    0    0    0    0  0.00000000000E+00  0.00000000000E+00  0.14999999963E+04  0.15000000000E+04  0.10566000000E+00 0. -1.
        994   -1    0    0    0    0 -0.00000000000E+00 -0.00000000000E+00  0.11368683772E-12  0.17120000000E+03  0.17120000000E+03 0.  0.
         13    1    1    2    0    0 -0.27800324645E+01 -0.14182084457E+02  0.19955340865E+02  0.24639133368E+02  0.10566000000E+00 0. -1.
        994    1    1    2    0    0 -0.14394137725E+02  0.97671966294E+01  0.58036444715E+01  0.17217930079E+03  0.17120000000E+03 0.  0.
        998    1    1    2    0    0  0.17174170190E+02  0.44148878272E+01  0.14742410109E+04  0.14743815658E+04  0.10000000000E+02 0. -1.
</event>
<event>
 5    1  0.1658612E-008  0.3698152E+03  0.7957747E-01  0.3496740E+00
         13   -1    0    0    0    0  0.00000000000E+00  0.00000000000E+00  0.14999999963E+04  0.15000000000E+04  0.10566000000E+00 0.  1.
        994   -1    0    0    0    0 -0.00000000000E+00 -0.00000000000E+00  0.11368683772E-12  0.17120000000E+03  0.17120000000E+03 0.  0.
         13    1    1    2    0    0 -0.76528571621E+01  0.21910598794E+02  0.22178999387E+02  0.32102332316E+02  0.10566000000E+00 0.  1.
        994    1    1    2    0    0 -0.55889284910E+02  0.78011750935E+01  0.22051017135E+02  0.18160439933E+03  0.17120000000E+03 0.  0.
        998    1    1    2    0    0  0.63542142072E+02 -0.29711773888E+02  0.14557699798E+04  0.14574932684E+04  0.10000000000E+02 0.  1.
</event>
<event>
 5    1  0.1658612E-008  0.3833785E+03  0.7957747E-01  0.3436578E+00
         13   -1    0    0    0    0  0.00000000000E+00  0.00000000000E+00  0.14999999963E+04  0.15000000000E+04  0.10566000000E+00 0.  1.
        994   -1    0    0    0    0 -0.00000000000E+00 -0.00000000000E+00  0.11368683772E-12  0.17120000000E+03  0.17120000000E+03 0.  0.
         13    1    1    2    0    0 -0.50168096635E+01 -0.98885282836E+01  0.24084493207E+02  0.26514625169E+02  0.10566000000E+00 0.  1.
        994    1    1    2    0    0  0.47810920415E+01  0.10375743296E+02  0.28689068273E+01  0.17160473629E+03  0.17120000000E+03 0.  0.
        998    1    1    2    0    0  0.23571762200E+00 -0.48721501257E+00  0.14730465962E+04  0.14730806385E+04  0.10000000000E+02 0.  1.
</event>
<event>
 5    1  0.1658612E-008  0.3813554E+03  0.7957747E-01  0.3445278E+00
         13   -1    0    0    0    0  0.00000000000E+00  0.00000000000E+00  0.14999999963E+04  0.15000000000E+04  0.10566000000E+00 0.  1.
        994   -1    0    0    0    0 -0.00000000000E+00 -0.00000000000E+00  0.11368683772E-12  0.17120000000E+03  0.17120000000E+03 0.  0.
         13    1    1    2    0    0 -0.19982090064E+02  0.37328628076E+02  0.22717799073E+03  0.23108994144E+03  0.10566000000E+00 0.  1.
        994    1    1    2    0    0  0.10406365379E+02 -0.39618780892E+02  0.90549235770E+01  0.17626506143E+03  0.17120000000E+03 0.  0.
        998    1    1    2    0    0  0.95757246850E+01  0.22901528164E+01  0.12637670820E+04  0.12638449971E+04  0.10000000000E+02 0.  1.
</event>
<event>
 5    1  0.1658612E-008  0.3843083E+03  0.7957747E-01  0.3432611E+00
         13   -1    0    0    0    0  0.00000000000E+00  0.00000000000E+00  0.14999999963E+04  0.15000000000E+04  0.10566000000E+00 0.  1.
        994   -1    0    0    0    0 -0.00000000000E+00 -0.00000000000E+00  0.11368683772E-12  0.17120000000E+03  0.17120000000E+03 0.  0.
         13    1    1    2    0    0  0.15119183719E+02 -0.24803266732E+01  0.62109415654E+02  0.63971340565E+02  0.10566000000E+00 0.  1.
        994    1    1    2    0    0 -0.89022689756E+00  0.38878095118E+01  0.20263729659E+01  0.17125844141E+03  0.17120000000E+03 0.  0.
        998    1    1    2    0    0 -0.14228956822E+02 -0.14074828386E+01  0.14358642077E+04  0.14359702180E+04  0.10000000000E+02 0.  1.
</event>
<event>
 5    1  0.1658612E-008  0.3834482E+03  0.7957747E-01  0.3436280E+00
         13   -1    0    0    0    0  0.00000000000E+00  0.00000000000E+00  0.14999999963E+04  0.15000000000E+04  0.10566000000E+00 0. -1.
        994   -1    0    0    0    0 -0.00000000000E+00 -0.00000000000E+00  0.11368683772E-12  0.17120000000E+03  0.17120000000E+03 0.  0.
         13    1    1    2    0    0  0.26563470166E+01  0.21917189352E+02  0.11200503357E+03  0.11416022985E+03  0.10566000000E+00 0. -1.
        994    1    1    2    0    0  0.25049551020E+01  0.85833285687E+00  0.24257188385E+01  0.17123765838E+03  0.17120000000E+03 0.  0.
        998    1    1    2    0    0 -0.51613021186E+01 -0.22775522208E+02  0.13855692439E+04  0.13858021118E+04  0.10000000000E+02 0. -1.
</event>
<event>
 5    1  0.1658612E-008  0.3760432E+03  0.7957747E-01  0.3468570E+00
         13   -1    0    0    0    0  0.00000000000E+00  0.00000000000E+00  0.14999999963E+04  0.15000000000E+04  0.10566000000E+00 0.  1.
        994   -1    0    0    0    0 -0.00000000000E+00 -0.00000000000E+00  0.11368683772E-12  0.17120000000E+03  0.17120000000E+03 0.  0.
         13    1    1    2    0    0 -0.32097544740E+02  0.90128293699E+00  0.81650627562E+02  0.87737681954E+02  0.10566000000E+00 0.  1.
        994    1    1    2    0    0  0.20031937033E+02 -0.19476668493E+01  0.75172796978E+01  0.17254281034E+03  0.17120000000E+03 0.  0.
        998    1    1    2    0    0  0.12065607707E+02  0.10463839123E+01  0.14108320890E+04  0.14109195077E+04  0.10000000000E+02 0.  0.
</event>
<event>
 5    1  0.1658612E-008  0.3822797E+03  0.7957747E-01  0.3441292E+00
         13   -1    0    0    0    0  0.00000000000E+00  0.00000000000E+00  0.14999999963E+04  0.15000000000E+04  0.10566000000E+00 0.  1.
        994   -1    0    0    0    0 -0.00000000000E+00 -0.00000000000E+00  0.11368683772E-12  0.17120000000E+03  0.17120000000E+03 0.  0.
         13    1    1    2    0    0  0.80286054773E+01  0.16325260960E+02  0.54017105665E+02  0.56998522084E+02  0.10566000000E+00 0.  1.
        994    1    1    2    0    0 -0.54638694642E+01 -0.12449342335E+02  0.36002862908E+01  0.17177672152E+03  0.17120000000E+03 0.  0.
        998    1    1    2    0    0 -0.25647360131E+01 -0.38759186251E+01  0.14423826043E+04  0.14424247564E+04  0.10000000000E+02 0.  1.
</event>
<event>
 5    1  0.1658612E-008  0.3695511E+03  0.7957747E-01  0.3497956E+00
         13   -1    0    0    0    0  0.00000000000E+00  0.00000000000E+00  0.14999999963E+04  0.15000000000E+04  0.10566000000E+00 0.  1.
        994   -1    0    0    0    0 -0.00000000000E+00 -0.00000000000E+00  0.11368683772E-12  0.17120000000E+03  0.17120000000E+03 0.  0.
         13    1    1    2    0    0 -0.31998272236E+02  0.39997771028E+01  0.53823033812E+02  0.62744065662E+02  0.10566000000E+00 0.  1.
        994    1    1    2    0    0 -0.42438046476E+02  0.45996837339E+02  0.24500727963E+02  0.18391960881E+03  0.17120000000E+03 0.  0.
        998    1    1    2    0    0  0.74436318712E+02 -0.49996614442E+02  0.14216762345E+04  0.14245363255E+04  0.10000000000E+02 0.  1.
</event>
<event>
 5    1  0.1658612E-008  0.3846588E+03  0.7957747E-01  0.3431121E+00
         13   -1    0    0    0    0  0.00000000000E+00  0.00000000000E+00  0.14999999963E+04  0.15000000000E+04  0.10566000000E+00 0. -1.
        994   -1    0    0    0    0 -0.00000000000E+00 -0.00000000000E+00  0.11368683772E-12  0.17120000000E+03  0.17120000000E+03 0.  0.
         13    1    1    2    0    0  0.84175688858E+01  0.11299649348E+02  0.53908008494E+02  0.55719135718E+02  0.10566000000E+00 0. -1.
        994    1    1    2    0    0 -0.10867324339E+02 -0.79994507416E+01  0.23993486658E+01  0.17174774183E+03  0.17120000000E+03 0.  0.
        998    1    1    2    0    0  0.24497554531E+01 -0.33001986061E+01  0.14436926391E+04  0.14437331225E+04  0.10000000000E+02 0. -1.
</event>
<event>
 5    1  0.1658612E-008  0.3690219E+03  0.7957747E-01  0.3500398E+00
         13   -1    0    0    0    0  0.00000000000E+00  0.00000000000E+00  0.14999999963E+04  0.15000000000E+04  0.10566000000E+00 0.  1.
        994   -1    0    0    0    0 -0.00000000000E+00 -0.00000000000E+00  0.11368683772E-12  0.17120000000E+03  0.17120000000E+03 0.  0.
         13    1    1    2    0    0 -0.35521792093E+02 -0.28888840224E+02  0.90935806615E+02  0.10181205671E+03  0.10566000000E+00 0.  1.
        994    1    1    2    0    0  0.46544247941E+02  0.17948687906E+02  0.19143429446E+02  0.17934445435E+03  0.17120000000E+03 0.  0.
        998    1    1    2    0    0 -0.11022455848E+02  0.10940152318E+02  0.13899207602E+04  0.13900434889E+04  0.10000000000E+02 0.  1.
</event>
<event>
 5    1  0.1658612E-008  0.3798471E+03  0.7957747E-01  0.3451825E+00
         13   -1    0    0    0    0  0.00000000000E+00  0.00000000000E+00  0.14999999963E+04  0.15000000000E+04  0.10566000000E+00 0.  1.
        994   -1    0    0    0    0 -0.00000000000E+00 -0.00000000000E+00  0.11368683772E-12  0.17120000000E+03  0.17120000000E+03 0.  0.
         13    1    1    2    0    0 -0.46845211901E+02  0.33989193640E+01  0.27296529607E+03  0.27697669677E+03  0.10566000000E+00 0.  1.
        994    1    1    2    0    0  0.20773416669E+02 -0.22596441386E+02  0.73678226879E+01  0.17408578005E+03  0.17120000000E+03 0.  0.
        998    1    1    2    0    0  0.26071795231E+02  0.19197522022E+02  0.12196668775E+04  0.12201375232E+04  0.10000000000E+02 0.  1.
</event>
<event>
 5    1  0.1658612E-008  0.3794890E+03  0.7957747E-01  0.3453386E+00
         13   -1    0    0    0    0  0.00000000000E+00  0.00000000000E+00  0.14999999963E+04  0.15000000000E+04  0.10566000000E+00 0. -1.
        994   -1    0    0    0    0 -0.00000000000E+00 -0.00000000000E+00  0.11368683772E-12  0.17120000000E+03  0.17120000000E+03 0.  0.
         13    1    1    2    0    0  0.69979812648E+02  0.17405756464E+03  0.94723502969E+03  0.96563317188E+03  0.10566000000E+00 0. -1.
        994    1    1    2    0    0 -0.60026333230E+02 -0.18645346868E+03  0.14590045260E+03  0.29826907103E+03  0.17120000000E+03 0.  0.
        998    1    1    2    0    0 -0.99534794181E+01  0.12395904041E+02  0.40686451399E+03  0.40729775709E+03  0.10000000000E+02 0. -1.
</event>
<event>
 5    1  0.1658612E-008  0.3810738E+03  0.7957747E-01  0.3446496E+00
         13   -1    0    0    0    0  0.00000000000E+00  0.00000000000E+00  0.14999999963E+04  0.15000000000E+04  0.10566000000E+00 0. -1.
        994   -1    0    0    0    0 -0.00000000000E+00 -0.00000000000E+00  0.11368683772E-12  0.17120000000E+03  0.17120000000E+03 0.  0.
         13    1    1    2    0    0 -0.28339929094E+01  0.21369665688E+02  0.57203828867E+02  0.61130870503E+02  0.10566000000E+00 0. -1.
        994    1    1    2    0    0 -0.12867606810E+02 -0.40675258219E+02  0.96787460393E+01  0.17670079247E+03  0.17120000000E+03 0.  0.
        998    1    1    2    0    0  0.15701599719E+02  0.19305592531E+02  0.14331174214E+04  0.14333683370E+04  0.10000000000E+02 0. -1.
</event>
<event>
 5    1  0.1658612E-008  0.3718269E+03  0.7957747E-01  0.3487537E+00
         13   -1    0    0    0    0  0.00000000000E+00  0.00000000000E+00  0.14999999963E+04  0.15000000000E+04  0.10566000000E+00 0.  1.
        994   -1    0    0    0    0 -0.00000000000E+00 -0.00000000000E+00  0.11368683772E-12  0.17120000000E+03  0.17120000000E+03 0.  0.
         13    1    1    2    0    0 -0.15635900614E+02  0.18363828783E+02  0.30891921038E+02  0.39192263842E+02  0.10566000000E+00 0.  1.
        994    1    1    2    0    0  0.16999244248E+02 -0.18299127699E+02  0.10463736142E+02  0.17332848050E+03  0.17120000000E+03 0.  0.
        998    1    1    2    0    0 -0.13633436334E+01 -0.64701084632E-01  0.14586443391E+04  0.14586792557E+04  0.10000000000E+02 0.  1.
</event>
<event>
 5    1  0.1658612E-008  0.3735504E+03  0.7957747E-01  0.3479731E+00
         13   -1    0    0    0    0  0.00000000000E+00  0.00000000000E+00  0.14999999963E+04  0.15000000000E+04  0.10566000000E+00 0.  1.
        994   -1    0    0    0    0 -0.00000000000E+00 -0.00000000000E+00  0.11368683772E-12  0.17120000000E+03  0.17120000000E+03 0.  0.
         13    1    1    2    0    0  0.35201411480E+02  0.21939384365E+02  0.60466641582E+02  0.73325997195E+02  0.10566000000E+00 0.  1.
        994    1    1    2    0    0 -0.97788769047E+01 -0.56172492061E+02  0.24427977187E+02  0.18209102495E+03  0.17120000000E+03 0.  0.
        998    1    1    2    0    0 -0.25422534575E+02  0.34233107696E+02  0.14151053775E+04  0.14157829779E+04  0.10000000000E+02 0.  1.
</event>
<event>
 5    1  0.1658612E-008  0.3740678E+03  0.7957747E-01  0.3477402E+00
         13   -1    0    0    0    0  0.00000000000E+00  0.00000000000E+00  0.14999999963E+04  0.15000000000E+04  0.10566000000E+00 0.  1.
        994   -1    0    0    0    0 -0.00000000000E+00 -0.00000000000E+00  0.11368683772E-12  0.17120000000E+03  0.17120000000E+03 0.  0.
         13    1    1    2    0    0 -0.11115920688E+02 -0.11686061721E+02  0.14892323812E+02  0.21952681017E+02  0.10566000000E+00 0.  1.
        994    1    1    2    0    0  0.95940509336E+01  0.12476433366E+02  0.80033043407E+01  0.17210810580E+03  0.17120000000E+03 0.  0.
        998    1    1    2    0    0  0.15218697547E+01 -0.79037164512E+00  0.14771043681E+04  0.14771392132E+04  0.10000000000E+02 0.  1.
</event>
<event>
 5    1  0.1658612E-008  0.3793367E+03  0.7957747E-01  0.3454052E+00
         13   -1    0    0    0    0  0.00000000000E+00  0.00000000000E+00  0.14999999963E+04  0.15000000000E+04  0.10566000000E+00 0. -1.
        994   -1    0    0    0    0 -0.00000000000E+00 -0.00000000000E+00  0.11368683772E-12  0.17120000000E+03  0.17120000000E+03 0.  0.
         13    1    1    2    0    0 -0.72991728164E+02  0.64062725062E+01  0.41445696858E+03  0.42088409648E+03  0.10566000000E+00 0. -1.
        994    1    1    2    0    0  0.76630900837E+02 -0.98528199569E+01  0.24734230743E+02  0.18944813326E+03  0.17120000000E+03 0.  0.
        998    1    1    2    0    0 -0.36391726734E+01  0.34465474506E+01  0.10608087970E+04  0.10608677703E+04  0.10000000000E+02 0. -1.
</event>
<event>
 5    1  0.1658612E-008  0.3853479E+03  0.7957747E-01  0.3428198E+00
         13   -1    0    0    0    0  0.00000000000E+00  0.00000000000E+00  0.14999999963E+04  0.15000000000E+04  0.10566000000E+00 0.  1.
        994   -1    0    0    0    0 -0.00000000000E+00 -0.00000000000E+00  0.11368683772E-12  0.17120000000E+03  0.17120000000E+03 0.  0.
         13    1    1    2    0    0  0.31274100453E+00  0.11837246862E+02  0.47299138617E+02  0.48758977616E+02  0.10566000000E+00 0.  1.
        994    1    1    2    0    0 -0.37438841126E+01 -0.11230922740E+02  0.19180306406E+01  0.17161954765E+03  0.17120000000E+03 0.  0.
        998    1    1    2    0    0  0.34311431081E+01 -0.60632412241E+00  0.14507828270E+04  0.14508214747E+04  0.10000000000E+02 0.  1.
</event>
<event>
 5    1  0.1658612E-008  0.3836216E+03  0.7957747E-01  0.3435539E+00
         13   -1    0    0    0    0  0.00000000000E+00  0.00000000000E+00  0.14999999963E+04  0.15000000000E+04  0.10566000000E+00 0.  1.
        994   -1    0    0    0    0 -0.00000000000E+00 -0.00000000000E+00  0.11368683772E-12  0.17120000000E+03  0.17120000000E+03 0.  0.
         13    1    1    2    0    0 -0.25041274803E+01 -0.12015526840E+02  0.35042211901E+02  0.37129655514E+02  0.10566000000E+00 0.  1.
        994    1    1    2    0    0 -0.91800779469E+01 -0.13456343785E+02  0.31930972646E+01  0.17200285721E+03  0.17120000000E+03 0.  0.
        998    1    1    2    0    0  0.11684205427E+02  0.25471870625E+02  0.14617646871E+04  0.14620674873E+04  0.10000000000E+02 0.  1.
</event>
<event>
 5    1  0.1658612E-008  0.3745589E+03  0.7957747E-01  0.3475198E+00
         13   -1    0    0    0    0  0.00000000000E+00  0.00000000000E+00  0.14999999963E+04  0.15000000000E+04  0.10566000000E+00 0. -1.
        994   -1    0    0    0    0 -0.00000000000E+00 -0.00000000000E+00  0.11368683772E-12  0.17120000000E+03  0.17120000000E+03 0.  0.
         13    1    1    2    0    0  0.19135010338E+02 -0.18931832833E+02  0.49455460010E+02  0.56306452596E+02  0.10566000000E+00 0. -1.
        994    1    1    2    0    0 -0.13734723321E+02  0.14282709191E+02  0.82431910260E+01  0.17253993336E+03  0.17120000000E+03 0.  0.
        998    1    1    2    0    0 -0.54002870175E+01  0.46491236424E+01  0.14423013452E+04  0.14423536140E+04  0.10000000000E+02 0. -1.
</event>
<event>
 5    1  0.1658612E-008  0.3834611E+03  0.7957747E-01  0.3436225E+00
         13   -1    0    0    0    0  0.00000000000E+00  0.00000000000E+00  0.14999999963E+04  0.15000000000E+04  0.10566000000E+00 0. -1.
        994   -1    0    0    0    0 -0.00000000000E+00 -0.00000000000E+00  0.11368683772E-12  0.17120000000E+03  0.17120000000E+03 0.  0.
         13    1    1    2    0    0 -0.10518941140E+02 -0.14394648075E+02  0.66180044888E+02  0.68539503364E+02  0.10566000000E+00 0. -1.
        994    1    1    2    0    0  0.45630187190E+01  0.93190857882E+01  0.27520228366E+01  0.17153623562E+03  0.17120000000E+03 0.  0.
        998    1    1    2    0    0  0.59559224208E+01  0.50755622864E+01  0.14310679286E+04  0.14311242610E+04  0.10000000000E+02 0. -1.
</event>
<event>
 5    1  0.1658612E-008  0.3841560E+03  0.7957747E-01  0.3433259E+00
         13   -1    0    0    0    0  0.00000000000E+00  0.00000000000E+00  0.14999999963E+04  0.15000000000E+04  0.10566000000E+00 0.  1.
        994   -1    0    0    0    0 -0.00000000000E+00 -0.00000000000E+00  0.11368683772E-12  0.17120000000E+03  0.17120000000E+03 0.  0.
         13    1    1    2    0    0 -0.54145538151E+01  0.88980702916E+01  0.24599687726E+02  0.26714206860E+02  0.10566000000E+00 0.  1.
        994    1    1    2    0    0  0.25034574417E+02 -0.94054365839E+01  0.44117576759E+01  0.17333232751E+03  0.17120000000E+03 0.  0.
        998    1    1    2    0    0 -0.19620020602E+02  0.50736629236E+00  0.14709885509E+04  0.14711534656E+04  0.10000000000E+02 0.  1.
</event>
<event>
 5    1  0.1658612E-008  0.3771686E+03  0.7957747E-01  0.3463580E+00
         13   -1    0    0    0    0  0.00000000000E+00  0.00000000000E+00  0.14999999963E+04  0.15000000000E+04  0.10566000000E+00 0.  1.
        994   -1    0    0    0    0 -0.00000000000E+00 -0.00000000000E+00  0.11368683772E-12  0.17120000000E+03  0.17120000000E+03 0.  0.
         13    1    1    2    0    0  0.21451878267E+02  0.22019778102E+02  0.83505203762E+02  0.88984177966E+02  0.10566000000E+00 0.  1.
        994    1    1    2    0    0 -0.10182132485E+02 -0.13992567428E+02  0.65804943272E+01  0.17219817267E+03  0.17120000000E+03 0.  0.
        998    1    1    2    0    0 -0.11269745782E+02 -0.80272106738E+01  0.14099142982E+04  0.14100176494E+04  0.10000000000E+02 0.  1.
</event>
<event>
 5    1  0.1658612E-008  0.3765724E+03  0.7957747E-01  0.3466220E+00
         13   -1    0    0    0    0  0.00000000000E+00  0.00000000000E+00  0.14999999963E+04  0.15000000000E+04  0.10566000000E+00 0. -1.
        994   -1    0    0    0    0 -0.00000000000E+00 -0.00000000000E+00  0.11368683772E-12  0.17120000000E+03  0.17120000000E+03 0.  0.
         13    1    1    2    0    0 -0.98654584551E+02 -0.49006476265E+01  0.47946790330E+03  0.48953674516E+03  0.10566000000E+00 0. -1.
        994    1    1    2    0    0  0.13962750952E+02 -0.26456272835E+02  0.17666119023E+02  0.17468950898E+03  0.17120000000E+03 0.  0.
        998    1    1    2    0    0  0.84691833599E+02  0.31356920461E+02  0.10028659740E+04  0.10069737459E+04  0.10000000000E+02 0.  1.
</event>
<event>
 5    1  0.1658612E-008  0.3844083E+03  0.7957747E-01  0.3432186E+00
         13   -1    0    0    0    0  0.00000000000E+00  0.00000000000E+00  0.14999999963E+04  0.15000000000E+04  0.10566000000E+00 0. -1.
        994   -1    0    0    0    0 -0.00000000000E+00 -0.00000000000E+00  0.11368683772E-12  0.17120000000E+03  0.17120000000E+03 0.  0.
         13    1    1    2    0    0 -0.97800596986E+01 -0.16248774604E+02  0.99752708988E+02  0.10153958025E+03  0.10566000000E+00 0. -1.
        994    1    1    2    0    0  0.12854795614E+01  0.24966501762E+01  0.19501816852E+01  0.17123413482E+03  0.17120000000E+03 0.  0.
        998    1    1    2    0    0  0.84945801371E+01  0.13752124428E+02  0.13982971056E+04  0.13984262849E+04  0.10000000000E+02 0. -1.
</event>
<event>
 5    1  0.1658612E-008  0.3757437E+03  0.7957747E-01  0.3469903E+00
         13   -1    0    0    0    0  0.00000000000E+00  0.00000000000E+00  0.14999999963E+04  0.15000000000E+04  0.10566000000E+00 0. -1.
        994   -1    0    0    0    0 -0.00000000000E+00 -0.00000000000E+00  0.11368683772E-12  0.17120000000E+03  0.17120000000E+03 0.  0.
         13    1    1    2    0    0  0.44351624864E+02  0.19430492987E+02  0.17323885539E+03  0.17987863372E+03  0.10566000000E+00 0. -1.
        994    1    1    2    0    0 -0.39198977766E+02 -0.78656287161E+01  0.11736387714E+02  0.17619764689E+03  0.17120000000E+03 0.  0.
        998    1    1    2    0    0 -0.51526470987E+01 -0.11564864271E+02  0.13150247532E+04  0.13151237194E+04  0.10000000000E+02 0. -1.
</event>
<event>
 5    1  0.1658612E-008  0.3747634E+03  0.7957747E-01  0.3474282E+00
         13   -1    0    0    0    0  0.00000000000E+00  0.00000000000E+00  0.14999999963E+04  0.15000000000E+04  0.10566000000E+00 0.  1.
        994   -1    0    0    0    0 -0.00000000000E+00 -0.00000000000E+00  0.11368683772E-12  0.17120000000E+03  0.17120000000E+03 0.  0.
         13    1    1    2    0    0 -0.14666768513E+02 -0.48191328637E+01  0.14277786800E+02  0.21028659018E+02  0.10566000000E+00 0.  1.
        994    1    1    2    0    0  0.18170146798E+02  0.49201027370E+01  0.80066923170E+01  0.17241783193E+03  0.17120000000E+03 0.  0.
        998    1    1    2    0    0 -0.35033782857E+01 -0.10096987330E+00  0.14777155172E+04  0.14777535091E+04  0.10000000000E+02 0.  1.
</event>
<event>
 5    1  0.1658612E-008  0.3860646E+03  0.7957747E-01  0.3425169E+00
         13   -1    0    0    0    0  0.00000000000E+00  0.00000000000E+00  0.14999999963E+04  0.15000000000E+04  0.10566000000E+00 0.  1.
        994   -1    0    0    0    0 -0.00000000000E+00 -0.00000000000E+00  0.11368683772E-12  0.17120000000E+03  0.17120000000E+03 0.  0.
         13    1    1    2    0    0 -0.19915299685E+01 -0.12951924049E+02  0.76862310097E+02  0.77971433267E+02  0.10566000000E+00 0.  1.
        994    1    1    2    0    0  0.88992580934E+01  0.10572774677E+02  0.17286336050E+01  0.17176556271E+03  0.17120000000E+03 0.  0.
        998    1    1    2    0    0 -0.69077281249E+01  0.23791493728E+01  0.14214090526E+04  0.14214630040E+04  0.10000000000E+02 0.  1.
</event>
<event>
 5    1  0.1658612E-008  0.3814749E+03  0.7957747E-01  0.3444762E+00
         13   -1    0    0    0    0  0.00000000000E+00  0.00000000000E+00  0.14999999963E+04  0.15000000000E+04  0.10566000000E+00 0. -1.
        994   -1    0    0    0    0 -0.00000000000E+00 -0.00000000000E+00  0.11368683772E-12  0.17120000000E+03  0.17120000000E+03 0.  0.
         13    1    1    2    0    0 -0.86540480996E+01  0.23121286286E+02  0.85230258310E+02  0.88733840916E+02  0.10566000000E+00 0. -1.
        994    1    1    2    0    0  0.77404938802E+01 -0.21828969991E+02  0.51770314191E+01  0.17283709333E+03  0.17120000000E+03 0.  0.
        998    1    1    2    0    0  0.91355421942E+00 -0.12923162949E+01  0.14095927065E+04  0.14096290658E+04  0.10000000000E+02 0. -1.
</event>
<event>
 5    1  0.1658612E-008  0.3792050E+03  0.7957747E-01  0.3454628E+00
         13   -1    0    0    0    0  0.00000000000E+00  0.00000000000E+00  0.14999999963E+04  0.15000000000E+04  0.10566000000E+00 0.  1.
        994   -1    0    0    0    0 -0.00000000000E+00 -0.00000000000E+00  0.11368683772E-12  0.17120000000E+03  0.17120000000E+03 0.  0.
         13    1    1    2    0    0  0.35254446229E+01  0.22525840217E+02  0.51925269407E+02  0.56710554611E+02  0.10566000000E+00 0.  1.
        994    1    1    2    0    0  0.14976370837E+02 -0.36221581613E+02  0.97015063564E+01  0.17589728219E+03  0.17120000000E+03 0.  0.
        998    1    1    2    0    0 -0.18501815460E+02  0.13695741396E+02  0.14383732205E+04  0.14385921632E+04  0.10000000000E+02 0.  1.
</event>
<event>
 5    1  0.1658612E-008  0.3832046E+03  0.7957747E-01  0.3437322E+00
         13   -1    0    0    0    0  0.00000000000E+00  0.00000000000E+00  0.14999999963E+04  0.15000000000E+04  0.10566000000E+00 0. -1.
        994   -1    0    0    0    0 -0.00000000000E+00 -0.00000000000E+00  0.11368683772E-12  0.17120000000E+03  0.17120000000E+03 0.  0.
         13    1    1    2    0    0 -0.10460792946E+02 -0.21439465652E+01  0.21892018225E+02  0.24357674805E+02  0.10566000000E+00 0. -1.
        994    1    1    2    0    0  0.40872922891E+01  0.25200106292E+01  0.26004167563E+01  0.17128706483E+03  0.17120000000E+03 0.  0.
        998    1    1    2    0    0  0.63735006565E+01 -0.37606406396E+00  0.14755075613E+04  0.14755552604E+04  0.10000000000E+02 0. -1.
</event>
<event>
 5    1  0.1658612E-008  0.3812973E+03  0.7957747E-01  0.3445529E+00
         13   -1    0    0    0    0  0.00000000000E+00  0.00000000000E+00  0.14999999963E+04  0.15000000000E+04  0.10566000000E+00 0. -1.
        994   -1    0    0    0    0 -0.00000000000E+00 -0.00000000000E+00  0.11368683772E-12  0.17120000000E+03  0.17120000000E+03 0.  0.
         13    1    1    2    0    0 -0.16710922499E+02 -0.65197364919E+01  0.53250303481E+02  0.56190460752E+02  0.10566000000E+00 0. -1.
        994    1    1    2    0    0 -0.12734383122E+02 -0.43660957067E+02  0.10395643612E+02  0.17744281640E+03  0.17120000000E+03 0.  0.
        998    1    1    2    0    0  0.29445305621E+02  0.50180693559E+02  0.14363540492E+04  0.14375667228E+04  0.10000000000E+02 0. -1.
</event>
<event>
 5    1  0.1658612E-008  0.3853182E+03  0.7957747E-01  0.3428324E+00
         13   -1    0    0    0    0  0.00000000000E+00  0.00000000000E+00  0.14999999963E+04  0.15000000000E+04  0.10566000000E+00 0. -1.
        994   -1    0    0    0    0 -0.00000000000E+00 -0.00000000000E+00  0.11368683772E-12  0.17120000000E+03  0.17120000000E+03 0.  0.
         13    1    1    2    0    0  0.80287564675E+01 -0.13161237229E+02  0.86191531057E+02  0.87559524243E+02  0.10566000000E+00 0. -1.
        994    1    1    2    0    0 -0.25028229435E+01  0.80430137271E+00  0.14949666994E+01  0.17122670922E+03  0.17120000000E+03 0.  0.
        998    1    1    2    0    0 -0.55259335239E+01  0.12356935856E+02  0.14123134985E+04  0.14124137665E+04  0.10000000000E+02 0. -1.
</event>
<event>
 5    1  0.1658612E-008  0.3774088E+03  0.7957747E-01  0.3462519E+00
         13   -1    0    0    0    0  0.00000000000E+00  0.00000000000E+00  0.14999999963E+04  0.15000000000E+04  0.10566000000E+00 0. -1.
        994   -1    0    0    0    0 -0.00000000000E+00 -0.00000000000E+00  0.11368683772E-12  0.17120000000E+03  0.17120000000E+03 0.  0.
         13    1    1    2    0    0  0.83694927166E+01 -0.55305380489E+02  0.25921599005E+03  0.26518234138E+03  0.10566000000E+00 0. -1.
        994    1    1    2    0    0 -0.25072145214E+01  0.44979636820E+02  0.12320594697E+02  0.17745616616E+03  0.17120000000E+03 0.  0.
        998    1    1    2    0    0 -0.58622781952E+01  0.10325743670E+02  0.12284634115E+04  0.12285614925E+04  0.10000000000E+02 0. -1.
</event>
<event>
 5    1  0.1658612E-008  0.3830320E+03  0.7957747E-01  0.3438062E+00
         13   -1    0    0    0    0  0.00000000000E+00  0.00000000000E+00  0.14999999963E+04  0.15000000000E+04  0.10566000000E+00 0. -1.
        994   -1    0    0    0    0 -0.00000000000E+00 -0.00000000000E+00  0.11368683772E-12  0.17120000000E+03  0.17120000000E+03 0.  0.
         13    1    1    2    0    0  0.84461515745E+01  0.70769800980E+01  0.22793677016E+02  0.25317661813E+02  0.10566000000E+00 0. -1.
        994    1    1    2    0    0 -0.62732074517E+00 -0.10373658654E+01  0.26152507192E+01  0.17122426579E+03  0.17120000000E+03 0.  0.
        998    1    1    2    0    0 -0.78188308293E+01 -0.60396142325E+01  0.14745910685E+04  0.14746580724E+04  0.10000000000E+02 0. -1.
</event>
<event>
 5    1  0.1658612E-008  0.3809504E+03  0.7957747E-01  0.3447031E+00
         13   -1    0    0    0    0  0.00000000000E+00  0.00000000000E+00  0.14999999963E+04  0.15000000000E+04  0.10566000000E+00 0. -1.
        994   -1    0    0    0    0 -0.00000000000E+00 -0.00000000000E+00  0.11368683772E-12  0.17120000000E+03  0.17120000000E+03 0.  0.
         13    1    1    2    0    0  0.33571439655E+01 -0.27323874787E+02  0.99505779628E+02  0.10324376927E+03  0.10566000000E+00 0. -1.
        994    1    1    2    0    0  0.24390366615E+01  0.22711199996E+02  0.53947966506E+01  0.17280130594E+03  0.17120000000E+03 0.  0.
        998    1    1    2    0    0 -0.57961806271E+01  0.46126747909E+01  0.13950994200E+04  0.13951549248E+04  0.10000000000E+02 0. -1.
</event>
<event>
 5    1  0.1658612E-008  0.3854408E+03  0.7957747E-01  0.3427805E+00
         13   -1    0    0    0    0  0.00000000000E+00  0.00000000000E+00  0.14999999963E+04  0.15000000000E+04  0.10566000000E+00 0. -1.
        994   -1    0    0    0    0 -0.00000000000E+00 -0.00000000000E+00  0.11368683772E-12  0.17120000000E+03  0.17120000000E+03 0.  0.
         13    1    1    2    0    0 -0.10561581077E+02 -0.63722605002E+01  0.57555308668E+02  0.58862359948E+02  0.10566000000E+00 0. -1.
        994    1    1    2    0    0  0.53677586183E+01 -0.11035503220E+02  0.19061343958E+01  0.17164984274E+03  0.17120000000E+03 0.  0.
        998    1    1    2    0    0  0.51938224583E+01  0.17407763720E+02  0.14405385532E+04  0.14406877973E+04  0.10000000000E+02 0. -1.
</event>
<event>
 5    1  0.1658612E-008  0.3846850E+03  0.7957747E-01  0.3431009E+00
         13   -1    0    0    0    0  0.00000000000E+00  0.00000000000E+00  0.14999999963E+04  0.15000000000E+04  0.10566000000E+00 0. -1.
        994   -1    0    0    0    0 -0.00000000000E+00 -0.00000000000E+00  0.11368683772E-12  0.17120000000E+03  0.17120000000E+03 0.  0.
         13    1    1    2    0    0  0.16303259822E+02  0.33459609383E+01  0.73562784651E+02  0.75422053705E+02  0.10566000000E+00 0. -1.
        994    1    1    2    0    0 -0.17279096345E+02 -0.92601554691E+01  0.30528208952E+01  0.17234580751E+03  0.17120000000E+03 0.  0.
        998    1    1    2    0    0  0.97583652337E+00  0.59141945307E+01  0.14233843907E+04  0.14234321388E+04  0.10000000000E+02 0. -1.
</event>
<event>
 5    1  0.1658612E-008  0.3713706E+03  0.7957747E-01  0.3489616E+00
         13   -1    0    0    0    0  0.00000000000E+00  0.00000000000E+00  0.14999999963E+04  0.15000000000E+04  0.10566000000E+00 0. -1.
        994   -1    0    0    0    0 -0.00000000000E+00 -0.00000000000E+00  0.11368683772E-12  0.17120000000E+03  0.17120000000E+03 0.  0.
         13    1    1    2    0    0  0.36849175147E+02  0.11950997810E+02  0.54682445086E+02  0.67013946476E+02  0.10566000000E+00 0. -1.
        994    1    1    2    0    0 -0.51020723596E+02 -0.31323470838E+02  0.24364918654E+02  0.18299552815E+03  0.17120000000E+03 0.  0.
        998    1    1    2    0    0  0.14171548449E+02  0.19372473028E+02  0.14209526325E+04  0.14211905254E+04  0.10000000000E+02 0. -1.
</event>
<event>
 5    1  0.1658612E-008  0.4032373E+03  0.7957747E-01  0.3355826E+00
         13   -1    0    0    0    0  0.00000000000E+00  0.00000000000E+00  0.14999999963E+04  0.15000000000E+04  0.10566000000E+00 0.  1.
        994   -1    0    0    0    0 -0.00000000000E+00 -0.00000000000E+00  0.11368683772E-12  0.17120000000E+03  0.17120000000E+03 0.  0.
         13    1    1    2    0    0 -0.59703626857E+02 -0.32839946947E+01  0.48524394154E+02  0.77006075560E+02  0.10566000000E+00 0.  1.
        994    1    1    2    0    0  0.57367260234E+02  0.19640536824E+01  0.42916378022E+02  0.18559664748E+03  0.17120000000E+03 0.  0.
        998    1    1    2    0    0  0.23363666233E+01  0.13199410123E+01  0.14085592241E+04  0.14085972770E+04  0.10000000000E+02 0.  1.
</event>
<event>
 5    1  0.1658612E-008  0.3831242E+03  0.7957747E-01  0.3437667E+00
         13   -1    0    0    0    0  0.00000000000E+00  0.00000000000E+00  0.14999999963E+04  0.15000000000E+04  0.10566000000E+00 0. -1.
        994   -1    0    0    0    0 -0.00000000000E+00 -0.00000000000E+00  0.11368683772E-12  0.17120000000E+03  0.17120000000E+03 0.  0.
         13    1    1    2    0    0 -0.20253269871E+02  0.18166162893E+01  0.86512295625E+02  0.88870037097E+02  0.10566000000E+00 0. -1.
        994    1    1    2    0    0 -0.64848770295E+00 -0.31440270287E+01  0.25984229569E+01  0.17124980947E+03  0.17120000000E+03 0.  0.
        998    1    1    2    0    0  0.20901757574E+02  0.13274107394E+01  0.14108892777E+04  0.14110801534E+04  0.10000000000E+02 0. -1.
</event>
<event>
 5    1  0.1658612E-008  0.3958439E+03  0.7957747E-01  0.3384945E+00
         13   -1    0    0    0    0  0.00000000000E+00  0.00000000000E+00  0.14999999963E+04  0.15000000000E+04  0.10566000000E+00 0. -1.
        994   -1    0    0    0    0 -0.00000000000E+00 -0.00000000000E+00  0.11368683772E-12  0.17120000000E+03  0.17120000000E+03 0.  0.
         13    1    1    2    0    0 -0.97260670795E+02  0.10393976463E+03  0.31840780226E+03  0.34877880162E+03  0.10566000000E+00 0. -1.
        994    1    1    2    0    0  0.82116143255E+02 -0.10135412119E+03  0.94316499129E+02  0.23499098041E+03  0.17120000000E+03 0.  0.
        998    1    1    2    0    0  0.15144527540E+02 -0.25856434380E+01  0.10872756949E+04  0.10874302180E+04  0.10000000000E+02 0. -1.
</event>
<event>
 5    1  0.1658612E-008  0.3864037E+03  0.7957747E-01  0.3423740E+00
         13   -1    0    0    0    0  0.00000000000E+00  0.00000000000E+00  0.14999999963E+04  0.15000000000E+04  0.10566000000E+00 0. -1.
        994   -1    0    0    0    0 -0.00000000000E+00 -0.00000000000E+00  0.11368683772E-12  0.17120000000E+03  0.17120000000E+03 0.  0.
         13    1    1    2    0    0 -0.61896497487E+01 -0.91905005747E+01  0.64354886995E+02  0.65301911986E+02  0.10566000000E+00 0. -1.
        994    1    1    2    0    0  0.94743125725E+01  0.83733370758E+01  0.14583631352E+01  0.17167248526E+03  0.17120000000E+03 0.  0.
        998    1    1    2    0    0 -0.32846628239E+01  0.81716349885E+00  0.14341867461E+04  0.14342256028E+04  0.10000000000E+02 0. -1.
</event>
<event>
 5    1  0.1658612E-008  0.3855355E+03  0.7957747E-01  0.3427404E+00
         13   -1    0    0    0    0  0.00000000000E+00  0.00000000000E+00  0.14999999963E+04  0.15000000000E+04  0.10566000000E+00 0.  1.
        994   -1    0    0    0    0 -0.00000000000E+00 -0.00000000000E+00  0.11368683772E-12  0.17120000000E+03  0.17120000000E+03 0.  0.
         13    1    1    2    0    0  0.13845303959E+02 -0.59176539365E+01  0.89363905786E+02  0.90623561457E+02  0.10566000000E+00 0.  1.
        994    1    1    2    0    0 -0.42086740252E+01 -0.56922525183E+01  0.15290329231E+01  0.17135312258E+03  0.17120000000E+03 0.  0.
        998    1    1    2    0    0 -0.96366299340E+01  0.11609906455E+02  0.14091070576E+04  0.14092233160E+04  0.10000000000E+02 0.  1.
</event>
<event>
 5    1  0.1658612E-008  0.3826551E+03  0.7957747E-01  0.3439678E+00
         13   -1    0    0    0    0  0.00000000000E+00  0.00000000000E+00  0.14999999963E+04  0.15000000000E+04  0.10566000000E+00 0. -1.
        994   -1    0    0    0    0 -0.00000000000E+00 -0.00000000000E+00  0.11368683772E-12  0.17120000000E+03  0.17120000000E+03 0.  0.
         13    1    1    2    0    0  0.33077376025E+02  0.39576426252E+01  0.19996650381E+03  0.20272244461E+03  0.10566000000E+00 0. -1.
        994    1    1    2    0    0 -0.17940364988E+02 -0.12232667866E+01  0.38710800281E+01  0.17218530233E+03  0.17120000000E+03 0.  0.
        998    1    1    2    0    0 -0.15137011037E+02 -0.27343758386E+01  0.12961624124E+04  0.12962922531E+04  0.10000000000E+02 0. -1.
</event>
<event>
 5    1  0.1658612E-008  0.3852786E+03  0.7957747E-01  0.3428492E+00
         13   -1    0    0    0    0  0.00000000000E+00  0.00000000000E+00  0.14999999963E+04  0.15000000000E+04  0.10566000000E+00 0. -1.
        994   -1    0    0    0    0 -0.00000000000E+00 -0.00000000000E+00  0.11368683772E-12  0.17120000000E+03  0.17120000000E+03 0.  0.
         13    1    1    2    0    0 -0.10641907426E+02 -0.39984998297E+00  0.38362734827E+02  0.39813573830E+02  0.10566000000E+00 0. -1.
        994    1    1    2    0    0  0.53195379258E+01 -0.29774740722E+00  0.15851658214E+01  0.17129021831E+03  0.17120000000E+03 0.  0.
        998    1    1    2    0    0  0.53223695003E+01  0.69759739019E+00  0.14600520956E+04  0.14600962079E+04  0.10000000000E+02 0. -1.
</event>
<event>
 5    1  0.1658612E-008  0.3708219E+03  0.7957747E-01  0.3492122E+00
         13   -1    0    0    0    0  0.00000000000E+00  0.00000000000E+00  0.14999999963E+04  0.15000000000E+04  0.10566000000E+00 0. -1.
        994   -1    0    0    0    0 -0.00000000000E+00 -0.00000000000E+00  0.11368683772E-12  0.17120000000E+03  0.17120000000E+03 0.  0.
         13    1    1    2    0    0  0.16673133370E+02  0.15358884622E+02  0.25132861012E+02  0.33846130944E+02  0.10566000000E+00 0. -1.
        994    1    1    2    0    0 -0.12425003876E+02 -0.15688511262E+02  0.10222195559E+02  0.17266859410E+03  0.17120000000E+03 0.  0.
        998    1    1    2    0    0 -0.42481294941E+01  0.32962664020E+00  0.14646449397E+04  0.14646852750E+04  0.10000000000E+02 0. -1.
</event>
<event>
 5    1  0.1658612E-008  0.3835064E+03  0.7957747E-01  0.3436032E+00
         13   -1    0    0    0    0  0.00000000000E+00  0.00000000000E+00  0.14999999963E+04  0.15000000000E+04  0.10566000000E+00 0.  1.
        994   -1    0    0    0    0 -0.00000000000E+00 -0.00000000000E+00  0.11368683772E-12  0.17120000000E+03  0.17120000000E+03 0.  0.
         13    1    1    2    0    0 -0.10309423828E+02 -0.21657187779E+02  0.12503116691E+03  0.12731112232E+03  0.10566000000E+00 0.  1.
        994    1    1    2    0    0  0.15935867589E+02  0.35553224478E+01  0.32550095828E+01  0.17200763727E+03  0.17120000000E+03 0.  0.
        998    1    1    2    0    0 -0.56264437615E+01  0.18101865331E+02  0.13717138198E+04  0.13718812404E+04  0.10000000000E+02 0.  1.
</event>
<event>
 5    1  0.1658612E-008  0.3855847E+03  0.7957747E-01  0.3427196E+00
         13   -1    0    0    0    0  0.00000000000E+00  0.00000000000E+00  0.14999999963E+04  0.15000000000E+04  0.10566000000E+00 0.  1.
        994   -1    0    0    0    0 -0.00000000000E+00 -0.00000000000E+00  0.11368683772E-12  0.17120000000E+03  0.17120000000E+03 0.  0.
         13    1    1    2    0    0 -0.10205341849E+01 -0.16798525210E+02  0.10040314500E+03  0.10180390282E+03  0.10566000000E+00 0.  1.
        994    1    1    2    0    0 -0.33456894786E+01  0.17661581862E+02  0.24014984821E+01  0.17215787030E+03  0.17120000000E+03 0.  0.
        998    1    1    2    0    0  0.43662236635E+01 -0.86305665130E+00  0.13971953528E+04  0.13972382269E+04  0.10000000000E+02 0.  1.
</event>
<event>
 5    1  0.1658612E-008  0.3721358E+03  0.7957747E-01  0.3486133E+00
         13   -1    0    0    0    0  0.00000000000E+00  0.00000000000E+00  0.14999999963E+04  0.15000000000E+04  0.10566000000E+00 0.  1.
        994   -1    0    0    0    0 -0.00000000000E+00 -0.00000000000E+00  0.11368683772E-12  0.17120000000E+03  0.17120000000E+03 0.  0.
         13    1    1    2    0    0 -0.16358234289E+02  0.19018885134E+02  0.35950867454E+02  0.43838178059E+02  0.10566000000E+00 0.  1.
        994    1    1    2    0    0  0.85338469552E+01 -0.59888953331E+01  0.85301460610E+01  0.17172913790E+03  0.17120000000E+03 0.  0.
        998    1    1    2    0    0  0.78243873336E+01 -0.13029989800E+02  0.14555189828E+04  0.14556326840E+04  0.10000000000E+02 0.  1.
</event>
<event>
 5    1  0.1658612E-008  0.3811560E+03  0.7957747E-01  0.3446141E+00
         13   -1    0    0    0    0  0.00000000000E+00  0.00000000000E+00  0.14999999963E+04  0.15000000000E+04  0.10566000000E+00 0. -1.
        994   -1    0    0    0    0 -0.00000000000E+00 -0.00000000000E+00  0.11368683772E-12  0.17120000000E+03  0.17120000000E+03 0.  0.
         13    1    1    2    0    0 -0.11664805912E+02  0.37398932946E+01  0.19322991864E+02  0.22878891525E+02  0.10566000000E+00 0. -1.
        994    1    1    2    0    0  0.13911143305E+02 -0.63596435517E+01  0.43302854251E+01  0.17193648928E+03  0.17120000000E+03 0.  0.
        998    1    1    2    0    0 -0.22463373932E+01  0.26197502571E+01  0.14763467190E+04  0.14763846192E+04  0.10000000000E+02 0. -1.
</event>
<event>
 5    1  0.1658612E-008  0.3798817E+03  0.7957747E-01  0.3451674E+00
         13   -1    0    0    0    0  0.00000000000E+00  0.00000000000E+00  0.14999999963E+04  0.15000000000E+04  0.10566000000E+00 0. -1.
        994   -1    0    0    0    0 -0.00000000000E+00 -0.00000000000E+00  0.11368683772E-12  0.17120000000E+03  0.17120000000E+03 0.  0.
         13    1    1    2    0    0 -0.11278732878E+02  0.92871558587E+01  0.23166181890E+02  0.27388760955E+02  0.10566000000E+00 0. -1.
        994    1    1    2    0    0  0.14778783081E+02 -0.11595687870E+02  0.53738471610E+01  0.17231131895E+03  0.17120000000E+03 0.  0.
        998    1    1    2    0    0 -0.35000502032E+01  0.23085320117E+01  0.14714599672E+04  0.14714999201E+04  0.10000000000E+02 0. -1.
</event>
<event>
 5    1  0.1658612E-008  0.3744565E+03  0.7957747E-01  0.3475657E+00
         13   -1    0    0    0    0  0.00000000000E+00  0.00000000000E+00  0.14999999963E+04  0.15000000000E+04  0.10566000000E+00 0. -1.
        994   -1    0    0    0    0 -0.00000000000E+00 -0.00000000000E+00  0.11368683772E-12  0.17120000000E+03  0.17120000000E+03 0.  0.
         13    1    1    2    0    0  0.99681179753E+01 -0.98737687857E+01  0.10970181700E+02  0.17810410904E+02  0.10566000000E+00 0. -1.
        994    1    1    2    0    0 -0.11850419105E+02  0.62788637155E+01  0.75708179323E+01  0.17189128496E+03  0.17120000000E+03 0.  0.
        998    1    1    2    0    0  0.18823011296E+01  0.35949050702E+01  0.14814589966E+04  0.14814983041E+04  0.10000000000E+02 0. -1.
</event>
<event>
 5    1  0.1658612E-008  0.3808368E+03  0.7957747E-01  0.3447523E+00
         13   -1    0    0    0    0  0.00000000000E+00  0.00000000000E+00  0.14999999963E+04  0.15000000000E+04  0.10566000000E+00 0.  1.
        994   -1    0    0    0    0 -0.00000000000E+00 -0.00000000000E+00  0.11368683772E-12  0.17120000000E+03  0.17120000000E+03 0.  0.
         13    1    1    2    0    0 -0.18474724830E+03  0.54958790481E+02  0.10145861413E+04  0.10327328134E+04  0.10566000000E+00 0.  1.
        994    1    1    2    0    0  0.18680866054E+03 -0.67044514827E+02  0.14864277026E+03  0.30132466837E+03  0.17120000000E+03 0.  0.
        998    1    1    2    0    0 -0.20614122372E+01  0.12085724347E+02  0.33677108468E+03  0.33714251827E+03  0.10000000000E+02 0.  1.
</event>
<event>
 5    1  0.1658612E-008  0.3860744E+03  0.7957747E-01  0.3425128E+00
         13   -1    0    0    0    0  0.00000000000E+00  0.00000000000E+00  0.14999999963E+04  0.15000000000E+04  0.10566000000E+00 0. -1.
        994   -1    0    0    0    0 -0.00000000000E+00 -0.00000000000E+00  0.11368683772E-12  0.17120000000E+03  0.17120000000E+03 0.  0.
         13    1    1    2    0    0  0.32857860725E+01  0.95434483900E+01  0.46980546492E+02  0.48052645193E+02  0.10566000000E+00 0. -1.
        994    1    1    2    0    0 -0.21132990108E+02 -0.54046793508E+00  0.25635940282E+01  0.17251929571E+03  0.17120000000E+03 0.  0.
        998    1    1    2    0    0  0.17847204035E+02 -0.90029804549E+01  0.14504558558E+04  0.14506280591E+04  0.10000000000E+02 0. -1.
</event>
<event>
 5    1  0.1658612E-008  0.3851394E+03  0.7957747E-01  0.3429081E+00
         13   -1    0    0    0    0  0.00000000000E+00  0.00000000000E+00  0.14999999963E+04  0.15000000000E+04  0.10566000000E+00 0. -1.
        994   -1    0    0    0    0 -0.00000000000E+00 -0.00000000000E+00  0.11368683772E-12  0.17120000000E+03  0.17120000000E+03 0.  0.
         13    1    1    2    0    0  0.10185746355E+02  0.12633023913E+02  0.90275799816E+02  0.91722810241E+02  0.10566000000E+00 0. -1.
        994    1    1    2    0    0 -0.55849635270E+01  0.19570101796E+01  0.16760703627E+01  0.17131045187E+03  0.17120000000E+03 0.  0.
        998    1    1    2    0    0 -0.46007828283E+01 -0.14590034092E+02  0.14080481261E+04  0.14081667379E+04  0.10000000000E+02 0. -1.
</event>
<event>
 5    1  0.1658612E-008  0.3779479E+03  0.7957747E-01  0.3460143E+00
         13   -1    0    0    0    0  0.00000000000E+00  0.00000000000E+00  0.14999999963E+04  0.15000000000E+04  0.10566000000E+00 0.  1.
        994   -1    0    0    0    0 -0.00000000000E+00 -0.00000000000E+00  0.11368683772E-12  0.17120000000E+03  0.17120000000E+03 0.  0.
         13    1    1    2    0    0  0.49618710194E+02  0.19385521404E+02  0.23236823424E+03  0.23839635544E+03  0.10566000000E+00 0.  1.
        994    1    1    2    0    0 -0.48367648805E+02 -0.21793626605E+02  0.14704356366E+02  0.17983339431E+03  0.17120000000E+03 0.  0.
        998    1    1    2    0    0 -0.12510613895E+01  0.24081052012E+01  0.12529274057E+04  0.12529702502E+04  0.10000000000E+02 0.  0.
</event>
<event>
 5    1  0.1658612E-008  0.3771885E+03  0.7957747E-01  0.3463492E+00
         13   -1    0    0    0    0  0.00000000000E+00  0.00000000000E+00  0.14999999963E+04  0.15000000000E+04  0.10566000000E+00 0.  1.
        994   -1    0    0    0    0 -0.00000000000E+00 -0.00000000000E+00  0.11368683772E-12  0.17120000000E+03  0.17120000000E+03 0.  0.
         13    1    1    2    0    0 -0.63598452199E+01 -0.92914547079E+01  0.88692606250E+01  0.14333656543E+02  0.10566000000E+00 0.  1.
        994    1    1    2    0    0  0.44736820734E+01  0.82893842152E+01  0.58585923121E+01  0.17155900101E+03  0.17120000000E+03 0.  0.
        998    1    1    2    0    0  0.18861631465E+01  0.10020704927E+01  0.14852721433E+04  0.14853073425E+04  0.10000000000E+02 0.  1.
</event>
<event>
 5    1  0.1658612E-008  0.3846507E+03  0.7957747E-01  0.3431155E+00
         13   -1    0    0    0    0  0.00000000000E+00  0.00000000000E+00  0.14999999963E+04  0.15000000000E+04  0.10566000000E+00 0.  1.
        994   -1    0    0    0    0 -0.00000000000E+00 -0.00000000000E+00  0.11368683772E-12  0.17120000000E+03  0.17120000000E+03 0.  0.
         13    1    1    2    0    0  0.98083772263E+01 -0.16942787882E+02  0.10035856615E+03  0.10225025814E+03  0.10566000000E+00 0.  1.
        994    1    1    2    0    0 -0.28974056985E+01  0.21408289063E+02  0.33417657083E+01  0.17259002636E+03  0.17120000000E+03 0.  0.
        998    1    1    2    0    0 -0.69109715279E+01 -0.44655011812E+01  0.13962996644E+04  0.13963597155E+04  0.10000000000E+02 0.  1.
</event>
<event>
 5    1  0.1658612E-008  0.3821449E+03  0.7957747E-01  0.3441872E+00
         13   -1    0    0    0    0  0.00000000000E+00  0.00000000000E+00  0.14999999963E+04  0.15000000000E+04  0.10566000000E+00 0.  1.
        994   -1    0    0    0    0 -0.00000000000E+00 -0.00000000000E+00  0.11368683772E-12  0.17120000000E+03  0.17120000000E+03 0.  0.
         13    1    1    2    0    0  0.12439333056E+02  0.46270656465E+01  0.27328792262E+02  0.30381257280E+02  0.10566000000E+00 0.  1.
        994    1    1    2    0    0 -0.10954501478E+02 -0.84675543799E+01  0.36908809511E+01  0.17179861228E+03  0.17120000000E+03 0.  0.
        998    1    1    2    0    0 -0.14848315786E+01  0.38404887334E+01  0.14689803231E+04  0.14690201304E+04  0.10000000000E+02 0.  1.
</event>
<event>
 5    1  0.1658612E-008  0.3758773E+03  0.7957747E-01  0.3469308E+00
         13   -1    0    0    0    0  0.00000000000E+00  0.00000000000E+00  0.14999999963E+04  0.15000000000E+04  0.10566000000E+00 0. -1.
        994   -1    0    0    0    0 -0.00000000000E+00 -0.00000000000E+00  0.11368683772E-12  0.17120000000E+03  0.17120000000E+03 0.  0.
         13    1    1    2    0    0 -0.54992142010E+02 -0.18011021141E+02  0.29906336209E+03  0.30461030559E+03  0.10566000000E+00 0. -1.
        994    1    1    2    0    0  0.20088576643E+02 -0.13726989114E+01  0.76041712497E+01  0.17254767061E+03  0.17120000000E+03 0.  0.
        998    1    1    2    0    0  0.34903565367E+02  0.19383720052E+02  0.11933324629E+04  0.11940420238E+04  0.10000000000E+02 0. -1.
</event>
<event>
 5    1  0.1658612E-008  0.3794448E+03  0.7957747E-01  0.3453580E+00
         13   -1    0    0    0    0  0.00000000000E+00  0.00000000000E+00  0.14999999963E+04  0.15000000000E+04  0.10566000000E+00 0.  1.
        994   -1    0    0    0    0 -0.00000000000E+00 -0.00000000000E+00  0.11368683772E-12  0.17120000000E+03  0.17120000000E+03 0.  0.
         13    1    1    2    0    0 -0.14599997480E+02 -0.57303752081E+01  0.27002411455E+02  0.31227207926E+02  0.10566000000E+00 0.  1.
        994    1    1    2    0    0 -0.45105782415E+01  0.77998351427E+01  0.46856159249E+01  0.17150095551E+03  0.17120000000E+03 0.  0.
        998    1    1    2    0    0  0.19110575722E+02 -0.20694599347E+01  0.14683119689E+04  0.14684718366E+04  0.10000000000E+02 0.  1.
</event>
<event>
 5    1  0.1658612E-008  0.3792528E+03  0.7957747E-01  0.3454419E+00
         13   -1    0    0    0    0  0.00000000000E+00  0.00000000000E+00  0.14999999963E+04  0.15000000000E+04  0.10566000000E+00 0.  1.
        994   -1    0    0    0    0 -0.00000000000E+00 -0.00000000000E+00  0.11368683772E-12  0.17120000000E+03  0.17120000000E+03 0.  0.
         13    1    1    2    0    0  0.12250496314E+02  0.29333702313E+01  0.15384080648E+02  0.19883672253E+02  0.10566000000E+00 0.  1.
        994    1    1    2    0    0 -0.13851205811E+02 -0.97463653979E+01  0.54726876378E+01  0.17212274066E+03  0.17120000000E+03 0.  0.
        998    1    1    2    0    0  0.16007094965E+01  0.68129951666E+01  0.14791432280E+04  0.14791935871E+04  0.10000000000E+02 0.  1.
</event>
<event>
 5    1  0.1658612E-008  0.3851611E+03  0.7957747E-01  0.3428989E+00
         13   -1    0    0    0    0  0.00000000000E+00  0.00000000000E+00  0.14999999963E+04  0.15000000000E+04  0.10566000000E+00 0.  1.
        994   -1    0    0    0    0 -0.00000000000E+00 -0.00000000000E+00  0.11368683772E-12  0.17120000000E+03  0.17120000000E+03 0.  0.
         13    1    1    2    0    0  0.10199865203E+02  0.38558514018E+01  0.36700121355E+02  0.38285962332E+02  0.10566000000E+00 0.  1.
        994    1    1    2    0    0 -0.20013328628E+02  0.74738315618E+01  0.30517596506E+01  0.17255475861E+03  0.17120000000E+03 0.  0.
        998    1    1    2    0    0  0.98134634252E+01 -0.11329682964E+02  0.14602481153E+04  0.14603592791E+04  0.10000000000E+02 0.  1.
</event>
<event>
 5    1  0.1658612E-008  0.3800508E+03  0.7957747E-01  0.3450937E+00
         13   -1    0    0    0    0  0.00000000000E+00  0.00000000000E+00  0.14999999963E+04  0.15000000000E+04  0.10566000000E+00 0. -1.
        994   -1    0    0    0    0 -0.00000000000E+00 -0.00000000000E+00  0.11368683772E-12  0.17120000000E+03  0.17120000000E+03 0.  0.
         13    1    1    2    0    0 -0.26656095968E+02 -0.42736862056E+01  0.88091802970E+02  0.92135708390E+02  0.10566000000E+00 0. -1.
        994    1    1    2    0    0  0.16184957328E+02 -0.73767084377E+01  0.51656450275E+01  0.17219899117E+03  0.17120000000E+03 0.  0.
        998    1    1    2    0    0  0.10471138640E+02  0.11650394643E+02  0.14067425483E+04  0.14068653004E+04  0.10000000000E+02 0. -1.
</event>
<event>
 5    1  0.1658612E-008  0.3757894E+03  0.7957747E-01  0.3469700E+00
         13   -1    0    0    0    0  0.00000000000E+00  0.00000000000E+00  0.14999999963E+04  0.15000000000E+04  0.10566000000E+00 0.  1.
        994   -1    0    0    0    0 -0.00000000000E+00 -0.00000000000E+00  0.11368683772E-12  0.17120000000E+03  0.17120000000E+03 0.  0.
         13    1    1    2    0    0  0.44041393219E+02 -0.31125849192E+02  0.25594465208E+03  0.26156478910E+03  0.10566000000E+00 0.  1.
        994    1    1    2    0    0 -0.12692908411E+02  0.95140180696E+01  0.71274346995E+01  0.17208098904E+03  0.17120000000E+03 0.  0.
        998    1    1    2    0    0 -0.31348484808E+02  0.21611831122E+02  0.12369279095E+04  0.12375542219E+04  0.10000000000E+02 0.  1.
</event>
<event>
 5    1  0.1658612E-008  0.3843521E+03  0.7957747E-01  0.3432425E+00
         13   -1    0    0    0    0  0.00000000000E+00  0.00000000000E+00  0.14999999963E+04  0.15000000000E+04  0.10566000000E+00 0.  1.
        994   -1    0    0    0    0 -0.00000000000E+00 -0.00000000000E+00  0.11368683772E-12  0.17120000000E+03  0.17120000000E+03 0.  0.
         13    1    1    2    0    0  0.10830754893E+02 -0.16759789695E+02  0.95358244913E+02  0.97423825829E+02  0.10566000000E+00 0.  1.
        994    1    1    2    0    0 -0.12723083598E+02  0.17810803354E+02  0.35326577348E+01  0.17262972294E+03  0.17120000000E+03 0.  0.
        998    1    1    2    0    0  0.18923287054E+01 -0.10510136591E+01  0.14011090936E+04  0.14011464512E+04  0.10000000000E+02 0.  1.
</event>
<event>
 5    1  0.1658612E-008  0.3844459E+03  0.7957747E-01  0.3432026E+00
         13   -1    0    0    0    0  0.00000000000E+00  0.00000000000E+00  0.14999999963E+04  0.15000000000E+04  0.10566000000E+00 0. -1.
        994   -1    0    0    0    0 -0.00000000000E+00 -0.00000000000E+00  0.11368683772E-12  0.17120000000E+03  0.17120000000E+03 0.  0.
         13    1    1    2    0    0  0.81402480169E+01  0.86722871223E+01  0.39208201524E+02  0.40972752318E+02  0.10566000000E+00 0. -1.
        994    1    1    2    0    0  0.45229719397E+00  0.75288325015E+01  0.20929375905E+01  0.17137884432E+03  0.17120000000E+03 0.  0.
        998    1    1    2    0    0 -0.85925452109E+01 -0.16201119624E+02  0.14586988572E+04  0.14588484034E+04  0.10000000000E+02 0. -1.
</event>
<event>
 5    1  0.1658612E-008  0.3850559E+03  0.7957747E-01  0.3429435E+00
         13   -1    0    0    0    0  0.00000000000E+00  0.00000000000E+00  0.14999999963E+04  0.15000000000E+04  0.10566000000E+00 0.  1.
        994   -1    0    0    0    0 -0.00000000000E+00 -0.00000000000E+00  0.11368683772E-12  0.17120000000E+03  0.17120000000E+03 0.  0.
         13    1    1    2    0    0 -0.38410474024E+00 -0.20299269871E+02  0.11811030622E+03  0.11984266140E+03  0.10566000000E+00 0.  1.
        994    1    1    2    0    0  0.94155976029E+01  0.22827796474E+02  0.36098803964E+01  0.17300934370E+03  0.17120000000E+03 0.  0.
        998    1    1    2    0    0 -0.90314928627E+01 -0.25285266033E+01  0.13782798097E+04  0.13783479949E+04  0.10000000000E+02 0.  1.
</event>
<event>
 5    1  0.1658612E-008  0.3836366E+03  0.7957747E-01  0.3435475E+00
         13   -1    0    0    0    0  0.00000000000E+00  0.00000000000E+00  0.14999999963E+04  0.15000000000E+04  0.10566000000E+00 0.  1.
        994   -1    0    0    0    0 -0.00000000000E+00 -0.00000000000E+00  0.11368683772E-12  0.17120000000E+03  0.17120000000E+03 0.  0.
         13    1    1    2    0    0 -0.58816277418E+01 -0.20668177740E+02  0.92316622602E+02  0.94784688050E+02  0.10566000000E+00 0.  1.
        994    1    1    2    0    0  0.87660471319E+01  0.23740029888E+02  0.44269463925E+01  0.17311692712E+03  0.17120000000E+03 0.  0.
        998    1    1    2    0    0 -0.28844193900E+01 -0.30718521485E+01  0.14032564273E+04  0.14032983848E+04  0.10000000000E+02 0.  1.
</event>
<event>
 5    1  0.1658612E-008  0.3843057E+03  0.7957747E-01  0.3432622E+00
         13   -1    0    0    0    0  0.00000000000E+00  0.00000000000E+00  0.14999999963E+04  0.15000000000E+04  0.10566000000E+00 0. -1.
        994   -1    0    0    0    0 -0.00000000000E+00 -0.00000000000E+00  0.11368683772E-12  0.17120000000E+03  0.17120000000E+03 0.  0.
         13    1    1    2    0    0  0.11820189229E+02  0.22850351515E+01  0.36498434924E+02  0.38432865818E+02  0.10566000000E+00 0. -1.
        994    1    1    2    0    0 -0.75791926656E+01  0.42089063201E+01  0.22230062212E+01  0.17143377967E+03  0.17120000000E+03 0.  0.
        998    1    1    2    0    0 -0.42409965638E+01 -0.64939414716E+01  0.14612785551E+04  0.14613333545E+04  0.10000000000E+02 0. -1.
</event>
<event>
 5    1  0.1658612E-008  0.3748341E+03  0.7957747E-01  0.3473965E+00
         13   -1    0    0    0    0  0.00000000000E+00  0.00000000000E+00  0.14999999963E+04  0.15000000000E+04  0.10566000000E+00 0.  1.
        994   -1    0    0    0    0 -0.00000000000E+00 -0.00000000000E+00  0.11368683772E-12  0.17120000000E+03  0.17120000000E+03 0.  0.
         13    1    1    2    0    0 -0.58134385741E+02 -0.48116446576E+01  0.11516480083E+03  0.12909570575E+03  0.10566000000E+00 0.  1.
        994    1    1    2    0    0  0.51004043417E+02  0.15660682406E+02  0.23711700815E+02  0.18088215549E+03  0.17120000000E+03 0.  0.
        998    1    1    2    0    0  0.71303423247E+01 -0.10849037749E+02  0.13611234946E+04  0.13612221388E+04  0.10000000000E+02 0.  1.
</event>
<event>
 5    1  0.1658612E-008  0.3803765E+03  0.7957747E-01  0.3449521E+00
         13   -1    0    0    0    0  0.00000000000E+00  0.00000000000E+00  0.14999999963E+04  0.15000000000E+04  0.10566000000E+00 0. -1.
        994   -1    0    0    0    0 -0.00000000000E+00 -0.00000000000E+00  0.11368683772E-12  0.17120000000E+03  0.17120000000E+03 0.  0.
         13    1    1    2    0    0  0.18023653085E+02  0.30376985564E+02  0.20700376741E+03  0.20999567664E+03  0.10566000000E+00 0. -1.
        994    1    1    2    0    0 -0.46258753711E+01  0.18294436928E+02  0.51330120401E+01  0.17231329884E+03  0.17120000000E+03 0.  0.
        998    1    1    2    0    0 -0.13397777714E+02 -0.48671422492E+02  0.12878632168E+04  0.12888910245E+04  0.10000000000E+02 0. -1.
</event>
<event>
 5    1  0.1658612E-008  0.3822637E+03  0.7957747E-01  0.3441361E+00
         13   -1    0    0    0    0  0.00000000000E+00  0.00000000000E+00  0.14999999963E+04  0.15000000000E+04  0.10566000000E+00 0. -1.
        994   -1    0    0    0    0 -0.00000000000E+00 -0.00000000000E+00  0.11368683772E-12  0.17120000000E+03  0.17120000000E+03 0.  0.
         13    1    1    2    0    0  0.93086470304E+01 -0.15140335934E+02  0.51037926747E+02  0.54044072870E+02  0.10566000000E+00 0. -1.
        994    1    1    2    0    0 -0.90772107260E+01  0.11862014775E+02  0.37354189459E+01  0.17189094364E+03  0.17120000000E+03 0.  0.
        998    1    1    2    0    0 -0.23143630440E+00  0.32783211586E+01  0.14452266506E+04  0.14452649835E+04  0.10000000000E+02 0. -1.
</event>
<event>
 5    1  0.1658612E-008  0.3745710E+03  0.7957747E-01  0.3475144E+00
         13   -1    0    0    0    0  0.00000000000E+00  0.00000000000E+00  0.14999999963E+04  0.15000000000E+04  0.10566000000E+00 0.  1.
        994   -1    0    0    0    0 -0.00000000000E+00 -0.00000000000E+00  0.11368683772E-12  0.17120000000E+03  0.17120000000E+03 0.  0.
         13    1    1    2    0    0 -0.42207993117E+02 -0.38333417042E+01  0.13285203035E+03  0.13944849344E+03  0.10566000000E+00 0.  1.
        994    1    1    2    0    0  0.16728619881E+02  0.72821230922E+01  0.80331722339E+01  0.17235674601E+03  0.17120000000E+03 0.  0.
        998    1    1    2    0    0  0.25479373236E+02 -0.34487813880E+01  0.13591147937E+04  0.13593947605E+04  0.10000000000E+02 0.  1.
</event>
<event>
 5    1  0.1658612E-008  0.3802441E+03  0.7957747E-01  0.3450096E+00
         13   -1    0    0    0    0  0.00000000000E+00  0.00000000000E+00  0.14999999963E+04  0.15000000000E+04  0.10566000000E+00 0. -1.
        994   -1    0    0    0    0 -0.00000000000E+00 -0.00000000000E+00  0.11368683772E-12  0.17120000000E+03  0.17120000000E+03 0.  0.
         13    1    1    2    0    0  0.12703945054E+02 -0.41884278685E+01  0.20556203513E+02  0.24525533936E+02  0.10566000000E+00 0. -1.
        994    1    1    2    0    0 -0.10729945038E+02  0.28292362678E+01  0.44213852840E+01  0.17161621411E+03  0.17120000000E+03 0.  0.
        998    1    1    2    0    0 -0.19740000160E+01  0.13591916007E+01  0.14750224075E+04  0.14750582520E+04  0.10000000000E+02 0. -1.
</event>
<event>
 5    1  0.1658612E-008  0.3813200E+03  0.7957747E-01  0.3445431E+00
         13   -1    0    0    0    0  0.00000000000E+00  0.00000000000E+00  0.14999999963E+04  0.15000000000E+04  0.10566000000E+00 0. -1.
        994   -1    0    0    0    0 -0.00000000000E+00 -0.00000000000E+00  0.11368683772E-12  0.17120000000E+03  0.17120000000E+03 0.  0.
         13    1    1    2    0    0  0.11074414073E+02  0.58646567840E+01  0.21282838350E+02  0.24698324205E+02  0.10566000000E+00 0. -1.
        994    1    1    2    0    0 -0.10509822637E+02  0.24420058503E+01  0.38558879155E+01  0.17158300509E+03  0.17120000000E+03 0.  0.
        998    1    1    2    0    0 -0.56459143560E+00 -0.83066626343E+01  0.14748612700E+04  0.14749186707E+04  0.10000000000E+02 0. -1.
</event>
<event>
 5    1  0.1658612E-008  0.3825344E+03  0.7957747E-01  0.3440197E+00
         13   -1    0    0    0    0  0.00000000000E+00  0.00000000000E+00  0.14999999963E+04  0.15000000000E+04  0.10566000000E+00 0. -1.
        994   -1    0    0    0    0 -0.00000000000E+00 -0.00000000000E+00  0.11368683772E-12  0.17120000000E+03  0.17120000000E+03 0.  0.
         13    1    1    2    0    0  0.15340812510E+02  0.17246657646E+02  0.91929752144E+02  0.94783322487E+02  0.10566000000E+00 0. -1.
        994    1    1    2    0    0 -0.13649876224E+02 -0.80169040286E+01  0.36904229597E+01  0.17196990752E+03  0.17120000000E+03 0.  0.
        998    1    1    2    0    0 -0.16909362861E+01 -0.92297536169E+01  0.14043798212E+04  0.14044467700E+04  0.10000000000E+02 0. -1.
</event>
<event>
 5    1  0.1658612E-008  0.3857241E+03  0.7957747E-01  0.3426607E+00
         13   -1    0    0    0    0  0.00000000000E+00  0.00000000000E+00  0.14999999963E+04  0.15000000000E+04  0.10566000000E+00 0.  1.
        994   -1    0    0    0    0 -0.00000000000E+00 -0.00000000000E+00  0.11368683772E-12  0.17120000000E+03  0.17120000000E+03 0.  0.
         13    1    1    2    0    0  0.13252919583E+01  0.10867901520E+02  0.48341395087E+02  0.49565808025E+02  0.10566000000E+00 0.  1.
        994    1    1    2    0    0 -0.27650415111E+01 -0.42090832912E+01  0.13542939006E+01  0.17127940900E+03  0.17120000000E+03 0.  0.
        998    1    1    2    0    0  0.14397495528E+01 -0.66588182291E+01  0.14503043073E+04  0.14503547830E+04  0.10000000000E+02 0.  1.
</event>
<event>
 5    1  0.1658612E-008  0.3785370E+03  0.7957747E-01  0.3457554E+00
         13   -1    0    0    0    0  0.00000000000E+00  0.00000000000E+00  0.14999999963E+04  0.15000000000E+04  0.10566000000E+00 0.  1.
        994   -1    0    0    0    0 -0.00000000000E+00 -0.00000000000E+00  0.11368683772E-12  0.17120000000E+03  0.17120000000E+03 0.  0.
         13    1    1    2    0    0  0.20487604313E+02  0.69383452173E+00  0.40122844115E+02  0.45056377137E+02  0.10566000000E+00 0.  1.
        994    1    1    2    0    0 -0.21918179008E+02  0.17188453071E+01  0.64988525830E+01  0.17272821450E+03  0.17120000000E+03 0.  0.
        998    1    1    2    0    0  0.14305746958E+01 -0.24126798289E+01  0.14533782996E+04  0.14534154084E+04  0.10000000000E+02 0.  1.
</event>
<event>
 5    1  0.1658612E-008  0.3807754E+03  0.7957747E-01  0.3447789E+00
         13   -1    0    0    0    0  0.00000000000E+00  0.00000000000E+00  0.14999999963E+04  0.15000000000E+04  0.10566000000E+00 0.  1.
        994   -1    0    0    0    0 -0.00000000000E+00 -0.00000000000E+00  0.11368683772E-12  0.17120000000E+03  0.17120000000E+03 0.  0.
         13    1    1    2    0    0 -0.14653187276E+02  0.23726131976E+02  0.94753112316E+02  0.98771497374E+02  0.10566000000E+00 0.  1.
        994    1    1    2    0    0  0.31049430601E+02 -0.19188588369E+02  0.81973134918E+01  0.17523956463E+03  0.17120000000E+03 0.  0.
        998    1    1    2    0    0 -0.16396243325E+02 -0.45375436069E+01  0.13970495705E+04  0.13971889380E+04  0.10000000000E+02 0.  1.
</event>
<event>
 5    1  0.1658612E-008  0.3838041E+03  0.7957747E-01  0.3434760E+00
         13   -1    0    0    0    0  0.00000000000E+00  0.00000000000E+00  0.14999999963E+04  0.15000000000E+04  0.10566000000E+00 0.  1.
        994   -1    0    0    0    0 -0.00000000000E+00 -0.00000000000E+00  0.11368683772E-12  0.17120000000E+03  0.17120000000E+03 0.  0.
         13    1    1    2    0    0 -0.41167356062E+01  0.17383658670E+02  0.68077658276E+02  0.70382652843E+02  0.10566000000E+00 0.  1.
        994    1    1    2    0    0  0.22219330348E+01 -0.19659161514E+02  0.35183472348E+01  0.17237528357E+03  0.17120000000E+03 0.  0.
        998    1    1    2    0    0  0.18948025715E+01  0.22755028445E+01  0.14284039908E+04  0.14284420636E+04  0.10000000000E+02 0.  1.
</event>
<event>
 5    1  0.1658612E-008  0.3847135E+03  0.7957747E-01  0.3430888E+00
         13   -1    0    0    0    0  0.00000000000E+00  0.00000000000E+00  0.14999999963E+04  0.15000000000E+04  0.10566000000E+00 0.  1.
        994   -1    0    0    0    0 -0.00000000000E+00 -0.00000000000E+00  0.11368683772E-12  0.17120000000E+03  0.17120000000E+03 0.  0.
         13    1    1    2    0    0  0.19784827146E+02 -0.22081706854E+01  0.11582328721E+03  0.11752174449E+03  0.10566000000E+00 0.  1.
        994    1    1    2    0    0 -0.85524763870E+01 -0.34972281428E+01  0.20535047456E+01  0.17146146021E+03  0.17120000000E+03 0.  0.
        998    1    1    2    0    0 -0.11232350759E+02  0.57053988282E+01  0.13821232043E+04  0.13822167953E+04  0.10000000000E+02 0.  1.
</event>
<event>
 5    1  0.1658612E-008  0.3814815E+03  0.7957747E-01  0.3444733E+00
         13   -1    0    0    0    0  0.00000000000E+00  0.00000000000E+00  0.14999999963E+04  0.15000000000E+04  0.10566000000E+00 0. -1.
        994   -1    0    0    0    0 -0.00000000000E+00 -0.00000000000E+00  0.11368683772E-12  0.17120000000E+03  0.17120000000E+03 0.  0.
         13    1    1    2    0    0 -0.80717687272E+02 -0.21157002765E+03  0.89864610319E+03  0.92673731530E+03  0.10566000000E+00 0. -1.
        994    1    1    2    0    0  0.77900140111E+02  0.24077814476E+03  0.25852182880E+03  0.40023183630E+03  0.17120000000E+03 0.  0.
        998    1    1    2    0    0  0.28175471612E+01 -0.29208117113E+02  0.34283206429E+03  0.34423084839E+03  0.10000000000E+02 0.  1.
</event>
<event>
 5    1  0.1658612E-008  0.3816220E+03  0.7957747E-01  0.3444126E+00
         13   -1    0    0    0    0  0.00000000000E+00  0.00000000000E+00  0.14999999963E+04  0.15000000000E+04  0.10566000000E+00 0.  1.
        994   -1    0    0    0    0 -0.00000000000E+00 -0.00000000000E+00  0.11368683772E-12  0.17120000000E+03  0.17120000000E+03 0.  0.
         13    1    1    2    0    0 -0.16803711902E+02  0.17268792967E+02  0.81884421110E+02  0.85355992928E+02  0.10566000000E+00 0.  1.
        994    1    1    2    0    0  0.17857884088E+02 -0.18318743502E+02  0.54958664769E+01  0.17318812008E+03  0.17120000000E+03 0.  0.
        998    1    1    2    0    0 -0.10541721860E+01  0.10499505353E+01  0.14126197087E+04  0.14126558870E+04  0.10000000000E+02 0.  1.
</event>
<event>
 5    1  0.1658612E-008  0.3706007E+03  0.7957747E-01  0.3493135E+00
         13   -1    0    0    0    0  0.00000000000E+00  0.00000000000E+00  0.14999999963E+04  0.15000000000E+04  0.10566000000E+00 0. -1.
        994   -1    0    0    0    0 -0.00000000000E+00 -0.00000000000E+00  0.11368683772E-12  0.17120000000E+03  0.17120000000E+03 0.  0.
         13    1    1    2    0    0  0.12541391578E+02  0.17537448057E+01  0.47685089014E+01  0.13531886961E+02  0.10566000000E+00 0. -1.
        994    1    1    2    0    0 -0.14341945191E+02 -0.40527728513E+01  0.97221762172E+01  0.17212227360E+03  0.17120000000E+03 0.  0.
        998    1    1    2    0    0  0.18005536130E+01  0.22990280456E+01  0.14855093112E+04  0.14855458394E+04  0.10000000000E+02 0. -1.
</event>
<event>
 5    1  0.1658612E-008  0.3737243E+03  0.7957747E-01  0.3478948E+00
         13   -1    0    0    0    0  0.00000000000E+00  0.00000000000E+00  0.14999999963E+04  0.15000000000E+04  0.10566000000E+00 0.  1.
        994   -1    0    0    0    0 -0.00000000000E+00 -0.00000000000E+00  0.11368683772E-12  0.17120000000E+03  0.17120000000E+03 0.  0.
         13    1    1    2    0    0  0.95752603737E+02  0.57841690230E+02  0.60563164972E+03  0.61587655302E+03  0.10566000000E+00 0.  1.
        994    1    1    2    0    0 -0.86678763801E+02 -0.42094313007E+02  0.39728475859E+02  0.20043186143E+03  0.17120000000E+03 0.  0.
        998    1    1    2    0    0 -0.90738399356E+01 -0.15747377222E+02  0.85463987070E+03  0.85489158555E+03  0.10000000000E+02 0.  1.
</event>
<event>
 5    1  0.1658612E-008  0.3831950E+03  0.7957747E-01  0.3437364E+00
         13   -1    0    0    0    0  0.00000000000E+00  0.00000000000E+00  0.14999999963E+04  0.15000000000E+04  0.10566000000E+00 0. -1.
        994   -1    0    0    0    0 -0.00000000000E+00 -0.00000000000E+00  0.11368683772E-12  0.17120000000E+03  0.17120000000E+03 0.  0.
         13    1    1    2    0    0  0.12276345299E+02  0.21279913345E+02  0.14347376111E+03  0.14556192723E+03  0.10566000000E+00 0. -1.
        994    1    1    2    0    0  0.21112906373E+01  0.89447583932E+01  0.28084073799E+01  0.17146951158E+03  0.17120000000E+03 0.  0.
        998    1    1    2    0    0 -0.14387635936E+02 -0.30224671738E+02  0.13537178278E+04  0.13541685612E+04  0.10000000000E+02 0. -1.
</event>
<event>
 5    1  0.1658612E-008  0.3787168E+03  0.7957747E-01  0.3456765E+00
         13   -1    0    0    0    0  0.00000000000E+00  0.00000000000E+00  0.14999999963E+04  0.15000000000E+04  0.10566000000E+00 0.  1.
        994   -1    0    0    0    0 -0.00000000000E+00 -0.00000000000E+00  0.11368683772E-12  0.17120000000E+03  0.17120000000E+03 0.  0.
         13    1    1    2    0    0  0.63866514564E+01 -0.81703877329E+01  0.90855453625E+01  0.13787779049E+02  0.10566000000E+00 0.  1.
        994    1    1    2    0    0 -0.15354226838E+01  0.89664081016E+01  0.50601914087E+01  0.17151617864E+03  0.17120000000E+03 0.  0.
        998    1    1    2    0    0 -0.48512287726E+01 -0.79602036871E+00  0.14858542595E+04  0.14858960423E+04  0.10000000000E+02 0.  1.
</event>
<event>
 5    1  0.1658612E-008  0.3737553E+03  0.7957747E-01  0.3478808E+00
         13   -1    0    0    0    0  0.00000000000E+00  0.00000000000E+00  0.14999999963E+04  0.15000000000E+04  0.10566000000E+00 0.  1.
        994   -1    0    0    0    0 -0.00000000000E+00 -0.00000000000E+00  0.11368683772E-12  0.17120000000E+03  0.17120000000E+03 0.  0.
         13    1    1    2    0    0 -0.32928654651E+02  0.49398783654E+02  0.33170423845E+03  0.33697514611E+03  0.10566000000E+00 0.  1.
        994    1    1    2    0    0  0.74299535008E+01  0.12348753205E+02  0.80285786762E+01  0.17199300564E+03  0.17120000000E+03 0.  0.
        998    1    1    2    0    0  0.25498701150E+02 -0.61747536860E+02  0.11602671792E+04  0.11622318483E+04  0.10000000000E+02 0.  1.
</event>
<event>
 5    1  0.1658612E-008  0.3811243E+03  0.7957747E-01  0.3446277E+00
         13   -1    0    0    0    0  0.00000000000E+00  0.00000000000E+00  0.14999999963E+04  0.15000000000E+04  0.10566000000E+00 0. -1.
        994   -1    0    0    0    0 -0.00000000000E+00 -0.00000000000E+00  0.11368683772E-12  0.17120000000E+03  0.17120000000E+03 0.  0.
         13    1    1    2    0    0 -0.28429856064E+02 -0.22614455043E+02  0.18295593078E+03  0.18652762279E+03  0.10566000000E+00 0. -1.
        994    1    1    2    0    0  0.11237058482E+02  0.21011251078E+02  0.54598540026E+01  0.17293638761E+03  0.17120000000E+03 0.  0.
        998    1    1    2    0    0  0.17192797582E+02  0.16032039644E+01  0.13115842115E+04  0.13117359896E+04  0.10000000000E+02 0. -1.
</event>
<event>
 5    1  0.1658612E-008  0.3828354E+03  0.7957747E-01  0.3438904E+00
         13   -1    0    0    0    0  0.00000000000E+00  0.00000000000E+00  0.14999999963E+04  0.15000000000E+04  0.10566000000E+00 0. -1.
        994   -1    0    0    0    0 -0.00000000000E+00 -0.00000000000E+00  0.11368683772E-12  0.17120000000E+03  0.17120000000E+03 0.  0.
         13    1    1    2    0    0  0.39288580114E+01 -0.24152511605E+02  0.11970864159E+03  0.12218408152E+03  0.10566000000E+00 0. -1.
        994    1    1    2    0    0 -0.68080528738E+01  0.13455307981E+01  0.28681423073E+01  0.17136460042E+03  0.17120000000E+03 0.  0.
        998    1    1    2    0    0  0.28791948624E+01  0.22806980807E+02  0.13774232124E+04  0.13776513181E+04  0.10000000000E+02 0. -1.
</event>
<event>
 5    1  0.1658612E-008  0.3805062E+03  0.7957747E-01  0.3448957E+00
         13   -1    0    0    0    0  0.00000000000E+00  0.00000000000E+00  0.14999999963E+04  0.15000000000E+04  0.10566000000E+00 0. -1.
        994   -1    0    0    0    0 -0.00000000000E+00 -0.00000000000E+00  0.11368683772E-12  0.17120000000E+03  0.17120000000E+03 0.  0.
         13    1    1    2    0    0 -0.16457041846E+02  0.11842223473E+02  0.51400429303E+02  0.55254753458E+02  0.10566000000E+00 0. -1.
        994    1    1    2    0    0  0.16843627975E+02 -0.80194487855E+00  0.48273916311E+01  0.17209617843E+03  0.17120000000E+03 0.  0.
        998    1    1    2    0    0 -0.38658612896E+00 -0.11040278595E+02  0.14437721753E+04  0.14438490681E+04  0.10000000000E+02 0. -1.
</event>
<event>
 5    1  0.1658612E-008  0.4078394E+03  0.7957747E-01  0.3338230E+00
         13   -1    0    0    0    0  0.00000000000E+00  0.00000000000E+00  0.14999999963E+04  0.15000000000E+04  0.10566000000E+00 0.  1.
        994   -1    0    0    0    0 -0.00000000000E+00 -0.00000000000E+00  0.11368683772E-12  0.17120000000E+03  0.17120000000E+03 0.  0.
         13    1    1    2    0    0  0.16305354168E+02 -0.75945102681E+02  0.74844515766E+02  0.10786675067E+03  0.10566000000E+00 0.  1.
        994    1    1    2    0    0 -0.44221030279E+02  0.84644840886E+02  0.70501786987E+02  0.20832712396E+03  0.17120000000E+03 0.  0.
        998    1    1    2    0    0  0.27915676112E+02 -0.86997382045E+01  0.13546536935E+04  0.13550061254E+04  0.10000000000E+02 0.  1.
</event>
<event>
 5    1  0.1658612E-008  0.3826365E+03  0.7957747E-01  0.3439758E+00
         13   -1    0    0    0    0  0.00000000000E+00  0.00000000000E+00  0.14999999963E+04  0.15000000000E+04  0.10566000000E+00 0. -1.
        994   -1    0    0    0    0 -0.00000000000E+00 -0.00000000000E+00  0.11368683772E-12  0.17120000000E+03  0.17120000000E+03 0.  0.
         13    1    1    2    0    0 -0.11729113878E+02  0.13370041341E+02  0.57818495111E+02  0.60492310741E+02  0.10566000000E+00 0. -1.
        994    1    1    2    0    0  0.90889326849E+01  0.42972409713E+01  0.31431669953E+01  0.17152374318E+03  0.17120000000E+03 0.  0.
        998    1    1    2    0    0  0.26401811933E+01 -0.17667282312E+02  0.14390383342E+04  0.14391839461E+04  0.10000000000E+02 0. -1.
</event>
<event>
 5    1  0.1658612E-008  0.2780146E+03  0.7957747E-01  0.4066659E+00
         13   -1    0    0    0    0  0.00000000000E+00  0.00000000000E+00  0.14999999963E+04  0.15000000000E+04  0.10566000000E+00 0. -1.
        994   -1    0    0    0    0 -0.00000000000E+00 -0.00000000000E+00  0.11368683772E-12  0.17120000000E+03  0.17120000000E+03 0.  0.
         13    1    1    2    0    0 -0.65203509906E+02 -0.14000789397E+03  0.65717793106E+03  0.67508262628E+03  0.10566000000E+00 0. -1.
        994    1    1    2    0    0  0.26017554193E+02  0.50475376485E+02  0.36746664935E+02  0.18407725047E+03  0.17120000000E+03 0.  0.
        998    1    1    2    0    0  0.39185955714E+02  0.89532517482E+02  0.80607540029E+03  0.81204012325E+03  0.10000000000E+02 0.  1.
</event>
<event>
 5    1  0.1658612E-008  0.3838381E+03  0.7957747E-01  0.3434615E+00
         13   -1    0    0    0    0  0.00000000000E+00  0.00000000000E+00  0.14999999963E+04  0.15000000000E+04  0.10566000000E+00 0.  1.
        994   -1    0    0    0    0 -0.00000000000E+00 -0.00000000000E+00  0.11368683772E-12  0.17120000000E+03  0.17120000000E+03 0.  0.
         13    1    1    2    0    0 -0.14663459899E+02 -0.21013082687E+02  0.14424061876E+03  0.14649892138E+03  0.10566000000E+00 0.  1.
        994    1    1    2    0    0  0.12598155972E+02  0.14075975157E+02  0.33869764206E+01  0.17227233736E+03  0.17120000000E+03 0.  0.
        998    1    1    2    0    0  0.20653039270E+01  0.69371075300E+01  0.13523724011E+04  0.13524287413E+04  0.10000000000E+02 0.  1.
</event>
<event>
 5    1  0.1658612E-008  0.3743911E+03  0.7957747E-01  0.3475951E+00
         13   -1    0    0    0    0  0.00000000000E+00  0.00000000000E+00  0.14999999963E+04  0.15000000000E+04  0.10566000000E+00 0.  1.
        994   -1    0    0    0    0 -0.00000000000E+00 -0.00000000000E+00  0.11368683772E-12  0.17120000000E+03  0.17120000000E+03 0.  0.
         13    1    1    2    0    0  0.14778820936E+03 -0.23611847739E+02  0.49116083444E+03  0.51345676608E+03  0.10566000000E+00 0.  1.
        994    1    1    2    0    0 -0.16487063592E+03 -0.20038616370E+02  0.11890207902E+03  0.26651644814E+03  0.17120000000E+03 0.  0.
        998    1    1    2    0    0  0.17082426554E+02  0.43650464109E+02  0.88993708282E+03  0.89122678578E+03  0.10000000000E+02 0.  1.
</event>
<event>
 5    1  0.1658612E-008  0.3825730E+03  0.7957747E-01  0.3440031E+00
         13   -1    0    0    0    0  0.00000000000E+00  0.00000000000E+00  0.14999999963E+04  0.15000000000E+04  0.10566000000E+00 0. -1.
        994   -1    0    0    0    0 -0.00000000000E+00 -0.00000000000E+00  0.11368683772E-12  0.17120000000E+03  0.17120000000E+03 0.  0.
         13    1    1    2    0    0  0.77022481514E+01  0.24618777254E+02  0.12961129560E+03  0.13215335005E+03  0.10566000000E+00 0. -1.
        994    1    1    2    0    0  0.27133358213E+01 -0.11666179972E+01  0.28688517302E+01  0.17124950657E+03  0.17120000000E+03 0.  0.
        998    1    1    2    0    0 -0.10415583973E+02 -0.23452159256E+02  0.13675198490E+04  0.13677971434E+04  0.10000000000E+02 0. -1.
</event>
<event>
 5    1  0.1658612E-008  0.3849384E+03  0.7957747E-01  0.3429933E+00
         13   -1    0    0    0    0  0.00000000000E+00  0.00000000000E+00  0.14999999963E+04  0.15000000000E+04  0.10566000000E+00 0.  1.
        994   -1    0    0    0    0 -0.00000000000E+00 -0.00000000000E+00  0.11368683772E-12  0.17120000000E+03  0.17120000000E+03 0.  0.
         13    1    1    2    0    0  0.87074595290E+01 -0.15660419325E+02  0.90773162780E+02  0.92524844393E+02  0.10566000000E+00 0.  1.
        994    1    1    2    0    0 -0.96867187610E+01  0.17614152049E+02  0.29910109804E+01  0.17240207951E+03  0.17120000000E+03 0.  0.
        998    1    1    2    0    0  0.97925923205E+00 -0.19537327235E+01  0.14062358225E+04  0.14062730761E+04  0.10000000000E+02 0.  1.
</event>
<event>
 5    1  0.1658612E-008  0.3792835E+03  0.7957747E-01  0.3454284E+00
         13   -1    0    0    0    0  0.00000000000E+00  0.00000000000E+00  0.14999999963E+04  0.15000000000E+04  0.10566000000E+00 0.  1.
        994   -1    0    0    0    0 -0.00000000000E+00 -0.00000000000E+00  0.11368683772E-12  0.17120000000E+03  0.17120000000E+03 0.  0.
         13    1    1    2    0    0  0.16109326916E+02 -0.14683587052E+02  0.36854586158E+02  0.42818101631E+02  0.10566000000E+00 0.  1.
        994    1    1    2    0    0 -0.79659768027E+02  0.79152487582E+02  0.47982890929E+02  0.21029168494E+03  0.17120000000E+03 0.  0.
        998    1    1    2    0    0  0.63550441111E+02 -0.64468900530E+02  0.14151625192E+04  0.14180902134E+04  0.10000000000E+02 0.  1.
</event>
<event>
 5    1  0.1658612E-008  0.3686917E+03  0.7957747E-01  0.3501925E+00
         13   -1    0    0    0    0  0.00000000000E+00  0.00000000000E+00  0.14999999963E+04  0.15000000000E+04  0.10566000000E+00 0.  1.
        994   -1    0    0    0    0 -0.00000000000E+00 -0.00000000000E+00  0.11368683772E-12  0.17120000000E+03  0.17120000000E+03 0.  0.
         13    1    1    2    0    0  0.86078440132E+02 -0.10139049791E+03  0.45857572974E+03  0.47747381289E+03  0.10566000000E+00 0.  1.
        994    1    1    2    0    0 -0.10912986339E+03  0.11659536395E+03  0.10457388171E+03  0.25641556644E+03  0.17120000000E+03 0.  0.
        998    1    1    2    0    0  0.23051423257E+02 -0.15204866042E+02  0.93685038483E+03  0.93731062067E+03  0.10000000000E+02 0.  1.
</event>
<event>
 5    1  0.1658612E-008  0.3776163E+03  0.7957747E-01  0.3461604E+00
         13   -1    0    0    0    0  0.00000000000E+00  0.00000000000E+00  0.14999999963E+04  0.15000000000E+04  0.10566000000E+00 0.  1.
        994   -1    0    0    0    0 -0.00000000000E+00 -0.00000000000E+00  0.11368683772E-12  0.17120000000E+03  0.17120000000E+03 0.  0.
         13    1    1    2    0    0  0.31118831146E+02 -0.31490230066E+02  0.16407405491E+03  0.16994211632E+03  0.10566000000E+00 0.  1.
        994    1    1    2    0    0 -0.26598665117E+02  0.34552880001E+02  0.11774914930E+02  0.17705784118E+03  0.17120000000E+03 0.  0.
        998    1    1    2    0    0 -0.45201660287E+01 -0.30626499349E+01  0.13241510264E+04  0.13242000425E+04  0.10000000000E+02 0.  1.
</event>
<event>
 5    1  0.1658612E-008  0.3808576E+03  0.7957747E-01  0.3447433E+00
         13   -1    0    0    0    0  0.00000000000E+00  0.00000000000E+00  0.14999999963E+04  0.15000000000E+04  0.10566000000E+00 0. -1.
        994   -1    0    0    0    0 -0.00000000000E+00 -0.00000000000E+00  0.11368683772E-12  0.17120000000E+03  0.17120000000E+03 0.  0.
         13    1    1    2    0    0  0.13600525337E+02  0.32221751122E+02  0.16591227936E+03  0.16955857732E+03  0.10566000000E+00 0. -1.
        994    1    1    2    0    0  0.93602350924E+01 -0.24886683356E+02  0.60610728162E+01  0.17335840797E+03  0.17120000000E+03 0.  0.
        998    1    1    2    0    0 -0.22960760429E+02 -0.73350677667E+01  0.13280266441E+04  0.13282830147E+04  0.10000000000E+02 0. -1.
</event>
<event>
 5    1  0.1658612E-008  0.3739470E+03  0.7957747E-01  0.3477945E+00
         13   -1    0    0    0    0  0.00000000000E+00  0.00000000000E+00  0.14999999963E+04  0.15000000000E+04  0.10566000000E+00 0. -1.
        994   -1    0    0    0    0 -0.00000000000E+00 -0.00000000000E+00  0.11368683772E-12  0.17120000000E+03  0.17120000000E+03 0.  0.
         13    1    1    2    0    0  0.96170469684E+01  0.97439164146E+01  0.97588642730E+01  0.16813033498E+02  0.10566000000E+00 0. -1.
        994    1    1    2    0    0 -0.63912120342E+01 -0.61486312873E+01  0.74888057510E+01  0.17159305193E+03  0.17120000000E+03 0.  0.
        998    1    1    2    0    0 -0.32258349342E+01 -0.35952851273E+01  0.14827523263E+04  0.14827939146E+04  0.10000000000E+02 0. -1.
</event>
<event>
 5    1  0.1658612E-008  0.3755404E+03  0.7957747E-01  0.3470809E+00
         13   -1    0    0    0    0  0.00000000000E+00  0.00000000000E+00  0.14999999963E+04  0.15000000000E+04  0.10566000000E+00 0. -1.
        994   -1    0    0    0    0 -0.00000000000E+00 -0.00000000000E+00  0.11368683772E-12  0.17120000000E+03  0.17120000000E+03 0.  0.
         13    1    1    2    0    0  0.13339868133E+02  0.25032292600E+02  0.55757010045E+02  0.62557358383E+02  0.10566000000E+00 0. -1.
        994    1    1    2    0    0 -0.18601389581E+02 -0.37836896438E+02  0.12456985162E+02  0.17675479882E+03  0.17120000000E+03 0.  0.
        998    1    1    2    0    0  0.52615214482E+01  0.12804603838E+02  0.14317860011E+04  0.14318878428E+04  0.10000000000E+02 0. -1.
</event>
<event>
 5    1  0.1658612E-008  0.3858330E+03  0.7957747E-01  0.3426147E+00
         13   -1    0    0    0    0  0.00000000000E+00  0.00000000000E+00  0.14999999963E+04  0.15000000000E+04  0.10566000000E+00 0.  1.
        994   -1    0    0    0    0 -0.00000000000E+00 -0.00000000000E+00  0.11368683772E-12  0.17120000000E+03  0.17120000000E+03 0.  0.
         13    1    1    2    0    0 -0.11311294939E+02 -0.39541441261E+01  0.59372591044E+02  0.60569764571E+02  0.10566000000E+00 0.  1.
        994    1    1    2    0    0  0.12232050147E+02 -0.89325493855E+01  0.19699311833E+01  0.17187999918E+03  0.17120000000E+03 0.  0.
        998    1    1    2    0    0 -0.92075520854E+00  0.12886693512E+02  0.14386574741E+04  0.14387502362E+04  0.10000000000E+02 0.  1.
</event>
<event>
 5    1  0.1658612E-008  0.3847526E+03  0.7957747E-01  0.3430722E+00
         13   -1    0    0    0    0  0.00000000000E+00  0.00000000000E+00  0.14999999963E+04  0.15000000000E+04  0.10566000000E+00 0.  1.
        994   -1    0    0    0    0 -0.00000000000E+00 -0.00000000000E+00  0.11368683772E-12  0.17120000000E+03  0.17120000000E+03 0.  0.
         13    1    1    2    0    0  0.67194128886E+01 -0.10134878977E+02  0.39944540051E+02  0.41754565323E+02  0.10566000000E+00 0.  1.
        994    1    1    2    0    0 -0.13143588864E+02  0.13284722770E+02  0.29033206059E+01  0.17224142085E+03  0.17120000000E+03 0.  0.
        998    1    1    2    0    0  0.64241759750E+01 -0.31498437938E+01  0.14571521356E+04  0.14572040138E+04  0.10000000000E+02 0.  1.
</event>
<event>
 5    1  0.1658612E-008  0.3796888E+03  0.7957747E-01  0.3452515E+00
         13   -1    0    0    0    0  0.00000000000E+00  0.00000000000E+00  0.14999999963E+04  0.15000000000E+04  0.10566000000E+00 0.  1.
        994   -1    0    0    0    0 -0.00000000000E+00 -0.00000000000E+00  0.11368683772E-12  0.17120000000E+03  0.17120000000E+03 0.  0.
         13    1    1    2    0    0 -0.67769590625E+01 -0.39684450269E+02  0.17705775549E+03  0.18157709853E+03  0.10566000000E+00 0.  1.
        994    1    1    2    0    0 -0.78439939766E+01  0.33851966625E+02  0.83415952698E+01  0.17488998284E+03  0.17120000000E+03 0.  0.
        998    1    1    2    0    0  0.14620953039E+02  0.58324836439E+01  0.13146006455E+04  0.13147329186E+04  0.10000000000E+02 0.  1.
</event>
<event>
 5    1  0.1658612E-008  0.3851423E+03  0.7957747E-01  0.3429069E+00
         13   -1    0    0    0    0  0.00000000000E+00  0.00000000000E+00  0.14999999963E+04  0.15000000000E+04  0.10566000000E+00 0.  1.
        994   -1    0    0    0    0 -0.00000000000E+00 -0.00000000000E+00  0.11368683772E-12  0.17120000000E+03  0.17120000000E+03 0.  0.
         13    1    1    2    0    0  0.13811036375E+02 -0.22062684153E+01  0.66104360289E+02  0.67567817482E+02  0.10566000000E+00 0.  1.
        994    1    1    2    0    0 -0.20142986789E+01 -0.32388160962E+01  0.16073146329E+01  0.17125002420E+03  0.17120000000E+03 0.  0.
        998    1    1    2    0    0 -0.11796737696E+02  0.54450845115E+01  0.14322883214E+04  0.14323821583E+04  0.10000000000E+02 0.  1.
</event>
<event>
 5    1  0.1658612E-008  0.3796383E+03  0.7957747E-01  0.3452735E+00
         13   -1    0    0    0    0  0.00000000000E+00  0.00000000000E+00  0.14999999963E+04  0.15000000000E+04  0.10566000000E+00 0. -1.
        994   -1    0    0    0    0 -0.00000000000E+00 -0.00000000000E+00  0.11368683772E-12  0.17120000000E+03  0.17120000000E+03 0.  0.
         13    1    1    2    0    0 -0.50857940288E+02 -0.24453602290E+02  0.28433813382E+03  0.28988393240E+03  0.10566000000E+00 0. -1.
        994    1    1    2    0    0  0.58053664977E+02  0.23007616179E+02  0.17479833577E+02  0.18306983094E+03  0.17120000000E+03 0.  0.
        998    1    1    2    0    0 -0.71957246887E+01  0.14459861109E+01  0.11981820289E+04  0.11982462367E+04  0.10000000000E+02 0. -1.
</event>
<event>
 5    1  0.1658612E-008  0.3711391E+03  0.7957747E-01  0.3490672E+00
         13   -1    0    0    0    0  0.00000000000E+00  0.00000000000E+00  0.14999999963E+04  0.15000000000E+04  0.10566000000E+00 0. -1.
        994   -1    0    0    0    0 -0.00000000000E+00 -0.00000000000E+00  0.11368683772E-12  0.17120000000E+03  0.17120000000E+03 0.  0.
         13    1    1    2    0    0 -0.37400809586E+02 -0.28780173971E+01  0.77744129442E+02  0.86320706487E+02  0.10566000000E+00 0. -1.
        994    1    1    2    0    0  0.22557207395E+02  0.28692136154E+02  0.13276597085E+02  0.17554991972E+03  0.17120000000E+03 0.  0.
        998    1    1    2    0    0  0.14843602191E+02 -0.25814118757E+02  0.14089792698E+04  0.14093293738E+04  0.10000000000E+02 0. -1.
</event>
<event>
 5    1  0.1658612E-008  0.3862118E+03  0.7957747E-01  0.3424549E+00
         13   -1    0    0    0    0  0.00000000000E+00  0.00000000000E+00  0.14999999963E+04  0.15000000000E+04  0.10566000000E+00 0. -1.
        994   -1    0    0    0    0 -0.00000000000E+00 -0.00000000000E+00  0.11368683772E-12  0.17120000000E+03  0.17120000000E+03 0.  0.
         13    1    1    2    0    0 -0.35757720643E+01  0.11412515380E+02  0.67495336772E+02  0.68546796447E+02  0.10566000000E+00 0. -1.
        994    1    1    2    0    0  0.70375316174E+01 -0.11889669006E+02  0.16552468408E+01  0.17176457994E+03  0.17120000000E+03 0.  0.
        998    1    1    2    0    0 -0.34617595531E+01  0.47715362636E+00  0.14308494127E+04  0.14308886236E+04  0.10000000000E+02 0. -1.
</event>
<event>
 5    1  0.1658612E-008  0.3824914E+03  0.7957747E-01  0.3440382E+00
         13   -1    0    0    0    0  0.00000000000E+00  0.00000000000E+00  0.14999999963E+04  0.15000000000E+04  0.10566000000E+00 0.  1.
        994   -1    0    0    0    0 -0.00000000000E+00 -0.00000000000E+00  0.11368683772E-12  0.17120000000E+03  0.17120000000E+03 0.  0.
         13    1    1    2    0    0  0.16071319721E+02  0.39773319785E+01  0.45905270376E+02  0.48799707987E+02  0.10566000000E+00 0.  1.
        994    1    1    2    0    0 -0.15315846102E+02  0.61908349776E+00  0.36601924656E+01  0.17192380700E+03  0.17120000000E+03 0.  0.
        998    1    1    2    0    0 -0.75547361894E+00 -0.45964154763E+01  0.14504345334E+04  0.14504764850E+04  0.10000000000E+02 0.  1.
</event>
<event>
 5    1  0.1658612E-008  0.3844731E+03  0.7957747E-01  0.3431910E+00
         13   -1    0    0    0    0  0.00000000000E+00  0.00000000000E+00  0.14999999963E+04  0.15000000000E+04  0.10566000000E+00 0.  1.
        994   -1    0    0    0    0 -0.00000000000E+00 -0.00000000000E+00  0.11368683772E-12  0.17120000000E+03  0.17120000000E+03 0.  0.
         13    1    1    2    0    0 -0.17555699960E+02  0.50510350382E+01  0.85034841081E+02  0.86975001683E+02  0.10566000000E+00 0.  1.
        994    1    1    2    0    0  0.17883407057E+02  0.13544536721E+01  0.29522860656E+01  0.17216215259E+03  0.17120000000E+03 0.  0.
        998    1    1    2    0    0 -0.32770709695E+00 -0.64054887103E+01  0.14120128691E+04  0.14120628457E+04  0.10000000000E+02 0.  1.
</event>
<event>
 5    1  0.1658612E-008  0.3707043E+03  0.7957747E-01  0.3492660E+00
         13   -1    0    0    0    0  0.00000000000E+00  0.00000000000E+00  0.14999999963E+04  0.15000000000E+04  0.10566000000E+00 0.  1.
        994   -1    0    0    0    0 -0.00000000000E+00 -0.00000000000E+00  0.11368683772E-12  0.17120000000E+03  0.17120000000E+03 0.  0.
         13    1    1    2    0    0 -0.13526346744E+02  0.10024805488E+02  0.12074752825E+02  0.20718822387E+02  0.10566000000E+00 0.  1.
        994    1    1    2    0    0 -0.70335387022E+00 -0.15674541796E+02  0.97509837420E+01  0.17219380840E+03  0.17120000000E+03 0.  0.
        998    1    1    2    0    0  0.14229700614E+02  0.56497363088E+01  0.14781742597E+04  0.14782873692E+04  0.10000000000E+02 0.  1.
</event>
<event>
 5    1  0.1658612E-008  0.3810650E+03  0.7957747E-01  0.3446534E+00
         13   -1    0    0    0    0  0.00000000000E+00  0.00000000000E+00  0.14999999963E+04  0.15000000000E+04  0.10566000000E+00 0. -1.
        994   -1    0    0    0    0 -0.00000000000E+00 -0.00000000000E+00  0.11368683772E-12  0.17120000000E+03  0.17120000000E+03 0.  0.
         13    1    1    2    0    0 -0.39244659355E+02 -0.18720715606E+02  0.24310160966E+03  0.24695953568E+03  0.10566000000E+00 0. -1.
        994    1    1    2    0    0  0.25104274063E+02  0.25457369076E+02  0.78664949475E+01  0.17507034003E+03  0.17120000000E+03 0.  0.
        998    1    1    2    0    0  0.14140385293E+02 -0.67366534700E+01  0.12490318917E+04  0.12491701243E+04  0.10000000000E+02 0. -1.
</event>
<event>
 5    1  0.1658612E-008  0.3790765E+03  0.7957747E-01  0.3455190E+00
         13   -1    0    0    0    0  0.00000000000E+00  0.00000000000E+00  0.14999999963E+04  0.15000000000E+04  0.10566000000E+00 0.  1.
        994   -1    0    0    0    0 -0.00000000000E+00 -0.00000000000E+00  0.11368683772E-12  0.17120000000E+03  0.17120000000E+03 0.  0.
         13    1    1    2    0    0  0.24521144965E+02 -0.27781427028E+01  0.69142159360E+02  0.73414262867E+02  0.10566000000E+00 0.  1.
        994    1    1    2    0    0 -0.12792376926E+01 -0.18934059532E+02  0.58085655760E+01  0.17234649545E+03  0.17120000000E+03 0.  0.
        998    1    1    2    0    0 -0.23241907272E+02  0.21712202235E+02  0.14250492713E+04  0.14254392417E+04  0.10000000000E+02 0.  1.
</event>
<event>
 5    1  0.1658612E-008  0.3810188E+03  0.7957747E-01  0.3446734E+00
         13   -1    0    0    0    0  0.00000000000E+00  0.00000000000E+00  0.14999999963E+04  0.15000000000E+04  0.10566000000E+00 0.  1.
        994   -1    0    0    0    0 -0.00000000000E+00 -0.00000000000E+00  0.11368683772E-12  0.17120000000E+03  0.17120000000E+03 0.  0.
         13    1    1    2    0    0  0.72498317546E+00  0.38069253900E+02  0.19870084054E+03  0.20231616072E+03  0.10566000000E+00 0.  1.
        994    1    1    2    0    0 -0.64180139517E+01 -0.22185289875E+02  0.53988229526E+01  0.17283508116E+03  0.17120000000E+03 0.  0.
        998    1    1    2    0    0  0.56930307762E+01 -0.15883964025E+02  0.12959003328E+04  0.12960487581E+04  0.10000000000E+02 0.  1.
</event>
<event>
 5    1  0.1658612E-008  0.3832407E+03  0.7957747E-01  0.3437168E+00
         13   -1    0    0    0    0  0.00000000000E+00  0.00000000000E+00  0.14999999963E+04  0.15000000000E+04  0.10566000000E+00 0.  1.
        994   -1    0    0    0    0 -0.00000000000E+00 -0.00000000000E+00  0.11368683772E-12  0.17120000000E+03  0.17120000000E+03 0.  0.
         13    1    1    2    0    0  0.24761494367E+02 -0.34938329877E+01  0.14210329183E+03  0.14428685036E+03  0.10566000000E+00 0.  1.
        994    1    1    2    0    0  0.21924614152E+01  0.13951267542E+01  0.25284396807E+01  0.17123839018E+03  0.17120000000E+03 0.  0.
        998    1    1    2    0    0 -0.26953955782E+02  0.20987062335E+01  0.13553682648E+04  0.13556747595E+04  0.10000000000E+02 0.  1.
</event>
<event>
 5    1  0.1658612E-008  0.3856504E+03  0.7957747E-01  0.3426918E+00
         13   -1    0    0    0    0  0.00000000000E+00  0.00000000000E+00  0.14999999963E+04  0.15000000000E+04  0.10566000000E+00 0.  1.
        994   -1    0    0    0    0 -0.00000000000E+00 -0.00000000000E+00  0.11368683772E-12  0.17120000000E+03  0.17120000000E+03 0.  0.
         13    1    1    2    0    0  0.14350181562E+02  0.39337490815E+01  0.80487722556E+02  0.81851614150E+02  0.10566000000E+00 0.  1.
        994    1    1    2    0    0 -0.18314550938E+02  0.18656058627E+01  0.24205378295E+01  0.17220395543E+03  0.17120000000E+03 0.  0.
        998    1    1    2    0    0  0.39643693761E+01 -0.57993549441E+01  0.14170917359E+04  0.14171444304E+04  0.10000000000E+02 0.  1.
</event>
<event>
 5    1  0.1658612E-008  0.3832025E+03  0.7957747E-01  0.3437332E+00
         13   -1    0    0    0    0  0.00000000000E+00  0.00000000000E+00  0.14999999963E+04  0.15000000000E+04  0.10566000000E+00 0.  1.
        994   -1    0    0    0    0 -0.00000000000E+00 -0.00000000000E+00  0.11368683772E-12  0.17120000000E+03  0.17120000000E+03 0.  0.
         13    1    1    2    0    0 -0.14706830632E+02  0.13062640256E+02  0.72608772151E+02  0.75226115114E+02  0.10566000000E+00 0.  1.
        994    1    1    2    0    0  0.31947323867E+02  0.39124741968E+01  0.59595730529E+01  0.17430116313E+03  0.17120000000E+03 0.  0.
        998    1    1    2    0    0 -0.17240493235E+02 -0.16975114453E+02  0.14214316511E+04  0.14216727218E+04  0.10000000000E+02 0.  1.
</event>
<event>
 5    1  0.1658612E-008  0.3691963E+03  0.7957747E-01  0.3499593E+00
         13   -1    0    0    0    0  0.00000000000E+00  0.00000000000E+00  0.14999999963E+04  0.15000000000E+04  0.10566000000E+00 0.  1.
        994   -1    0    0    0    0 -0.00000000000E+00 -0.00000000000E+00  0.11368683772E-12  0.17120000000E+03  0.17120000000E+03 0.  0.
         13    1    1    2    0    0  0.37455391520E+02  0.90742931053E+02  0.41690082998E+03  0.42830304586E+03  0.10566000000E+00 0.  1.
        994    1    1    2    0    0 -0.48165835342E+02 -0.65595349098E+02  0.33017222861E+02  0.19241173177E+03  0.17120000000E+03 0.  0.
        998    1    1    2    0    0  0.10710443822E+02 -0.25147581955E+02  0.10500819434E+04  0.10504852224E+04  0.10000000000E+02 0.  1.
</event>
<event>
 5    1  0.1658612E-008  0.3721493E+03  0.7957747E-01  0.3486071E+00
         13   -1    0    0    0    0  0.00000000000E+00  0.00000000000E+00  0.14999999963E+04  0.15000000000E+04  0.10566000000E+00 0. -1.
        994   -1    0    0    0    0 -0.00000000000E+00 -0.00000000000E+00  0.11368683772E-12  0.17120000000E+03  0.17120000000E+03 0.  0.
         13    1    1    2    0    0 -0.27101673256E+02  0.47513490560E+02  0.21383518412E+03  0.22072047845E+03  0.10566000000E+00 0. -1.
        994    1    1    2    0    0 -0.14806798889E+02 -0.12600110324E+02  0.94484002456E+01  0.17255931253E+03  0.17120000000E+03 0.  0.
        998    1    1    2    0    0  0.41908472146E+02 -0.34913380236E+02  0.12767164119E+04  0.12779202090E+04  0.10000000000E+02 0. -1.
</event>
<event>
 5    1  0.1658612E-008  0.3840782E+03  0.7957747E-01  0.3433591E+00
         13   -1    0    0    0    0  0.00000000000E+00  0.00000000000E+00  0.14999999963E+04  0.15000000000E+04  0.10566000000E+00 0.  1.
        994   -1    0    0    0    0 -0.00000000000E+00 -0.00000000000E+00  0.11368683772E-12  0.17120000000E+03  0.17120000000E+03 0.  0.
         13    1    1    2    0    0  0.28986973158E+00 -0.14602213570E+02  0.48718201929E+02  0.50860426944E+02  0.10566000000E+00 0.  1.
        994    1    1    2    0    0 -0.31786050764E+00  0.17532425552E+02  0.31033822197E+01  0.17212367055E+03  0.17120000000E+03 0.  0.
        998    1    1    2    0    0  0.27990776063E-01 -0.29302119819E+01  0.14481784121E+04  0.14482159025E+04  0.10000000000E+02 0.  1.
</event>
<event>
 5    1  0.1658612E-008  0.3800874E+03  0.7957747E-01  0.3450778E+00
         13   -1    0    0    0    0  0.00000000000E+00  0.00000000000E+00  0.14999999963E+04  0.15000000000E+04  0.10566000000E+00 0. -1.
        994   -1    0    0    0    0 -0.00000000000E+00 -0.00000000000E+00  0.11368683772E-12  0.17120000000E+03  0.17120000000E+03 0.  0.
         13    1    1    2    0    0  0.24160235234E+02  0.39131690361E+01  0.69929579205E+02  0.74089048248E+02  0.10566000000E+00 0. -1.
        994    1    1    2    0    0 -0.21277746193E+02 -0.27571325291E+01  0.56289734342E+01  0.17263102156E+03  0.17120000000E+03 0.  0.
        998    1    1    2    0    0 -0.28824890410E+01 -0.11560365070E+01  0.14244414436E+04  0.14244799302E+04  0.10000000000E+02 0. -1.
</event>
<event>
 5    1  0.1658612E-008  0.3860906E+03  0.7957747E-01  0.3425060E+00
         13   -1    0    0    0    0  0.00000000000E+00  0.00000000000E+00  0.14999999963E+04  0.15000000000E+04  0.10566000000E+00 0. -1.
        994   -1    0    0    0    0 -0.00000000000E+00 -0.00000000000E+00  0.11368683772E-12  0.17120000000E+03  0.17120000000E+03 0.  0.
         13    1    1    2    0    0  0.33173719356E+01 -0.10841542276E+02  0.54963746050E+02  0.56121016913E+02  0.10566000000E+00 0. -1.
        994    1    1    2    0    0 -0.14687387142E+02  0.16179557094E+02  0.26559821361E+01  0.17260936142E+03  0.17120000000E+03 0.  0.
        998    1    1    2    0    0  0.11370015206E+02 -0.53380148177E+01  0.14423802681E+04  0.14424696217E+04  0.10000000000E+02 0. -1.
</event>
<event>
 5    1  0.1658612E-008  0.3795189E+03  0.7957747E-01  0.3453256E+00
         13   -1    0    0    0    0  0.00000000000E+00  0.00000000000E+00  0.14999999963E+04  0.15000000000E+04  0.10566000000E+00 0.  1.
        994   -1    0    0    0    0 -0.00000000000E+00 -0.00000000000E+00  0.11368683772E-12  0.17120000000E+03  0.17120000000E+03 0.  0.
         13    1    1    2    0    0 -0.39324486889E+02  0.32878604660E+02  0.22396660047E+03  0.22975740947E+03  0.10566000000E+00 0.  1.
        994    1    1    2    0    0  0.11133344569E+03  0.11544982145E+02  0.47535622141E+02  0.20999404304E+03  0.17120000000E+03 0.  0.
        998    1    1    2    0    0 -0.72008958801E+02 -0.44423586805E+02  0.12284977737E+04  0.12314485475E+04  0.10000000000E+02 0.  1.
</event>
<event>
 5    1  0.1658612E-008  0.3862049E+03  0.7957747E-01  0.3424578E+00
         13   -1    0    0    0    0  0.00000000000E+00  0.00000000000E+00  0.14999999963E+04  0.15000000000E+04  0.10566000000E+00 0. -1.
        994   -1    0    0    0    0 -0.00000000000E+00 -0.00000000000E+00  0.11368683772E-12  0.17120000000E+03  0.17120000000E+03 0.  0.
         13    1    1    2    0    0 -0.13446523365E+02 -0.31181287081E+01  0.80563422102E+02  0.81737432441E+02  0.10566000000E+00 0. -1.
        994    1    1    2    0    0  0.28113674210E+02 -0.30736094582E+01  0.36575925811E+01  0.17355876162E+03  0.17120000000E+03 0.  0.
        998    1    1    2    0    0 -0.14667150845E+02  0.61917381662E+01  0.14157789816E+04  0.14159038059E+04  0.10000000000E+02 0. -1.
</event>
<event>
 5    1  0.1658612E-008  0.3842828E+03  0.7957747E-01  0.3432720E+00
         13   -1    0    0    0    0  0.00000000000E+00  0.00000000000E+00  0.14999999963E+04  0.15000000000E+04  0.10566000000E+00 0. -1.
        994   -1    0    0    0    0 -0.00000000000E+00 -0.00000000000E+00  0.11368683772E-12  0.17120000000E+03  0.17120000000E+03 0.  0.
         13    1    1    2    0    0  0.99927902143E+01 -0.16413256723E+01  0.26751291698E+02  0.28604065756E+02  0.10566000000E+00 0. -1.
        994    1    1    2    0    0  0.78661486099E+01  0.50700598016E-01  0.21906438951E+01  0.17139462589E+03  0.17120000000E+03 0.  0.
        998    1    1    2    0    0 -0.17858938824E+02  0.15906250743E+01  0.14710580607E+04  0.14712013084E+04  0.10000000000E+02 0. -1.
</event>
<event>
 5    1  0.1658612E-008  0.3805496E+03  0.7957747E-01  0.3448769E+00
         13   -1    0    0    0    0  0.00000000000E+00  0.00000000000E+00  0.14999999963E+04  0.15000000000E+04  0.10566000000E+00 0. -1.
        994   -1    0    0    0    0 -0.00000000000E+00 -0.00000000000E+00  0.11368683772E-12  0.17120000000E+03  0.17120000000E+03 0.  0.
         13    1    1    2    0    0  0.42328625629E+02  0.21634895128E+01  0.24181928461E+03  0.24550554130E+03  0.10566000000E+00 0. -1.
        994    1    1    2    0    0 -0.19305264491E+02  0.30699969956E+00  0.51008762461E+01  0.17236080304E+03  0.17120000000E+03 0.  0.
        998    1    1    2    0    0 -0.23023361138E+02 -0.24704892124E+01  0.12530798354E+04  0.12533336557E+04  0.10000000000E+02 0. -1.
</event>
<event>
 5    1  0.1658612E-008  0.3724108E+03  0.7957747E-01  0.3484884E+00
         13   -1    0    0    0    0  0.00000000000E+00  0.00000000000E+00  0.14999999963E+04  0.15000000000E+04  0.10566000000E+00 0. -1.
        994   -1    0    0    0    0 -0.00000000000E+00 -0.00000000000E+00  0.11368683772E-12  0.17120000000E+03  0.17120000000E+03 0.  0.
         13    1    1    2    0    0  0.77447566413E+01  0.36197167799E+02  0.89384566151E+02  0.96746204278E+02  0.10566000000E+00 0. -1.
        994    1    1    2    0    0  0.16411418244E+02 -0.58612757891E+01  0.90564656658E+01  0.17232280398E+03  0.17120000000E+03 0.  0.
        998    1    1    2    0    0 -0.24156174885E+02 -0.30335892010E+02  0.14015589645E+04  0.14021309917E+04  0.10000000000E+02 0. -1.
</event>
<event>
 5    1  0.1658612E-008  0.3830232E+03  0.7957747E-01  0.3438099E+00
         13   -1    0    0    0    0  0.00000000000E+00  0.00000000000E+00  0.14999999963E+04  0.15000000000E+04  0.10566000000E+00 0. -1.
        994   -1    0    0    0    0 -0.00000000000E+00 -0.00000000000E+00  0.11368683772E-12  0.17120000000E+03  0.17120000000E+03 0.  0.
         13    1    1    2    0    0 -0.16507855202E+02  0.35965863674E+01  0.56491477226E+02  0.58963911676E+02  0.10566000000E+00 0. -1.
        994    1    1    2    0    0  0.88806249814E+00 -0.49082942714E+00  0.26181607496E+01  0.17122302513E+03  0.17120000000E+03 0.  0.
        998    1    1    2    0    0  0.15619792704E+02 -0.31057569403E+01  0.14408903583E+04  0.14410130632E+04  0.10000000000E+02 0. -1.
</event>
<event>
 5    1  0.1658612E-008  0.3839594E+03  0.7957747E-01  0.3434098E+00
         13   -1    0    0    0    0  0.00000000000E+00  0.00000000000E+00  0.14999999963E+04  0.15000000000E+04  0.10566000000E+00 0.  1.
        994   -1    0    0    0    0 -0.00000000000E+00 -0.00000000000E+00  0.11368683772E-12  0.17120000000E+03  0.17120000000E+03 0.  0.
         13    1    1    2    0    0 -0.88205806583E+01  0.80154577820E+01  0.32451342743E+02  0.34570956256E+02  0.10566000000E+00 0.  1.
        994    1    1    2    0    0  0.89882339659E+01 -0.25907101377E+01  0.24364583881E+01  0.17147266971E+03  0.17120000000E+03 0.  0.
        998    1    1    2    0    0 -0.16765330764E+00 -0.54247476443E+01  0.14651121951E+04  0.14651563740E+04  0.10000000000E+02 0.  1.
</event>
<event>
 5    1  0.1658612E-008  0.3825641E+03  0.7957747E-01  0.3440069E+00
         13   -1    0    0    0    0  0.00000000000E+00  0.00000000000E+00  0.14999999963E+04  0.15000000000E+04  0.10566000000E+00 0.  1.
        994   -1    0    0    0    0 -0.00000000000E+00 -0.00000000000E+00  0.11368683772E-12  0.17120000000E+03  0.17120000000E+03 0.  0.
         13    1    1    2    0    0  0.16961964087E+02 -0.14287690714E+02  0.82449228074E+02  0.85379931516E+02  0.10566000000E+00 0.  1.
        994    1    1    2    0    0 -0.96868471200E+01  0.20809619453E+02  0.45928328232E+01  0.17279296682E+03  0.17120000000E+03 0.  0.
        998    1    1    2    0    0 -0.72751169670E+01 -0.65219287393E+01  0.14129579354E+04  0.14130271017E+04  0.10000000000E+02 0.  1.
</event>
<event>
 5    1  0.1658612E-008  0.3851666E+03  0.7957747E-01  0.3428966E+00
         13   -1    0    0    0    0  0.00000000000E+00  0.00000000000E+00  0.14999999963E+04  0.15000000000E+04  0.10566000000E+00 0. -1.
        994   -1    0    0    0    0 -0.00000000000E+00 -0.00000000000E+00  0.11368683772E-12  0.17120000000E+03  0.17120000000E+03 0.  0.
         13    1    1    2    0    0 -0.60999379221E+01 -0.92295584235E+01  0.40163539427E+02  0.41659513376E+02  0.10566000000E+00 0. -1.
        994    1    1    2    0    0  0.31254904206E+01  0.29742095206E+01  0.16086192114E+01  0.17126191132E+03  0.17120000000E+03 0.  0.
        998    1    1    2    0    0  0.29744475015E+01  0.62553489029E+01  0.14582278376E+04  0.14582785753E+04  0.10000000000E+02 0. -1.
</event>
<event>
 5    1  0.1658612E-008  0.2844625E+03  0.7957747E-01  0.4013592E+00
         13   -1    0    0    0    0  0.00000000000E+00  0.00000000000E+00  0.14999999963E+04  0.15000000000E+04  0.10566000000E+00 0. -1.
        994   -1    0    0    0    0 -0.00000000000E+00 -0.00000000000E+00  0.11368683772E-12  0.17120000000E+03  0.17120000000E+03 0.  0.
         13    1    1    2    0    0  0.14456663665E+03 -0.11384107928E+03  0.49451478914E+03  0.52764021038E+03  0.10566000000E+00 0. -1.
        994    1    1    2    0    0 -0.15865008070E+03  0.12650720494E+03  0.18685828587E+03  0.32465270676E+03  0.17120000000E+03 0.  0.
        998    1    1    2    0    0  0.14083444052E+02 -0.12666125656E+02  0.81862692127E+03  0.81890708287E+03  0.10000000000E+02 0.  1.
</event>
<event>
 5    1  0.1658612E-008  0.3847891E+03  0.7957747E-01  0.3430567E+00
         13   -1    0    0    0    0  0.00000000000E+00  0.00000000000E+00  0.14999999963E+04  0.15000000000E+04  0.10566000000E+00 0.  1.
        994   -1    0    0    0    0 -0.00000000000E+00 -0.00000000000E+00  0.11368683772E-12  0.17120000000E+03  0.17120000000E+03 0.  0.
         13    1    1    2    0    0 -0.14465447661E+01  0.13340735005E+02  0.51328398249E+02  0.53053589258E+02  0.10566000000E+00 0.  1.
        994    1    1    2    0    0  0.42874003716E+01 -0.10042833407E+02  0.21273863208E+01  0.17156108556E+03  0.17120000000E+03 0.  0.
        998    1    1    2    0    0 -0.28408556056E+01 -0.32979015982E+01  0.14465442117E+04  0.14465853252E+04  0.10000000000E+02 0.  0.
</event>
<event>
 5    1  0.1658612E-008  0.2412434E+03  0.7957747E-01  0.4431772E+00
         13   -1    0    0    0    0  0.00000000000E+00  0.00000000000E+00  0.14999999963E+04  0.15000000000E+04  0.10566000000E+00 0.  1.
        994   -1    0    0    0    0 -0.00000000000E+00 -0.00000000000E+00  0.11368683772E-12  0.17120000000E+03  0.17120000000E+03 0.  0.
         13    1    1    2    0    0 -0.20789940969E+02 -0.16580833719E+03  0.19611091269E+03  0.25765117420E+03  0.10566000000E+00 0.  1.
        994    1    1    2    0    0  0.26248088562E+02  0.16907210443E+03  0.21247527007E+03  0.32207067398E+03  0.17120000000E+03 0.  0.
        998    1    1    2    0    0 -0.54581475930E+01 -0.32637672374E+01  0.10914138135E+04  0.10914781518E+04  0.10000000000E+02 0.  1.
</event>
<event>
 5    1  0.1658612E-008  0.3693572E+03  0.7957747E-01  0.3498850E+00
         13   -1    0    0    0    0  0.00000000000E+00  0.00000000000E+00  0.14999999963E+04  0.15000000000E+04  0.10566000000E+00 0.  1.
        994   -1    0    0    0    0 -0.00000000000E+00 -0.00000000000E+00  0.11368683772E-12  0.17120000000E+03  0.17120000000E+03 0.  0.
         13    1    1    2    0    0  0.12928307457E+03  0.20172879587E+02  0.60520318926E+03  0.61918653885E+03  0.10566000000E+00 0.  1.
        994    1    1    2    0    0 -0.10206369482E+03 -0.43861053530E+02  0.54976759825E+02  0.21135911132E+03  0.17120000000E+03 0.  0.
        998    1    1    2    0    0 -0.27219379748E+02  0.23688173944E+02  0.83982004719E+03  0.84065434983E+03  0.10000000000E+02 0.  1.
</event>
<event>
 5    1  0.1658612E-008  0.3859517E+03  0.7957747E-01  0.3425646E+00
         13   -1    0    0    0    0  0.00000000000E+00  0.00000000000E+00  0.14999999963E+04  0.15000000000E+04  0.10566000000E+00 0. -1.
        994   -1    0    0    0    0 -0.00000000000E+00 -0.00000000000E+00  0.11368683772E-12  0.17120000000E+03  0.17120000000E+03 0.  0.
         13    1    1    2    0    0 -0.87763032723E+01  0.94401075526E+01  0.73387749467E+02  0.74511153967E+02  0.10566000000E+00 0. -1.
        994    1    1    2    0    0  0.11148513689E+02  0.67614080214E+00  0.15674703959E+01  0.17157110330E+03  0.17120000000E+03 0.  0.
        998    1    1    2    0    0 -0.23722104165E+01 -0.10116248355E+02  0.14250447764E+04  0.14251177427E+04  0.10000000000E+02 0. -1.
</event>
<event>
 5    1  0.1658612E-008  0.3850110E+03  0.7957747E-01  0.3429626E+00
         13   -1    0    0    0    0  0.00000000000E+00  0.00000000000E+00  0.14999999963E+04  0.15000000000E+04  0.10566000000E+00 0.  1.
        994   -1    0    0    0    0 -0.00000000000E+00 -0.00000000000E+00  0.11368683772E-12  0.17120000000E+03  0.17120000000E+03 0.  0.
         13    1    1    2    0    0  0.11837662822E+02 -0.62145863945E+01  0.56071590138E+02  0.57643609618E+02  0.10566000000E+00 0.  1.
        994    1    1    2    0    0  0.23372052461E+00  0.12815109009E+02  0.21651117349E+01  0.17169277607E+03  0.17120000000E+03 0.  0.
        998    1    1    2    0    0 -0.12071383347E+02 -0.66005226146E+01  0.14417632944E+04  0.14418636143E+04  0.10000000000E+02 0.  1.
</event>
<event>
 5    1  0.1658612E-008  0.3840717E+03  0.7957747E-01  0.3433619E+00
         13   -1    0    0    0    0  0.00000000000E+00  0.00000000000E+00  0.14999999963E+04  0.15000000000E+04  0.10566000000E+00 0.  1.
        994   -1    0    0    0    0 -0.00000000000E+00 -0.00000000000E+00  0.11368683772E-12  0.17120000000E+03  0.17120000000E+03 0.  0.
         13    1    1    2    0    0  0.47303913041E+01 -0.22167942236E+02  0.13641959016E+03  0.13828994905E+03  0.10566000000E+00 0.  1.
        994    1    1    2    0    0  0.39950523507E+01  0.19198229666E+01  0.21565436794E+01  0.17127094571E+03  0.17120000000E+03 0.  0.
        998    1    1    2    0    0 -0.87254436549E+01  0.20248119270E+02  0.13614238624E+04  0.13616391052E+04  0.10000000000E+02 0.  1.
</event>
<event>
 5    1  0.1658612E-008  0.3838903E+03  0.7957747E-01  0.3434392E+00
         13   -1    0    0    0    0  0.00000000000E+00  0.00000000000E+00  0.14999999963E+04  0.15000000000E+04  0.10566000000E+00 0. -1.
        994   -1    0    0    0    0 -0.00000000000E+00 -0.00000000000E+00  0.11368683772E-12  0.17120000000E+03  0.17120000000E+03 0.  0.
         13    1    1    2    0    0 -0.13472864315E+02  0.71563998402E+01  0.51735902861E+02  0.53938362418E+02  0.10566000000E+00 0. -1.
        994    1    1    2    0    0  0.15882080641E+02 -0.65926905510E+00  0.30164914938E+01  0.17196282837E+03  0.17120000000E+03 0.  0.
        998    1    1    2    0    0 -0.24092163262E+01 -0.64971307851E+01  0.14452476019E+04  0.14452988092E+04  0.10000000000E+02 0. -1.
</event>
<event>
 5    1  0.1658612E-008  0.2684241E+03  0.7957747E-01  0.4150889E+00
         13   -1    0    0    0    0  0.00000000000E+00  0.00000000000E+00  0.14999999963E+04  0.15000000000E+04  0.10566000000E+00 0.  1.
        994   -1    0    0    0    0 -0.00000000000E+00 -0.00000000000E+00  0.11368683772E-12  0.17120000000E+03  0.17120000000E+03 0.  0.
         13    1    1    2    0    0 -0.77254993435E+02 -0.14734392877E+03  0.54900980565E+03  0.57366396542E+03  0.10566000000E+00 0.  1.
        994    1    1    2    0    0  0.46685907851E+02  0.75422021274E+02  0.58384811186E+02  0.20146037194E+03  0.17120000000E+03 0.  0.
        998    1    1    2    0    0  0.30569085584E+02  0.71921907491E+02  0.89260537944E+03  0.89607566264E+03  0.10000000000E+02 0.  1.
</event>
<event>
 5    1  0.1658612E-008  0.3826927E+03  0.7957747E-01  0.3439517E+00
         13   -1    0    0    0    0  0.00000000000E+00  0.00000000000E+00  0.14999999963E+04  0.15000000000E+04  0.10566000000E+00 0.  1.
        994   -1    0    0    0    0 -0.00000000000E+00 -0.00000000000E+00  0.11368683772E-12  0.17120000000E+03  0.17120000000E+03 0.  0.
         13    1    1    2    0    0 -0.13901196783E+02  0.66276370108E+01  0.40399595360E+02  0.43235486740E+02  0.10566000000E+00 0.  1.
        994    1    1    2    0    0  0.19467340099E+02 -0.21460637922E+01  0.40520514041E+01  0.17236427136E+03  0.17120000000E+03 0.  0.
        998    1    1    2    0    0 -0.55661433167E+01 -0.44815732187E+01  0.14555483495E+04  0.14556002419E+04  0.10000000000E+02 0.  1.
</event>
<event>
 5    1  0.1658612E-008  0.3844437E+03  0.7957747E-01  0.3432035E+00
         13   -1    0    0    0    0  0.00000000000E+00  0.00000000000E+00  0.14999999963E+04  0.15000000000E+04  0.10566000000E+00 0.  1.
        994   -1    0    0    0    0 -0.00000000000E+00 -0.00000000000E+00  0.11368683772E-12  0.17120000000E+03  0.17120000000E+03 0.  0.
         13    1    1    2    0    0  0.16272584623E+02 -0.38563678670E+01  0.77884426545E+02  0.79659673899E+02  0.10566000000E+00 0.  1.
        994    1    1    2    0    0  0.98093163323E+00  0.93975898146E+01  0.22007493435E+01  0.17147466349E+03  0.17120000000E+03 0.  0.
        998    1    1    2    0    0 -0.17253516257E+02 -0.55412219476E+01  0.14199148204E+04  0.14200656626E+04  0.10000000000E+02 0.  1.
</event>
<event>
 5    1  0.1658612E-008  0.3766080E+03  0.7957747E-01  0.3466062E+00
         13   -1    0    0    0    0  0.00000000000E+00  0.00000000000E+00  0.14999999963E+04  0.15000000000E+04  0.10566000000E+00 0.  1.
        994   -1    0    0    0    0 -0.00000000000E+00 -0.00000000000E+00  0.11368683772E-12  0.17120000000E+03  0.17120000000E+03 0.  0.
         13    1    1    2    0    0 -0.17581591905E+02  0.96573579233E+01  0.32193595219E+02  0.37931723836E+02  0.10566000000E+00 0.  1.
        994    1    1    2    0    0  0.10515946369E+02 -0.41962744079E+01  0.62888218391E+01  0.17168920504E+03  0.17120000000E+03 0.  0.
        998    1    1    2    0    0  0.70656455357E+01 -0.54610835154E+01  0.14615175792E+04  0.14615790711E+04  0.10000000000E+02 0.  1.
</event>
<event>
 5    1  0.1658612E-008  0.3834931E+03  0.7957747E-01  0.3436088E+00
         13   -1    0    0    0    0  0.00000000000E+00  0.00000000000E+00  0.14999999963E+04  0.15000000000E+04  0.10566000000E+00 0.  1.
        994   -1    0    0    0    0 -0.00000000000E+00 -0.00000000000E+00  0.11368683772E-12  0.17120000000E+03  0.17120000000E+03 0.  0.
         13    1    1    2    0    0 -0.34221060448E+01 -0.10760616906E+02  0.25493146802E+02  0.27882133775E+02  0.10566000000E+00 0.  1.
        994    1    1    2    0    0  0.35005132523E+01  0.12955355856E+02  0.29755495407E+01  0.17175094973E+03  0.17120000000E+03 0.  0.
        998    1    1    2    0    0 -0.78407207488E-01 -0.21947389497E+01  0.14715312999E+04  0.14715669165E+04  0.10000000000E+02 0.  1.
</event>
<event>
 5    1  0.1658612E-008  0.3768489E+03  0.7957747E-01  0.3464995E+00
         13   -1    0    0    0    0  0.00000000000E+00  0.00000000000E+00  0.14999999963E+04  0.15000000000E+04  0.10566000000E+00 0.  1.
        994   -1    0    0    0    0 -0.00000000000E+00 -0.00000000000E+00  0.11368683772E-12  0.17120000000E+03  0.17120000000E+03 0.  0.
         13    1    1    2    0    0 -0.15272003782E+03 -0.62271091688E+02  0.47995044365E+03  0.50749732840E+03  0.10566000000E+00 0.  1.
        994    1    1    2    0    0  0.16851434504E+03  0.76607451779E+02  0.15010561130E+03  0.29343980762E+03  0.17120000000E+03 0.  0.
        998    1    1    2    0    0 -0.15794307217E+02 -0.14336360091E+02  0.86994394133E+03  0.87026286398E+03  0.10000000000E+02 0.  1.
</event>
<event>
 5    1  0.1658612E-008  0.3787377E+03  0.7957747E-01  0.3456673E+00
         13   -1    0    0    0    0  0.00000000000E+00  0.00000000000E+00  0.14999999963E+04  0.15000000000E+04  0.10566000000E+00 0. -1.
        994   -1    0    0    0    0 -0.00000000000E+00 -0.00000000000E+00  0.11368683772E-12  0.17120000000E+03  0.17120000000E+03 0.  0.
         13    1    1    2    0    0  0.27581783742E+01  0.10458934023E+02  0.10029736592E+02  0.14751394137E+02  0.10566000000E+00 0. -1.
        994    1    1    2    0    0 -0.52003500962E+01 -0.11177178513E+02  0.52820389910E+01  0.17172452619E+03  0.17120000000E+03 0.  0.
        998    1    1    2    0    0  0.24421717220E+01  0.71824449031E+00  0.14846882207E+04  0.14847240797E+04  0.10000000000E+02 0. -1.
</event>
<event>
 5    1  0.1658612E-008  0.3811230E+03  0.7957747E-01  0.3446283E+00
         13   -1    0    0    0    0  0.00000000000E+00  0.00000000000E+00  0.14999999963E+04  0.15000000000E+04  0.10566000000E+00 0.  1.
        994   -1    0    0    0    0 -0.00000000000E+00 -0.00000000000E+00  0.11368683772E-12  0.17120000000E+03  0.17120000000E+03 0.  0.
         13    1    1    2    0    0  0.18185280511E+02  0.29407841210E+02  0.16829308727E+03  0.17180832325E+03  0.10566000000E+00 0.  1.
        994    1    1    2    0    0  0.51364213005E-01 -0.22167236481E+02  0.52056693641E+01  0.17270763737E+03  0.17120000000E+03 0.  0.
        998    1    1    2    0    0 -0.18236644724E+02 -0.72406047291E+01  0.13265012396E+04  0.13266840394E+04  0.10000000000E+02 0.  1.
</event>
<event>
 5    1  0.1658612E-008  0.3707780E+03  0.7957747E-01  0.3492323E+00
         13   -1    0    0    0    0  0.00000000000E+00  0.00000000000E+00  0.14999999963E+04  0.15000000000E+04  0.10566000000E+00 0.  1.
        994   -1    0    0    0    0 -0.00000000000E+00 -0.00000000000E+00  0.11368683772E-12  0.17120000000E+03  0.17120000000E+03 0.  0.
         13    1    1    2    0    0  0.28745021459E+01 -0.15034472137E+02  0.91030307438E+01  0.17809392123E+02  0.10566000000E+00 0.  1.
        994    1    1    2    0    0 -0.53448867084E+01  0.16763266212E+02  0.99312526376E+01  0.17238806422E+03  0.17120000000E+03 0.  0.
        998    1    1    2    0    0  0.24703845625E+01 -0.17287940751E+01  0.14809657129E+04  0.14810025437E+04  0.10000000000E+02 0.  1.
</event>
<event>
 5    1  0.1658612E-008  0.3766104E+03  0.7957747E-01  0.3466052E+00
         13   -1    0    0    0    0  0.00000000000E+00  0.00000000000E+00  0.14999999963E+04  0.15000000000E+04  0.10566000000E+00 0. -1.
        994   -1    0    0    0    0 -0.00000000000E+00 -0.00000000000E+00  0.11368683772E-12  0.17120000000E+03  0.17120000000E+03 0.  0.
         13    1    1    2    0    0  0.78056292926E+01  0.90219088736E+01  0.94304509894E+01  0.15207473764E+02  0.10566000000E+00 0. -1.
        994    1    1    2    0    0 -0.91063314951E+01 -0.90721523124E+01  0.64128921521E+01  0.17180161352E+03  0.17120000000E+03 0.  0.
        998    1    1    2    0    0  0.13007022025E+01  0.50243438785E-01  0.14841566531E+04  0.14841909127E+04  0.10000000000E+02 0. -1.
</event>
<event>
 5    1  0.1658612E-008  0.3860031E+03  0.7957747E-01  0.3425429E+00
         13   -1    0    0    0    0  0.00000000000E+00  0.00000000000E+00  0.14999999963E+04  0.15000000000E+04  0.10566000000E+00 0.  1.
        994   -1    0    0    0    0 -0.00000000000E+00 -0.00000000000E+00  0.11368683772E-12  0.17120000000E+03  0.17120000000E+03 0.  0.
         13    1    1    2    0    0 -0.93231862876E+01 -0.77297655088E+01  0.67800038883E+02  0.68873271405E+02  0.10566000000E+00 0.  1.
        994    1    1    2    0    0  0.11343461452E+01  0.42765707012E+01  0.11971112761E+01  0.17126134670E+03  0.17120000000E+03 0.  0.
        998    1    1    2    0    0  0.81888401423E+01  0.34531948076E+01  0.14310028461E+04  0.14310653819E+04  0.10000000000E+02 0.  1.
</event>
<event>
 5    1  0.1658612E-008  0.3854833E+03  0.7957747E-01  0.3427625E+00
         13   -1    0    0    0    0  0.00000000000E+00  0.00000000000E+00  0.14999999963E+04  0.15000000000E+04  0.10566000000E+00 0.  1.
        994   -1    0    0    0    0 -0.00000000000E+00 -0.00000000000E+00  0.11368683772E-12  0.17120000000E+03  0.17120000000E+03 0.  0.
         13    1    1    2    0    0  0.44413299845E+01 -0.11610952248E+02  0.55067638027E+02  0.56453481258E+02  0.10566000000E+00 0.  1.
        994    1    1    2    0    0 -0.57081393381E+00  0.11030676046E+02  0.17910852494E+01  0.17156529261E+03  0.17120000000E+03 0.  0.
        998    1    1    2    0    0 -0.38705160507E+01  0.58027620147E+00  0.14431412730E+04  0.14431812261E+04  0.10000000000E+02 0.  1.
</event>
<event>
 5    1  0.1658612E-008  0.3754546E+03  0.7957747E-01  0.3471192E+00
         13   -1    0    0    0    0  0.00000000000E+00  0.00000000000E+00  0.14999999963E+04  0.15000000000E+04  0.10566000000E+00 0.  1.
        994   -1    0    0    0    0 -0.00000000000E+00 -0.00000000000E+00  0.11368683772E-12  0.17120000000E+03  0.17120000000E+03 0.  0.
         13    1    1    2    0    0 -0.42377770594E+01  0.96431007134E+01  0.55924767312E+01  0.11926236028E+02  0.10566000000E+00 0.  1.
        994    1    1    2    0    0  0.51171665140E+01 -0.99419420854E+01  0.68699095057E+01  0.17170225177E+03  0.17120000000E+03 0.  0.
        998    1    1    2    0    0 -0.87938945456E+00  0.29884137201E+00  0.14875376100E+04  0.14875715122E+04  0.10000000000E+02 0.  1.
</event>
<event>
 5    1  0.1658612E-008  0.3723885E+03  0.7957747E-01  0.3484985E+00
         13   -1    0    0    0    0  0.00000000000E+00  0.00000000000E+00  0.14999999963E+04  0.15000000000E+04  0.10566000000E+00 0. -1.
        994   -1    0    0    0    0 -0.00000000000E+00 -0.00000000000E+00  0.11368683772E-12  0.17120000000E+03  0.17120000000E+03 0.  0.
         13    1    1    2    0    0 -0.61401901654E+02 -0.50251336431E+02  0.29209140783E+03  0.30267605130E+03  0.10566000000E+00 0. -1.
        994    1    1    2    0    0  0.28358349685E+02  0.18573234589E+01  0.15059960491E+02  0.17419497139E+03  0.17120000000E+03 0.  0.
        998    1    1    2    0    0  0.33043551969E+02  0.48394012972E+02  0.11928486280E+04  0.11943289773E+04  0.10000000000E+02 0. -1.
</event>
<event>
 5    1  0.1658612E-008  0.3803559E+03  0.7957747E-01  0.3449610E+00
         13   -1    0    0    0    0  0.00000000000E+00  0.00000000000E+00  0.14999999963E+04  0.15000000000E+04  0.10566000000E+00 0.  1.
        994   -1    0    0    0    0 -0.00000000000E+00 -0.00000000000E+00  0.11368683772E-12  0.17120000000E+03  0.17120000000E+03 0.  0.
         13    1    1    2    0    0 -0.12037207302E+02 -0.41348071004E+01  0.18692823693E+02  0.22614681317E+02  0.10566000000E+00 0.  1.
        994    1    1    2    0    0  0.11272700850E+02  0.36429237450E+01  0.44223563693E+01  0.17166636803E+03  0.17120000000E+03 0.  0.
        998    1    1    2    0    0  0.76450645257E+00  0.49188335542E+00  0.14768848162E+04  0.14769189507E+04  0.10000000000E+02 0.  1.
</event>
<event>
 5    1  0.1658612E-008  0.3732156E+03  0.7957747E-01  0.3481242E+00
         13   -1    0    0    0    0  0.00000000000E+00  0.00000000000E+00  0.14999999963E+04  0.15000000000E+04  0.10566000000E+00 0.  1.
        994   -1    0    0    0    0 -0.00000000000E+00 -0.00000000000E+00  0.11368683772E-12  0.17120000000E+03  0.17120000000E+03 0.  0.
         13    1    1    2    0    0  0.12305622389E+02  0.19791203874E+00  0.67048195364E+01  0.14015465765E+02  0.10566000000E+00 0.  1.
        994    1    1    2    0    0  0.41175697374E+01  0.71901957537E+01  0.78327218191E+01  0.17157926689E+03  0.17120000000E+03 0.  0.
        998    1    1    2    0    0 -0.16423192126E+02 -0.73881077924E+01  0.14854624549E+04  0.14856052673E+04  0.10000000000E+02 0.  1.
</event>
<event>
 5    1  0.1658612E-008  0.3856115E+03  0.7957747E-01  0.3427083E+00
         13   -1    0    0    0    0  0.00000000000E+00  0.00000000000E+00  0.14999999963E+04  0.15000000000E+04  0.10566000000E+00 0.  1.
        994   -1    0    0    0    0 -0.00000000000E+00 -0.00000000000E+00  0.11368683772E-12  0.17120000000E+03  0.17120000000E+03 0.  0.
         13    1    1    2    0    0 -0.16981402494E+01 -0.16790656394E+02  0.10166950541E+03  0.10306070695E+03  0.10566000000E+00 0.  1.
        994    1    1    2    0    0 -0.24582316839E+01  0.18088786931E+02  0.24213508598E+01  0.17218754327E+03  0.17120000000E+03 0.  0.
        998    1    1    2    0    0  0.41563719333E+01 -0.12981305369E+01  0.13959091400E+04  0.13959517498E+04  0.10000000000E+02 0.  1.
</event>
<event>
 5    1  0.1658612E-008  0.3821279E+03  0.7957747E-01  0.3441945E+00
         13   -1    0    0    0    0  0.00000000000E+00  0.00000000000E+00  0.14999999963E+04  0.15000000000E+04  0.10566000000E+00 0. -1.
        994   -1    0    0    0    0 -0.00000000000E+00 -0.00000000000E+00  0.11368683772E-12  0.17120000000E+03  0.17120000000E+03 0.  0.
         13    1    1    2    0    0  0.25814813406E+02 -0.21437969087E+02  0.17338129729E+03  0.17659863115E+03  0.10566000000E+00 0. -1.
        994    1    1    2    0    0 -0.17108499004E+02  0.20903924974E+02  0.54888202087E+01  0.17340484989E+03  0.17120000000E+03 0.  0.
        998    1    1    2    0    0 -0.87063144022E+01  0.53404411264E+00  0.13211298788E+04  0.13211965190E+04  0.10000000000E+02 0. -1.
</event>
<event>
 5    1  0.1658612E-008  0.3841263E+03  0.7957747E-01  0.3433386E+00
         13   -1    0    0    0    0  0.00000000000E+00  0.00000000000E+00  0.14999999963E+04  0.15000000000E+04  0.10566000000E+00 0. -1.
        994   -1    0    0    0    0 -0.00000000000E+00 -0.00000000000E+00  0.11368683772E-12  0.17120000000E+03  0.17120000000E+03 0.  0.
         13    1    1    2    0    0  0.33623858647E+01  0.11945731077E+02  0.36977283150E+02  0.39004317234E+02  0.10566000000E+00 0. -1.
        994    1    1    2    0    0  0.34385776849E+01 -0.85792679756E+01  0.23463418560E+01  0.17146536961E+03  0.17120000000E+03 0.  0.
        998    1    1    2    0    0 -0.68009635496E+01 -0.33664631013E+01  0.14606763713E+04  0.14607303132E+04  0.10000000000E+02 0. -1.
</event>
<event>
 5    1  0.1658612E-008  0.3847836E+03  0.7957747E-01  0.3430590E+00
         13   -1    0    0    0    0  0.00000000000E+00  0.00000000000E+00  0.14999999963E+04  0.15000000000E+04  0.10566000000E+00 0.  1.
        994   -1    0    0    0    0 -0.00000000000E+00 -0.00000000000E+00  0.11368683772E-12  0.17120000000E+03  0.17120000000E+03 0.  0.
         13    1    1    2    0    0 -0.72674053018E+00 -0.16633449991E+02  0.75194706635E+02  0.77015939132E+02  0.10566000000E+00 0.  1.
        994    1    1    2    0    0  0.10906407340E+01  0.19665761756E+02  0.30153069750E+01  0.17235563164E+03  0.17120000000E+03 0.  0.
        998    1    1    2    0    0 -0.36390020381E+00 -0.30323117652E+01  0.14217899827E+04  0.14218284292E+04  0.10000000000E+02 0.  1.
</event>
<event>
 5    1  0.1658612E-008  0.3706213E+03  0.7957747E-01  0.3493041E+00
         13   -1    0    0    0    0  0.00000000000E+00  0.00000000000E+00  0.14999999963E+04  0.15000000000E+04  0.10566000000E+00 0. -1.
        994   -1    0    0    0    0 -0.00000000000E+00 -0.00000000000E+00  0.11368683772E-12  0.17120000000E+03  0.17120000000E+03 0.  0.
         13    1    1    2    0    0  0.11977361910E+03 -0.62767436430E+02  0.63525656008E+03  0.64948932185E+03  0.10566000000E+00 0. -1.
        994    1    1    2    0    0 -0.11494624476E+03  0.48700794167E+02  0.64803714173E+02  0.22157023245E+03  0.17120000000E+03 0.  0.
        998    1    1    2    0    0 -0.48273743378E+01  0.14066642264E+02  0.79993972203E+03  0.80014044570E+03  0.10000000000E+02 0. -1.
</event>
<event>
 5    1  0.1729378E-008  0.3859381E+03  0.7957747E-01  0.3425703E+00
         13   -1    0    0    0    0  0.00000000000E+00  0.00000000000E+00  0.14999999963E+04  0.15000000000E+04  0.10566000000E+00 0.  1.
        994   -1    0    0    0    0 -0.00000000000E+00 -0.00000000000E+00  0.11368683772E-12  0.17120000000E+03  0.17120000000E+03 0.  0.
         13    1    1    2    0    0 -0.11542936902E+02  0.48616493194E+01  0.71634985783E+02  0.72721780634E+02  0.10566000000E+00 0.  1.
        994    1    1    2    0    0  0.47830519303E+01  0.64795606288E+01  0.13777735055E+01  0.17139486734E+03  0.17120000000E+03 0.  0.
        998    1    1    2    0    0  0.67598849721E+01 -0.11341209948E+02  0.14269872370E+04  0.14270833520E+04  0.10000000000E+02 0.  1.
</event>
<event>
 5    1  0.1658612E-008  0.3760268E+03  0.7957747E-01  0.3468643E+00
         13   -1    0    0    0    0  0.00000000000E+00  0.00000000000E+00  0.14999999963E+04  0.15000000000E+04  0.10566000000E+00 0.  1.
        994   -1    0    0    0    0 -0.00000000000E+00 -0.00000000000E+00  0.11368683772E-12  0.17120000000E+03  0.17120000000E+03 0.  0.
         13    1    1    2    0    0  0.10728657209E+02 -0.31017580323E+01  0.72988863495E+01  0.13342034866E+02  0.10566000000E+00 0.  1.
        994    1    1    2    0    0 -0.11329286998E+02 -0.30572652291E+01  0.66189677025E+01  0.17172929380E+03  0.17120000000E+03 0.  0.
        998    1    1    2    0    0  0.60062978894E+00  0.61590232614E+01  0.14860821422E+04  0.14861286713E+04  0.10000000000E+02 0.  1.
</event>
<event>
 5    1  0.1658612E-008  0.3722283E+03  0.7957747E-01  0.3485712E+00
         13   -1    0    0    0    0  0.00000000000E+00  0.00000000000E+00  0.14999999963E+04  0.15000000000E+04  0.10566000000E+00 0.  1.
        994   -1    0    0    0    0 -0.00000000000E+00 -0.00000000000E+00  0.11368683772E-12  0.17120000000E+03  0.17120000000E+03 0.  0.
         13    1    1    2    0    0  0.29137927678E+02 -0.40474030792E+02  0.13470160791E+03  0.14363739184E+03  0.10566000000E+00 0.  1.
        994    1    1    2    0    0 -0.29897629239E+02  0.46072909399E+02  0.18531662786E+02  0.18074690520E+03  0.17120000000E+03 0.  0.
        998    1    1    2    0    0  0.75970156037E+00 -0.55988786062E+01  0.13467667256E+04  0.13468157030E+04  0.10000000000E+02 0.  1.
</event>
<event>
 5    1  0.1658612E-008  0.3900248E+03  0.7957747E-01  0.3408637E+00
         13   -1    0    0    0    0  0.00000000000E+00  0.00000000000E+00  0.14999999963E+04  0.15000000000E+04  0.10566000000E+00 0.  1.
        994   -1    0    0    0    0 -0.00000000000E+00 -0.00000000000E+00  0.11368683772E-12  0.17120000000E+03  0.17120000000E+03 0.  0.
         13    1    1    2    0    0 -0.21007560491E+02  0.21352524772E+02  0.10959281736E+02  0.31896158579E+02  0.10566000000E+00 0.  1.
        994    1    1    2    0    0  0.24000581919E+02 -0.23105740597E+02  0.26133633612E+02  0.17635847013E+03  0.17120000000E+03 0.  0.
        998    1    1    2    0    0 -0.29930214280E+01  0.17532158249E+01  0.14629070809E+04  0.14629453713E+04  0.10000000000E+02 0.  1.
</event>
<event>
 5    1  0.1658612E-008  0.3821920E+03  0.7957747E-01  0.3441669E+00
         13   -1    0    0    0    0  0.00000000000E+00  0.00000000000E+00  0.14999999963E+04  0.15000000000E+04  0.10566000000E+00 0.  1.
        994   -1    0    0    0    0 -0.00000000000E+00 -0.00000000000E+00  0.11368683772E-12  0.17120000000E+03  0.17120000000E+03 0.  0.
         13    1    1    2    0    0 -0.14169069895E+02 -0.25842547989E+02  0.17735911424E+03  0.17979117441E+03  0.10566000000E+00 0.  1.
        994    1    1    2    0    0 -0.91427936916E+00 -0.97669374705E+01  0.33501495354E+01  0.17151353438E+03  0.17120000000E+03 0.  0.
        998    1    1    2    0    0  0.15083349264E+02  0.35609485460E+02  0.13192907325E+04  0.13198952912E+04  0.10000000000E+02 0.  1.
</event>
<event>
 5    1  0.1658612E-008  0.3725468E+03  0.7957747E-01  0.3484267E+00
         13   -1    0    0    0    0  0.00000000000E+00  0.00000000000E+00  0.14999999963E+04  0.15000000000E+04  0.10566000000E+00 0.  1.
        994   -1    0    0    0    0 -0.00000000000E+00 -0.00000000000E+00  0.11368683772E-12  0.17120000000E+03  0.17120000000E+03 0.  0.
         13    1    1    2    0    0  0.45149271783E+02  0.37099918194E+02  0.20872472446E+03  0.21675073804E+03  0.10566000000E+00 0.  1.
        994    1    1    2    0    0 -0.70797276612E+02  0.22269382474E+02  0.27066247806E+02  0.18854761081E+03  0.17120000000E+03 0.  0.
        998    1    1    2    0    0  0.25648004829E+02 -0.59369300668E+02  0.12642090240E+04  0.12659016512E+04  0.10000000000E+02 0.  1.
</event>
<event>
 5    1  0.1658612E-008  0.3838831E+03  0.7957747E-01  0.3434423E+00
         13   -1    0    0    0    0  0.00000000000E+00  0.00000000000E+00  0.14999999963E+04  0.15000000000E+04  0.10566000000E+00 0. -1.
        994   -1    0    0    0    0 -0.00000000000E+00 -0.00000000000E+00  0.11368683772E-12  0.17120000000E+03  0.17120000000E+03 0.  0.
         13    1    1    2    0    0  0.49539161315E+01  0.10063503982E+02  0.29337534849E+02  0.31408876333E+02  0.10566000000E+00 0. -1.
        994    1    1    2    0    0  0.14570560459E+00  0.33552332254E+01  0.22229151206E+01  0.17124736544E+03  0.17120000000E+03 0.  0.
        998    1    1    2    0    0 -0.50996217361E+01 -0.13418737207E+02  0.14684395463E+04  0.14685437582E+04  0.10000000000E+02 0. -1.
</event>
<event>
 5    1  0.1658612E-008  0.3853511E+03  0.7957747E-01  0.3428184E+00
         13   -1    0    0    0    0  0.00000000000E+00  0.00000000000E+00  0.14999999963E+04  0.15000000000E+04  0.10566000000E+00 0.  1.
        994   -1    0    0    0    0 -0.00000000000E+00 -0.00000000000E+00  0.11368683772E-12  0.17120000000E+03  0.17120000000E+03 0.  0.
         13    1    1    2    0    0 -0.12309030202E+02  0.94101036875E+01  0.83093338122E+02  0.84525595415E+02  0.10566000000E+00 0.  1.
        994    1    1    2    0    0 -0.42924974858E+00 -0.16707462296E+02  0.23740037771E+01  0.17203022829E+03  0.17120000000E+03 0.  0.
        998    1    1    2    0    0  0.12738279950E+02  0.72973586090E+01  0.14145326544E+04  0.14146441763E+04  0.10000000000E+02 0.  1.
</event>
<event>
 5    1  0.1658612E-008  0.3836237E+03  0.7957747E-01  0.3435530E+00
         13   -1    0    0    0    0  0.00000000000E+00  0.00000000000E+00  0.14999999963E+04  0.15000000000E+04  0.10566000000E+00 0. -1.
        994   -1    0    0    0    0 -0.00000000000E+00 -0.00000000000E+00  0.11368683772E-12  0.17120000000E+03  0.17120000000E+03 0.  0.
         13    1    1    2    0    0 -0.18069843598E+02  0.45976685770E+01  0.78311498800E+02  0.80500682061E+02  0.10566000000E+00 0. -1.
        994    1    1    2    0    0  0.34971894599E+01 -0.98948660901E+00  0.23586172904E+01  0.17125481743E+03  0.17120000000E+03 0.  0.
        998    1    1    2    0    0  0.14572654138E+02 -0.36081819680E+01  0.14193298802E+04  0.14194445005E+04  0.10000000000E+02 0. -1.
</event>
<event>
 5    1  0.1658612E-008  0.3821072E+03  0.7957747E-01  0.3442034E+00
         13   -1    0    0    0    0  0.00000000000E+00  0.00000000000E+00  0.14999999963E+04  0.15000000000E+04  0.10566000000E+00 0.  1.
        994   -1    0    0    0    0 -0.00000000000E+00 -0.00000000000E+00  0.11368683772E-12  0.17120000000E+03  0.17120000000E+03 0.  0.
         13    1    1    2    0    0 -0.16805388248E+02  0.14501093777E+03  0.40081758370E+03  0.42657395574E+03  0.10566000000E+00 0.  1.
        994    1    1    2    0    0  0.10818508838E+02 -0.15176196655E+03  0.10777595013E+03  0.25312809020E+03  0.17120000000E+03 0.  0.
        998    1    1    2    0    0  0.59868794098E+01  0.67510287754E+01  0.99140646245E+03  0.99149795405E+03  0.10000000000E+02 0.  1.
</event>
<event>
 5    1  0.1658612E-008  0.3787162E+03  0.7957747E-01  0.3456767E+00
         13   -1    0    0    0    0  0.00000000000E+00  0.00000000000E+00  0.14999999963E+04  0.15000000000E+04  0.10566000000E+00 0.  1.
        994   -1    0    0    0    0 -0.00000000000E+00 -0.00000000000E+00  0.11368683772E-12  0.17120000000E+03  0.17120000000E+03 0.  0.
         13    1    1    2    0    0 -0.37532722046E+02  0.61578579141E+01  0.12922257089E+03  0.13470378031E+03  0.10566000000E+00 0.  1.
        994    1    1    2    0    0  0.48717069360E+02 -0.96302073138E+01  0.13106666966E+02  0.17873812816E+03  0.17120000000E+03 0.  0.
        998    1    1    2    0    0 -0.11184347314E+02  0.34723493997E+01  0.13576707584E+04  0.13577580915E+04  0.10000000000E+02 0.  1.
</event>
<event>
 5    1  0.1658612E-008  0.3767791E+03  0.7957747E-01  0.3465304E+00
         13   -1    0    0    0    0  0.00000000000E+00  0.00000000000E+00  0.14999999963E+04  0.15000000000E+04  0.10566000000E+00 0. -1.
        994   -1    0    0    0    0 -0.00000000000E+00 -0.00000000000E+00  0.11368683772E-12  0.17120000000E+03  0.17120000000E+03 0.  0.
         13    1    1    2    0    0  0.57576186894E+02 -0.69883867087E+01  0.23990906451E+03  0.24682022860E+03  0.10566000000E+00 0. -1.
        994    1    1    2    0    0 -0.60396049794E+02  0.57144938463E+01  0.18306372271E+02  0.18255109295E+03  0.17120000000E+03 0.  0.
        998    1    1    2    0    0  0.28198628998E+01  0.12738928624E+01  0.12417845595E+04  0.12418286785E+04  0.10000000000E+02 0.  0.
</event>
<event>
 5    1  0.1658612E-008  0.2888375E+03  0.7957747E-01  0.3979080E+00
         13   -1    0    0    0    0  0.00000000000E+00  0.00000000000E+00  0.14999999963E+04  0.15000000000E+04  0.10566000000E+00 0.  1.
        994   -1    0    0    0    0 -0.00000000000E+00 -0.00000000000E+00  0.11368683772E-12  0.17120000000E+03  0.17120000000E+03 0.  0.
         13    1    1    2    0    0  0.42752429523E+02  0.15423434180E+03  0.63949042323E+03  0.65921469567E+03  0.10566000000E+00 0.  1.
        994    1    1    2    0    0 -0.36590217670E+02 -0.12238840254E+03  0.75971349435E+02  0.22671314704E+03  0.17120000000E+03 0.  0.
        998    1    1    2    0    0 -0.61622118525E+01 -0.31845939262E+02  0.78453822361E+03  0.78527215729E+03  0.10000000000E+02 0.  1.
</event>
<event>
 5    1  0.1658612E-008  0.3828887E+03  0.7957747E-01  0.3438676E+00
         13   -1    0    0    0    0  0.00000000000E+00  0.00000000000E+00  0.14999999963E+04  0.15000000000E+04  0.10566000000E+00 0.  1.
        994   -1    0    0    0    0 -0.00000000000E+00 -0.00000000000E+00  0.11368683772E-12  0.17120000000E+03  0.17120000000E+03 0.  0.
         13    1    1    2    0    0  0.13325014114E+02 -0.14628583804E+01  0.32164749604E+02  0.34846495332E+02  0.10566000000E+00 0.  1.
        994    1    1    2    0    0 -0.12734725259E+02  0.72996248386E+00  0.32209305493E+01  0.17170474794E+03  0.17120000000E+03 0.  0.
        998    1    1    2    0    0 -0.59028885431E+00  0.73289589656E+00  0.14646143161E+04  0.14646487567E+04  0.10000000000E+02 0.  1.
</event>
<event>
 5    1  0.1658612E-008  0.3831941E+03  0.7957747E-01  0.3437368E+00
         13   -1    0    0    0    0  0.00000000000E+00  0.00000000000E+00  0.14999999963E+04  0.15000000000E+04  0.10566000000E+00 0. -1.
        994   -1    0    0    0    0 -0.00000000000E+00 -0.00000000000E+00  0.11368683772E-12  0.17120000000E+03  0.17120000000E+03 0.  0.
         13    1    1    2    0    0  0.12424039693E+02  0.64221265431E+01  0.37271732411E+02  0.39809467123E+02  0.10566000000E+00 0. -1.
        994    1    1    2    0    0 -0.96873979720E+01 -0.10577498909E+02  0.32102538930E+01  0.17182978465E+03  0.17120000000E+03 0.  0.
        998    1    1    2    0    0 -0.27366417209E+01  0.41553723659E+01  0.14595180100E+04  0.14595607482E+04  0.10000000000E+02 0. -1.
</event>
<event>
 5    1  0.1658612E-008  0.3712508E+03  0.7957747E-01  0.3490162E+00
         13   -1    0    0    0    0  0.00000000000E+00  0.00000000000E+00  0.14999999963E+04  0.15000000000E+04  0.10566000000E+00 0. -1.
        994   -1    0    0    0    0 -0.00000000000E+00 -0.00000000000E+00  0.11368683772E-12  0.17120000000E+03  0.17120000000E+03 0.  0.
         13    1    1    2    0    0  0.52305068042E+02  0.36008835769E+02  0.21207615145E+03  0.22137922571E+03  0.10566000000E+00 0. -1.
        994    1    1    2    0    0  0.10209428245E+02 -0.47662352578E+01  0.12047643444E+02  0.17199283455E+03  0.17120000000E+03 0.  0.
        998    1    1    2    0    0 -0.62514496287E+02 -0.31242600511E+02  0.12758762014E+04  0.12778279397E+04  0.10000000000E+02 0. -1.
</event>
<event>
 5    1  0.1658612E-008  0.3823238E+03  0.7957747E-01  0.3441102E+00
         13   -1    0    0    0    0  0.00000000000E+00  0.00000000000E+00  0.14999999963E+04  0.15000000000E+04  0.10566000000E+00 0. -1.
        994   -1    0    0    0    0 -0.00000000000E+00 -0.00000000000E+00  0.11368683772E-12  0.17120000000E+03  0.17120000000E+03 0.  0.
         13    1    1    2    0    0  0.20290994441E+02 -0.21982200526E+02  0.14381101347E+03  0.14688961963E+03  0.10566000000E+00 0. -1.
        994    1    1    2    0    0 -0.17290920828E+02  0.16281588230E+02  0.48381971263E+01  0.17290724163E+03  0.17120000000E+03 0.  0.
        998    1    1    2    0    0 -0.30000736130E+01  0.57006122959E+01  0.13513507857E+04  0.13514031387E+04  0.10000000000E+02 0. -1.
</event>
<event>
 5    1  0.1658612E-008  0.3824573E+03  0.7957747E-01  0.3440528E+00
         13   -1    0    0    0    0  0.00000000000E+00  0.00000000000E+00  0.14999999963E+04  0.15000000000E+04  0.10566000000E+00 0. -1.
        994   -1    0    0    0    0 -0.00000000000E+00 -0.00000000000E+00  0.11368683772E-12  0.17120000000E+03  0.17120000000E+03 0.  0.
         13    1    1    2    0    0 -0.27571113520E+02 -0.35802623440E+02  0.26138034710E+03  0.26525778247E+03  0.10566000000E+00 0. -1.
        994    1    1    2    0    0  0.35144167049E+02  0.44473203959E+02  0.13626117879E+02  0.18085377916E+03  0.17120000000E+03 0.  0.
        998    1    1    2    0    0 -0.75730535289E+01 -0.86705805197E+01  0.12249935313E+04  0.12250884384E+04  0.10000000000E+02 0. -1.
</event>
<event>
 5    1  0.1658612E-008  0.3803216E+03  0.7957747E-01  0.3449759E+00
         13   -1    0    0    0    0  0.00000000000E+00  0.00000000000E+00  0.14999999963E+04  0.15000000000E+04  0.10566000000E+00 0. -1.
        994   -1    0    0    0    0 -0.00000000000E+00 -0.00000000000E+00  0.11368683772E-12  0.17120000000E+03  0.17120000000E+03 0.  0.
         13    1    1    2    0    0 -0.14745100652E+02 -0.12033302129E+02  0.44618301016E+02  0.48507961233E+02  0.10566000000E+00 0. -1.
        994    1    1    2    0    0  0.56833605734E+01  0.80266517577E+01  0.42939565145E+01  0.17153601892E+03  0.17120000000E+03 0.  0.
        998    1    1    2    0    0  0.90617400790E+01  0.40066503717E+01  0.14510877387E+04  0.14511560198E+04  0.10000000000E+02 0. -1.
</event>
<event>
 5    1  0.1658612E-008  0.2780242E+03  0.7957747E-01  0.4066578E+00
         13   -1    0    0    0    0  0.00000000000E+00  0.00000000000E+00  0.14999999963E+04  0.15000000000E+04  0.10566000000E+00 0. -1.
        994   -1    0    0    0    0 -0.00000000000E+00 -0.00000000000E+00  0.11368683772E-12  0.17120000000E+03  0.17120000000E+03 0.  0.
         13    1    1    2    0    0 -0.14885450093E+03  0.10304408583E+03  0.49028713260E+03  0.52264445814E+03  0.10566000000E+00 0. -1.
        994    1    1    2    0    0  0.14114691355E+03 -0.10314639863E+03  0.14637587303E+03  0.28512622987E+03  0.17120000000E+03 0.  0.
        998    1    1    2    0    0  0.77075873846E+01  0.10231279489E+00  0.86333699066E+03  0.86342931199E+03  0.10000000000E+02 0.  0.
</event>
<event>
 5    1  0.1658612E-008  0.4027695E+03  0.7957747E-01  0.3357637E+00
         13   -1    0    0    0    0  0.00000000000E+00  0.00000000000E+00  0.14999999963E+04  0.15000000000E+04  0.10566000000E+00 0.  1.
        994   -1    0    0    0    0 -0.00000000000E+00 -0.00000000000E+00  0.11368683772E-12  0.17120000000E+03  0.17120000000E+03 0.  0.
         13    1    1    2    0    0  0.39130998461E+02 -0.24153637366E+02  0.23992603675E+02  0.51868000094E+02  0.10566000000E+00 0.  1.
        994    1    1    2    0    0 -0.40291767882E+02  0.27991972317E+02  0.39034481057E+02  0.18231869840E+03  0.17120000000E+03 0.  0.
        998    1    1    2    0    0  0.11607694219E+01 -0.38383349510E+01  0.14369729115E+04  0.14370133015E+04  0.10000000000E+02 0.  1.
</event>
<event>
 5    1  0.1658612E-008  0.3832768E+03  0.7957747E-01  0.3437014E+00
         13   -1    0    0    0    0  0.00000000000E+00  0.00000000000E+00  0.14999999963E+04  0.15000000000E+04  0.10566000000E+00 0. -1.
        994   -1    0    0    0    0 -0.00000000000E+00 -0.00000000000E+00  0.11368683772E-12  0.17120000000E+03  0.17120000000E+03 0.  0.
         13    1    1    2    0    0 -0.16432028918E+02  0.68945415511E+01  0.58297596082E+02  0.60960373609E+02  0.10566000000E+00 0. -1.
        994    1    1    2    0    0  0.16452904654E+02 -0.33725022960E+02  0.71587785436E+01  0.17541027152E+03  0.17120000000E+03 0.  0.
        998    1    1    2    0    0 -0.20875735492E-01  0.26830481409E+02  0.14345436217E+04  0.14348293549E+04  0.10000000000E+02 0. -1.
</event>
<event>
 5    1  0.1658612E-008  0.3775504E+03  0.7957747E-01  0.3461895E+00
         13   -1    0    0    0    0  0.00000000000E+00  0.00000000000E+00  0.14999999963E+04  0.15000000000E+04  0.10566000000E+00 0. -1.
        994   -1    0    0    0    0 -0.00000000000E+00 -0.00000000000E+00  0.11368683772E-12  0.17120000000E+03  0.17120000000E+03 0.  0.
         13    1    1    2    0    0 -0.10239661643E+02  0.23968426768E+02  0.59028158449E+02  0.64526512428E+02  0.10566000000E+00 0. -1.
        994    1    1    2    0    0  0.73501186570E+01 -0.25677156905E+02  0.77826959146E+01  0.17344552743E+03  0.17120000000E+03 0.  0.
        998    1    1    2    0    0  0.28895429861E+01  0.17087301367E+01  0.14331891419E+04  0.14332279601E+04  0.10000000000E+02 0. -1.
</event>
<event>
 5    1  0.1658612E-008  0.3822223E+03  0.7957747E-01  0.3441539E+00
         13   -1    0    0    0    0  0.00000000000E+00  0.00000000000E+00  0.14999999963E+04  0.15000000000E+04  0.10566000000E+00 0. -1.
        994   -1    0    0    0    0 -0.00000000000E+00 -0.00000000000E+00  0.11368683772E-12  0.17120000000E+03  0.17120000000E+03 0.  0.
         13    1    1    2    0    0 -0.88448248428E+01 -0.13880901825E+02  0.45056243465E+02  0.47968600158E+02  0.10566000000E+00 0. -1.
        994    1    1    2    0    0 -0.13803267835E+01  0.62459100222E+01  0.31513138653E+01  0.17134843878E+03  0.17120000000E+03 0.  0.
        998    1    1    2    0    0  0.10225151626E+02  0.76349918030E+01  0.14517924389E+04  0.14518829611E+04  0.10000000000E+02 0. -1.
</event>
<event>
 5    1  0.1658612E-008  0.3847097E+03  0.7957747E-01  0.3430904E+00
         13   -1    0    0    0    0  0.00000000000E+00  0.00000000000E+00  0.14999999963E+04  0.15000000000E+04  0.10566000000E+00 0.  1.
        994   -1    0    0    0    0 -0.00000000000E+00 -0.00000000000E+00  0.11368683772E-12  0.17120000000E+03  0.17120000000E+03 0.  0.
         13    1    1    2    0    0  0.78394628217E+01 -0.13134559766E+02  0.64046468042E+02  0.65847817505E+02  0.10566000000E+00 0.  1.
        994    1    1    2    0    0 -0.70716887448E+01  0.12706769471E+02  0.24707621946E+01  0.17183426736E+03  0.17120000000E+03 0.  0.
        998    1    1    2    0    0 -0.76777407682E+00  0.42779029576E+00  0.14334827660E+04  0.14335179151E+04  0.10000000000E+02 0.  1.
</event>
<event>
 5    1  0.1658612E-008  0.3830541E+03  0.7957747E-01  0.3437967E+00
         13   -1    0    0    0    0  0.00000000000E+00  0.00000000000E+00  0.14999999963E+04  0.15000000000E+04  0.10566000000E+00 0.  1.
        994   -1    0    0    0    0 -0.00000000000E+00 -0.00000000000E+00  0.11368683772E-12  0.17120000000E+03  0.17120000000E+03 0.  0.
         13    1    1    2    0    0 -0.12050082068E+01  0.14545031928E+02  0.41089725308E+02  0.43604892942E+02  0.10566000000E+00 0.  1.
        994    1    1    2    0    0  0.11969387524E+02 -0.33857224710E+01  0.31115732108E+01  0.17167950152E+03  0.17120000000E+03 0.  0.
        998    1    1    2    0    0 -0.10764379317E+02 -0.11159309457E+02  0.14557986978E+04  0.14559156055E+04  0.10000000000E+02 0.  1.
</event>
<event>
 5    1  0.1658612E-008  0.3862276E+03  0.7957747E-01  0.3424483E+00
         13   -1    0    0    0    0  0.00000000000E+00  0.00000000000E+00  0.14999999963E+04  0.15000000000E+04  0.10566000000E+00 0. -1.
        994   -1    0    0    0    0 -0.00000000000E+00 -0.00000000000E+00  0.11368683772E-12  0.17120000000E+03  0.17120000000E+03 0.  0.
         13    1    1    2    0    0  0.27298543518E+02 -0.49761658544E+02  0.77834723531E+02  0.96331139776E+02  0.10566000000E+00 0. -1.
        994    1    1    2    0    0 -0.19981874795E+02  0.17591001104E+02  0.22423396283E+02  0.17470251098E+03  0.17120000000E+03 0.  0.
        998    1    1    2    0    0 -0.73166687224E+01  0.32170657440E+02  0.13997418765E+04  0.14001663492E+04  0.10000000000E+02 0. -1.
</event>
<event>
 5    1  0.1658612E-008  0.3852826E+03  0.7957747E-01  0.3428475E+00
         13   -1    0    0    0    0  0.00000000000E+00  0.00000000000E+00  0.14999999963E+04  0.15000000000E+04  0.10566000000E+00 0. -1.
        994   -1    0    0    0    0 -0.00000000000E+00 -0.00000000000E+00  0.11368683772E-12  0.17120000000E+03  0.17120000000E+03 0.  0.
         13    1    1    2    0    0 -0.11069995185E+02 -0.54018271771E+00  0.42175339317E+02  0.43607419109E+02  0.10566000000E+00 0. -1.
        994    1    1    2    0    0  0.33808247033E+01 -0.12440375384E+01  0.15325566869E+01  0.17124475564E+03  0.17120000000E+03 0.  0.
        998    1    1    2    0    0  0.76891704819E+01  0.17842202561E+01  0.14562921003E+04  0.14563478252E+04  0.10000000000E+02 0. -1.
</event>
<event>
 5    1  0.1658612E-008  0.3853912E+03  0.7957747E-01  0.3428015E+00
         13   -1    0    0    0    0  0.00000000000E+00  0.00000000000E+00  0.14999999963E+04  0.15000000000E+04  0.10566000000E+00 0.  1.
        994   -1    0    0    0    0 -0.00000000000E+00 -0.00000000000E+00  0.11368683772E-12  0.17120000000E+03  0.17120000000E+03 0.  0.
         13    1    1    2    0    0 -0.24920017395E+01  0.11381071561E+02  0.47362536537E+02  0.48774582456E+02  0.10566000000E+00 0.  1.
        994    1    1    2    0    0  0.11639508993E+02 -0.56900755411E+01  0.19875469990E+01  0.17170103515E+03  0.17120000000E+03 0.  0.
        998    1    1    2    0    0 -0.91475072537E+01 -0.56909960197E+01  0.14506499127E+04  0.14507243824E+04  0.10000000000E+02 0.  1.
</event>
<event>
 5    1  0.1658612E-008  0.3710628E+03  0.7957747E-01  0.3491021E+00
         13   -1    0    0    0    0  0.00000000000E+00  0.00000000000E+00  0.14999999963E+04  0.15000000000E+04  0.10566000000E+00 0.  1.
        994   -1    0    0    0    0 -0.00000000000E+00 -0.00000000000E+00  0.11368683772E-12  0.17120000000E+03  0.17120000000E+03 0.  0.
         13    1    1    2    0    0 -0.90184619218E+02  0.54708487173E+02  0.39958631363E+03  0.41327414305E+03  0.10566000000E+00 0.  1.
        994    1    1    2    0    0  0.83871149140E+02 -0.30381416244E+02  0.39974283792E+02  0.19714153158E+03  0.17120000000E+03 0.  0.
        998    1    1    2    0    0  0.63134700781E+01 -0.24327070930E+02  0.10604393989E+04  0.10607843254E+04  0.10000000000E+02 0.  1.
</event>
<event>
 5    1  0.1658612E-008  0.3832303E+03  0.7957747E-01  0.3437212E+00
         13   -1    0    0    0    0  0.00000000000E+00  0.00000000000E+00  0.14999999963E+04  0.15000000000E+04  0.10566000000E+00 0. -1.
        994   -1    0    0    0    0 -0.00000000000E+00 -0.00000000000E+00  0.11368683772E-12  0.17120000000E+03  0.17120000000E+03 0.  0.
         13    1    1    2    0    0 -0.44618614116E+01 -0.27025016346E+02  0.15307262923E+03  0.15550402149E+03  0.10566000000E+00 0. -1.
        994    1    1    2    0    0 -0.72309245606E+01  0.14289709999E+02  0.33600992044E+01  0.17198026732E+03  0.17120000000E+03 0.  0.
        998    1    1    2    0    0  0.11692785972E+02  0.12735306347E+02  0.13435672678E+04  0.13437157112E+04  0.10000000000E+02 0. -1.
</event>
<event>
 5    1  0.1658612E-008  0.3775974E+03  0.7957747E-01  0.3461687E+00
         13   -1    0    0    0    0  0.00000000000E+00  0.00000000000E+00  0.14999999963E+04  0.15000000000E+04  0.10566000000E+00 0.  1.
        994   -1    0    0    0    0 -0.00000000000E+00 -0.00000000000E+00  0.11368683772E-12  0.17120000000E+03  0.17120000000E+03 0.  0.
         13    1    1    2    0    0 -0.32697822139E+02  0.15208050847E+02  0.12887971063E+03  0.13382982986E+03  0.10566000000E+00 0.  1.
        994    1    1    2    0    0  0.32914371296E+01 -0.10719209665E+02  0.57747215173E+01  0.17166398115E+03  0.17120000000E+03 0.  0.
        998    1    1    2    0    0  0.29406385009E+02 -0.44888411820E+01  0.13653455641E+04  0.13657061890E+04  0.10000000000E+02 0.  1.
</event>
<event>
 5    1  0.1658612E-008  0.3826534E+03  0.7957747E-01  0.3439686E+00
         13   -1    0    0    0    0  0.00000000000E+00  0.00000000000E+00  0.14999999963E+04  0.15000000000E+04  0.10566000000E+00 0.  1.
        994   -1    0    0    0    0 -0.00000000000E+00 -0.00000000000E+00  0.11368683772E-12  0.17120000000E+03  0.17120000000E+03 0.  0.
         13    1    1    2    0    0 -0.12872140421E+02  0.34107839727E+02  0.21059685413E+03  0.21372899397E+03  0.10566000000E+00 0.  1.
        994    1    1    2    0    0  0.73070110247E+01 -0.33775012949E+02  0.67670332860E+01  0.17478379973E+03  0.17120000000E+03 0.  0.
        998    1    1    2    0    0  0.55651293966E+01 -0.33282677802E+00  0.12826361089E+04  0.12826872063E+04  0.10000000000E+02 0.  1.
</event>
<event>
 5    1  0.1658612E-008  0.3834455E+03  0.7957747E-01  0.3436292E+00
         13   -1    0    0    0    0  0.00000000000E+00  0.00000000000E+00  0.14999999963E+04  0.15000000000E+04  0.10566000000E+00 0. -1.
        994   -1    0    0    0    0 -0.00000000000E+00 -0.00000000000E+00  0.11368683772E-12  0.17120000000E+03  0.17120000000E+03 0.  0.
         13    1    1    2    0    0  0.19726360773E+01 -0.74639837565E+02  0.17013845631E+03  0.18580124360E+03  0.10566000000E+00 0. -1.
        994    1    1    2    0    0  0.26507629867E+02  0.10678651177E+02  0.21235650285E+02  0.17486303462E+03  0.17120000000E+03 0.  0.
        998    1    1    2    0    0 -0.28480265944E+02  0.63961186388E+02  0.13086258897E+04  0.13105357218E+04  0.10000000000E+02 0. -1.
</event>
<event>
 5    1  0.1658612E-008  0.3850301E+03  0.7957747E-01  0.3429544E+00
         13   -1    0    0    0    0  0.00000000000E+00  0.00000000000E+00  0.14999999963E+04  0.15000000000E+04  0.10566000000E+00 0. -1.
        994   -1    0    0    0    0 -0.00000000000E+00 -0.00000000000E+00  0.11368683772E-12  0.17120000000E+03  0.17120000000E+03 0.  0.
         13    1    1    2    0    0  0.15607330978E+02  0.72905911467E+01  0.93671041816E+02  0.95241885421E+02  0.10566000000E+00 0. -1.
        994    1    1    2    0    0 -0.17295676449E+01 -0.17583921128E+02  0.26424221757E+01  0.17212962581E+03  0.17120000000E+03 0.  0.
        998    1    1    2    0    0 -0.13877763333E+02  0.10293329981E+02  0.14036865323E+04  0.14038284888E+04  0.10000000000E+02 0. -1.
</event>
<event>
 5    1  0.1658612E-008  0.3780470E+03  0.7957747E-01  0.3459707E+00
         13   -1    0    0    0    0  0.00000000000E+00  0.00000000000E+00  0.14999999963E+04  0.15000000000E+04  0.10566000000E+00 0.  1.
        994   -1    0    0    0    0 -0.00000000000E+00 -0.00000000000E+00  0.11368683772E-12  0.17120000000E+03  0.17120000000E+03 0.  0.
         13    1    1    2    0    0  0.32776688872E+02 -0.10699855579E+02  0.12446057864E+03  0.12914815153E+03  0.10566000000E+00 0.  1.
        994    1    1    2    0    0 -0.22679743273E+01  0.75752472448E+01  0.53326849252E+01  0.17146546476E+03  0.17120000000E+03 0.  0.
        998    1    1    2    0    0 -0.30508714545E+02  0.31246083344E+01  0.13702067327E+04  0.13705863837E+04  0.10000000000E+02 0.  1.
</event>
<event>
 5    1  0.1658612E-008  0.3685179E+03  0.7957747E-01  0.3502730E+00
         13   -1    0    0    0    0  0.00000000000E+00  0.00000000000E+00  0.14999999963E+04  0.15000000000E+04  0.10566000000E+00 0. -1.
        994   -1    0    0    0    0 -0.00000000000E+00 -0.00000000000E+00  0.11368683772E-12  0.17120000000E+03  0.17120000000E+03 0.  0.
         13    1    1    2    0    0  0.17971815607E+03 -0.57842530022E+02  0.89070508599E+03  0.91049433566E+03  0.10566000000E+00 0. -1.
        994    1    1    2    0    0 -0.15765836802E+03  0.54236299506E+02  0.11393710848E+03  0.26474297324E+03  0.17120000000E+03 0.  0.
        998    1    1    2    0    0 -0.22059788048E+02  0.36062305161E+01  0.49535780182E+03  0.49596269110E+03  0.10000000000E+02 0.  0.
</event>
<event>
 5    1  0.1658612E-008  0.3753288E+03  0.7957747E-01  0.3471754E+00
         13   -1    0    0    0    0  0.00000000000E+00  0.00000000000E+00  0.14999999963E+04  0.15000000000E+04  0.10566000000E+00 0. -1.
        994   -1    0    0    0    0 -0.00000000000E+00 -0.00000000000E+00  0.11368683772E-12  0.17120000000E+03  0.17120000000E+03 0.  0.
         13    1    1    2    0    0 -0.33888287702E+01 -0.15417916076E+02  0.16347003013E+02  0.22725139562E+02  0.10566000000E+00 0. -1.
        994    1    1    2    0    0  0.99143187145E+01  0.82170993797E+01  0.70732015765E+01  0.17182923098E+03  0.17120000000E+03 0.  0.
        998    1    1    2    0    0 -0.65254899443E+01  0.72008166964E+01  0.14765797917E+04  0.14766456295E+04  0.10000000000E+02 0. -1.
</event>
<event>
 5    1  0.1658612E-008  0.3832750E+03  0.7957747E-01  0.3437021E+00
         13   -1    0    0    0    0  0.00000000000E+00  0.00000000000E+00  0.14999999963E+04  0.15000000000E+04  0.10566000000E+00 0.  1.
        994   -1    0    0    0    0 -0.00000000000E+00 -0.00000000000E+00  0.11368683772E-12  0.17120000000E+03  0.17120000000E+03 0.  0.
         13    1    1    2    0    0 -0.18906377324E+02 -0.12789399880E+02  0.11161979499E+03  0.11392984530E+03  0.10566000000E+00 0.  1.
        994    1    1    2    0    0  0.59729491631E+01 -0.18861788393E+01  0.26187408269E+01  0.17133456042E+03  0.17120000000E+03 0.  0.
        998    1    1    2    0    0  0.12933428161E+02  0.14675578719E+02  0.13857614605E+04  0.13859355943E+04  0.10000000000E+02 0.  1.
</event>
<event>
 5    1  0.1658612E-008  0.3810970E+03  0.7957747E-01  0.3446396E+00
         13   -1    0    0    0    0  0.00000000000E+00  0.00000000000E+00  0.14999999963E+04  0.15000000000E+04  0.10566000000E+00 0.  1.
        994   -1    0    0    0    0 -0.00000000000E+00 -0.00000000000E+00  0.11368683772E-12  0.17120000000E+03  0.17120000000E+03 0.  0.
         13    1    1    2    0    0  0.31415003135E+02 -0.13925147123E+02  0.18603235699E+03  0.18917944169E+03  0.10566000000E+00 0.  1.
        994    1    1    2    0    0 -0.29607594230E+01  0.20990422062E+01  0.36243034975E+01  0.17127681586E+03  0.17120000000E+03 0.  0.
        998    1    1    2    0    0 -0.28454243712E+02  0.11826104917E+02  0.13103433358E+04  0.13107437425E+04  0.10000000000E+02 0.  1.
</event>
<event>
 5    1  0.1658612E-008  0.3840683E+03  0.7957747E-01  0.3433633E+00
         13   -1    0    0    0    0  0.00000000000E+00  0.00000000000E+00  0.14999999963E+04  0.15000000000E+04  0.10566000000E+00 0.  1.
        994   -1    0    0    0    0 -0.00000000000E+00 -0.00000000000E+00  0.11368683772E-12  0.17120000000E+03  0.17120000000E+03 0.  0.
         13    1    1    2    0    0  0.99549879690E+01  0.74882091288E+01  0.37598489239E+02  0.39608491748E+02  0.10566000000E+00 0.  1.
        994    1    1    2    0    0 -0.44817747781E+00 -0.26747012248E+01  0.21176905625E+01  0.17123457450E+03  0.17120000000E+03 0.  0.
        998    1    1    2    0    0 -0.95068104912E+01 -0.48135079040E+01  0.14602838165E+04  0.14603569338E+04  0.10000000000E+02 0.  1.
</event>
<event>
 5    1  0.1658612E-008  0.3846246E+03  0.7957747E-01  0.3431266E+00
         13   -1    0    0    0    0  0.00000000000E+00  0.00000000000E+00  0.14999999963E+04  0.15000000000E+04  0.10566000000E+00 0.  1.
        994   -1    0    0    0    0 -0.00000000000E+00 -0.00000000000E+00  0.11368683772E-12  0.17120000000E+03  0.17120000000E+03 0.  0.
         13    1    1    2    0    0 -0.40152626792E+01  0.19146419682E+02  0.10871358553E+03  0.11045977804E+03  0.10566000000E+00 0.  1.
        994    1    1    2    0    0  0.90276116840E+01 -0.65022593541E+01  0.22243080531E+01  0.17157553641E+03  0.17120000000E+03 0.  0.
        998    1    1    2    0    0 -0.50123490049E+01 -0.12644160328E+02  0.13890621027E+04  0.13891646856E+04  0.10000000000E+02 0.  1.
</event>
<event>
 5    1  0.1658612E-008  0.3852735E+03  0.7957747E-01  0.3428513E+00
         13   -1    0    0    0    0  0.00000000000E+00  0.00000000000E+00  0.14999999963E+04  0.15000000000E+04  0.10566000000E+00 0. -1.
        994   -1    0    0    0    0 -0.00000000000E+00 -0.00000000000E+00  0.11368683772E-12  0.17120000000E+03  0.17120000000E+03 0.  0.
         13    1    1    2    0    0  0.13584157961E+02 -0.93291395312E+01  0.96919898435E+02  0.98310935651E+02  0.10566000000E+00 0. -1.
        994    1    1    2    0    0  0.20984960777E+00  0.57703029429E+01  0.16039625796E+01  0.17130485436E+03  0.17120000000E+03 0.  0.
        998    1    1    2    0    0 -0.13794007569E+02  0.35588365883E+01  0.14014761353E+04  0.14015842100E+04  0.10000000000E+02 0. -1.
</event>
<event>
 5    1  0.1658612E-008  0.3819416E+03  0.7957747E-01  0.3442747E+00
         13   -1    0    0    0    0  0.00000000000E+00  0.00000000000E+00  0.14999999963E+04  0.15000000000E+04  0.10566000000E+00 0.  1.
        994   -1    0    0    0    0 -0.00000000000E+00 -0.00000000000E+00  0.11368683772E-12  0.17120000000E+03  0.17120000000E+03 0.  0.
         13    1    1    2    0    0  0.39793840942E+01 -0.19925280222E+02  0.62775225532E+02  0.65981758042E+02  0.10566000000E+00 0.  1.
        994    1    1    2    0    0  0.12508317019E+01  0.19049799134E+02  0.43677376607E+01  0.17231650112E+03  0.17120000000E+03 0.  0.
        998    1    1    2    0    0 -0.52302157962E+01  0.87548108806E+00  0.14328570331E+04  0.14329017408E+04  0.10000000000E+02 0.  1.
</event>
<event>
 5    1  0.1658612E-008  0.3774595E+03  0.7957747E-01  0.3462295E+00
         13   -1    0    0    0    0  0.00000000000E+00  0.00000000000E+00  0.14999999963E+04  0.15000000000E+04  0.10566000000E+00 0.  1.
        994   -1    0    0    0    0 -0.00000000000E+00 -0.00000000000E+00  0.11368683772E-12  0.17120000000E+03  0.17120000000E+03 0.  0.
         13    1    1    2    0    0  0.40896791987E+02  0.10781932285E+03  0.64582220603E+03  0.65603649818E+03  0.10566000000E+00 0.  1.
        994    1    1    2    0    0 -0.37424471959E+02 -0.11181899039E+03  0.53829250154E+02  0.21473496661E+03  0.17120000000E+03 0.  0.
        998    1    1    2    0    0 -0.34723200287E+01  0.39996675395E+01  0.80034854009E+03  0.80042853521E+03  0.10000000000E+02 0.  1.
</event>
<event>
 5    1  0.1658612E-008  0.3850130E+03  0.7957747E-01  0.3429617E+00
         13   -1    0    0    0    0  0.00000000000E+00  0.00000000000E+00  0.14999999963E+04  0.15000000000E+04  0.10566000000E+00 0.  1.
        994   -1    0    0    0    0 -0.00000000000E+00 -0.00000000000E+00  0.11368683772E-12  0.17120000000E+03  0.17120000000E+03 0.  0.
         13    1    1    2    0    0  0.46547726290E+01 -0.12643666834E+02  0.54921797481E+02  0.56550368892E+02  0.10566000000E+00 0.  1.
        994    1    1    2    0    0 -0.85477783009E+00  0.12421343768E+02  0.21336489714E+01  0.17166540969E+03  0.17120000000E+03 0.  0.
        998    1    1    2    0    0 -0.37999947990E+01  0.22232306586E+00  0.14429445498E+04  0.14429842214E+04  0.10000000000E+02 0.  1.
</event>
<event>
 5    1  0.1658612E-008  0.3841044E+03  0.7957747E-01  0.3433480E+00
         13   -1    0    0    0    0  0.00000000000E+00  0.00000000000E+00  0.14999999963E+04  0.15000000000E+04  0.10566000000E+00 0. -1.
        994   -1    0    0    0    0 -0.00000000000E+00 -0.00000000000E+00  0.11368683772E-12  0.17120000000E+03  0.17120000000E+03 0.  0.
         13    1    1    2    0    0  0.11612745561E+02  0.13126082885E+02  0.78138204077E+02  0.80079585487E+02  0.10566000000E+00 0. -1.
        994    1    1    2    0    0 -0.53137029073E+01  0.22811473534E+01  0.21857470515E+01  0.17131157743E+03  0.17120000000E+03 0.  0.
        998    1    1    2    0    0 -0.62990426539E+01 -0.15407230238E+02  0.14196760452E+04  0.14198088371E+04  0.10000000000E+02 0. -1.
</event>
<event>
 5    1  0.1658612E-008  0.3757915E+03  0.7957747E-01  0.3469690E+00
         13   -1    0    0    0    0  0.00000000000E+00  0.00000000000E+00  0.14999999963E+04  0.15000000000E+04  0.10566000000E+00 0.  1.
        994   -1    0    0    0    0 -0.00000000000E+00 -0.00000000000E+00  0.11368683772E-12  0.17120000000E+03  0.17120000000E+03 0.  0.
         13    1    1    2    0    0  0.30052323991E+02  0.14875536977E+02  0.87882410980E+02  0.94062495722E+02  0.10566000000E+00 0.  1.
        994    1    1    2    0    0 -0.10169299395E+02 -0.23208910067E+02  0.84525782627E+01  0.17327133126E+03  0.17120000000E+03 0.  0.
        998    1    1    2    0    0 -0.19883024596E+02  0.83333730895E+01  0.14036650070E+04  0.14038661730E+04  0.10000000000E+02 0.  1.
</event>
<event>
 5    1  0.1658612E-008  0.3853481E+03  0.7957747E-01  0.3428197E+00
         13   -1    0    0    0    0  0.00000000000E+00  0.00000000000E+00  0.14999999963E+04  0.15000000000E+04  0.10566000000E+00 0. -1.
        994   -1    0    0    0    0 -0.00000000000E+00 -0.00000000000E+00  0.11368683772E-12  0.17120000000E+03  0.17120000000E+03 0.  0.
         13    1    1    2    0    0 -0.77131287771E+01 -0.93301726797E+01  0.48387757034E+02  0.49879160705E+02  0.10566000000E+00 0. -1.
        994    1    1    2    0    0  0.86333093546E+01  0.12616630684E+02  0.22255414526E+01  0.17189562657E+03  0.17120000000E+03 0.  0.
        998    1    1    2    0    0 -0.92018057755E+00 -0.32864580048E+01  0.14493866978E+04  0.14494252127E+04  0.10000000000E+02 0. -1.
</event>
<event>
 5    1  0.1658612E-008  0.3842732E+03  0.7957747E-01  0.3432760E+00
         13   -1    0    0    0    0  0.00000000000E+00  0.00000000000E+00  0.14999999963E+04  0.15000000000E+04  0.10566000000E+00 0.  1.
        994   -1    0    0    0    0 -0.00000000000E+00 -0.00000000000E+00  0.11368683772E-12  0.17120000000E+03  0.17120000000E+03 0.  0.
         13    1    1    2    0    0  0.13550042813E+02 -0.75316657164E+01 -0.21023616644E+01  0.15644831009E+02  0.10566000000E+00 0.  1.
        994    1    1    2    0    0 -0.10194643316E+02  0.15340988805E+02  0.19944563023E+02  0.17333926931E+03  0.17120000000E+03 0.  0.
        998    1    1    2    0    0 -0.33553994965E+01 -0.78093230888E+01  0.14821577949E+04  0.14822158997E+04  0.10000000000E+02 0.  1.
</event>
<event>
 5    1  0.1658612E-008  0.3791272E+03  0.7957747E-01  0.3454968E+00
         13   -1    0    0    0    0  0.00000000000E+00  0.00000000000E+00  0.14999999963E+04  0.15000000000E+04  0.10566000000E+00 0.  1.
        994   -1    0    0    0    0 -0.00000000000E+00 -0.00000000000E+00  0.11368683772E-12  0.17120000000E+03  0.17120000000E+03 0.  0.
         13    1    1    2    0    0 -0.28060683545E+02 -0.18725766649E+02  0.11739993977E+03  0.12215078108E+03  0.10566000000E+00 0.  1.
        994    1    1    2    0    0  0.15682081714E+02  0.28512531392E+02  0.81325757077E+01  0.17445478188E+03  0.17120000000E+03 0.  0.
        998    1    1    2    0    0  0.12378601831E+02 -0.97867647439E+01  0.13744674808E+04  0.13745944370E+04  0.10000000000E+02 0.  1.
</event>
<event>
 5    1  0.1658612E-008  0.3852640E+03  0.7957747E-01  0.3428553E+00
         13   -1    0    0    0    0  0.00000000000E+00  0.00000000000E+00  0.14999999963E+04  0.15000000000E+04  0.10566000000E+00 0.  1.
        994   -1    0    0    0    0 -0.00000000000E+00 -0.00000000000E+00  0.11368683772E-12  0.17120000000E+03  0.17120000000E+03 0.  0.
         13    1    1    2    0    0  0.86737093421E+01  0.11853249267E+02  0.81548847328E+02  0.82861079021E+02  0.10566000000E+00 0.  1.
        994    1    1    2    0    0 -0.16338921545E+02  0.18949552258E+02  0.35589135011E+01  0.17305534304E+03  0.17120000000E+03 0.  0.
        998    1    1    2    0    0  0.76652122034E+01 -0.30802801525E+02  0.14148922354E+04  0.14152835779E+04  0.10000000000E+02 0.  1.
</event>
<event>
 5    1  0.1658612E-008  0.3851330E+03  0.7957747E-01  0.3429108E+00
         13   -1    0    0    0    0  0.00000000000E+00  0.00000000000E+00  0.14999999963E+04  0.15000000000E+04  0.10566000000E+00 0. -1.
        994   -1    0    0    0    0 -0.00000000000E+00 -0.00000000000E+00  0.11368683772E-12  0.17120000000E+03  0.17120000000E+03 0.  0.
         13    1    1    2    0    0  0.40730120021E+01  0.12616684416E+02  0.58281643033E+02  0.59770655267E+02  0.10566000000E+00 0. -1.
        994    1    1    2    0    0 -0.15071321532E+01 -0.26940546776E+01  0.15954576678E+01  0.17123526174E+03  0.17120000000E+03 0.  0.
        998    1    1    2    0    0 -0.25658798489E+01 -0.99226297381E+01  0.14401228956E+04  0.14401940830E+04  0.10000000000E+02 0. -1.
</event>
<event>
 5    1  0.1658612E-008  0.3770269E+03  0.7957747E-01  0.3464207E+00
         13   -1    0    0    0    0  0.00000000000E+00  0.00000000000E+00  0.14999999963E+04  0.15000000000E+04  0.10566000000E+00 0. -1.
        994   -1    0    0    0    0 -0.00000000000E+00 -0.00000000000E+00  0.11368683772E-12  0.17120000000E+03  0.17120000000E+03 0.  0.
         13    1    1    2    0    0 -0.12675695308E+02 -0.19577438258E+02  0.46374685190E+02  0.51909266329E+02  0.10566000000E+00 0. -1.
        994    1    1    2    0    0  0.32108159058E+00  0.15190133146E+02  0.64212883718E+01  0.17199277945E+03  0.17120000000E+03 0.  0.
        998    1    1    2    0    0  0.12354613718E+02  0.43873051114E+01  0.14472040227E+04  0.14472979542E+04  0.10000000000E+02 0. -1.
</event>
<event>
 5    1  0.1658612E-008  0.3842523E+03  0.7957747E-01  0.3432850E+00
         13   -1    0    0    0    0  0.00000000000E+00  0.00000000000E+00  0.14999999963E+04  0.15000000000E+04  0.10566000000E+00 0. -1.
        994   -1    0    0    0    0 -0.00000000000E+00 -0.00000000000E+00  0.11368683772E-12  0.17120000000E+03  0.17120000000E+03 0.  0.
         13    1    1    2    0    0 -0.11421862495E+02  0.13223497997E+02  0.94817783961E+02  0.96414434404E+02  0.10566000000E+00 0. -1.
        994    1    1    2    0    0 -0.25826648863E+01  0.23087562044E+02  0.37830689763E+01  0.17281046638E+03  0.17120000000E+03 0.  0.
        998    1    1    2    0    0  0.14004527381E+02 -0.36311060041E+02  0.14013991433E+04  0.14019750992E+04  0.10000000000E+02 0. -1.
</event>
<event>
 5    1  0.1658612E-008  0.3783638E+03  0.7957747E-01  0.3458314E+00
         13   -1    0    0    0    0  0.00000000000E+00  0.00000000000E+00  0.14999999963E+04  0.15000000000E+04  0.10566000000E+00 0.  1.
        994   -1    0    0    0    0 -0.00000000000E+00 -0.00000000000E+00  0.11368683772E-12  0.17120000000E+03  0.17120000000E+03 0.  0.
         13    1    1    2    0    0  0.39333071895E+02 -0.99913774565E+01  0.18968379765E+03  0.19397647389E+03  0.10566000000E+00 0.  1.
        994    1    1    2    0    0 -0.70577476978E+01 -0.16643921796E+02  0.60606690200E+01  0.17225853722E+03  0.17120000000E+03 0.  0.
        998    1    1    2    0    0 -0.32275324197E+02  0.26635299253E+02  0.13042555296E+04  0.13049649889E+04  0.10000000000E+02 0.  1.
</event>
<event>
 5    1  0.1658612E-008  0.3685746E+03  0.7957747E-01  0.3502467E+00
         13   -1    0    0    0    0  0.00000000000E+00  0.00000000000E+00  0.14999999963E+04  0.15000000000E+04  0.10566000000E+00 0.  1.
        994   -1    0    0    0    0 -0.00000000000E+00 -0.00000000000E+00  0.11368683772E-12  0.17120000000E+03  0.17120000000E+03 0.  0.
         13    1    1    2    0    0 -0.13597903264E+02 -0.40406612622E+02  0.88754178028E+02  0.98462747261E+02  0.10566000000E+00 0.  1.
        994    1    1    2    0    0  0.32767670188E+02  0.12230103376E+02  0.14278574207E+02  0.17531860517E+03  0.17120000000E+03 0.  0.
        998    1    1    2    0    0 -0.19169766924E+02  0.28176509246E+02  0.13969672440E+04  0.13974186476E+04  0.10000000000E+02 0.  1.
</event>
<event>
 5    1  0.1658612E-008  0.3684137E+03  0.7957747E-01  0.3503213E+00
         13   -1    0    0    0    0  0.00000000000E+00  0.00000000000E+00  0.14999999963E+04  0.15000000000E+04  0.10566000000E+00 0. -1.
        994   -1    0    0    0    0 -0.00000000000E+00 -0.00000000000E+00  0.11368683772E-12  0.17120000000E+03  0.17120000000E+03 0.  0.
         13    1    1    2    0    0 -0.18182523054E+02 -0.64372425769E+02  0.22929010557E+03  0.23884802075E+03  0.10566000000E+00 0. -1.
        994    1    1    2    0    0 -0.11708894003E+02  0.35112233221E+02  0.14880457320E+02  0.17578633374E+03  0.17120000000E+03 0.  0.
        998    1    1    2    0    0  0.29891417056E+02  0.29260192548E+02  0.12558294334E+04  0.12565656455E+04  0.10000000000E+02 0. -1.
</event>
<event>
 5    1  0.1658612E-008  0.3795701E+03  0.7957747E-01  0.3453032E+00
         13   -1    0    0    0    0  0.00000000000E+00  0.00000000000E+00  0.14999999963E+04  0.15000000000E+04  0.10566000000E+00 0. -1.
        994   -1    0    0    0    0 -0.00000000000E+00 -0.00000000000E+00  0.11368683772E-12  0.17120000000E+03  0.17120000000E+03 0.  0.
         13    1    1    2    0    0 -0.39367296544E+02  0.14599113552E+02  0.22769253894E+03  0.23153147002E+03  0.10566000000E+00 0. -1.
        994    1    1    2    0    0  0.12329461099E+02  0.80745811169E+01  0.50777836097E+01  0.17190822656E+03  0.17120000000E+03 0.  0.
        998    1    1    2    0    0  0.27037835445E+02 -0.22673694668E+02  0.12672296737E+04  0.12677603034E+04  0.10000000000E+02 0. -1.
</event>
<event>
 5    1  0.1658612E-008  0.3846532E+03  0.7957747E-01  0.3431144E+00
         13   -1    0    0    0    0  0.00000000000E+00  0.00000000000E+00  0.14999999963E+04  0.15000000000E+04  0.10566000000E+00 0. -1.
        994   -1    0    0    0    0 -0.00000000000E+00 -0.00000000000E+00  0.11368683772E-12  0.17120000000E+03  0.17120000000E+03 0.  0.
         13    1    1    2    0    0 -0.55882916798E+01 -0.12914911618E+02  0.56127547226E+02  0.57864813727E+02  0.10566000000E+00 0. -1.
        994    1    1    2    0    0  0.36221938269E+01  0.37856094450E+01  0.18927874797E+01  0.17129061204E+03  0.17120000000E+03 0.  0.
        998    1    1    2    0    0  0.19660978528E+01  0.91293021726E+01  0.14419796616E+04  0.14420445742E+04  0.10000000000E+02 0. -1.
</event>
<event>
 5    1  0.1658612E-008  0.3840061E+03  0.7957747E-01  0.3433898E+00
         13   -1    0    0    0    0  0.00000000000E+00  0.00000000000E+00  0.14999999963E+04  0.15000000000E+04  0.10566000000E+00 0. -1.
        994   -1    0    0    0    0 -0.00000000000E+00 -0.00000000000E+00  0.11368683772E-12  0.17120000000E+03  0.17120000000E+03 0.  0.
         13    1    1    2    0    0  0.77940196735E+01 -0.68702611083E+01  0.24506462295E+02  0.26618134582E+02  0.10566000000E+00 0. -1.
        994    1    1    2    0    0 -0.54107114674E+01  0.91308023650E+01  0.24961140430E+01  0.17154683890E+03  0.17120000000E+03 0.  0.
        998    1    1    2    0    0 -0.23833082062E+01 -0.22605412568E+01  0.14729974199E+04  0.14730350265E+04  0.10000000000E+02 0. -1.
</event>
<event>
 5    1  0.1658612E-008  0.3841173E+03  0.7957747E-01  0.3433424E+00
         13   -1    0    0    0    0  0.00000000000E+00  0.00000000000E+00  0.14999999963E+04  0.15000000000E+04  0.10566000000E+00 0.  1.
        994   -1    0    0    0    0 -0.00000000000E+00 -0.00000000000E+00  0.11368683772E-12  0.17120000000E+03  0.17120000000E+03 0.  0.
         13    1    1    2    0    0  0.16110900777E+02 -0.29895213125E+01  0.66719530598E+02  0.68702294640E+02  0.10566000000E+00 0.  1.
        994    1    1    2    0    0 -0.31142797577E+01  0.10172461750E+02  0.24423667006E+01  0.17154761109E+03  0.17120000000E+03 0.  0.
        998    1    1    2    0    0 -0.12996621020E+02 -0.71829404376E+01  0.14308380990E+04  0.14309500943E+04  0.10000000000E+02 0.  1.
</event>
<event>
 5    1  0.1658612E-008  0.3722501E+03  0.7957747E-01  0.3485613E+00
         13   -1    0    0    0    0  0.00000000000E+00  0.00000000000E+00  0.14999999963E+04  0.15000000000E+04  0.10566000000E+00 0. -1.
        994   -1    0    0    0    0 -0.00000000000E+00 -0.00000000000E+00  0.11368683772E-12  0.17120000000E+03  0.17120000000E+03 0.  0.
         13    1    1    2    0    0  0.35423284685E+01 -0.25619115246E+02  0.42016297548E+02  0.49338297302E+02  0.10566000000E+00 0. -1.
        994    1    1    2    0    0  0.22994521439E+02 -0.15118155203E+02  0.10700405587E+02  0.17372750304E+03  0.17120000000E+03 0.  0.
        998    1    1    2    0    0 -0.26536849908E+02  0.40737270449E+02  0.14472832931E+04  0.14481341997E+04  0.10000000000E+02 0. -1.
</event>
<event>
 5    1  0.1658612E-008  0.3789610E+03  0.7957747E-01  0.3455695E+00
         13   -1    0    0    0    0  0.00000000000E+00  0.00000000000E+00  0.14999999963E+04  0.15000000000E+04  0.10566000000E+00 0. -1.
        994   -1    0    0    0    0 -0.00000000000E+00 -0.00000000000E+00  0.11368683772E-12  0.17120000000E+03  0.17120000000E+03 0.  0.
         13    1    1    2    0    0 -0.24429034791E+02 -0.15363721337E+02  0.86389522373E+02  0.91082283755E+02  0.10566000000E+00 0. -1.
        994    1    1    2    0    0  0.19139150101E+02  0.93326468827E+01  0.61809502405E+01  0.17262980481E+03  0.17120000000E+03 0.  0.
        998    1    1    2    0    0  0.52898846903E+01  0.60310744544E+01  0.14074295237E+04  0.14074879114E+04  0.10000000000E+02 0. -1.
</event>
<event>
 5    1  0.1658612E-008  0.3852701E+03  0.7957747E-01  0.3428527E+00
         13   -1    0    0    0    0  0.00000000000E+00  0.00000000000E+00  0.14999999963E+04  0.15000000000E+04  0.10566000000E+00 0. -1.
        994   -1    0    0    0    0 -0.00000000000E+00 -0.00000000000E+00  0.11368683772E-12  0.17120000000E+03  0.17120000000E+03 0.  0.
         13    1    1    2    0    0 -0.10511526849E+00  0.16014236844E+02  0.87600104053E+02  0.89051986081E+02  0.10566000000E+00 0. -1.
        994    1    1    2    0    0 -0.63813528118E+01 -0.80185683962E+01  0.18412223248E+01  0.17151632343E+03  0.17120000000E+03 0.  0.
        998    1    1    2    0    0  0.64864680803E+01 -0.79956684473E+01  0.14105586699E+04  0.14106316905E+04  0.10000000000E+02 0. -1.
</event>
<event>
 5    1  0.1658612E-008  0.3767550E+03  0.7957747E-01  0.3465411E+00
         13   -1    0    0    0    0  0.00000000000E+00  0.00000000000E+00  0.14999999963E+04  0.15000000000E+04  0.10566000000E+00 0.  1.
        994   -1    0    0    0    0 -0.00000000000E+00 -0.00000000000E+00  0.11368683772E-12  0.17120000000E+03  0.17120000000E+03 0.  0.
         13    1    1    2    0    0 -0.13741742077E+02  0.58268145173E+00  0.14160959057E+02  0.19741299816E+02  0.10566000000E+00 0.  1.
        994    1    1    2    0    0 -0.61962146673E+00 -0.25719591512E+01  0.58039098504E+01  0.17131877969E+03  0.17120000000E+03 0.  0.
        998    1    1    2    0    0  0.14361363544E+02  0.19892776995E+01  0.14800351274E+04  0.14801399205E+04  0.10000000000E+02 0.  1.
</event>
<event>
 5    1  0.1658612E-008  0.3850399E+03  0.7957747E-01  0.3429503E+00
         13   -1    0    0    0    0  0.00000000000E+00  0.00000000000E+00  0.14999999963E+04  0.15000000000E+04  0.10566000000E+00 0.  1.
        994   -1    0    0    0    0 -0.00000000000E+00 -0.00000000000E+00  0.11368683772E-12  0.17120000000E+03  0.17120000000E+03 0.  0.
         13    1    1    2    0    0  0.21194702601E+01  0.10178547670E+02  0.34789344058E+02  0.36309841791E+02  0.10566000000E+00 0.  1.
        994    1    1    2    0    0 -0.23115736164E+01  0.20832749654E+01  0.16421854134E+01  0.17123615325E+03  0.17120000000E+03 0.  0.
        998    1    1    2    0    0  0.19210335629E+00 -0.12261822636E+02  0.14635684668E+04  0.14636540050E+04  0.10000000000E+02 0.  1.
</event>
<event>
 5    1  0.1658612E-008  0.3843395E+03  0.7957747E-01  0.3432478E+00
         13   -1    0    0    0    0  0.00000000000E+00  0.00000000000E+00  0.14999999963E+04  0.15000000000E+04  0.10566000000E+00 0. -1.
        994   -1    0    0    0    0 -0.00000000000E+00 -0.00000000000E+00  0.11368683772E-12  0.17120000000E+03  0.17120000000E+03 0.  0.
         13    1    1    2    0    0 -0.98108779685E+01  0.21743642898E+01  0.26490628242E+02  0.28332767872E+02  0.10566000000E+00 0. -1.
        994    1    1    2    0    0 -0.45424282549E+01  0.43393837153E+01  0.20884835676E+01  0.17132794772E+03  0.17120000000E+03 0.  0.
        998    1    1    2    0    0  0.14353306223E+02 -0.65137480051E+01  0.14714208845E+04  0.14715392844E+04  0.10000000000E+02 0. -1.
</event>
<event>
 5    1  0.1658612E-008  0.3786575E+03  0.7957747E-01  0.3457025E+00
         13   -1    0    0    0    0  0.00000000000E+00  0.00000000000E+00  0.14999999963E+04  0.15000000000E+04  0.10566000000E+00 0. -1.
        994   -1    0    0    0    0 -0.00000000000E+00 -0.00000000000E+00  0.11368683772E-12  0.17120000000E+03  0.17120000000E+03 0.  0.
         13    1    1    2    0    0  0.42446549983E+02  0.64262389981E+01  0.16817536588E+03  0.17356834679E+03  0.10566000000E+00 0. -1.
        994    1    1    2    0    0 -0.45689705383E+02  0.31486797614E+01  0.11887760691E+02  0.17761819225E+03  0.17120000000E+03 0.  0.
        998    1    1    2    0    0  0.32431554006E+01 -0.95749187595E+01  0.13199368697E+04  0.13200134610E+04  0.10000000000E+02 0. -1.
</event>
<event>
 5    1  0.1658612E-008  0.3836449E+03  0.7957747E-01  0.3435440E+00
         13   -1    0    0    0    0  0.00000000000E+00  0.00000000000E+00  0.14999999963E+04  0.15000000000E+04  0.10566000000E+00 0.  1.
        994   -1    0    0    0    0 -0.00000000000E+00 -0.00000000000E+00  0.11368683772E-12  0.17120000000E+03  0.17120000000E+03 0.  0.
         13    1    1    2    0    0  0.42403431517E+01 -0.23960715090E+02  0.10937241025E+03  0.11204656025E+03  0.10566000000E+00 0.  1.
        994    1    1    2    0    0 -0.15205797500E+02  0.35922938170E+02  0.73470215846E+01  0.17574155027E+03  0.17120000000E+03 0.  0.
        998    1    1    2    0    0  0.10965454348E+02 -0.11962223080E+02  0.13832805644E+04  0.13834118895E+04  0.10000000000E+02 0.  1.
</event>
<event>
 5    1  0.1658612E-008  0.3836560E+03  0.7957747E-01  0.3435392E+00
         13   -1    0    0    0    0  0.00000000000E+00  0.00000000000E+00  0.14999999963E+04  0.15000000000E+04  0.10566000000E+00 0.  1.
        994   -1    0    0    0    0 -0.00000000000E+00 -0.00000000000E+00  0.11368683772E-12  0.17120000000E+03  0.17120000000E+03 0.  0.
         13    1    1    2    0    0  0.83506370621E+01  0.77709538749E+01  0.28348139264E+02  0.30557307264E+02  0.10566000000E+00 0.  1.
        994    1    1    2    0    0 -0.16112686274E+01  0.97242684433E+00  0.23105952434E+01  0.17122593452E+03  0.17120000000E+03 0.  0.
        998    1    1    2    0    0 -0.67393684347E+01 -0.87433807192E+01  0.14693412618E+04  0.14694167582E+04  0.10000000000E+02 0.  1.
</event>
<event>
 5    1  0.1658612E-008  0.3831454E+03  0.7957747E-01  0.3437576E+00
         13   -1    0    0    0    0  0.00000000000E+00  0.00000000000E+00  0.14999999963E+04  0.15000000000E+04  0.10566000000E+00 0.  1.
        994   -1    0    0    0    0 -0.00000000000E+00 -0.00000000000E+00  0.11368683772E-12  0.17120000000E+03  0.17120000000E+03 0.  0.
         13    1    1    2    0    0 -0.38139325379E+01 -0.11419382330E+02  0.27294238581E+02  0.29831778323E+02  0.10566000000E+00 0.  1.
        994    1    1    2    0    0  0.26764475004E+01  0.10217499508E+02  0.29228982207E+01  0.17155041242E+03  0.17120000000E+03 0.  0.
        998    1    1    2    0    0  0.11374850374E+01  0.12018828220E+01  0.14697828595E+04  0.14698178093E+04  0.10000000000E+02 0.  1.
</event>
<event>
 5    1  0.1658612E-008  0.3793798E+03  0.7957747E-01  0.3453863E+00
         13   -1    0    0    0    0  0.00000000000E+00  0.00000000000E+00  0.14999999963E+04  0.15000000000E+04  0.10566000000E+00 0.  1.
        994   -1    0    0    0    0 -0.00000000000E+00 -0.00000000000E+00  0.11368683772E-12  0.17120000000E+03  0.17120000000E+03 0.  0.
         13    1    1    2    0    0  0.69499710492E+01  0.11407175746E+02  0.18776099498E+02  0.23042977943E+02  0.10566000000E+00 0.  1.
        994    1    1    2    0    0  0.24662051057E+02 -0.11032761064E+02  0.68955314002E+01  0.17345583568E+03  0.17120000000E+03 0.  0.
        998    1    1    2    0    0 -0.31612022107E+02 -0.37441468207E+00  0.14743283654E+04  0.14747011864E+04  0.10000000000E+02 0.  1.
</event>
<event>
 5    1  0.1658612E-008  0.3743302E+03  0.7957747E-01  0.3476224E+00
         13   -1    0    0    0    0  0.00000000000E+00  0.00000000000E+00  0.14999999963E+04  0.15000000000E+04  0.10566000000E+00 0.  1.
        994   -1    0    0    0    0 -0.00000000000E+00 -0.00000000000E+00  0.11368683772E-12  0.17120000000E+03  0.17120000000E+03 0.  0.
         13    1    1    2    0    0  0.55293859239E+02 -0.83039122139E+01  0.25322981118E+03  0.25932935480E+03  0.10566000000E+00 0.  1.
        994    1    1    2    0    0 -0.11045987460E+02  0.55751621740E+01  0.75448554575E+01  0.17181228453E+03  0.17120000000E+03 0.  0.
        998    1    1    2    0    0 -0.44247871779E+02  0.27287500399E+01  0.12392253296E+04  0.12400583607E+04  0.10000000000E+02 0.  1.
</event>
<event>
 5    1  0.1658612E-008  0.3836761E+03  0.7957747E-01  0.3435307E+00
         13   -1    0    0    0    0  0.00000000000E+00  0.00000000000E+00  0.14999999963E+04  0.15000000000E+04  0.10566000000E+00 0. -1.
        994   -1    0    0    0    0 -0.00000000000E+00 -0.00000000000E+00  0.11368683772E-12  0.17120000000E+03  0.17120000000E+03 0.  0.
         13    1    1    2    0    0  0.20102964597E+02  0.49202474032E+01  0.89855865407E+02  0.92208599014E+02  0.10566000000E+00 0. -1.
        994    1    1    2    0    0 -0.18312351919E+02 -0.31647220386E+01  0.34303556839E+01  0.17223984742E+03  0.17120000000E+03 0.  0.
        998    1    1    2    0    0 -0.17906126782E+01 -0.17555253646E+01  0.14067137752E+04  0.14067515536E+04  0.10000000000E+02 0. -1.
</event>
<event>
 5    1  0.1658612E-008  0.3856124E+03  0.7957747E-01  0.3427079E+00
         13   -1    0    0    0    0  0.00000000000E+00  0.00000000000E+00  0.14999999963E+04  0.15000000000E+04  0.10566000000E+00 0.  1.
        994   -1    0    0    0    0 -0.00000000000E+00 -0.00000000000E+00  0.11368683772E-12  0.17120000000E+03  0.17120000000E+03 0.  0.
         13    1    1    2    0    0  0.41915267102E+01  0.10814954493E+02  0.49528971856E+02  0.50869070701E+02  0.10566000000E+00 0.  1.
        994    1    1    2    0    0 -0.93163895418E+01 -0.99728916159E+01  0.19379601155E+01  0.17175403742E+03  0.17120000000E+03 0.  0.
        998    1    1    2    0    0  0.51248628316E+01 -0.84206287764E+00  0.14485330643E+04  0.14485768919E+04  0.10000000000E+02 0.  1.
</event>
<event>
 5    1  0.1658612E-008  0.3836729E+03  0.7957747E-01  0.3435320E+00
         13   -1    0    0    0    0  0.00000000000E+00  0.00000000000E+00  0.14999999963E+04  0.15000000000E+04  0.10566000000E+00 0.  1.
        994   -1    0    0    0    0 -0.00000000000E+00 -0.00000000000E+00  0.11368683772E-12  0.17120000000E+03  0.17120000000E+03 0.  0.
         13    1    1    2    0    0  0.19855334970E+02  0.17251844982E+02  0.13885571306E+03  0.14132508869E+03  0.10566000000E+00 0.  1.
        994    1    1    2    0    0 -0.25254837017E+02 -0.10924038061E+02  0.47952123525E+01  0.17346347011E+03  0.17120000000E+03 0.  0.
        998    1    1    2    0    0  0.53995020468E+01 -0.63278069214E+01  0.13563490709E+04  0.13564114412E+04  0.10000000000E+02 0.  1.
</event>
<event>
 5    1  0.1658612E-008  0.3771653E+03  0.7957747E-01  0.3463595E+00
         13   -1    0    0    0    0  0.00000000000E+00  0.00000000000E+00  0.14999999963E+04  0.15000000000E+04  0.10566000000E+00 0. -1.
        994   -1    0    0    0    0 -0.00000000000E+00 -0.00000000000E+00  0.11368683772E-12  0.17120000000E+03  0.17120000000E+03 0.  0.
         13    1    1    2    0    0  0.19428276842E+02  0.10111707351E+02  0.40009019342E+02  0.45611811621E+02  0.10566000000E+00 0. -1.
        994    1    1    2    0    0 -0.24044388470E+02  0.10376754691E+00  0.75243944079E+01  0.17304392476E+03  0.17120000000E+03 0.  0.
        998    1    1    2    0    0  0.46161116284E+01 -0.10215474898E+02  0.14524665825E+04  0.14525442636E+04  0.10000000000E+02 0. -1.
</event>
<event>
 5    1  0.1658612E-008  0.3845332E+03  0.7957747E-01  0.3431654E+00
         13   -1    0    0    0    0  0.00000000000E+00  0.00000000000E+00  0.14999999963E+04  0.15000000000E+04  0.10566000000E+00 0.  1.
        994   -1    0    0    0    0 -0.00000000000E+00 -0.00000000000E+00  0.11368683772E-12  0.17120000000E+03  0.17120000000E+03 0.  0.
         13    1    1    2    0    0  0.12636101732E+02  0.37757458254E+01  0.49501970684E+02  0.51228737922E+02  0.10566000000E+00 0.  1.
        994    1    1    2    0    0  0.31467234891E+01  0.11871988603E+01  0.18993197983E+01  0.17124356550E+03  0.17120000000E+03 0.  0.
        998    1    1    2    0    0 -0.15782825221E+02 -0.49629446857E+01  0.14485987058E+04  0.14487276966E+04  0.10000000000E+02 0.  1.
</event>
<event>
 5    1  0.1658612E-008  0.3707169E+03  0.7957747E-01  0.3492603E+00
         13   -1    0    0    0    0  0.00000000000E+00  0.00000000000E+00  0.14999999963E+04  0.15000000000E+04  0.10566000000E+00 0.  1.
        994   -1    0    0    0    0 -0.00000000000E+00 -0.00000000000E+00  0.11368683772E-12  0.17120000000E+03  0.17120000000E+03 0.  0.
         13    1    1    2    0    0  0.10295712050E+02  0.31577299618E+01  0.24390391660E+01  0.11042328614E+02  0.10566000000E+00 0.  1.
        994    1    1    2    0    0 -0.12566323507E+01 -0.14664128138E+01  0.89077356568E+01  0.17144246045E+03  0.17120000000E+03 0.  0.
        998    1    1    2    0    0 -0.90390796990E+01 -0.16913171480E+01  0.14886532215E+04  0.14887152109E+04  0.10000000000E+02 0.  1.
</event>
<event>
 5    1  0.1658612E-008  0.3843397E+03  0.7957747E-01  0.3432478E+00
         13   -1    0    0    0    0  0.00000000000E+00  0.00000000000E+00  0.14999999963E+04  0.15000000000E+04  0.10566000000E+00 0.  1.
        994   -1    0    0    0    0 -0.00000000000E+00 -0.00000000000E+00  0.11368683772E-12  0.17120000000E+03  0.17120000000E+03 0.  0.
         13    1    1    2    0    0 -0.13895594865E+02 -0.89085807256E+01  0.67360200119E+02  0.69353140458E+02  0.10566000000E+00 0.  1.
        994    1    1    2    0    0  0.13012583674E+02  0.84152017110E+01  0.27501813158E+01  0.17192191963E+03  0.17120000000E+03 0.  0.
        998    1    1    2    0    0  0.88301119158E+00  0.49337901458E+00  0.14298896148E+04  0.14299249399E+04  0.10000000000E+02 0.  0.
</event>
<event>
 5    1  0.1658612E-008  0.3815950E+03  0.7957747E-01  0.3444243E+00
         13   -1    0    0    0    0  0.00000000000E+00  0.00000000000E+00  0.14999999963E+04  0.15000000000E+04  0.10566000000E+00 0.  1.
        994   -1    0    0    0    0 -0.00000000000E+00 -0.00000000000E+00  0.11368683772E-12  0.17120000000E+03  0.17120000000E+03 0.  0.
         13    1    1    2    0    0  0.36831037398E+01  0.14390988182E+02  0.31438052765E+02  0.34771081658E+02  0.10566000000E+00 0.  1.
        994    1    1    2    0    0 -0.46313373558E+01 -0.13553849732E+02  0.40126931727E+01  0.17184498199E+03  0.17120000000E+03 0.  0.
        998    1    1    2    0    0  0.94823361601E+00 -0.83713844971E+00  0.14645492503E+04  0.14645839364E+04  0.10000000000E+02 0.  1.
</event>
<event>
 5    1  0.1658612E-008  0.3861725E+03  0.7957747E-01  0.3424715E+00
         13   -1    0    0    0    0  0.00000000000E+00  0.00000000000E+00  0.14999999963E+04  0.15000000000E+04  0.10566000000E+00 0. -1.
        994   -1    0    0    0    0 -0.00000000000E+00 -0.00000000000E+00  0.11368683772E-12  0.17120000000E+03  0.17120000000E+03 0.  0.
         13    1    1    2    0    0  0.94154332406E+01  0.53928989286E+01  0.61366001716E+02  0.62317983541E+02  0.10566000000E+00 0. -1.
        994    1    1    2    0    0  0.16693292620E+01  0.19226036927E+01  0.10703846701E+01  0.17122227889E+03  0.17120000000E+03 0.  0.
        998    1    1    2    0    0 -0.11084762503E+02 -0.73155026212E+01  0.14375636099E+04  0.14376597376E+04  0.10000000000E+02 0. -1.
</event>
<event>
 5    1  0.1658612E-008  0.3707389E+03  0.7957747E-01  0.3492502E+00
         13   -1    0    0    0    0  0.00000000000E+00  0.00000000000E+00  0.14999999963E+04  0.15000000000E+04  0.10566000000E+00 0. -1.
        994   -1    0    0    0    0 -0.00000000000E+00 -0.00000000000E+00  0.11368683772E-12  0.17120000000E+03  0.17120000000E+03 0.  0.
         13    1    1    2    0    0 -0.14117985800E+02  0.11914820091E+02  0.15096403729E+02  0.23857766669E+02  0.10566000000E+00 0. -1.
        994    1    1    2    0    0  0.16740996721E+02 -0.11351159616E+02  0.10295559437E+02  0.17269785274E+03  0.17120000000E+03 0.  0.
        998    1    1    2    0    0 -0.26230109207E+01 -0.56366047407E+00  0.14746080331E+04  0.14746443806E+04  0.10000000000E+02 0. -1.
</event>
<event>
 5    1  0.1658612E-008  0.3817569E+03  0.7957747E-01  0.3443544E+00
         13   -1    0    0    0    0  0.00000000000E+00  0.00000000000E+00  0.14999999963E+04  0.15000000000E+04  0.10566000000E+00 0.  1.
        994   -1    0    0    0    0 -0.00000000000E+00 -0.00000000000E+00  0.11368683772E-12  0.17120000000E+03  0.17120000000E+03 0.  0.
         13    1    1    2    0    0 -0.32052503265E+02  0.13606495941E+02  0.19903264541E+03  0.20205569728E+03  0.10566000000E+00 0.  1.
        994    1    1    2    0    0  0.51759033870E+01 -0.19134860550E+02  0.45559299058E+01  0.17240397142E+03  0.17120000000E+03 0.  0.
        998    1    1    2    0    0  0.26876599878E+02  0.55283646086E+01  0.12964114210E+04  0.12967403313E+04  0.10000000000E+02 0.  1.
</event>
<event>
 5    1  0.1658612E-008  0.3779449E+03  0.7957747E-01  0.3460156E+00
         13   -1    0    0    0    0  0.00000000000E+00  0.00000000000E+00  0.14999999963E+04  0.15000000000E+04  0.10566000000E+00 0.  1.
        994   -1    0    0    0    0 -0.00000000000E+00 -0.00000000000E+00  0.11368683772E-12  0.17120000000E+03  0.17120000000E+03 0.  0.
         13    1    1    2    0    0  0.27810063542E+02  0.33303660319E+02  0.21008291863E+03  0.21451661308E+03  0.10566000000E+00 0.  1.
        994    1    1    2    0    0 -0.25579538825E+01 -0.20925223110E+01  0.52109073115E+01  0.17131116523E+03  0.17120000000E+03 0.  0.
        998    1    1    2    0    0 -0.25252109660E+02 -0.31211138008E+02  0.12847061703E+04  0.12853722217E+04  0.10000000000E+02 0.  1.
</event>
<event>
 5    1  0.1658612E-008  0.3846342E+03  0.7957747E-01  0.3431225E+00
         13   -1    0    0    0    0  0.00000000000E+00  0.00000000000E+00  0.14999999963E+04  0.15000000000E+04  0.10566000000E+00 0. -1.
        994   -1    0    0    0    0 -0.00000000000E+00 -0.00000000000E+00  0.11368683772E-12  0.17120000000E+03  0.17120000000E+03 0.  0.
         13    1    1    2    0    0  0.43098827298E+01 -0.11462533829E+02  0.45623843288E+02  0.47238871825E+02  0.10566000000E+00 0. -1.
        994    1    1    2    0    0 -0.42728053476E+00 -0.12836616716E+02  0.23552074852E+01  0.17169725769E+03  0.17120000000E+03 0.  0.
        998    1    1    2    0    0 -0.38826021950E+01  0.24299150544E+02  0.14520209455E+04  0.14522638705E+04  0.10000000000E+02 0. -1.
</event>
<event>
 5    1  0.1658612E-008  0.3833672E+03  0.7957747E-01  0.3436627E+00
         13   -1    0    0    0    0  0.00000000000E+00  0.00000000000E+00  0.14999999963E+04  0.15000000000E+04  0.10566000000E+00 0.  1.
        994   -1    0    0    0    0 -0.00000000000E+00 -0.00000000000E+00  0.11368683772E-12  0.17120000000E+03  0.17120000000E+03 0.  0.
         13    1    1    2    0    0  0.13303401435E+02  0.14444451459E+01  0.34970563352E+02  0.37443535846E+02  0.10566000000E+00 0.  1.
        994    1    1    2    0    0 -0.14938414495E+02 -0.79206846403E+01  0.33887540837E+01  0.17206631607E+03  0.17120000000E+03 0.  0.
        998    1    1    2    0    0  0.16350130600E+01  0.64762394944E+01  0.14616406788E+04  0.14616901481E+04  0.10000000000E+02 0.  1.
</event>
<event>
 5    1  0.1658612E-008  0.3716137E+03  0.7957747E-01  0.3488508E+00
         13   -1    0    0    0    0  0.00000000000E+00  0.00000000000E+00  0.14999999963E+04  0.15000000000E+04  0.10566000000E+00 0. -1.
        994   -1    0    0    0    0 -0.00000000000E+00 -0.00000000000E+00  0.11368683772E-12  0.17120000000E+03  0.17120000000E+03 0.  0.
         13    1    1    2    0    0  0.35583527805E+02  0.81528356314E+01  0.72344569039E+02  0.81033351241E+02  0.10566000000E+00 0. -1.
        994    1    1    2    0    0 -0.40931996984E+02  0.96165463283E+01  0.14531588982E+02  0.17688559415E+03  0.17120000000E+03 0.  0.
        998    1    1    2    0    0  0.53484691794E+01 -0.17769381960E+02  0.14131238383E+04  0.14132810546E+04  0.10000000000E+02 0. -1.
</event>
<event>
 5    1  0.1658612E-008  0.3830441E+03  0.7957747E-01  0.3438010E+00
         13   -1    0    0    0    0  0.00000000000E+00  0.00000000000E+00  0.14999999963E+04  0.15000000000E+04  0.10566000000E+00 0.  1.
        994   -1    0    0    0    0 -0.00000000000E+00 -0.00000000000E+00  0.11368683772E-12  0.17120000000E+03  0.17120000000E+03 0.  0.
         13    1    1    2    0    0 -0.20482108271E+02 -0.16109892538E+02  0.12302901804E+03  0.12575848218E+03  0.10566000000E+00 0.  1.
        994    1    1    2    0    0  0.16359607505E+02  0.16900374140E+02  0.44375475707E+01  0.17286524009E+03  0.17120000000E+03 0.  0.
        998    1    1    2    0    0  0.41225007664E+01 -0.79048160171E+00  0.13725334307E+04  0.13725762777E+04  0.10000000000E+02 0.  1.
</event>
<event>
 5    1  0.1658612E-008  0.3835936E+03  0.7957747E-01  0.3435659E+00
         13   -1    0    0    0    0  0.00000000000E+00  0.00000000000E+00  0.14999999963E+04  0.15000000000E+04  0.10566000000E+00 0. -1.
        994   -1    0    0    0    0 -0.00000000000E+00 -0.00000000000E+00  0.11368683772E-12  0.17120000000E+03  0.17120000000E+03 0.  0.
         13    1    1    2    0    0 -0.11876264763E+02  0.51435108386E+01  0.36198880929E+02  0.38443094477E+02  0.10566000000E+00 0. -1.
        994    1    1    2    0    0  0.75007297941E+00 -0.44214255422E+01  0.23964468842E+01  0.17127549320E+03  0.17120000000E+03 0.  0.
        998    1    1    2    0    0  0.11126191783E+02 -0.72208529641E+00  0.14614046685E+04  0.14614814123E+04  0.10000000000E+02 0. -1.
</event>
<event>
 5    1  0.1658612E-008  0.3732346E+03  0.7957747E-01  0.3481156E+00
         13   -1    0    0    0    0  0.00000000000E+00  0.00000000000E+00  0.14999999963E+04  0.15000000000E+04  0.10566000000E+00 0. -1.
        994   -1    0    0    0    0 -0.00000000000E+00 -0.00000000000E+00  0.11368683772E-12  0.17120000000E+03  0.17120000000E+03 0.  0.
         13    1    1    2    0    0 -0.49087796590E+02  0.11365333303E+02  0.94472754848E+02  0.10706958087E+03  0.10566000000E+00 0. -1.
        994    1    1    2    0    0  0.37209522470E+02 -0.42582568303E+01  0.17635742821E+02  0.17613387164E+03  0.17120000000E+03 0.  0.
        998    1    1    2    0    0  0.11878274120E+02 -0.71070764724E+01  0.13878914986E+04  0.13879965475E+04  0.10000000000E+02 0. -1.
</event>
<event>
 5    1  0.1658612E-008  0.3848457E+03  0.7957747E-01  0.3430327E+00
         13   -1    0    0    0    0  0.00000000000E+00  0.00000000000E+00  0.14999999963E+04  0.15000000000E+04  0.10566000000E+00 0.  1.
        994   -1    0    0    0    0 -0.00000000000E+00 -0.00000000000E+00  0.11368683772E-12  0.17120000000E+03  0.17120000000E+03 0.  0.
         13    1    1    2    0    0  0.11204869489E+02  0.26449971719E+01  0.41655300583E+02  0.43217130181E+02  0.10566000000E+00 0.  1.
        994    1    1    2    0    0  0.52372622720E+01  0.86253009844E+01  0.20418605274E+01  0.17150928234E+03  0.17120000000E+03 0.  0.
        998    1    1    2    0    0 -0.16442131761E+02 -0.11270298156E+02  0.14563028352E+04  0.14564735875E+04  0.10000000000E+02 0.  1.
</event>
<event>
 5    1  0.1658612E-008  0.3727199E+03  0.7957747E-01  0.3483484E+00
         13   -1    0    0    0    0  0.00000000000E+00  0.00000000000E+00  0.14999999963E+04  0.15000000000E+04  0.10566000000E+00 0. -1.
        994   -1    0    0    0    0 -0.00000000000E+00 -0.00000000000E+00  0.11368683772E-12  0.17120000000E+03  0.17120000000E+03 0.  0.
         13    1    1    2    0    0  0.72391827264E+01  0.10987023548E+03  0.49016973850E+03  0.50238457193E+03  0.10566000000E+00 0. -1.
        994    1    1    2    0    0 -0.10055908271E+02 -0.11232257067E+03  0.52759142570E+02  0.21168478523E+03  0.17120000000E+03 0.  0.
        998    1    1    2    0    0  0.28167255451E+01  0.24523351849E+01  0.95707111521E+03  0.95713064284E+03  0.10000000000E+02 0.  0.
</event>
<event>
 5    1  0.1658612E-008  0.3828274E+03  0.7957747E-01  0.3438939E+00
         13   -1    0    0    0    0  0.00000000000E+00  0.00000000000E+00  0.14999999963E+04  0.15000000000E+04  0.10566000000E+00 0.  1.
        994   -1    0    0    0    0 -0.00000000000E+00 -0.00000000000E+00  0.11368683772E-12  0.17120000000E+03  0.17120000000E+03 0.  0.
         13    1    1    2    0    0 -0.13441203776E+02 -0.41666149555E+01  0.36893241742E+02  0.39486061964E+02  0.10566000000E+00 0.  1.
        994    1    1    2    0    0  0.16025503166E+01 -0.38533399834E+01  0.27703248625E+01  0.17127326439E+03  0.17120000000E+03 0.  0.
        998    1    1    2    0    0  0.11838653460E+02  0.80199549389E+01  0.14603364297E+04  0.14604406736E+04  0.10000000000E+02 0.  1.
</event>
<event>
 5    1  0.1658612E-008  0.3804950E+03  0.7957747E-01  0.3449006E+00
         13   -1    0    0    0    0  0.00000000000E+00  0.00000000000E+00  0.14999999963E+04  0.15000000000E+04  0.10566000000E+00 0. -1.
        994   -1    0    0    0    0 -0.00000000000E+00 -0.00000000000E+00  0.11368683772E-12  0.17120000000E+03  0.17120000000E+03 0.  0.
         13    1    1    2    0    0  0.79348443915E+01  0.65905527751E+01  0.12116668159E+02  0.15912949215E+02  0.10566000000E+00 0. -1.
        994    1    1    2    0    0 -0.20758622943E+01 -0.34233308951E+01  0.39369718781E+01  0.17129205512E+03  0.17120000000E+03 0.  0.
        998    1    1    2    0    0 -0.58589820971E+01 -0.31672218799E+01  0.14839463562E+04  0.14839949957E+04  0.10000000000E+02 0. -1.
</event>
<event>
 5    1  0.1658612E-008  0.3263130E+03  0.7957747E-01  0.3724407E+00
         13   -1    0    0    0    0  0.00000000000E+00  0.00000000000E+00  0.14999999963E+04  0.15000000000E+04  0.10566000000E+00 0. -1.
        994   -1    0    0    0    0 -0.00000000000E+00 -0.00000000000E+00  0.11368683772E-12  0.17120000000E+03  0.17120000000E+03 0.  0.
         13    1    1    2    0    0  0.19562418216E+03  0.55446453662E+02  0.83348713577E+03  0.85793003592E+03  0.10566000000E+00 0. -1.
        994    1    1    2    0    0 -0.17752093332E+03 -0.73016207800E+02  0.15347462640E+03  0.29951452271E+03  0.17120000000E+03 0.  0.
        998    1    1    2    0    0 -0.18103248837E+02  0.17569754138E+02  0.51303823411E+03  0.51375544137E+03  0.10000000000E+02 0.  1.
</event>
<event>
 5    1  0.1658612E-008  0.3850941E+03  0.7957747E-01  0.3429273E+00
         13   -1    0    0    0    0  0.00000000000E+00  0.00000000000E+00  0.14999999963E+04  0.15000000000E+04  0.10566000000E+00 0.  1.
        994   -1    0    0    0    0 -0.00000000000E+00 -0.00000000000E+00  0.11368683772E-12  0.17120000000E+03  0.17120000000E+03 0.  0.
         13    1    1    2    0    0  0.28807795108E+02  0.55631573668E+02  0.12186571591E+03  0.13702563602E+03  0.10566000000E+00 0.  1.
        994    1    1    2    0    0  0.48945556817E+02  0.10231248608E+02  0.28445068800E+02  0.18060705390E+03  0.17120000000E+03 0.  0.
        998    1    1    2    0    0 -0.77753351924E+02 -0.65862822276E+02  0.13496892116E+04  0.13535673101E+04  0.10000000000E+02 0.  1.
</event>
<event>
 5    1  0.1658612E-008  0.3918460E+03  0.7957747E-01  0.3401147E+00
         13   -1    0    0    0    0  0.00000000000E+00  0.00000000000E+00  0.14999999963E+04  0.15000000000E+04  0.10566000000E+00 0.  1.
        994   -1    0    0    0    0 -0.00000000000E+00 -0.00000000000E+00  0.11368683772E-12  0.17120000000E+03  0.17120000000E+03 0.  0.
         13    1    1    2    0    0 -0.93597774921E+02 -0.29611098975E+02  0.18027042906E+03  0.20526762874E+03  0.10566000000E+00 0.  1.
        994    1    1    2    0    0  0.89432412190E+02  0.31883660054E+02  0.58031490484E+02  0.20418574391E+03  0.17120000000E+03 0.  0.
        998    1    1    2    0    0  0.41653627312E+01 -0.22725610790E+01  0.12616980767E+04  0.12617466273E+04  0.10000000000E+02 0.  0.
</event>
<event>
 5    1  0.1658612E-008  0.3855600E+03  0.7957747E-01  0.3427301E+00
         13   -1    0    0    0    0  0.00000000000E+00  0.00000000000E+00  0.14999999963E+04  0.15000000000E+04  0.10566000000E+00 0.  1.
        994   -1    0    0    0    0 -0.00000000000E+00 -0.00000000000E+00  0.11368683772E-12  0.17120000000E+03  0.17120000000E+03 0.  0.
         13    1    1    2    0    0  0.13616483371E+01 -0.16987154846E+02  0.10093895179E+03  0.10236747857E+03  0.10566000000E+00 0.  1.
        994    1    1    2    0    0 -0.50828458415E+01  0.18431564397E+02  0.25532776096E+01  0.17228324676E+03  0.17120000000E+03 0.  0.
        998    1    1    2    0    0  0.37211975044E+01 -0.14444095514E+01  0.13965077669E+04  0.13965492747E+04  0.10000000000E+02 0.  1.
</event>
<event>
 5    1  0.1658612E-008  0.2525839E+03  0.7957747E-01  0.4306052E+00
         13   -1    0    0    0    0  0.00000000000E+00  0.00000000000E+00  0.14999999963E+04  0.15000000000E+04  0.10566000000E+00 0. -1.
        994   -1    0    0    0    0 -0.00000000000E+00 -0.00000000000E+00  0.11368683772E-12  0.17120000000E+03  0.17120000000E+03 0.  0.
         13    1    1    2    0    0 -0.13644646113E+01 -0.16408739525E+03  0.44215773731E+03  0.47162486244E+03  0.10566000000E+00 0. -1.
        994    1    1    2    0    0 -0.11779075060E+03  0.95218017031E+02  0.13292911303E+03  0.26442526503E+03  0.17120000000E+03 0.  0.
        998    1    1    2    0    0  0.11915521521E+03  0.68869378216E+02  0.92491314594E+03  0.93514987253E+03  0.10000000000E+02 0. -1.
</event>
<event>
 5    1  0.1658612E-008  0.3801743E+03  0.7957747E-01  0.3450400E+00
         13   -1    0    0    0    0  0.00000000000E+00  0.00000000000E+00  0.14999999963E+04  0.15000000000E+04  0.10566000000E+00 0.  1.
        994   -1    0    0    0    0 -0.00000000000E+00 -0.00000000000E+00  0.11368683772E-12  0.17120000000E+03  0.17120000000E+03 0.  0.
         13    1    1    2    0    0 -0.36787875102E+02 -0.17087852252E+02  0.18506079672E+03  0.18945408968E+03  0.10566000000E+00 0.  1.
        994    1    1    2    0    0  0.29945364821E+02  0.20891616729E+02  0.85122052855E+01  0.17525718862E+03  0.17120000000E+03 0.  0.
        998    1    1    2    0    0  0.68425102810E+01 -0.38037644770E+01  0.13064269943E+04  0.13064887217E+04  0.10000000000E+02 0.  1.
</event>
<event>
 5    1  0.1658612E-008  0.3694305E+03  0.7957747E-01  0.3498513E+00
         13   -1    0    0    0    0  0.00000000000E+00  0.00000000000E+00  0.14999999963E+04  0.15000000000E+04  0.10566000000E+00 0.  1.
        994   -1    0    0    0    0 -0.00000000000E+00 -0.00000000000E+00  0.11368683772E-12  0.17120000000E+03  0.17120000000E+03 0.  0.
         13    1    1    2    0    0  0.18307047938E+02 -0.75218072550E+02  0.30071361226E+03  0.31051826710E+03  0.10566000000E+00 0.  1.
        994    1    1    2    0    0 -0.60948696931E+01  0.49538264536E+02  0.18247737816E+02  0.17925849220E+03  0.17120000000E+03 0.  0.
        998    1    1    2    0    0 -0.12212178245E+02  0.25679808014E+02  0.11810386462E+04  0.11814232407E+04  0.10000000000E+02 0.  1.
</event>
<event>
 5    1  0.1658612E-008  0.3794367E+03  0.7957747E-01  0.3453615E+00
         13   -1    0    0    0    0  0.00000000000E+00  0.00000000000E+00  0.14999999963E+04  0.15000000000E+04  0.10566000000E+00 0. -1.
        994   -1    0    0    0    0 -0.00000000000E+00 -0.00000000000E+00  0.11368683772E-12  0.17120000000E+03  0.17120000000E+03 0.  0.
         13    1    1    2    0    0  0.48269433388E+02 -0.11349549098E+02  0.22208464467E+03  0.22755296312E+03  0.10566000000E+00 0. -1.
        994    1    1    2    0    0 -0.52734727840E+02  0.33334519229E+02  0.17565323526E+02  0.18305770206E+03  0.17120000000E+03 0.  0.
        998    1    1    2    0    0  0.44652944522E+01 -0.21984970130E+02  0.12603500281E+04  0.12605893348E+04  0.10000000000E+02 0. -1.
</event>
<event>
 5    1  0.1658612E-008  0.3701369E+03  0.7957747E-01  0.3495262E+00
         13   -1    0    0    0    0  0.00000000000E+00  0.00000000000E+00  0.14999999963E+04  0.15000000000E+04  0.10566000000E+00 0.  1.
        994   -1    0    0    0    0 -0.00000000000E+00 -0.00000000000E+00  0.11368683772E-12  0.17120000000E+03  0.17120000000E+03 0.  0.
         13    1    1    2    0    0 -0.47198033293E+02  0.42267695187E+02  0.29525157386E+03  0.30197303760E+03  0.10566000000E+00 0.  1.
        994    1    1    2    0    0  0.63309825837E+01  0.20593272004E+02  0.10803317679E+02  0.17288815999E+03  0.17120000000E+03 0.  0.
        998    1    1    2    0    0  0.40867050709E+02 -0.62860967191E+02  0.11939451047E+04  0.11963388024E+04  0.10000000000E+02 0.  1.
</event>
<event>
 5    1  0.1658612E-008  0.3800229E+03  0.7957747E-01  0.3451059E+00
         13   -1    0    0    0    0  0.00000000000E+00  0.00000000000E+00  0.14999999963E+04  0.15000000000E+04  0.10566000000E+00 0.  1.
        994   -1    0    0    0    0 -0.00000000000E+00 -0.00000000000E+00  0.11368683772E-12  0.17120000000E+03  0.17120000000E+03 0.  0.
         13    1    1    2    0    0 -0.27193699667E+02 -0.11888717527E+02  0.98192815970E+02  0.10258011103E+03  0.10566000000E+00 0.  1.
        994    1    1    2    0    0  0.27082132971E+02  0.18208427951E+02  0.76896537018E+01  0.17445216980E+03  0.17120000000E+03 0.  0.
        998    1    1    2    0    0  0.11156669637E+00 -0.63197104243E+01  0.13941175266E+04  0.13941677192E+04  0.10000000000E+02 0.  1.
</event>
<event>
 5    1  0.1658612E-008  0.3835786E+03  0.7957747E-01  0.3435723E+00
         13   -1    0    0    0    0  0.00000000000E+00  0.00000000000E+00  0.14999999963E+04  0.15000000000E+04  0.10566000000E+00 0. -1.
        994   -1    0    0    0    0 -0.00000000000E+00 -0.00000000000E+00  0.11368683772E-12  0.17120000000E+03  0.17120000000E+03 0.  0.
         13    1    1    2    0    0 -0.16396297556E+02  0.33833487194E+01  0.57498829687E+02  0.59886661299E+02  0.10566000000E+00 0. -1.
        994    1    1    2    0    0  0.17847557609E+02  0.90359180673E+00  0.33932909910E+01  0.17216360305E+03  0.17120000000E+03 0.  0.
        998    1    1    2    0    0 -0.14512600534E+01 -0.42869405261E+01  0.14391078756E+04  0.14391497357E+04  0.10000000000E+02 0. -1.
</event>
<event>
 5    1  0.1658612E-008  0.3833814E+03  0.7957747E-01  0.3436566E+00
         13   -1    0    0    0    0  0.00000000000E+00  0.00000000000E+00  0.14999999963E+04  0.15000000000E+04  0.10566000000E+00 0. -1.
        994   -1    0    0    0    0 -0.00000000000E+00 -0.00000000000E+00  0.11368683772E-12  0.17120000000E+03  0.17120000000E+03 0.  0.
         13    1    1    2    0    0  0.78949939740E+01 -0.14086028664E+02  0.55125537123E+02  0.57441998055E+02  0.10566000000E+00 0. -1.
        994    1    1    2    0    0  0.10360209369E+01  0.29400750835E+01  0.24679942856E+01  0.17124616310E+03  0.17120000000E+03 0.  0.
        998    1    1    2    0    0 -0.89310149108E+01  0.11145953580E+02  0.14424064649E+04  0.14425118388E+04  0.10000000000E+02 0. -1.
</event>
<event>
 5    1  0.1658612E-008  0.3840749E+03  0.7957747E-01  0.3433605E+00
         13   -1    0    0    0    0  0.00000000000E+00  0.00000000000E+00  0.14999999963E+04  0.15000000000E+04  0.10566000000E+00 0.  1.
        994   -1    0    0    0    0 -0.00000000000E+00 -0.00000000000E+00  0.11368683772E-12  0.17120000000E+03  0.17120000000E+03 0.  0.
         13    1    1    2    0    0 -0.11805541417E+02 -0.20334283090E+02  0.12357357647E+03  0.12579067471E+03  0.10566000000E+00 0.  1.
        994    1    1    2    0    0  0.14980597936E+02  0.17731236495E+02  0.38694653364E+01  0.17280980245E+03  0.17120000000E+03 0.  0.
        998    1    1    2    0    0 -0.31750565190E+01  0.26030465953E+01  0.13725569545E+04  0.13725995228E+04  0.10000000000E+02 0.  1.
</event>
<event>
 5    1  0.1658612E-008  0.3815379E+03  0.7957747E-01  0.3444490E+00
         13   -1    0    0    0    0  0.00000000000E+00  0.00000000000E+00  0.14999999963E+04  0.15000000000E+04  0.10566000000E+00 0.  1.
        994   -1    0    0    0    0 -0.00000000000E+00 -0.00000000000E+00  0.11368683772E-12  0.17120000000E+03  0.17120000000E+03 0.  0.
         13    1    1    2    0    0  0.80819443799E+01 -0.28961715057E+02  0.12050289500E+03  0.12419765550E+03  0.10566000000E+00 0.  1.
        994    1    1    2    0    0 -0.12877699782E+02  0.32537753418E+02  0.74424094844E+01  0.17489817040E+03  0.17120000000E+03 0.  0.
        998    1    1    2    0    0  0.47957554024E+01 -0.35760383601E+01  0.13720546918E+04  0.13721041741E+04  0.10000000000E+02 0.  1.
</event>
<event>
 5    1  0.1658612E-008  0.3709206E+03  0.7957747E-01  0.3491671E+00
         13   -1    0    0    0    0  0.00000000000E+00  0.00000000000E+00  0.14999999963E+04  0.15000000000E+04  0.10566000000E+00 0.  1.
        994   -1    0    0    0    0 -0.00000000000E+00 -0.00000000000E+00  0.11368683772E-12  0.17120000000E+03  0.17120000000E+03 0.  0.
         13    1    1    2    0    0 -0.40319462260E+02 -0.76370661690E+02  0.37293846228E+03  0.38280705952E+03  0.10566000000E+00 0.  1.
        994    1    1    2    0    0  0.94301218680E+01  0.28520559811E+02  0.14597755671E+02  0.17442730291E+03  0.17120000000E+03 0.  0.
        998    1    1    2    0    0  0.30889340392E+02  0.47850101880E+02  0.11124637783E+04  0.11139656376E+04  0.10000000000E+02 0.  1.
</event>
<event>
 5    1  0.1658612E-008  0.3704301E+03  0.7957747E-01  0.3493917E+00
         13   -1    0    0    0    0  0.00000000000E+00  0.00000000000E+00  0.14999999963E+04  0.15000000000E+04  0.10566000000E+00 0. -1.
        994   -1    0    0    0    0 -0.00000000000E+00 -0.00000000000E+00  0.11368683772E-12  0.17120000000E+03  0.17120000000E+03 0.  0.
         13    1    1    2    0    0 -0.33440233202E+02  0.72841309069E+02  0.36107871966E+03  0.36986748770E+03  0.10566000000E+00 0. -1.
        994    1    1    2    0    0  0.24550759373E+02 -0.35866186469E+02  0.15595038216E+02  0.17731826847E+03  0.17120000000E+03 0.  0.
        998    1    1    2    0    0  0.88894738285E+01 -0.36975122601E+02  0.11233262384E+04  0.11240142438E+04  0.10000000000E+02 0. -1.
</event>
<event>
 5    1  0.1658612E-008  0.3791454E+03  0.7957747E-01  0.3454888E+00
         13   -1    0    0    0    0  0.00000000000E+00  0.00000000000E+00  0.14999999963E+04  0.15000000000E+04  0.10566000000E+00 0. -1.
        994   -1    0    0    0    0 -0.00000000000E+00 -0.00000000000E+00  0.11368683772E-12  0.17120000000E+03  0.17120000000E+03 0.  0.
         13    1    1    2    0    0 -0.42326244812E+02  0.72707645857E+00  0.24866764242E+03  0.25224521242E+03  0.10566000000E+00 0. -1.
        994    1    1    2    0    0 -0.45236652489E+01  0.10927238482E+02  0.50341993444E+01  0.17168183145E+03  0.17120000000E+03 0.  0.
        998    1    1    2    0    0  0.46849910061E+02 -0.11654314940E+02  0.12462981545E+04  0.12472729561E+04  0.10000000000E+02 0. -1.
</event>
<event>
 5    1  0.1658612E-008  0.3713893E+03  0.7957747E-01  0.3489530E+00
         13   -1    0    0    0    0  0.00000000000E+00  0.00000000000E+00  0.14999999963E+04  0.15000000000E+04  0.10566000000E+00 0. -1.
        994   -1    0    0    0    0 -0.00000000000E+00 -0.00000000000E+00  0.11368683772E-12  0.17120000000E+03  0.17120000000E+03 0.  0.
         13    1    1    2    0    0 -0.35644702046E+01  0.37026871649E+02  0.86701467244E+02  0.94344317573E+02  0.10566000000E+00 0. -1.
        994    1    1    2    0    0 -0.81043134653E+01  0.53038582314E+01  0.88675766112E+01  0.17170289667E+03  0.17120000000E+03 0.  0.
        998    1    1    2    0    0  0.11668783670E+02 -0.42330729881E+02  0.14044309524E+04  0.14051527858E+04  0.10000000000E+02 0. -1.
</event>
<event>
 5    1  0.1658612E-008  0.3822239E+03  0.7957747E-01  0.3441532E+00
         13   -1    0    0    0    0  0.00000000000E+00  0.00000000000E+00  0.14999999963E+04  0.15000000000E+04  0.10566000000E+00 0. -1.
        994   -1    0    0    0    0 -0.00000000000E+00 -0.00000000000E+00  0.11368683772E-12  0.17120000000E+03  0.17120000000E+03 0.  0.
         13    1    1    2    0    0 -0.19447905266E+02 -0.30336284426E+01  0.63606041444E+02  0.66582006525E+02  0.10566000000E+00 0. -1.
        994    1    1    2    0    0  0.12798066767E+02 -0.66165095900E+01  0.37038587538E+01  0.17184506767E+03  0.17120000000E+03 0.  0.
        998    1    1    2    0    0  0.66498384986E+01  0.96501380325E+01  0.14326900961E+04  0.14327729258E+04  0.10000000000E+02 0. -1.
</event>
<event>
 5    1  0.1658612E-008  0.3857072E+03  0.7957747E-01  0.3426679E+00
         13   -1    0    0    0    0  0.00000000000E+00  0.00000000000E+00  0.14999999963E+04  0.15000000000E+04  0.10566000000E+00 0.  1.
        994   -1    0    0    0    0 -0.00000000000E+00 -0.00000000000E+00  0.11368683772E-12  0.17120000000E+03  0.17120000000E+03 0.  0.
         13    1    1    2    0    0 -0.31877802273E+01 -0.12028557840E+02  0.61570249321E+02  0.62815244264E+02  0.10566000000E+00 0.  1.
        994    1    1    2    0    0  0.85598133974E+01  0.49171861800E+01  0.15992565574E+01  0.17149182706E+03  0.17120000000E+03 0.  0.
        998    1    1    2    0    0 -0.53720331701E+01  0.71113716601E+01  0.14368304904E+04  0.14368929287E+04  0.10000000000E+02 0.  1.
</event>
<event>
 5    1  0.1658612E-008  0.3839650E+03  0.7957747E-01  0.3434074E+00
         13   -1    0    0    0    0  0.00000000000E+00  0.00000000000E+00  0.14999999963E+04  0.15000000000E+04  0.10566000000E+00 0. -1.
        994   -1    0    0    0    0 -0.00000000000E+00 -0.00000000000E+00  0.11368683772E-12  0.17120000000E+03  0.17120000000E+03 0.  0.
         13    1    1    2    0    0 -0.75617337085E+01 -0.98728584076E+01  0.34670651506E+02  0.36833658381E+02  0.10566000000E+00 0. -1.
        994    1    1    2    0    0  0.96905692251E+01  0.10259985350E+02  0.28023636426E+01  0.17180357294E+03  0.17120000000E+03 0.  0.
        998    1    1    2    0    0 -0.21288355166E+01 -0.38712694257E+00  0.14625269811E+04  0.14625627687E+04  0.10000000000E+02 0. -1.
</event>
<event>
 5    1  0.1658612E-008  0.3784725E+03  0.7957747E-01  0.3457837E+00
         13   -1    0    0    0    0  0.00000000000E+00  0.00000000000E+00  0.14999999963E+04  0.15000000000E+04  0.10566000000E+00 0. -1.
        994   -1    0    0    0    0 -0.00000000000E+00 -0.00000000000E+00  0.11368683772E-12  0.17120000000E+03  0.17120000000E+03 0.  0.
         13    1    1    2    0    0  0.30543333685E+02 -0.47043867446E+02  0.31352374986E+03  0.31850144990E+03  0.10566000000E+00 0. -1.
        994    1    1    2    0    0 -0.18331047552E+01  0.40056755242E+02  0.10327624492E+02  0.17613632147E+03  0.17120000000E+03 0.  0.
        998    1    1    2    0    0 -0.28710228930E+02  0.69871122038E+01  0.11761486219E+04  0.11765622286E+04  0.10000000000E+02 0. -1.
</event>
<event>
 5    1  0.1658612E-008  0.3788502E+03  0.7957747E-01  0.3456180E+00
         13   -1    0    0    0    0  0.00000000000E+00  0.00000000000E+00  0.14999999963E+04  0.15000000000E+04  0.10566000000E+00 0.  1.
        994   -1    0    0    0    0 -0.00000000000E+00 -0.00000000000E+00  0.11368683772E-12  0.17120000000E+03  0.17120000000E+03 0.  0.
         13    1    1    2    0    0  0.23949972081E+02 -0.11575643806E+02  0.82097895504E+02  0.86299897465E+02  0.10566000000E+00 0.  1.
        994    1    1    2    0    0 -0.31534022102E+01 -0.25431683665E+02  0.69215199826E+01  0.17324566926E+03  0.17120000000E+03 0.  0.
        998    1    1    2    0    0 -0.20796569871E+02  0.37007327471E+02  0.14109805808E+04  0.14116544333E+04  0.10000000000E+02 0.  1.
</event>
<event>
 5    1  0.1658612E-008  0.3845208E+03  0.7957747E-01  0.3431707E+00
         13   -1    0    0    0    0  0.00000000000E+00  0.00000000000E+00  0.14999999963E+04  0.15000000000E+04  0.10566000000E+00 0.  1.
        994   -1    0    0    0    0 -0.00000000000E+00 -0.00000000000E+00  0.11368683772E-12  0.17120000000E+03  0.17120000000E+03 0.  0.
         13    1    1    2    0    0 -0.76282783673E+01  0.21820395308E+02  0.13316748767E+03  0.13515883700E+03  0.10566000000E+00 0.  1.
        994    1    1    2    0    0  0.13383350119E+02 -0.19174798143E+02  0.36712828529E+01  0.17282854296E+03  0.17120000000E+03 0.  0.
        998    1    1    2    0    0 -0.57550717521E+01 -0.26455971645E+01  0.13631612258E+04  0.13632126200E+04  0.10000000000E+02 0.  1.
</event>
<event>
 5    1  0.1658612E-008  0.3704426E+03  0.7957747E-01  0.3493859E+00
         13   -1    0    0    0    0  0.00000000000E+00  0.00000000000E+00  0.14999999963E+04  0.15000000000E+04  0.10566000000E+00 0.  1.
        994   -1    0    0    0    0 -0.00000000000E+00 -0.00000000000E+00  0.11368683772E-12  0.17120000000E+03  0.17120000000E+03 0.  0.
         13    1    1    2    0    0  0.34770225287E+02 -0.35985387156E-01  0.66464454154E+02  0.75010030605E+02  0.10566000000E+00 0.  1.
        994    1    1    2    0    0 -0.83950406664E+01 -0.21464910415E+02  0.10874015799E+02  0.17308640416E+03  0.17120000000E+03 0.  0.
        998    1    1    2    0    0 -0.26375184620E+02  0.21500895802E+02  0.14226615263E+04  0.14231035652E+04  0.10000000000E+02 0.  1.
</event>
<event>
 5    1  0.1658612E-008  0.3862294E+03  0.7957747E-01  0.3424475E+00
         13   -1    0    0    0    0  0.00000000000E+00  0.00000000000E+00  0.14999999963E+04  0.15000000000E+04  0.10566000000E+00 0.  1.
        994   -1    0    0    0    0 -0.00000000000E+00 -0.00000000000E+00  0.11368683772E-12  0.17120000000E+03  0.17120000000E+03 0.  0.
         13    1    1    2    0    0  0.10720950007E+02 -0.43204629468E+01  0.64234905767E+02  0.65266679493E+02  0.10566000000E+00 0.  1.
        994    1    1    2    0    0 -0.10623032621E+02  0.59034698276E+01  0.15049295550E+01  0.17163742188E+03  0.17120000000E+03 0.  0.
        998    1    1    2    0    0 -0.97917385509E-01 -0.15830068807E+01  0.14342601610E+04  0.14342958986E+04  0.10000000000E+02 0.  1.
</event>
<event>
 5    1  0.2903052E-008  0.3858083E+03  0.7957747E-01  0.3426251E+00
         13   -1    0    0    0    0  0.00000000000E+00  0.00000000000E+00  0.14999999963E+04  0.15000000000E+04  0.10566000000E+00 0.  1.
        994   -1    0    0    0    0 -0.00000000000E+00 -0.00000000000E+00  0.11368683772E-12  0.17120000000E+03  0.17120000000E+03 0.  0.
         13    1    1    2    0    0 -0.47845186674E+00 -0.13055840306E+02  0.71400875855E+02  0.72586363176E+02  0.10566000000E+00 0.  1.
        994    1    1    2    0    0 -0.10114539027E+01  0.61515645677E+01  0.13568350595E+01  0.17131884248E+03  0.17120000000E+03 0.  0.
        998    1    1    2    0    0  0.14899057694E+01  0.69042757387E+01  0.14272422854E+04  0.14272947943E+04  0.10000000000E+02 0.  1.
</event>
<event>
 5    1  0.1658612E-008  0.3727877E+03  0.7957747E-01  0.3483176E+00
         13   -1    0    0    0    0  0.00000000000E+00  0.00000000000E+00  0.14999999963E+04  0.15000000000E+04  0.10566000000E+00 0. -1.
        994   -1    0    0    0    0 -0.00000000000E+00 -0.00000000000E+00  0.11368683772E-12  0.17120000000E+03  0.17120000000E+03 0.  0.
         13    1    1    2    0    0 -0.50842129966E+02  0.11303430627E+03  0.72446471907E+03  0.73499035158E+03  0.10566000000E+00 0. -1.
        994    1    1    2    0    0  0.47623422944E+02 -0.85892856926E+02  0.41611466766E+02  0.20170901678E+03  0.17120000000E+03 0.  0.
        998    1    1    2    0    0  0.32187070218E+01 -0.27141449340E+02  0.73392381044E+03  0.73450063164E+03  0.10000000000E+02 0. -1.
</event>
<event>
 5    1  0.1658612E-008  0.3833948E+03  0.7957747E-01  0.3436509E+00
         13   -1    0    0    0    0  0.00000000000E+00  0.00000000000E+00  0.14999999963E+04  0.15000000000E+04  0.10566000000E+00 0. -1.
        994   -1    0    0    0    0 -0.00000000000E+00 -0.00000000000E+00  0.11368683772E-12  0.17120000000E+03  0.17120000000E+03 0.  0.
         13    1    1    2    0    0  0.17159201679E+02 -0.10004533701E+02  0.86354825499E+02  0.88609796004E+02  0.10566000000E+00 0. -1.
        994    1    1    2    0    0 -0.19140953391E+01 -0.70698031731E+00  0.24429742750E+01  0.17122958770E+03  0.17120000000E+03 0.  0.
        998    1    1    2    0    0 -0.15245106340E+02  0.10711514019E+02  0.14112021965E+04  0.14113606163E+04  0.10000000000E+02 0. -1.
</event>
<event>
 5    1  0.1658612E-008  0.3744540E+03  0.7957747E-01  0.3475668E+00
         13   -1    0    0    0    0  0.00000000000E+00  0.00000000000E+00  0.14999999963E+04  0.15000000000E+04  0.10566000000E+00 0. -1.
        994   -1    0    0    0    0 -0.00000000000E+00 -0.00000000000E+00  0.11368683772E-12  0.17120000000E+03  0.17120000000E+03 0.  0.
         13    1    1    2    0    0 -0.22877918562E+02  0.33077907592E+02  0.10616174647E+03  0.11352477574E+03  0.10566000000E+00 0. -1.
        994    1    1    2    0    0  0.31227841923E+02 -0.27987079531E+02  0.12971384058E+02  0.17673752159E+03  0.17120000000E+03 0.  0.
        998    1    1    2    0    0 -0.83499233612E+01 -0.50908280612E+01  0.13808668658E+04  0.13809377027E+04  0.10000000000E+02 0. -1.
</event>
<event>
 5    1  0.1658612E-008  0.3847806E+03  0.7957747E-01  0.3430603E+00
         13   -1    0    0    0    0  0.00000000000E+00  0.00000000000E+00  0.14999999963E+04  0.15000000000E+04  0.10566000000E+00 0. -1.
        994   -1    0    0    0    0 -0.00000000000E+00 -0.00000000000E+00  0.11368683772E-12  0.17120000000E+03  0.17120000000E+03 0.  0.
         13    1    1    2    0    0 -0.74250234311E+01 -0.15263284333E+02  0.85318917908E+02  0.86990963546E+02  0.10566000000E+00 0. -1.
        994    1    1    2    0    0  0.42464463885E+01  0.53271970573E+01  0.18918849636E+01  0.17134593828E+03  0.17120000000E+03 0.  0.
        998    1    1    2    0    0  0.31785770427E+01  0.99360872760E+01  0.14127891934E+04  0.14128630982E+04  0.10000000000E+02 0. -1.
</event>
<event>
 5    1  0.1658612E-008  0.3797384E+03  0.7957747E-01  0.3452298E+00
         13   -1    0    0    0    0  0.00000000000E+00  0.00000000000E+00  0.14999999963E+04  0.15000000000E+04  0.10566000000E+00 0.  1.
        994   -1    0    0    0    0 -0.00000000000E+00 -0.00000000000E+00  0.11368683772E-12  0.17120000000E+03  0.17120000000E+03 0.  0.
         13    1    1    2    0    0 -0.13286802222E+02  0.24997821294E+02  0.95575286589E+02  0.99679871355E+02  0.10566000000E+00 0.  1.
        994    1    1    2    0    0  0.25754969270E+02  0.11396968621E+01  0.64921136666E+01  0.17325185393E+03  0.17120000000E+03 0.  0.
        998    1    1    2    0    0 -0.12468167048E+02 -0.26137518156E+02  0.13979325960E+04  0.13982682747E+04  0.10000000000E+02 0.  1.
</event>
<event>
 5    1  0.1658612E-008  0.3821190E+03  0.7957747E-01  0.3441983E+00
         13   -1    0    0    0    0  0.00000000000E+00  0.00000000000E+00  0.14999999963E+04  0.15000000000E+04  0.10566000000E+00 0.  1.
        994   -1    0    0    0    0 -0.00000000000E+00 -0.00000000000E+00  0.11368683772E-12  0.17120000000E+03  0.17120000000E+03 0.  0.
         13    1    1    2    0    0  0.42813173099E+01  0.19031953961E+02  0.60482886200E+02  0.63551047486E+02  0.10566000000E+00 0.  1.
        994    1    1    2    0    0 -0.66251920132E+01 -0.13407220494E+02  0.38100776398E+01  0.17189416343E+03  0.17120000000E+03 0.  0.
        998    1    1    2    0    0  0.23438747032E+01 -0.56247334661E+01  0.14357070324E+04  0.14357547891E+04  0.10000000000E+02 0.  1.
</event>
<event>
 5    1  0.1658612E-008  0.3851660E+03  0.7957747E-01  0.3428968E+00
         13   -1    0    0    0    0  0.00000000000E+00  0.00000000000E+00  0.14999999963E+04  0.15000000000E+04  0.10566000000E+00 0.  1.
        994   -1    0    0    0    0 -0.00000000000E+00 -0.00000000000E+00  0.11368683772E-12  0.17120000000E+03  0.17120000000E+03 0.  0.
         13    1    1    2    0    0  0.15388146259E+02 -0.18143561977E+01  0.78202647903E+02  0.79722971826E+02  0.10566000000E+00 0.  1.
        994    1    1    2    0    0 -0.10335295446E+02 -0.78830148989E+01  0.21032801950E+01  0.17170563195E+03  0.17120000000E+03 0.  0.
        998    1    1    2    0    0 -0.50528508128E+01  0.96973710966E+01  0.14196940682E+04  0.14197713962E+04  0.10000000000E+02 0.  1.
</event>
<event>
 5    1  0.1658612E-008  0.3799860E+03  0.7957747E-01  0.3451220E+00
         13   -1    0    0    0    0  0.00000000000E+00  0.00000000000E+00  0.14999999963E+04  0.15000000000E+04  0.10566000000E+00 0.  1.
        994   -1    0    0    0    0 -0.00000000000E+00 -0.00000000000E+00  0.11368683772E-12  0.17120000000E+03  0.17120000000E+03 0.  0.
         13    1    1    2    0    0 -0.29330410494E+02  0.13300711114E+02  0.12931451988E+03  0.13326454184E+03  0.10566000000E+00 0.  1.
        994    1    1    2    0    0  0.12574927477E+02 -0.10055107567E+01  0.46724263583E+01  0.17172772467E+03  0.17120000000E+03 0.  0.
        998    1    1    2    0    0  0.16755483018E+02 -0.12295200358E+02  0.13660130500E+04  0.13662077335E+04  0.10000000000E+02 0.  1.
</event>
<event>
 5    1  0.1658612E-008  0.3809349E+03  0.7957747E-01  0.3447098E+00
         13   -1    0    0    0    0  0.00000000000E+00  0.00000000000E+00  0.14999999963E+04  0.15000000000E+04  0.10566000000E+00 0. -1.
        994   -1    0    0    0    0 -0.00000000000E+00 -0.00000000000E+00  0.11368683772E-12  0.17120000000E+03  0.17120000000E+03 0.  0.
         13    1    1    2    0    0  0.33994266456E+02 -0.13250958720E+02  0.16730360676E+03  0.17123582002E+03  0.10566000000E+00 0. -1.
        994    1    1    2    0    0 -0.24641965418E+02  0.26268862023E+02  0.79973834925E+01  0.17513045913E+03  0.17120000000E+03 0.  0.
        998    1    1    2    0    0 -0.93523010373E+01 -0.13017903303E+02  0.13246990060E+04  0.13248337208E+04  0.10000000000E+02 0. -1.
</event>
<event>
 5    1  0.1658612E-008  0.3729977E+03  0.7957747E-01  0.3482226E+00
         13   -1    0    0    0    0  0.00000000000E+00  0.00000000000E+00  0.14999999963E+04  0.15000000000E+04  0.10566000000E+00 0.  1.
        994   -1    0    0    0    0 -0.00000000000E+00 -0.00000000000E+00  0.11368683772E-12  0.17120000000E+03  0.17120000000E+03 0.  0.
         13    1    1    2    0    0 -0.38706249095E+02 -0.20424070800E+02  0.70109833016E+02  0.82648147206E+02  0.10566000000E+00 0.  1.
        994    1    1    2    0    0  0.26621532607E+02  0.29919279239E+02  0.18220805105E+02  0.17676342101E+03  0.17120000000E+03 0.  0.
        998    1    1    2    0    0  0.12084716489E+02 -0.94952084383E+01  0.14116693582E+04  0.14117884318E+04  0.10000000000E+02 0.  1.
</event>
<event>
 5    1  0.1658612E-008  0.3774635E+03  0.7957747E-01  0.3462278E+00
         13   -1    0    0    0    0  0.00000000000E+00  0.00000000000E+00  0.14999999963E+04  0.15000000000E+04  0.10566000000E+00 0.  1.
        994   -1    0    0    0    0 -0.00000000000E+00 -0.00000000000E+00  0.11368683772E-12  0.17120000000E+03  0.17120000000E+03 0.  0.
         13    1    1    2    0    0  0.59463057520E+02  0.20515446059E+02  0.31624871296E+03  0.32244379099E+03  0.10566000000E+00 0.  1.
        994    1    1    2    0    0 -0.52225026504E+02 -0.94792358008E+01  0.14976311580E+02  0.17986394640E+03  0.17120000000E+03 0.  0.
        998    1    1    2    0    0 -0.72380310157E+01 -0.11036210258E+02  0.11687749717E+04  0.11688922626E+04  0.10000000000E+02 0.  1.
</event>
<event>
 5    1  0.1658612E-008  0.3797308E+03  0.7957747E-01  0.3452331E+00
         13   -1    0    0    0    0  0.00000000000E+00  0.00000000000E+00  0.14999999963E+04  0.15000000000E+04  0.10566000000E+00 0. -1.
        994   -1    0    0    0    0 -0.00000000000E+00 -0.00000000000E+00  0.11368683772E-12  0.17120000000E+03  0.17120000000E+03 0.  0.
         13    1    1    2    0    0 -0.21580794997E+02  0.12659441093E+02  0.76446356859E+02  0.80436613570E+02  0.10566000000E+00 0. -1.
        994    1    1    2    0    0  0.27152099217E+01  0.12425570370E+01  0.42989339884E+01  0.17127999634E+03  0.17120000000E+03 0.  0.
        998    1    1    2    0    0  0.18865585076E+02 -0.13901998130E+02  0.14192547054E+04  0.14194833901E+04  0.10000000000E+02 0.  0.
</event>
<event>
 5    1  0.1658612E-008  0.3818515E+03  0.7957747E-01  0.3443136E+00
         13   -1    0    0    0    0  0.00000000000E+00  0.00000000000E+00  0.14999999963E+04  0.15000000000E+04  0.10566000000E+00 0. -1.
        994   -1    0    0    0    0 -0.00000000000E+00 -0.00000000000E+00  0.11368683772E-12  0.17120000000E+03  0.17120000000E+03 0.  0.
         13    1    1    2    0    0 -0.15068979776E+02 -0.13288685682E+02  0.65273151466E+02  0.68295378943E+02  0.10566000000E+00 0. -1.
        994    1    1    2    0    0 -0.45731633777E+00  0.34014847767E+01  0.32405496177E+01  0.17126505890E+03  0.17120000000E+03 0.  0.
        998    1    1    2    0    0  0.15526296113E+02  0.98872009053E+01  0.14314862952E+04  0.14316395622E+04  0.10000000000E+02 0. -1.
</event>
<event>
 5    1  0.1658612E-008  0.3805015E+03  0.7957747E-01  0.3448978E+00
         13   -1    0    0    0    0  0.00000000000E+00  0.00000000000E+00  0.14999999963E+04  0.15000000000E+04  0.10566000000E+00 0. -1.
        994   -1    0    0    0    0 -0.00000000000E+00 -0.00000000000E+00  0.11368683772E-12  0.17120000000E+03  0.17120000000E+03 0.  0.
         13    1    1    2    0    0 -0.10537211034E+02 -0.51175228040E+01  0.16376193082E+02  0.20134863295E+02  0.10566000000E+00 0. -1.
        994    1    1    2    0    0 -0.95752791762E+00  0.27103259104E+01  0.39077763931E+01  0.17126871706E+03  0.17120000000E+03 0.  0.
        998    1    1    2    0    0  0.11494738952E+02  0.24071968937E+01  0.14797160268E+04  0.14797964196E+04  0.10000000000E+02 0. -1.
</event>
<event>
 5    1  0.1658612E-008  0.3859775E+03  0.7957747E-01  0.3425537E+00
         13   -1    0    0    0    0  0.00000000000E+00  0.00000000000E+00  0.14999999963E+04  0.15000000000E+04  0.10566000000E+00 0. -1.
        994   -1    0    0    0    0 -0.00000000000E+00 -0.00000000000E+00  0.11368683772E-12  0.17120000000E+03  0.17120000000E+03 0.  0.
         13    1    1    2    0    0  0.12692604190E+02 -0.22830443088E+01  0.76901212033E+02  0.77975137503E+02  0.10566000000E+00 0. -1.
        994    1    1    2    0    0 -0.25055398451E+01  0.22371873593E+01  0.11826087039E+01  0.17123703250E+03  0.17120000000E+03 0.  0.
        998    1    1    2    0    0 -0.10187064345E+02  0.45856949498E-01  0.14219161755E+04  0.14219878300E+04  0.10000000000E+02 0. -1.
</event>
<event>
 5    1  0.1658612E-008  0.3834875E+03  0.7957747E-01  0.3436112E+00
         13   -1    0    0    0    0  0.00000000000E+00  0.00000000000E+00  0.14999999963E+04  0.15000000000E+04  0.10566000000E+00 0.  1.
        994   -1    0    0    0    0 -0.00000000000E+00 -0.00000000000E+00  0.11368683772E-12  0.17120000000E+03  0.17120000000E+03 0.  0.
         13    1    1    2    0    0  0.17234234417E+02  0.28728932655E+01  0.70480673779E+02  0.72614109456E+02  0.10566000000E+00 0.  1.
        994    1    1    2    0    0  0.81427273090E+01 -0.41823293638E+01  0.26599067311E+01  0.17146518886E+03  0.17120000000E+03 0.  0.
        998    1    1    2    0    0 -0.25376961726E+02  0.13094360983E+01  0.14268594158E+04  0.14271207017E+04  0.10000000000E+02 0.  1.
</event>
<event>
 5    1  0.1658612E-008  0.3859288E+03  0.7957747E-01  0.3425743E+00
         13   -1    0    0    0    0  0.00000000000E+00  0.00000000000E+00  0.14999999963E+04  0.15000000000E+04  0.10566000000E+00 0. -1.
        994   -1    0    0    0    0 -0.00000000000E+00 -0.00000000000E+00  0.11368683772E-12  0.17120000000E+03  0.17120000000E+03 0.  0.
         13    1    1    2    0    0  0.82952939595E+01  0.83401456192E+01  0.67005486112E+02  0.68030259914E+02  0.10566000000E+00 0. -1.
        994    1    1    2    0    0 -0.38831065098E+01  0.13320640828E+02  0.18011919726E+01  0.17177078413E+03  0.17120000000E+03 0.  0.
        998    1    1    2    0    0 -0.44121874497E+01 -0.21660786447E+02  0.14311933182E+04  0.14313989560E+04  0.10000000000E+02 0. -1.
</event>
<event>
 5    1  0.1658612E-008  0.3769440E+03  0.7957747E-01  0.3464574E+00
         13   -1    0    0    0    0  0.00000000000E+00  0.00000000000E+00  0.14999999963E+04  0.15000000000E+04  0.10566000000E+00 0.  1.
        994   -1    0    0    0    0 -0.00000000000E+00 -0.00000000000E+00  0.11368683772E-12  0.17120000000E+03  0.17120000000E+03 0.  0.
         13    1    1    2    0    0 -0.19900600731E+02 -0.35289805710E+02  0.45409842048E+02  0.60856135397E+02  0.10566000000E+00 0.  1.
        994    1    1    2    0    0 -0.14716540089E+02  0.83746424406E+02  0.41045679058E+02  0.19551017345E+03  0.17120000000E+03 0.  0.
        998    1    1    2    0    0  0.34617140820E+02 -0.48456618696E+02  0.14135444752E+04  0.14148336912E+04  0.10000000000E+02 0.  1.
</event>
<event>
 5    1  0.1658612E-008  0.3753920E+03  0.7957747E-01  0.3471471E+00
         13   -1    0    0    0    0  0.00000000000E+00  0.00000000000E+00  0.14999999963E+04  0.15000000000E+04  0.10566000000E+00 0.  1.
        994   -1    0    0    0    0 -0.00000000000E+00 -0.00000000000E+00  0.11368683772E-12  0.17120000000E+03  0.17120000000E+03 0.  0.
         13    1    1    2    0    0 -0.33872786356E+02  0.27249816746E+02  0.12992002895E+03  0.13700052282E+03  0.10566000000E+00 0.  1.
        994    1    1    2    0    0  0.33172781249E+02 -0.33503224258E+02  0.14061295148E+02  0.17812933355E+03  0.17120000000E+03 0.  0.
        998    1    1    2    0    0  0.70000510790E+00  0.62534075126E+01  0.13560186722E+04  0.13560701436E+04  0.10000000000E+02 0.  1.
</event>
<event>
 5    1  0.1658612E-008  0.3824552E+03  0.7957747E-01  0.3440537E+00
         13   -1    0    0    0    0  0.00000000000E+00  0.00000000000E+00  0.14999999963E+04  0.15000000000E+04  0.10566000000E+00 0. -1.
        994   -1    0    0    0    0 -0.00000000000E+00 -0.00000000000E+00  0.11368683772E-12  0.17120000000E+03  0.17120000000E+03 0.  0.
         13    1    1    2    0    0 -0.29198289667E+02 -0.10610779017E+01  0.15663557617E+03  0.15933731795E+03  0.10566000000E+00 0. -1.
        994    1    1    2    0    0  0.92334861881E+01 -0.12480461410E+02  0.36984945835E+01  0.17194225207E+03  0.17120000000E+03 0.  0.
        998    1    1    2    0    0  0.19964803479E+02  0.13541539312E+02  0.13396659255E+04  0.13399204300E+04  0.10000000000E+02 0. -1.
</event>
<event>
 5    1  0.1658612E-008  0.3786600E+03  0.7957747E-01  0.3457014E+00
         13   -1    0    0    0    0  0.00000000000E+00  0.00000000000E+00  0.14999999963E+04  0.15000000000E+04  0.10566000000E+00 0. -1.
        994   -1    0    0    0    0 -0.00000000000E+00 -0.00000000000E+00  0.11368683772E-12  0.17120000000E+03  0.17120000000E+03 0.  0.
         13    1    1    2    0    0 -0.16289135396E+02 -0.34578481716E+02  0.14601917241E+03  0.15093911754E+03  0.10566000000E+00 0. -1.
        994    1    1    2    0    0  0.44072095088E+02  0.10811720421E+02  0.11756900187E+02  0.17750185229E+03  0.17120000000E+03 0.  0.
        998    1    1    2    0    0 -0.27782959692E+02  0.23766761295E+02  0.13422239237E+04  0.13427590302E+04  0.10000000000E+02 0. -1.
</event>
<event>
 5    1  0.1671156E-008  0.3858733E+03  0.7957747E-01  0.3425977E+00
         13   -1    0    0    0    0  0.00000000000E+00  0.00000000000E+00  0.14999999963E+04  0.15000000000E+04  0.10566000000E+00 0. -1.
        994   -1    0    0    0    0 -0.00000000000E+00 -0.00000000000E+00  0.11368683772E-12  0.17120000000E+03  0.17120000000E+03 0.  0.
         13    1    1    2    0    0 -0.47582942645E+01  0.95258256510E+01  0.46450400125E+02  0.47655362284E+02  0.10566000000E+00 0. -1.
        994    1    1    2    0    0  0.54052995508E+01 -0.10502588347E+02  0.16548449324E+01  0.17161497644E+03  0.17120000000E+03 0.  0.
        998    1    1    2    0    0 -0.64700528631E+00  0.97676269619E+00  0.14518947512E+04  0.14519296613E+04  0.10000000000E+02 0. -1.
</event>
<event>
 5    1  0.1658612E-008  0.2681810E+03  0.7957747E-01  0.4153112E+00
         13   -1    0    0    0    0  0.00000000000E+00  0.00000000000E+00  0.14999999963E+04  0.15000000000E+04  0.10566000000E+00 0. -1.
        994   -1    0    0    0    0 -0.00000000000E+00 -0.00000000000E+00  0.11368683772E-12  0.17120000000E+03  0.17120000000E+03 0.  0.
         13    1    1    2    0    0  0.10305185393E+03 -0.88948480708E+02  0.59253224259E+03  0.60796873809E+03  0.10566000000E+00 0. -1.
        994    1    1    2    0    0 -0.85414728632E+02 -0.21163393335E+02  0.50534147473E+02  0.19901433402E+03  0.17120000000E+03 0.  0.
        998    1    1    2    0    0 -0.17637125298E+02  0.11011187404E+03  0.85693360621E+03  0.86421692789E+03  0.10000000000E+02 0. -1.
</event>
<event>
 5    1  0.1658612E-008  0.3849401E+03  0.7957747E-01  0.3429926E+00
         13   -1    0    0    0    0  0.00000000000E+00  0.00000000000E+00  0.14999999963E+04  0.15000000000E+04  0.10566000000E+00 0.  1.
        994   -1    0    0    0    0 -0.00000000000E+00 -0.00000000000E+00  0.11368683772E-12  0.17120000000E+03  0.17120000000E+03 0.  0.
         13    1    1    2    0    0  0.92645555642E+01 -0.63090265833E+01  0.38143718246E+02  0.39756637331E+02  0.10566000000E+00 0.  1.
        994    1    1    2    0    0 -0.25074818041E+01  0.52364601927E+01  0.17707584962E+01  0.17130757008E+03  0.17120000000E+03 0.  0.
        998    1    1    2    0    0 -0.67570737601E+01  0.10725663906E+01  0.14600855195E+04  0.14601357926E+04  0.10000000000E+02 0.  1.
</event>
<event>
 5    1  0.1658612E-008  0.3731007E+03  0.7957747E-01  0.3481761E+00
         13   -1    0    0    0    0  0.00000000000E+00  0.00000000000E+00  0.14999999963E+04  0.15000000000E+04  0.10566000000E+00 0. -1.
        994   -1    0    0    0    0 -0.00000000000E+00 -0.00000000000E+00  0.11368683772E-12  0.17120000000E+03  0.17120000000E+03 0.  0.
         13    1    1    2    0    0  0.99955535909E+01  0.41398871978E+02  0.62055682870E+02  0.75264178950E+02  0.10566000000E+00 0. -1.
        994    1    1    2    0    0 -0.20377193205E+02 -0.53888395299E+02  0.24413448828E+02  0.18227628928E+03  0.17120000000E+03 0.  0.
        998    1    1    2    0    0  0.10381639614E+02  0.12489523321E+02  0.14135308646E+04  0.14136595318E+04  0.10000000000E+02 0. -1.
</event>
<event>
 5    1  0.1658612E-008  0.3712304E+03  0.7957747E-01  0.3490255E+00
         13   -1    0    0    0    0  0.00000000000E+00  0.00000000000E+00  0.14999999963E+04  0.15000000000E+04  0.10566000000E+00 0.  1.
        994   -1    0    0    0    0 -0.00000000000E+00 -0.00000000000E+00  0.11368683772E-12  0.17120000000E+03  0.17120000000E+03 0.  0.
         13    1    1    2    0    0  0.48019478618E+02 -0.86182211368E+02  0.40480883770E+03  0.41665747339E+03  0.10566000000E+00 0.  1.
        994    1    1    2    0    0 -0.22090964292E+02  0.57752870040E+02  0.25138935981E+02  0.18375203619E+03  0.17120000000E+03 0.  0.
        998    1    1    2    0    0 -0.25928514326E+02  0.28429341328E+02  0.10700522226E+04  0.10707904904E+04  0.10000000000E+02 0.  1.
</event>
<event>
 5    1  0.1658612E-008  0.3817146E+03  0.7957747E-01  0.3443726E+00
         13   -1    0    0    0    0  0.00000000000E+00  0.00000000000E+00  0.14999999963E+04  0.15000000000E+04  0.10566000000E+00 0.  1.
        994   -1    0    0    0    0 -0.00000000000E+00 -0.00000000000E+00  0.11368683772E-12  0.17120000000E+03  0.17120000000E+03 0.  0.
         13    1    1    2    0    0 -0.13050798884E+02  0.19421429258E+02  0.78310735613E+02  0.81731864913E+02  0.10566000000E+00 0.  1.
        994    1    1    2    0    0  0.11558542044E+02 -0.22765593567E+02  0.54399895472E+01  0.17317882558E+03  0.17120000000E+03 0.  0.
        998    1    1    2    0    0  0.14922568403E+01  0.33441643092E+01  0.14162492711E+04  0.14162893095E+04  0.10000000000E+02 0.  1.
</event>
<event>
 5    1  0.1658612E-008  0.3758535E+03  0.7957747E-01  0.3469414E+00
         13   -1    0    0    0    0  0.00000000000E+00  0.00000000000E+00  0.14999999963E+04  0.15000000000E+04  0.10566000000E+00 0.  1.
        994   -1    0    0    0    0 -0.00000000000E+00 -0.00000000000E+00  0.11368683772E-12  0.17120000000E+03  0.17120000000E+03 0.  0.
         13    1    1    2    0    0  0.21421177927E+02  0.41082863842E+02  0.23706431154E+03  0.24154951363E+03  0.10566000000E+00 0.  1.
        994    1    1    2    0    0 -0.18035805599E+02  0.30248253228E+02  0.10456381356E+02  0.17509718164E+03  0.17120000000E+03 0.  0.
        998    1    1    2    0    0 -0.33853723285E+01 -0.71331117070E+02  0.12524793034E+04  0.12545533047E+04  0.10000000000E+02 0.  1.
</event>
<event>
 5    1  0.1658612E-008  0.3842587E+03  0.7957747E-01  0.3432822E+00
         13   -1    0    0    0    0  0.00000000000E+00  0.00000000000E+00  0.14999999963E+04  0.15000000000E+04  0.10566000000E+00 0. -1.
        994   -1    0    0    0    0 -0.00000000000E+00 -0.00000000000E+00  0.11368683772E-12  0.17120000000E+03  0.17120000000E+03 0.  0.
         13    1    1    2    0    0 -0.20289980718E+01 -0.11859911515E+02  0.36029864175E+02  0.37986005461E+02  0.10566000000E+00 0. -1.
        994    1    1    2    0    0 -0.52049202683E+01  0.74540149141E+01  0.22711510893E+01  0.17145626749E+03  0.17120000000E+03 0.  0.
        998    1    1    2    0    0  0.72339183402E+01  0.44058966013E+01  0.14616989810E+04  0.14617577271E+04  0.10000000000E+02 0. -1.
</event>
<event>
 5    1  0.1658612E-008  0.3702494E+03  0.7957747E-01  0.3494746E+00
         13   -1    0    0    0    0  0.00000000000E+00  0.00000000000E+00  0.14999999963E+04  0.15000000000E+04  0.10566000000E+00 0.  1.
        994   -1    0    0    0    0 -0.00000000000E+00 -0.00000000000E+00  0.11368683772E-12  0.17120000000E+03  0.17120000000E+03 0.  0.
         13    1    1    2    0    0 -0.17011794670E+02 -0.60027994796E+01  0.13754522018E+02  0.22685519599E+02  0.10566000000E+00 0.  1.
        994    1    1    2    0    0  0.10269731645E+02  0.14023943757E+02  0.10183254585E+02  0.17238119695E+03  0.17120000000E+03 0.  0.
        998    1    1    2    0    0  0.67420630254E+01 -0.80211442772E+01  0.14760622197E+04  0.14761332835E+04  0.10000000000E+02 0.  1.
</event>
<event>
 5    1  0.1658612E-008  0.3848530E+03  0.7957747E-01  0.3430296E+00
         13   -1    0    0    0    0  0.00000000000E+00  0.00000000000E+00  0.14999999963E+04  0.15000000000E+04  0.10566000000E+00 0.  1.
        994   -1    0    0    0    0 -0.00000000000E+00 -0.00000000000E+00  0.11368683772E-12  0.17120000000E+03  0.17120000000E+03 0.  0.
         13    1    1    2    0    0  0.21066046944E+02 -0.29382211760E+01  0.11822217174E+03  0.12012037517E+03  0.10566000000E+00 0.  1.
        994    1    1    2    0    0 -0.26695090965E+02  0.70982904375E+01  0.42176693370E+01  0.17346539235E+03  0.17120000000E+03 0.  0.
        998    1    1    2    0    0  0.56290440211E+01 -0.41600692615E+01  0.13775601552E+04  0.13776142325E+04  0.10000000000E+02 0.  0.
</event>
<event>
 5    1  0.1658612E-008  0.3822078E+03  0.7957747E-01  0.3441601E+00
         13   -1    0    0    0    0  0.00000000000E+00  0.00000000000E+00  0.14999999963E+04  0.15000000000E+04  0.10566000000E+00 0.  1.
        994   -1    0    0    0    0 -0.00000000000E+00 -0.00000000000E+00  0.11368683772E-12  0.17120000000E+03  0.17120000000E+03 0.  0.
         13    1    1    2    0    0 -0.10378926366E+02 -0.32636664626E+01  0.18501819534E+02  0.21463972638E+02  0.10566000000E+00 0.  1.
        994    1    1    2    0    0  0.61575210800E+01 -0.15338523287E+01  0.31564210597E+01  0.17134663919E+03  0.17120000000E+03 0.  0.
        998    1    1    2    0    0  0.42214052865E+01  0.47975187913E+01  0.14783417557E+04  0.14783893882E+04  0.10000000000E+02 0.  1.
</event>
<event>
 5    1  0.1658612E-008  0.3828063E+03  0.7957747E-01  0.3439029E+00
         13   -1    0    0    0    0  0.00000000000E+00  0.00000000000E+00  0.14999999963E+04  0.15000000000E+04  0.10566000000E+00 0.  1.
        994   -1    0    0    0    0 -0.00000000000E+00 -0.00000000000E+00  0.11368683772E-12  0.17120000000E+03  0.17120000000E+03 0.  0.
         13    1    1    2    0    0  0.11669743354E+02 -0.18938153245E+02  0.86478859606E+02  0.89294125681E+02  0.10566000000E+00 0.  1.
        994    1    1    2    0    0 -0.98839212757E+01  0.18576733159E+02  0.41911675445E+01  0.17253925003E+03  0.17120000000E+03 0.  0.
        998    1    1    2    0    0 -0.17858220782E+01  0.36142008610E+00  0.14093299691E+04  0.14093666243E+04  0.10000000000E+02 0.  1.
</event>
<event>
 5    1  0.1658612E-008  0.3763281E+03  0.7957747E-01  0.3467304E+00
         13   -1    0    0    0    0  0.00000000000E+00  0.00000000000E+00  0.14999999963E+04  0.15000000000E+04  0.10566000000E+00 0.  1.
        994   -1    0    0    0    0 -0.00000000000E+00 -0.00000000000E+00  0.11368683772E-12  0.17120000000E+03  0.17120000000E+03 0.  0.
         13    1    1    2    0    0 -0.35133953593E+02 -0.42125427928E+01  0.10666736645E+03  0.11238362176E+03  0.10566000000E+00 0.  1.
        994    1    1    2    0    0  0.11285789204E+02  0.90440929963E+01  0.67064152883E+01  0.17194063121E+03  0.17120000000E+03 0.  0.
        998    1    1    2    0    0  0.23848164389E+02 -0.48315502034E+01  0.13866262145E+04  0.13868757470E+04  0.10000000000E+02 0.  1.
</event>
<event>
 5    1  0.1658612E-008  0.3855015E+03  0.7957747E-01  0.3427548E+00
         13   -1    0    0    0    0  0.00000000000E+00  0.00000000000E+00  0.14999999963E+04  0.15000000000E+04  0.10566000000E+00 0. -1.
        994   -1    0    0    0    0 -0.00000000000E+00 -0.00000000000E+00  0.11368683772E-12  0.17120000000E+03  0.17120000000E+03 0.  0.
         13    1    1    2    0    0  0.13203469788E+02  0.11491845724E+02  0.10300786401E+03  0.10448456989E+03  0.10566000000E+00 0. -1.
        994    1    1    2    0    0 -0.17702023664E+02 -0.10726350839E+02  0.27892647057E+01  0.17246923274E+03  0.17120000000E+03 0.  0.
        998    1    1    2    0    0  0.44985538760E+01 -0.76549488457E+00  0.13942028676E+04  0.13942461974E+04  0.10000000000E+02 0. -1.
</event>
<event>
 5    1  0.1658612E-008  0.3857898E+03  0.7957747E-01  0.3426329E+00
         13   -1    0    0    0    0  0.00000000000E+00  0.00000000000E+00  0.14999999963E+04  0.15000000000E+04  0.10566000000E+00 0. -1.
        994   -1    0    0    0    0 -0.00000000000E+00 -0.00000000000E+00  0.11368683772E-12  0.17120000000E+03  0.17120000000E+03 0.  0.
         13    1    1    2    0    0 -0.99231943751E+01 -0.67807509458E+01  0.60611177810E+02  0.61791378117E+02  0.10566000000E+00 0. -1.
        994    1    1    2    0    0  0.86676798881E+00  0.54156206097E+01  0.13371776931E+01  0.17129304795E+03  0.17120000000E+03 0.  0.
        998    1    1    2    0    0  0.90564263863E+01  0.13651303361E+01  0.14380516408E+04  0.14381155739E+04  0.10000000000E+02 0. -1.
</event>
<event>
 5    1  0.1658612E-008  0.3851345E+03  0.7957747E-01  0.3429102E+00
         13   -1    0    0    0    0  0.00000000000E+00  0.00000000000E+00  0.14999999963E+04  0.15000000000E+04  0.10566000000E+00 0.  1.
        994   -1    0    0    0    0 -0.00000000000E+00 -0.00000000000E+00  0.11368683772E-12  0.17120000000E+03  0.17120000000E+03 0.  0.
         13    1    1    2    0    0  0.36284041673E+00 -0.14489697055E+02  0.74883371035E+02  0.76273281007E+02  0.10566000000E+00 0.  1.
        994    1    1    2    0    0 -0.50177122828E+01 -0.56819345410E+01  0.17522647294E+01  0.17137669692E+03  0.17120000000E+03 0.  0.
        998    1    1    2    0    0  0.46548718661E+01  0.20171631596E+02  0.14233643605E+04  0.14235500221E+04  0.10000000000E+02 0.  1.
</event>
<event>
 5    1  0.1658612E-008  0.3828340E+03  0.7957747E-01  0.3438911E+00
         13   -1    0    0    0    0  0.00000000000E+00  0.00000000000E+00  0.14999999963E+04  0.15000000000E+04  0.10566000000E+00 0.  1.
        994   -1    0    0    0    0 -0.00000000000E+00 -0.00000000000E+00  0.11368683772E-12  0.17120000000E+03  0.17120000000E+03 0.  0.
         13    1    1    2    0    0 -0.20401146927E+02 -0.17468484162E+01  0.77164753455E+02  0.79835259223E+02  0.10566000000E+00 0.  1.
        994    1    1    2    0    0  0.10642134205E+02  0.13162526383E+02  0.36588263119E+01  0.17207362997E+03  0.17120000000E+03 0.  0.
        998    1    1    2    0    0  0.97590127222E+01 -0.11415677967E+02  0.14191764165E+04  0.14192911108E+04  0.10000000000E+02 0.  1.
</event>
<event>
 5    1  0.1658612E-008  0.4083607E+03  0.7957747E-01  0.3336262E+00
         13   -1    0    0    0    0  0.00000000000E+00  0.00000000000E+00  0.14999999963E+04  0.15000000000E+04  0.10566000000E+00 0. -1.
        994   -1    0    0    0    0 -0.00000000000E+00 -0.00000000000E+00  0.11368683772E-12  0.17120000000E+03  0.17120000000E+03 0.  0.
         13    1    1    2    0    0 -0.32236891141E+02 -0.19551701092E+02  0.68508903778E+01  0.38320125639E+02  0.10566000000E+00 0. -1.
        994    1    1    2    0    0  0.38975418258E+02  0.67571172172E+02  0.57992182325E+02  0.19686919451E+03  0.17120000000E+03 0.  0.
        998    1    1    2    0    0 -0.67385271173E+01 -0.48019471079E+02  0.14351569236E+04  0.14360106798E+04  0.10000000000E+02 0. -1.
</event>
<event>
 5    1  0.1658612E-008  0.3857408E+03  0.7957747E-01  0.3426536E+00
         13   -1    0    0    0    0  0.00000000000E+00  0.00000000000E+00  0.14999999963E+04  0.15000000000E+04  0.10566000000E+00 0.  1.
        994   -1    0    0    0    0 -0.00000000000E+00 -0.00000000000E+00  0.11368683772E-12  0.17120000000E+03  0.17120000000E+03 0.  0.
         13    1    1    2    0    0  0.27365484780E+01 -0.12434181318E+02  0.62161766456E+02  0.63452296535E+02  0.10566000000E+00 0.  1.
        994    1    1    2    0    0 -0.20215555968E+01  0.14117248238E+02  0.19303226405E+01  0.17180381116E+03  0.17120000000E+03 0.  0.
        998    1    1    2    0    0 -0.71499288119E+00 -0.16830669202E+01  0.14359079072E+04  0.14359438923E+04  0.10000000000E+02 0.  1.
</event>
<event>
 5    1  0.1658612E-008  0.3849977E+03  0.7957747E-01  0.3429682E+00
         13   -1    0    0    0    0  0.00000000000E+00  0.00000000000E+00  0.14999999963E+04  0.15000000000E+04  0.10566000000E+00 0. -1.
        994   -1    0    0    0    0 -0.00000000000E+00 -0.00000000000E+00  0.11368683772E-12  0.17120000000E+03  0.17120000000E+03 0.  0.
         13    1    1    2    0    0  0.11156053859E+02  0.16731904228E+02  0.11868089432E+03  0.12037267130E+03  0.10566000000E+00 0. -1.
        994    1    1    2    0    0 -0.11764530517E+02 -0.13530210008E+02  0.26892120169E+01  0.17215731940E+03  0.17120000000E+03 0.  0.
        998    1    1    2    0    0  0.60847665756E+00 -0.32016942201E+01  0.13786298899E+04  0.13786700093E+04  0.10000000000E+02 0. -1.
</event>
<event>
 5    1  0.1658612E-008  0.3769345E+03  0.7957747E-01  0.3464616E+00
         13   -1    0    0    0    0  0.00000000000E+00  0.00000000000E+00  0.14999999963E+04  0.15000000000E+04  0.10566000000E+00 0.  1.
        994   -1    0    0    0    0 -0.00000000000E+00 -0.00000000000E+00  0.11368683772E-12  0.17120000000E+03  0.17120000000E+03 0.  0.
         13    1    1    2    0    0 -0.11009371815E+02 -0.16425311528E+02  0.32270178003E+02  0.37846699710E+02  0.10566000000E+00 0.  1.
        994    1    1    2    0    0  0.10472179533E+02  0.63018187653E+01  0.61933070735E+01  0.17174742070E+03  0.17120000000E+03 0.  0.
        998    1    1    2    0    0  0.53719228187E+00  0.10123492762E+02  0.14615365112E+04  0.14616058796E+04  0.10000000000E+02 0.  1.
</event>
<event>
 5    1  0.1658612E-008  0.3800155E+03  0.7957747E-01  0.3451091E+00
         13   -1    0    0    0    0  0.00000000000E+00  0.00000000000E+00  0.14999999963E+04  0.15000000000E+04  0.10566000000E+00 0.  1.
        994   -1    0    0    0    0 -0.00000000000E+00 -0.00000000000E+00  0.11368683772E-12  0.17120000000E+03  0.17120000000E+03 0.  0.
         13    1    1    2    0    0  0.10369143691E+02  0.36104501336E+02  0.20083778008E+03  0.20432053062E+03  0.10566000000E+00 0.  1.
        994    1    1    2    0    0  0.24744952958E+01 -0.37621359387E+00  0.41462560625E+01  0.17126849127E+03  0.17120000000E+03 0.  0.
        998    1    1    2    0    0 -0.12843638987E+02 -0.35728287743E+02  0.12950159601E+04  0.12956109781E+04  0.10000000000E+02 0.  1.
</event>
<event>
 5    1  0.1658612E-008  0.3819802E+03  0.7957747E-01  0.3442582E+00
         13   -1    0    0    0    0  0.00000000000E+00  0.00000000000E+00  0.14999999963E+04  0.15000000000E+04  0.10566000000E+00 0.  1.
        994   -1    0    0    0    0 -0.00000000000E+00 -0.00000000000E+00  0.11368683772E-12  0.17120000000E+03  0.17120000000E+03 0.  0.
         13    1    1    2    0    0  0.18268451619E+02  0.11010423119E+02  0.74760497906E+02  0.77743867623E+02  0.10566000000E+00 0.  1.
        994    1    1    2    0    0 -0.55256283778E+01  0.40952210530E-01  0.32383231197E+01  0.17131976238E+03  0.17120000000E+03 0.  0.
        998    1    1    2    0    0 -0.12742823241E+02 -0.11051375329E+02  0.14220011753E+04  0.14221363700E+04  0.10000000000E+02 0.  1.
</event>
<event>
 5    1  0.1658612E-008  0.3814168E+03  0.7957747E-01  0.3445012E+00
         13   -1    0    0    0    0  0.00000000000E+00  0.00000000000E+00  0.14999999963E+04  0.15000000000E+04  0.10566000000E+00 0.  1.
        994   -1    0    0    0    0 -0.00000000000E+00 -0.00000000000E+00  0.11368683772E-12  0.17120000000E+03  0.17120000000E+03 0.  0.
         13    1    1    2    0    0 -0.13803481368E+03 -0.12125316490E+03  0.92305059913E+03  0.94115798859E+03  0.10566000000E+00 0.  1.
        994    1    1    2    0    0  0.14503224407E+03  0.13968149122E+03  0.15274753364E+03  0.30526467179E+03  0.17120000000E+03 0.  0.
        998    1    1    2    0    0 -0.69974303985E+01 -0.18428326322E+02  0.42420186351E+03  0.42477733961E+03  0.10000000000E+02 0.  1.
</event>
<event>
 5    1  0.1658612E-008  0.3852809E+03  0.7957747E-01  0.3428482E+00
         13   -1    0    0    0    0  0.00000000000E+00  0.00000000000E+00  0.14999999963E+04  0.15000000000E+04  0.10566000000E+00 0. -1.
        994   -1    0    0    0    0 -0.00000000000E+00 -0.00000000000E+00  0.11368683772E-12  0.17120000000E+03  0.17120000000E+03 0.  0.
         13    1    1    2    0    0  0.10996634554E+02 -0.13917619717E+01  0.38705660715E+02  0.40261672945E+02  0.10566000000E+00 0. -1.
        994    1    1    2    0    0 -0.19812090203E+02  0.11529721375E+01  0.27858833870E+01  0.17236893400E+03  0.17120000000E+03 0.  0.
        998    1    1    2    0    0  0.88154556488E+01  0.23878983420E+00  0.14585084522E+04  0.14585693931E+04  0.10000000000E+02 0. -1.
</event>
<event>
 5    1  0.1658612E-008  0.3777957E+03  0.7957747E-01  0.3460813E+00
         13   -1    0    0    0    0  0.00000000000E+00  0.00000000000E+00  0.14999999963E+04  0.15000000000E+04  0.10566000000E+00 0.  1.
        994   -1    0    0    0    0 -0.00000000000E+00 -0.00000000000E+00  0.11368683772E-12  0.17120000000E+03  0.17120000000E+03 0.  0.
         13    1    1    2    0    0 -0.12903535246E+03 -0.35011027750E+02  0.68453748557E+03  0.69747220343E+03  0.10566000000E+00 0.  1.
        994    1    1    2    0    0  0.14255659606E+03  0.40306112062E+02  0.83122805200E+02  0.24117588290E+03  0.17120000000E+03 0.  0.
        998    1    1    2    0    0 -0.13521243595E+02 -0.52950843117E+01  0.73233970551E+03  0.73255191367E+03  0.10000000000E+02 0.  0.
</event>
<event>
 5    1  0.1658612E-008  0.3806447E+03  0.7957747E-01  0.3448356E+00
         13   -1    0    0    0    0  0.00000000000E+00  0.00000000000E+00  0.14999999963E+04  0.15000000000E+04  0.10566000000E+00 0.  1.
        994   -1    0    0    0    0 -0.00000000000E+00 -0.00000000000E+00  0.11368683772E-12  0.17120000000E+03  0.17120000000E+03 0.  0.
         13    1    1    2    0    0  0.15070268588E+02 -0.32203067283E+01  0.29473654632E+02  0.33259447562E+02  0.10566000000E+00 0.  1.
        994    1    1    2    0    0 -0.12362864207E+02  0.36095932569E+01  0.43615850460E+01  0.17173914230E+03  0.17120000000E+03 0.  0.
        998    1    1    2    0    0 -0.27074043814E+01 -0.38928652861E+00  0.14661647566E+04  0.14662014101E+04  0.10000000000E+02 0.  1.
</event>
<event>
 5    1  0.1658612E-008  0.3844953E+03  0.7957747E-01  0.3431816E+00
         13   -1    0    0    0    0  0.00000000000E+00  0.00000000000E+00  0.14999999963E+04  0.15000000000E+04  0.10566000000E+00 0. -1.
        994   -1    0    0    0    0 -0.00000000000E+00 -0.00000000000E+00  0.11368683772E-12  0.17120000000E+03  0.17120000000E+03 0.  0.
         13    1    1    2    0    0 -0.50082102442E+01  0.16159137150E+02  0.82321983889E+02  0.84042370735E+02  0.10566000000E+00 0. -1.
        994    1    1    2    0    0 -0.43786654594E+01 -0.17116010672E+00  0.19441947083E+01  0.17126710688E+03  0.17120000000E+03 0.  0.
        998    1    1    2    0    0  0.93868757036E+01 -0.15987977043E+02  0.14157338177E+04  0.14158905224E+04  0.10000000000E+02 0. -1.
</event>
<event>
 5    1  0.1658612E-008  0.3802579E+03  0.7957747E-01  0.3450036E+00
         13   -1    0    0    0    0  0.00000000000E+00  0.00000000000E+00  0.14999999963E+04  0.15000000000E+04  0.10566000000E+00 0.  1.
        994   -1    0    0    0    0 -0.00000000000E+00 -0.00000000000E+00  0.11368683772E-12  0.17120000000E+03  0.17120000000E+03 0.  0.
         13    1    1    2    0    0  0.20247822321E+02 -0.35420222290E+02  0.21779288453E+03  0.22158140304E+03  0.10566000000E+00 0.  1.
        994    1    1    2    0    0 -0.13300874878E+02  0.11818706534E+02  0.50611508353E+01  0.17219654568E+03  0.17120000000E+03 0.  0.
        998    1    1    2    0    0 -0.69469474432E+01  0.23601515757E+02  0.12771459609E+04  0.12774220513E+04  0.10000000000E+02 0.  1.
</event>
<event>
 5    1  0.1658612E-008  0.3734915E+03  0.7957747E-01  0.3479997E+00
         13   -1    0    0    0    0  0.00000000000E+00  0.00000000000E+00  0.14999999963E+04  0.15000000000E+04  0.10566000000E+00 0.  1.
        994   -1    0    0    0    0 -0.00000000000E+00 -0.00000000000E+00  0.11368683772E-12  0.17120000000E+03  0.17120000000E+03 0.  0.
         13    1    1    2    0    0  0.20803108583E+02  0.47082711981E+02  0.14318520331E+03  0.15215638240E+03  0.10566000000E+00 0.  1.
        994    1    1    2    0    0 -0.48090142076E+02 -0.58820347015E+02  0.27441938119E+02  0.18930133374E+03  0.17120000000E+03 0.  0.
        998    1    1    2    0    0  0.27287033493E+02  0.11737635034E+02  0.13293728549E+04  0.13297422839E+04  0.10000000000E+02 0.  1.
</event>
<event>
 5    1  0.1658612E-008  0.3746906E+03  0.7957747E-01  0.3474607E+00
         13   -1    0    0    0    0  0.00000000000E+00  0.00000000000E+00  0.14999999963E+04  0.15000000000E+04  0.10566000000E+00 0. -1.
        994   -1    0    0    0    0 -0.00000000000E+00 -0.00000000000E+00  0.11368683772E-12  0.17120000000E+03  0.17120000000E+03 0.  0.
         13    1    1    2    0    0 -0.13747472903E+02  0.43030330338E+02  0.17458995462E+03  0.18033930730E+03  0.10566000000E+00 0. -1.
        994    1    1    2    0    0 -0.81725185893E+01  0.16237279916E+01  0.70739537388E+01  0.17154855690E+03  0.17120000000E+03 0.  0.
        998    1    1    2    0    0  0.21919991493E+02 -0.44654058329E+02  0.13183360879E+04  0.13193121358E+04  0.10000000000E+02 0. -1.
</event>
<event>
 5    1  0.1658612E-008  0.3946468E+03  0.7957747E-01  0.3389762E+00
         13   -1    0    0    0    0  0.00000000000E+00  0.00000000000E+00  0.14999999963E+04  0.15000000000E+04  0.10566000000E+00 0. -1.
        994   -1    0    0    0    0 -0.00000000000E+00 -0.00000000000E+00  0.11368683772E-12  0.17120000000E+03  0.17120000000E+03 0.  0.
         13    1    1    2    0    0 -0.37508088228E+02  0.17665924035E+02  0.24528405087E+02  0.48172558316E+02  0.10566000000E+00 0. -1.
        994    1    1    2    0    0  0.43965513526E+02 -0.14013779102E+02  0.32819587885E+02  0.18032170622E+03  0.17120000000E+03 0.  0.
        998    1    1    2    0    0 -0.64574252975E+01 -0.36521449328E+01  0.14426520033E+04  0.14427057355E+04  0.10000000000E+02 0. -1.
</event>
<event>
 5    1  0.1658612E-008  0.3986073E+03  0.7957747E-01  0.3373936E+00
         13   -1    0    0    0    0  0.00000000000E+00  0.00000000000E+00  0.14999999963E+04  0.15000000000E+04  0.10566000000E+00 0. -1.
        994   -1    0    0    0    0 -0.00000000000E+00 -0.00000000000E+00  0.11368683772E-12  0.17120000000E+03  0.17120000000E+03 0.  0.
         13    1    1    2    0    0  0.19386375267E+01  0.94250296346E+02  0.16629616093E+03  0.19115779079E+03  0.10566000000E+00 0. -1.
        994    1    1    2    0    0  0.40306368446E+01 -0.47519835427E+02  0.35853836342E+02  0.18129897510E+03  0.17120000000E+03 0.  0.
        998    1    1    2    0    0 -0.59692743713E+01 -0.46730460919E+02  0.12978499990E+04  0.12987432341E+04  0.10000000000E+02 0. -1.
</event>
<event>
 5    1  0.1658612E-008  0.3836100E+03  0.7957747E-01  0.3435589E+00
         13   -1    0    0    0    0  0.00000000000E+00  0.00000000000E+00  0.14999999963E+04  0.15000000000E+04  0.10566000000E+00 0.  1.
        994   -1    0    0    0    0 -0.00000000000E+00 -0.00000000000E+00  0.11368683772E-12  0.17120000000E+03  0.17120000000E+03 0.  0.
         13    1    1    2    0    0  0.97107218217E+01  0.12566014245E+02  0.53052698122E+02  0.55378721313E+02  0.10566000000E+00 0.  1.
        994    1    1    2    0    0 -0.97534878389E+01 -0.89224174590E+01  0.28992971661E+01  0.17173405598E+03  0.17120000000E+03 0.  0.
        998    1    1    2    0    0  0.42766017240E-01 -0.36435967855E+01  0.14440480010E+04  0.14440872227E+04  0.10000000000E+02 0.  1.
</event>
<event>
 5    1  0.1658612E-008  0.3830144E+03  0.7957747E-01  0.3438137E+00
         13   -1    0    0    0    0  0.00000000000E+00  0.00000000000E+00  0.14999999963E+04  0.15000000000E+04  0.10566000000E+00 0. -1.
        994   -1    0    0    0    0 -0.00000000000E+00 -0.00000000000E+00  0.11368683772E-12  0.17120000000E+03  0.17120000000E+03 0.  0.
         13    1    1    2    0    0 -0.94178065598E+01 -0.74286289892E+01  0.26927386933E+02  0.29478380894E+02  0.10566000000E+00 0. -1.
        994    1    1    2    0    0  0.40631599004E+01  0.17399222096E+01  0.26838246463E+01  0.17127807657E+03  0.17120000000E+03 0.  0.
        998    1    1    2    0    0  0.53546466594E+01  0.56887067796E+01  0.14703887847E+04  0.14704435425E+04  0.10000000000E+02 0. -1.
</event>
<event>
 5    1  0.1658612E-008  0.3857618E+03  0.7957747E-01  0.3426448E+00
         13   -1    0    0    0    0  0.00000000000E+00  0.00000000000E+00  0.14999999963E+04  0.15000000000E+04  0.10566000000E+00 0. -1.
        994   -1    0    0    0    0 -0.00000000000E+00 -0.00000000000E+00  0.11368683772E-12  0.17120000000E+03  0.17120000000E+03 0.  0.
         13    1    1    2    0    0 -0.40402225707E+01  0.12481572606E+02  0.68027756955E+02  0.69281310131E+02  0.10566000000E+00 0. -1.
        994    1    1    2    0    0  0.10515302214E+02 -0.84325114162E+01  0.18486349198E+01  0.17173973413E+03  0.17120000000E+03 0.  0.
        998    1    1    2    0    0 -0.64750796429E+01 -0.40490611894E+01  0.14301236044E+04  0.14301789557E+04  0.10000000000E+02 0. -1.
</event>
<event>
 5    1  0.1658612E-008  0.3910627E+03  0.7957747E-01  0.3404359E+00
         13   -1    0    0    0    0  0.00000000000E+00  0.00000000000E+00  0.14999999963E+04  0.15000000000E+04  0.10566000000E+00 0.  1.
        994   -1    0    0    0    0 -0.00000000000E+00 -0.00000000000E+00  0.11368683772E-12  0.17120000000E+03  0.17120000000E+03 0.  0.
         13    1    1    2    0    0  0.15995837972E+02  0.42078290221E+02  0.35924410423E+02  0.57593608748E+02  0.10566000000E+00 0.  1.
        994    1    1    2    0    0 -0.16208747558E+02 -0.37438061846E+02  0.28854988007E+02  0.17834343920E+03  0.17120000000E+03 0.  0.
        998    1    1    2    0    0  0.21290958669E+00 -0.46402283752E+01  0.14352205978E+04  0.14352629521E+04  0.10000000000E+02 0.  1.
</event>
<event>
 5    1  0.1658612E-008  0.3703557E+03  0.7957747E-01  0.3494258E+00
         13   -1    0    0    0    0  0.00000000000E+00  0.00000000000E+00  0.14999999963E+04  0.15000000000E+04  0.10566000000E+00 0. -1.
        994   -1    0    0    0    0 -0.00000000000E+00 -0.00000000000E+00  0.11368683772E-12  0.17120000000E+03  0.17120000000E+03 0.  0.
         13    1    1    2    0    0  0.71192247988E+02 -0.12022369400E+02  0.25438268482E+03  0.26443039735E+03  0.10566000000E+00 0. -1.
        994    1    1    2    0    0 -0.18916153521E+02  0.48922718774E+02  0.20820213980E+02  0.18026140626E+03  0.17120000000E+03 0.  0.
        998    1    1    2    0    0 -0.52276094467E+02 -0.36900349374E+02  0.12247970975E+04  0.12265081964E+04  0.10000000000E+02 0. -1.
</event>
<event>
 5    1  0.1658612E-008  0.3800689E+03  0.7957747E-01  0.3450859E+00
         13   -1    0    0    0    0  0.00000000000E+00  0.00000000000E+00  0.14999999963E+04  0.15000000000E+04  0.10566000000E+00 0. -1.
        994   -1    0    0    0    0 -0.00000000000E+00 -0.00000000000E+00  0.11368683772E-12  0.17120000000E+03  0.17120000000E+03 0.  0.
         13    1    1    2    0    0 -0.23385294898E+02 -0.18015643629E+02  0.10594857492E+03  0.10998430399E+03  0.10566000000E+00 0. -1.
        994    1    1    2    0    0  0.36201075253E+01  0.21871900638E+02  0.57427189835E+01  0.17272493751E+03  0.17120000000E+03 0.  0.
        998    1    1    2    0    0  0.19765187372E+02 -0.38562570087E+01  0.13883087024E+04  0.13884907585E+04  0.10000000000E+02 0. -1.
</event>
<event>
 5    1  0.1658612E-008  0.3779651E+03  0.7957747E-01  0.3460067E+00
         13   -1    0    0    0    0  0.00000000000E+00  0.00000000000E+00  0.14999999963E+04  0.15000000000E+04  0.10566000000E+00 0. -1.
        994   -1    0    0    0    0 -0.00000000000E+00 -0.00000000000E+00  0.11368683772E-12  0.17120000000E+03  0.17120000000E+03 0.  0.
         13    1    1    2    0    0 -0.48470954373E+02 -0.25775320823E+02  0.28935037814E+03  0.29451222908E+03  0.10566000000E+00 0. -1.
        994    1    1    2    0    0  0.28277124986E+02  0.14033975113E+02  0.85251304641E+01  0.17429476786E+03  0.17120000000E+03 0.  0.
        998    1    1    2    0    0  0.20193829387E+02  0.11741345710E+02  0.12021244877E+04  0.12023930031E+04  0.10000000000E+02 0. -1.
</event>
<event>
 5    1  0.1658612E-008  0.3755437E+03  0.7957747E-01  0.3470795E+00
         13   -1    0    0    0    0  0.00000000000E+00  0.00000000000E+00  0.14999999963E+04  0.15000000000E+04  0.10566000000E+00 0. -1.
        994   -1    0    0    0    0 -0.00000000000E+00 -0.00000000000E+00  0.11368683772E-12  0.17120000000E+03  0.17120000000E+03 0.  0.
         13    1    1    2    0    0 -0.98062071074E+00  0.19406018471E+02  0.26321477885E+02  0.32716762248E+02  0.10566000000E+00 0. -1.
        994    1    1    2    0    0  0.34598205285E+01 -0.20595552408E+02  0.78810301716E+01  0.17264905958E+03  0.17120000000E+03 0.  0.
        998    1    1    2    0    0 -0.24791998178E+01  0.11895339367E+01  0.14657974882E+04  0.14658341782E+04  0.10000000000E+02 0. -1.
</event>
<event>
 5    1  0.1658612E-008  0.2836991E+03  0.7957747E-01  0.4019735E+00
         13   -1    0    0    0    0  0.00000000000E+00  0.00000000000E+00  0.14999999963E+04  0.15000000000E+04  0.10566000000E+00 0.  1.
        994   -1    0    0    0    0 -0.00000000000E+00 -0.00000000000E+00  0.11368683772E-12  0.17120000000E+03  0.17120000000E+03 0.  0.
         13    1    1    2    0    0 -0.18518485730E+03 -0.43499278240E+02  0.51654956530E+03  0.55046260832E+03  0.10566000000E+00 0.  1.
        994    1    1    2    0    0  0.16894728137E+03  0.77683496007E+02  0.16610162795E+03  0.30245181474E+03  0.17120000000E+03 0.  0.
        998    1    1    2    0    0  0.16237575927E+02 -0.34184217767E+02  0.81734880303E+03  0.81828557694E+03  0.10000000000E+02 0.  1.
</event>
<event>
 5    1  0.1658612E-008  0.2832607E+03  0.7957747E-01  0.4023280E+00
         13   -1    0    0    0    0  0.00000000000E+00  0.00000000000E+00  0.14999999963E+04  0.15000000000E+04  0.10566000000E+00 0.  1.
        994   -1    0    0    0    0 -0.00000000000E+00 -0.00000000000E+00  0.11368683772E-12  0.17120000000E+03  0.17120000000E+03 0.  0.
         13    1    1    2    0    0 -0.42517405098E+02 -0.18133646016E+03  0.47225533348E+03  0.50765712118E+03  0.10566000000E+00 0.  1.
        994    1    1    2    0    0 -0.79445342446E-02  0.21619219288E+03  0.21709296651E+03  0.35096703611E+03  0.17120000000E+03 0.  0.
        998    1    1    2    0    0  0.42525349633E+02 -0.34855732717E+02  0.81065169629E+03  0.81257584271E+03  0.10000000000E+02 0.  1.
</event>
<event>
 5    1  0.1658612E-008  0.3762834E+03  0.7957747E-01  0.3467503E+00
         13   -1    0    0    0    0  0.00000000000E+00  0.00000000000E+00  0.14999999963E+04  0.15000000000E+04  0.10566000000E+00 0.  1.
        994   -1    0    0    0    0 -0.00000000000E+00 -0.00000000000E+00  0.11368683772E-12  0.17120000000E+03  0.17120000000E+03 0.  0.
         13    1    1    2    0    0 -0.67249775374E+02 -0.48066652109E+02  0.32448957666E+03  0.33485285105E+03  0.10566000000E+00 0.  1.
        994    1    1    2    0    0  0.94316062012E+02  0.72952600513E+02  0.55767556150E+02  0.21595615711E+03  0.17120000000E+03 0.  0.
        998    1    1    2    0    0 -0.27066286638E+02 -0.24885948404E+02  0.11197428635E+04  0.11203909918E+04  0.10000000000E+02 0.  1.
</event>
<event>
 5    1  0.1658612E-008  0.3754052E+03  0.7957747E-01  0.3471412E+00
         13   -1    0    0    0    0  0.00000000000E+00  0.00000000000E+00  0.14999999963E+04  0.15000000000E+04  0.10566000000E+00 0.  1.
        994   -1    0    0    0    0 -0.00000000000E+00 -0.00000000000E+00  0.11368683772E-12  0.17120000000E+03  0.17120000000E+03 0.  0.
         13    1    1    2    0    0 -0.44023575020E+02  0.56694198076E+02  0.34467194544E+03  0.35206685217E+03  0.10566000000E+00 0.  1.
        994    1    1    2    0    0  0.21702566900E+02 -0.57128232588E+02  0.19255541107E+02  0.18279729821E+03  0.17120000000E+03 0.  0.
        998    1    1    2    0    0  0.22321008120E+02  0.43403451229E+00  0.11360725097E+04  0.11363358496E+04  0.10000000000E+02 0.  1.
</event>
<event>
 5    1  0.1658612E-008  0.3846136E+03  0.7957747E-01  0.3431312E+00
         13   -1    0    0    0    0  0.00000000000E+00  0.00000000000E+00  0.14999999963E+04  0.15000000000E+04  0.10566000000E+00 0.  1.
        994   -1    0    0    0    0 -0.00000000000E+00 -0.00000000000E+00  0.11368683772E-12  0.17120000000E+03  0.17120000000E+03 0.  0.
         13    1    1    2    0    0  0.18404003349E+02  0.45559526763E+01  0.98159858657E+02  0.99974161961E+02  0.10566000000E+00 0.  1.
        994    1    1    2    0    0 -0.11399742029E+02 -0.59715471296E+01  0.23675975025E+01  0.17169932735E+03  0.17120000000E+03 0.  0.
        998    1    1    2    0    0 -0.70042613200E+01  0.14155944533E+01  0.13994725401E+04  0.13995265107E+04  0.10000000000E+02 0.  1.
</event>
<event>
 5    1  0.1658612E-008  0.3704006E+03  0.7957747E-01  0.3494052E+00
         13   -1    0    0    0    0  0.00000000000E+00  0.00000000000E+00  0.14999999963E+04  0.15000000000E+04  0.10566000000E+00 0.  1.
        994   -1    0    0    0    0 -0.00000000000E+00 -0.00000000000E+00  0.11368683772E-12  0.17120000000E+03  0.17120000000E+03 0.  0.
         13    1    1    2    0    0  0.89547850353E+02 -0.36094785335E+02  0.44104445700E+03  0.45148851065E+03  0.10566000000E+00 0.  1.
        994    1    1    2    0    0 -0.70424329779E+02  0.21854352038E+02  0.28075138476E+02  0.18850690260E+03  0.17120000000E+03 0.  0.
        998    1    1    2    0    0 -0.19123520574E+02  0.14240433297E+02  0.10308804008E+04  0.10312045867E+04  0.10000000000E+02 0.  1.
</event>
<event>
 5    1  0.1658612E-008  0.3837627E+03  0.7957747E-01  0.3434937E+00
         13   -1    0    0    0    0  0.00000000000E+00  0.00000000000E+00  0.14999999963E+04  0.15000000000E+04  0.10566000000E+00 0. -1.
        994   -1    0    0    0    0 -0.00000000000E+00 -0.00000000000E+00  0.11368683772E-12  0.17120000000E+03  0.17120000000E+03 0.  0.
         13    1    1    2    0    0  0.63710394411E+01  0.12512418468E+02  0.42907647711E+02  0.45146740254E+02  0.10566000000E+00 0. -1.
        994    1    1    2    0    0 -0.67467714339E+00 -0.12574695192E+02  0.27694768526E+01  0.17168485126E+03  0.17120000000E+03 0.  0.
        998    1    1    2    0    0 -0.56963622977E+01  0.62276724232E-01  0.14543228717E+04  0.14543684085E+04  0.10000000000E+02 0. -1.
</event>
<event>
 5    1  0.1658612E-008  0.3778161E+03  0.7957747E-01  0.3460723E+00
         13   -1    0    0    0    0  0.00000000000E+00  0.00000000000E+00  0.14999999963E+04  0.15000000000E+04  0.10566000000E+00 0. -1.
        994   -1    0    0    0    0 -0.00000000000E+00 -0.00000000000E+00  0.11368683772E-12  0.17120000000E+03  0.17120000000E+03 0.  0.
         13    1    1    2    0    0  0.16570691354E+00  0.18192180917E+02  0.29674393266E+02  0.34807523397E+02  0.10566000000E+00 0. -1.
        994    1    1    2    0    0  0.24633598721E+00 -0.96973606421E+01  0.55565591382E+01  0.17156460834E+03  0.17120000000E+03 0.  0.
        998    1    1    2    0    0 -0.41204290075E+00 -0.84948202753E+01  0.14647690439E+04  0.14648278683E+04  0.10000000000E+02 0. -1.
</event>
<event>
 5    1  0.1658612E-008  0.3852510E+03  0.7957747E-01  0.3428609E+00
         13   -1    0    0    0    0  0.00000000000E+00  0.00000000000E+00  0.14999999963E+04  0.15000000000E+04  0.10566000000E+00 0. -1.
        994   -1    0    0    0    0 -0.00000000000E+00 -0.00000000000E+00  0.11368683772E-12  0.17120000000E+03  0.17120000000E+03 0.  0.
         13    1    1    2    0    0  0.75800527360E+01  0.73702497761E+01  0.37273972319E+02  0.38744521647E+02  0.10566000000E+00 0. -1.
        994    1    1    2    0    0 -0.15328719926E+02  0.67219152031E+01  0.24267108661E+01  0.17203337677E+03  0.17120000000E+03 0.  0.
        998    1    1    2    0    0  0.77486671903E+01 -0.14092164979E+02  0.14602993131E+04  0.14604221016E+04  0.10000000000E+02 0. -1.
</event>
<event>
 5    1  0.1658612E-008  0.3811683E+03  0.7957747E-01  0.3446087E+00
         13   -1    0    0    0    0  0.00000000000E+00  0.00000000000E+00  0.14999999963E+04  0.15000000000E+04  0.10566000000E+00 0.  1.
        994   -1    0    0    0    0 -0.00000000000E+00 -0.00000000000E+00  0.11368683772E-12  0.17120000000E+03  0.17120000000E+03 0.  0.
         13    1    1    2    0    0  0.24337484969E+02  0.20699746295E+02  0.12518809145E+03  0.12920085942E+03  0.10566000000E+00 0.  1.
        994    1    1    2    0    0 -0.24322434557E+02 -0.34577139810E+02  0.95189168322E+01  0.17659900679E+03  0.17120000000E+03 0.  0.
        998    1    1    2    0    0 -0.15050411377E-01  0.13877393514E+02  0.13652929880E+04  0.13654001338E+04  0.10000000000E+02 0.  1.
</event>
<event>
 5    1  0.1658612E-008  0.3769767E+03  0.7957747E-01  0.3464429E+00
         13   -1    0    0    0    0  0.00000000000E+00  0.00000000000E+00  0.14999999963E+04  0.15000000000E+04  0.10566000000E+00 0. -1.
        994   -1    0    0    0    0 -0.00000000000E+00 -0.00000000000E+00  0.11368683772E-12  0.17120000000E+03  0.17120000000E+03 0.  0.
         13    1    1    2    0    0  0.36478161135E+02  0.51892498491E+02  0.12039621056E+03  0.13608360049E+03  0.10566000000E+00 0. -1.
        994    1    1    2    0    0 -0.36325359471E+02 -0.56720341942E+02  0.31119863987E+02  0.18658674890E+03  0.17120000000E+03 0.  0.
        998    1    1    2    0    0 -0.15280166424E+00  0.48278434513E+01  0.13484839217E+04  0.13485296506E+04  0.10000000000E+02 0. -1.
</event>
<event>
 5    1  0.1658612E-008  0.3750653E+03  0.7957747E-01  0.3472931E+00
         13   -1    0    0    0    0  0.00000000000E+00  0.00000000000E+00  0.14999999963E+04  0.15000000000E+04  0.10566000000E+00 0.  1.
        994   -1    0    0    0    0 -0.00000000000E+00 -0.00000000000E+00  0.11368683772E-12  0.17120000000E+03  0.17120000000E+03 0.  0.
         13    1    1    2    0    0  0.26016743751E+01 -0.48968943476E+02  0.15711669250E+03  0.16459159262E+03  0.10566000000E+00 0.  1.
        994    1    1    2    0    0 -0.47677783684E+01  0.53350411177E+02  0.16458549280E+02  0.18013695325E+03  0.17120000000E+03 0.  0.
        998    1    1    2    0    0  0.21661039932E+01 -0.43814677010E+01  0.13264247545E+04  0.13264714541E+04  0.10000000000E+02 0.  1.
</event>
<event>
 5    1  0.1658612E-008  0.3832292E+03  0.7957747E-01  0.3437217E+00
         13   -1    0    0    0    0  0.00000000000E+00  0.00000000000E+00  0.14999999963E+04  0.15000000000E+04  0.10566000000E+00 0.  1.
        994   -1    0    0    0    0 -0.00000000000E+00 -0.00000000000E+00  0.11368683772E-12  0.17120000000E+03  0.17120000000E+03 0.  0.
         13    1    1    2    0    0 -0.23518164353E+02 -0.43513541157E+01  0.14202569534E+03  0.14402551037E+03  0.10566000000E+00 0.  1.
        994    1    1    2    0    0 -0.12784649012E+02 -0.55815319420E+01  0.31557758041E+01  0.17179639015E+03  0.17120000000E+03 0.  0.
        998    1    1    2    0    0  0.36302813365E+02  0.99328860577E+01  0.13548185251E+04  0.13553780995E+04  0.10000000000E+02 0.  1.
</event>
<event>
 5    1  0.1658612E-008  0.3853080E+03  0.7957747E-01  0.3428367E+00
         13   -1    0    0    0    0  0.00000000000E+00  0.00000000000E+00  0.14999999963E+04  0.15000000000E+04  0.10566000000E+00 0.  1.
        994   -1    0    0    0    0 -0.00000000000E+00 -0.00000000000E+00  0.11368683772E-12  0.17120000000E+03  0.17120000000E+03 0.  0.
         13    1    1    2    0    0 -0.65414104920E+01 -0.10354449811E+02  0.53448612178E+02  0.54834022194E+02  0.10566000000E+00 0.  1.
        994    1    1    2    0    0 -0.32927280674E+01  0.22366009955E+01  0.15293679939E+01  0.17125309752E+03  0.17120000000E+03 0.  0.
        998    1    1    2    0    0  0.98341385594E+01  0.81178488155E+01  0.14450220161E+04  0.14451128803E+04  0.10000000000E+02 0.  1.
</event>
<event>
 5    1  0.1658612E-008  0.3847585E+03  0.7957747E-01  0.3430697E+00
         13   -1    0    0    0    0  0.00000000000E+00  0.00000000000E+00  0.14999999963E+04  0.15000000000E+04  0.10566000000E+00 0. -1.
        994   -1    0    0    0    0 -0.00000000000E+00 -0.00000000000E+00  0.11368683772E-12  0.17120000000E+03  0.17120000000E+03 0.  0.
         13    1    1    2    0    0  0.63791740021E+01 -0.18639326197E+02  0.11588979239E+03  0.11755242867E+03  0.10566000000E+00 0. -1.
        994    1    1    2    0    0 -0.30904062988E+01  0.63053582813E+01  0.19123654559E+01  0.17135461854E+03  0.17120000000E+03 0.  0.
        998    1    1    2    0    0 -0.32887677033E+01  0.12333967916E+02  0.13821978384E+04  0.13822929528E+04  0.10000000000E+02 0. -1.
</event>
<event>
 5    1  0.1658612E-008  0.3726356E+03  0.7957747E-01  0.3483865E+00
         13   -1    0    0    0    0  0.00000000000E+00  0.00000000000E+00  0.14999999963E+04  0.15000000000E+04  0.10566000000E+00 0. -1.
        994   -1    0    0    0    0 -0.00000000000E+00 -0.00000000000E+00  0.11368683772E-12  0.17120000000E+03  0.17120000000E+03 0.  0.
         13    1    1    2    0    0  0.97283015977E+02  0.18943783768E+03  0.95341922108E+03  0.97691294485E+03  0.10566000000E+00 0. -1.
        994    1    1    2    0    0 -0.77107309324E+02 -0.18948069772E+03  0.16845564030E+03  0.31549202003E+03  0.17120000000E+03 0.  0.
        998    1    1    2    0    0 -0.20175706653E+02  0.42860034421E-01  0.37812513491E+03  0.37879503511E+03  0.10000000000E+02 0. -1.
</event>
<event>
 5    1  0.1658612E-008  0.2973351E+03  0.7957747E-01  0.3915229E+00
         13   -1    0    0    0    0  0.00000000000E+00  0.00000000000E+00  0.14999999963E+04  0.15000000000E+04  0.10566000000E+00 0. -1.
        994   -1    0    0    0    0 -0.00000000000E+00 -0.00000000000E+00  0.11368683772E-12  0.17120000000E+03  0.17120000000E+03 0.  0.
         13    1    1    2    0    0 -0.14594112611E+03 -0.13712088776E+03  0.57451912434E+03  0.60841859402E+03  0.10566000000E+00 0. -1.
        994    1    1    2    0    0  0.13963930829E+03  0.15324442140E+03  0.19527571778E+03  0.33230262573E+03  0.17120000000E+03 0.  0.
        998    1    1    2    0    0  0.63018178203E+01 -0.16123533631E+02  0.73020515415E+03  0.73047878025E+03  0.10000000000E+02 0.  0.
</event>
<event>
 5    1  0.1658612E-008  0.3804846E+03  0.7957747E-01  0.3449051E+00
         13   -1    0    0    0    0  0.00000000000E+00  0.00000000000E+00  0.14999999963E+04  0.15000000000E+04  0.10566000000E+00 0. -1.
        994   -1    0    0    0    0 -0.00000000000E+00 -0.00000000000E+00  0.11368683772E-12  0.17120000000E+03  0.17120000000E+03 0.  0.
         13    1    1    2    0    0  0.16587907305E+02 -0.50042705591E+01  0.36356144293E+02  0.40273834986E+02  0.10566000000E+00 0. -1.
        994    1    1    2    0    0 -0.18450513868E+02  0.20599804886E+00  0.50258519213E+01  0.17226480512E+03  0.17120000000E+03 0.  0.
        998    1    1    2    0    0  0.18626065633E+01  0.47982725103E+01  0.14586180001E+04  0.14586613599E+04  0.10000000000E+02 0. -1.
</event>
<event>
 5    1  0.1658612E-008  0.3693369E+03  0.7957747E-01  0.3498944E+00
         13   -1    0    0    0    0  0.00000000000E+00  0.00000000000E+00  0.14999999963E+04  0.15000000000E+04  0.10566000000E+00 0. -1.
        994   -1    0    0    0    0 -0.00000000000E+00 -0.00000000000E+00  0.11368683772E-12  0.17120000000E+03  0.17120000000E+03 0.  0.
         13    1    1    2    0    0 -0.18065398869E+02 -0.35672777718E+02  0.76492448248E+02  0.86313449180E+02  0.10566000000E+00 0. -1.
        994    1    1    2    0    0  0.20171281492E+02  0.32272388583E+02  0.14652267576E+02  0.17599010372E+03  0.17120000000E+03 0.  0.
        998    1    1    2    0    0 -0.21058826233E+01  0.34003891349E+01  0.14088552805E+04  0.14088964471E+04  0.10000000000E+02 0. -1.
</event>
<event>
 5    1  0.1658612E-008  0.3855925E+03  0.7957747E-01  0.3427163E+00
         13   -1    0    0    0    0  0.00000000000E+00  0.00000000000E+00  0.14999999963E+04  0.15000000000E+04  0.10566000000E+00 0.  1.
        994   -1    0    0    0    0 -0.00000000000E+00 -0.00000000000E+00  0.11368683772E-12  0.17120000000E+03  0.17120000000E+03 0.  0.
         13    1    1    2    0    0 -0.61503019463E+01  0.89379954894E+01  0.44939087685E+02  0.46230366031E+02  0.10566000000E+00 0.  1.
        994    1    1    2    0    0  0.44041371919E+01 -0.27113654580E+01  0.14240761125E+01  0.17128402120E+03  0.17120000000E+03 0.  0.
        998    1    1    2    0    0  0.17461647545E+01 -0.62266300314E+01  0.14536368325E+04  0.14536856128E+04  0.10000000000E+02 0.  1.
</event>
<event>
 5    1  0.1658612E-008  0.3841042E+03  0.7957747E-01  0.3433480E+00
         13   -1    0    0    0    0  0.00000000000E+00  0.00000000000E+00  0.14999999963E+04  0.15000000000E+04  0.10566000000E+00 0.  1.
        994   -1    0    0    0    0 -0.00000000000E+00 -0.00000000000E+00  0.11368683772E-12  0.17120000000E+03  0.17120000000E+03 0.  0.
         13    1    1    2    0    0 -0.74734091622E+01 -0.79279980066E+01  0.28052034129E+02  0.30093733230E+02  0.10566000000E+00 0.  1.
        994    1    1    2    0    0  0.85074847349E+01  0.18609169377E+01  0.23257336567E+01  0.17143712942E+03  0.17120000000E+03 0.  0.
        998    1    1    2    0    0 -0.10340755727E+01  0.60670810689E+01  0.14696222285E+04  0.14696691373E+04  0.10000000000E+02 0.  1.
</event>
<event>
 5    1  0.1658612E-008  0.3859923E+03  0.7957747E-01  0.3425475E+00
         13   -1    0    0    0    0  0.00000000000E+00  0.00000000000E+00  0.14999999963E+04  0.15000000000E+04  0.10566000000E+00 0. -1.
        994   -1    0    0    0    0 -0.00000000000E+00 -0.00000000000E+00  0.11368683772E-12  0.17120000000E+03  0.17120000000E+03 0.  0.
         13    1    1    2    0    0 -0.85942377470E+01  0.10105325929E+02  0.73394183033E+02  0.74583482097E+02  0.10566000000E+00 0. -1.
        994    1    1    2    0    0  0.14062207589E+02 -0.10052791825E+02  0.21183931535E+01  0.17208350268E+03  0.17120000000E+03 0.  0.
        998    1    1    2    0    0 -0.54679698417E+01 -0.52534104184E-01  0.14244874201E+04  0.14245330152E+04  0.10000000000E+02 0. -1.
</event>
<event>
 5    1  0.1658612E-008  0.3760364E+03  0.7957747E-01  0.3468601E+00
         13   -1    0    0    0    0  0.00000000000E+00  0.00000000000E+00  0.14999999963E+04  0.15000000000E+04  0.10566000000E+00 0.  1.
        994   -1    0    0    0    0 -0.00000000000E+00 -0.00000000000E+00  0.11368683772E-12  0.17120000000E+03  0.17120000000E+03 0.  0.
         13    1    1    2    0    0 -0.13381326230E+01  0.36699463740E+02  0.10189056513E+03  0.10830669261E+03  0.10566000000E+00 0.  1.
        994    1    1    2    0    0  0.13160099890E+02 -0.34210364994E+02  0.10712073810E+02  0.17540731406E+03  0.17120000000E+03 0.  0.
        998    1    1    2    0    0 -0.11821967267E+02 -0.24890987459E+01  0.13873973573E+04  0.13874859933E+04  0.10000000000E+02 0.  1.
</event>
<event>
 5    1  0.1658612E-008  0.2495869E+03  0.7957747E-01  0.4337978E+00
         13   -1    0    0    0    0  0.00000000000E+00  0.00000000000E+00  0.14999999963E+04  0.15000000000E+04  0.10566000000E+00 0. -1.
        994   -1    0    0    0    0 -0.00000000000E+00 -0.00000000000E+00  0.11368683772E-12  0.17120000000E+03  0.17120000000E+03 0.  0.
         13    1    1    2    0    0 -0.22210306196E+02  0.16773798243E+03  0.37205684503E+03  0.40872440048E+03  0.10566000000E+00 0. -1.
        994    1    1    2    0    0  0.30138598501E+02 -0.11687723770E+03  0.98110393866E+02  0.23130869676E+03  0.17120000000E+03 0.  0.
        998    1    1    2    0    0 -0.79282923052E+01 -0.50860744727E+02  0.10298327574E+04  0.10311669028E+04  0.10000000000E+02 0. -1.
</event>
<event>
 5    1  0.1658612E-008  0.3717273E+03  0.7957747E-01  0.3487990E+00
         13   -1    0    0    0    0  0.00000000000E+00  0.00000000000E+00  0.14999999963E+04  0.15000000000E+04  0.10566000000E+00 0. -1.
        994   -1    0    0    0    0 -0.00000000000E+00 -0.00000000000E+00  0.11368683772E-12  0.17120000000E+03  0.17120000000E+03 0.  0.
         13    1    1    2    0    0  0.29303134215E+02 -0.92701658284E+02  0.40334556646E+03  0.41489749128E+03  0.10566000000E+00 0. -1.
        994    1    1    2    0    0 -0.34511348598E+02  0.91555236303E+02  0.42029577828E+02  0.20161676490E+03  0.17120000000E+03 0.  0.
        998    1    1    2    0    0  0.52082143835E+01  0.11464219806E+01  0.10546248520E+04  0.10546857438E+04  0.10000000000E+02 0.  0.
</event>
<event>
 5    1  0.1658612E-008  0.3779534E+03  0.7957747E-01  0.3460119E+00
         13   -1    0    0    0    0  0.00000000000E+00  0.00000000000E+00  0.14999999963E+04  0.15000000000E+04  0.10566000000E+00 0. -1.
        994   -1    0    0    0    0 -0.00000000000E+00 -0.00000000000E+00  0.11368683772E-12  0.17120000000E+03  0.17120000000E+03 0.  0.
         13    1    1    2    0    0  0.10485684049E+02  0.22416605474E+02  0.62873638303E+02  0.67568922800E+02  0.10566000000E+00 0. -1.
        994    1    1    2    0    0  0.32625553197E+02 -0.61876583582E+01  0.88902026190E+01  0.17461726587E+03  0.17120000000E+03 0.  0.
        998    1    1    2    0    0 -0.43111237246E+02 -0.16228947116E+02  0.14282361554E+04  0.14290138113E+04  0.10000000000E+02 0. -1.
</event>
<event>
 5    1  0.1658612E-008  0.3778330E+03  0.7957747E-01  0.3460649E+00
         13   -1    0    0    0    0  0.00000000000E+00  0.00000000000E+00  0.14999999963E+04  0.15000000000E+04  0.10566000000E+00 0. -1.
        994   -1    0    0    0    0 -0.00000000000E+00 -0.00000000000E+00  0.11368683772E-12  0.17120000000E+03  0.17120000000E+03 0.  0.
         13    1    1    2    0    0 -0.37351795993E+02 -0.28537115036E+02  0.21508155672E+03  0.22015814953E+03  0.10566000000E+00 0. -1.
        994    1    1    2    0    0  0.31247524704E+02 -0.17543825221E+01  0.85360855548E+01  0.17424634979E+03  0.17120000000E+03 0.  0.
        998    1    1    2    0    0  0.61042712887E+01  0.30291497558E+02  0.12763823540E+04  0.12767955007E+04  0.10000000000E+02 0. -1.
</event>
<event>
 5    1  0.1658612E-008  0.3698330E+03  0.7957747E-01  0.3496659E+00
         13   -1    0    0    0    0  0.00000000000E+00  0.00000000000E+00  0.14999999963E+04  0.15000000000E+04  0.10566000000E+00 0. -1.
        994   -1    0    0    0    0 -0.00000000000E+00 -0.00000000000E+00  0.11368683772E-12  0.17120000000E+03  0.17120000000E+03 0.  0.
         13    1    1    2    0    0 -0.69862264868E+02 -0.16902528054E+02  0.22581351427E+03  0.23697718434E+03  0.10566000000E+00 0. -1.
        994    1    1    2    0    0  0.51975273256E+02 -0.25870218135E+01  0.20373178466E+02  0.18009061084E+03  0.17120000000E+03 0.  0.
        998    1    1    2    0    0  0.17886991612E+02  0.19489549867E+02  0.12538133035E+04  0.12541322048E+04  0.10000000000E+02 0. -1.
</event>
<event>
 5    1  0.1658612E-008  0.3847095E+03  0.7957747E-01  0.3430905E+00
         13   -1    0    0    0    0  0.00000000000E+00  0.00000000000E+00  0.14999999963E+04  0.15000000000E+04  0.10566000000E+00 0.  1.
        994   -1    0    0    0    0 -0.00000000000E+00 -0.00000000000E+00  0.11368683772E-12  0.17120000000E+03  0.17120000000E+03 0.  0.
         13    1    1    2    0    0 -0.17941078404E+02  0.10795111584E+02  0.12614148048E+03  0.12786751343E+03  0.10566000000E+00 0.  1.
        994    1    1    2    0    0  0.22045272195E+02  0.14288497298E+02  0.40495601812E+01  0.17325124565E+03  0.17120000000E+03 0.  0.
        998    1    1    2    0    0 -0.41041937913E+01 -0.25083608883E+02  0.13698089556E+04  0.13700812409E+04  0.10000000000E+02 0.  1.
</event>
<event>
 5    1  0.1658612E-008  0.3739525E+03  0.7957747E-01  0.3477921E+00
         13   -1    0    0    0    0  0.00000000000E+00  0.00000000000E+00  0.14999999963E+04  0.15000000000E+04  0.10566000000E+00 0.  1.
        994   -1    0    0    0    0 -0.00000000000E+00 -0.00000000000E+00  0.11368683772E-12  0.17120000000E+03  0.17120000000E+03 0.  0.
         13    1    1    2    0    0 -0.50840542978E+02  0.20934167596E+02  0.15589800259E+03  0.16530940251E+03  0.10566000000E+00 0.  1.
        994    1    1    2    0    0  0.78478335903E+02 -0.43761896358E+02  0.35280763754E+02  0.19654039043E+03  0.17120000000E+03 0.  0.
        998    1    1    2    0    0 -0.27637792925E+02  0.22827728762E+02  0.13088212299E+04  0.13093502071E+04  0.10000000000E+02 0.  1.
</event>
<event>
 5    1  0.1658612E-008  0.3824798E+03  0.7957747E-01  0.3440431E+00
         13   -1    0    0    0    0  0.00000000000E+00  0.00000000000E+00  0.14999999963E+04  0.15000000000E+04  0.10566000000E+00 0.  1.
        994   -1    0    0    0    0 -0.00000000000E+00 -0.00000000000E+00  0.11368683772E-12  0.17120000000E+03  0.17120000000E+03 0.  0.
         13    1    1    2    0    0 -0.16664398089E+02  0.21276118399E+02  0.14094221735E+03  0.14350991316E+03  0.10566000000E+00 0.  1.
        994    1    1    2    0    0  0.40187095157E+01  0.23685137424E+01  0.29587154076E+01  0.17128909446E+03  0.17120000000E+03 0.  0.
        998    1    1    2    0    0  0.12645688573E+02 -0.23644632142E+02  0.13560990635E+04  0.13564009924E+04  0.10000000000E+02 0.  1.
</event>
<event>
 5    1  0.1658612E-008  0.3832980E+03  0.7957747E-01  0.3436923E+00
         13   -1    0    0    0    0  0.00000000000E+00  0.00000000000E+00  0.14999999963E+04  0.15000000000E+04  0.10566000000E+00 0. -1.
        994   -1    0    0    0    0 -0.00000000000E+00 -0.00000000000E+00  0.11368683772E-12  0.17120000000E+03  0.17120000000E+03 0.  0.
         13    1    1    2    0    0 -0.15696745561E+02  0.15448999248E+02  0.95962062869E+02  0.98457036686E+02  0.10566000000E+00 0. -1.
        994    1    1    2    0    0  0.70433233654E+01 -0.15459273027E+02  0.34324388343E+01  0.17207503934E+03  0.17120000000E+03 0.  0.
        998    1    1    2    0    0  0.86534221956E+01  0.10273778906E-01  0.14006054946E+04  0.14006679240E+04  0.10000000000E+02 0. -1.
</event>
<event>
 5    1  0.1658612E-008  0.3851592E+03  0.7957747E-01  0.3428997E+00
         13   -1    0    0    0    0  0.00000000000E+00  0.00000000000E+00  0.14999999963E+04  0.15000000000E+04  0.10566000000E+00 0.  1.
        994   -1    0    0    0    0 -0.00000000000E+00 -0.00000000000E+00  0.11368683772E-12  0.17120000000E+03  0.17120000000E+03 0.  0.
         13    1    1    2    0    0 -0.75807658389E+01  0.78707926251E+01  0.37684285042E+02  0.39236894505E+02  0.10566000000E+00 0.  1.
        994    1    1    2    0    0  0.83372488206E+01 -0.76222926197E+01  0.19706631912E+01  0.17158360229E+03  0.17120000000E+03 0.  0.
        998    1    1    2    0    0 -0.75648298161E+00 -0.24850000542E+00  0.14603450480E+04  0.14603795032E+04  0.10000000000E+02 0.  1.
</event>
<event>
 5    1  0.1658612E-008  0.3834921E+03  0.7957747E-01  0.3436092E+00
         13   -1    0    0    0    0  0.00000000000E+00  0.00000000000E+00  0.14999999963E+04  0.15000000000E+04  0.10566000000E+00 0. -1.
        994   -1    0    0    0    0 -0.00000000000E+00 -0.00000000000E+00  0.11368683772E-12  0.17120000000E+03  0.17120000000E+03 0.  0.
         13    1    1    2    0    0  0.21524107554E+01  0.15577211358E+02  0.50506447213E+02  0.52897965555E+02  0.10566000000E+00 0. -1.
        994    1    1    2    0    0 -0.42252440077E+01 -0.13237560798E+02  0.30189805349E+01  0.17178952222E+03  0.17120000000E+03 0.  0.
        998    1    1    2    0    0  0.20728332523E+01 -0.23396505602E+01  0.14464745685E+04  0.14465125122E+04  0.10000000000E+02 0. -1.
</event>
<event>
 5    1  0.1658612E-008  0.3785378E+03  0.7957747E-01  0.3457550E+00
         13   -1    0    0    0    0  0.00000000000E+00  0.00000000000E+00  0.14999999963E+04  0.15000000000E+04  0.10566000000E+00 0.  1.
        994   -1    0    0    0    0 -0.00000000000E+00 -0.00000000000E+00  0.11368683772E-12  0.17120000000E+03  0.17120000000E+03 0.  0.
         13    1    1    2    0    0  0.22943226813E+02  0.81026589554E+01  0.56837801235E+02  0.61827110170E+02  0.10566000000E+00 0.  1.
        994    1    1    2    0    0 -0.28270444091E+02  0.39518975065E+01  0.76150655831E+01  0.17373043696E+03  0.17120000000E+03 0.  0.
        998    1    1    2    0    0  0.53272172783E+01 -0.12054556462E+02  0.14355471295E+04  0.14356424529E+04  0.10000000000E+02 0.  1.
</event>
<event>
 5    1  0.1658612E-008  0.3828039E+03  0.7957747E-01  0.3439040E+00
         13   -1    0    0    0    0  0.00000000000E+00  0.00000000000E+00  0.14999999963E+04  0.15000000000E+04  0.10566000000E+00 0.  1.
        994   -1    0    0    0    0 -0.00000000000E+00 -0.00000000000E+00  0.11368683772E-12  0.17120000000E+03  0.17120000000E+03 0.  0.
         13    1    1    2    0    0 -0.40859695605E+01 -0.12858265652E+02  0.32124581993E+02  0.34842934364E+02  0.10566000000E+00 0.  1.
        994    1    1    2    0    0  0.49674254984E+01  0.11200950978E+02  0.32218482075E+01  0.17166815932E+03  0.17120000000E+03 0.  0.
        998    1    1    2    0    0 -0.88145593789E+00  0.16573146739E+01  0.14646535661E+04  0.14646889063E+04  0.10000000000E+02 0.  1.
</event>
<event>
 5    1  0.1658612E-008  0.3842194E+03  0.7957747E-01  0.3432990E+00
         13   -1    0    0    0    0  0.00000000000E+00  0.00000000000E+00  0.14999999963E+04  0.15000000000E+04  0.10566000000E+00 0.  1.
        994   -1    0    0    0    0 -0.00000000000E+00 -0.00000000000E+00  0.11368683772E-12  0.17120000000E+03  0.17120000000E+03 0.  0.
         13    1    1    2    0    0 -0.11315241948E+03 -0.20910278657E+02  0.56312199144E+03  0.57475829545E+03  0.10566000000E+00 0.  1.
        994    1    1    2    0    0  0.69371678297E+01  0.20346721650E+02  0.20367079541E+02  0.17374225539E+03  0.17120000000E+03 0.  0.
        998    1    1    2    0    0  0.10621525165E+03  0.56355700708E+00  0.91651092530E+03  0.92269944915E+03  0.10000000000E+02 0.  1.
</event>
<event>
 5    1  0.1658612E-008  0.3854384E+03  0.7957747E-01  0.3427815E+00
         13   -1    0    0    0    0  0.00000000000E+00  0.00000000000E+00  0.14999999963E+04  0.15000000000E+04  0.10566000000E+00 0.  1.
        994   -1    0    0    0    0 -0.00000000000E+00 -0.00000000000E+00  0.11368683772E-12  0.17120000000E+03  0.17120000000E+03 0.  0.
         13    1    1    2    0    0 -0.95838363398E+01  0.45257713412E+01  0.39829014697E+02  0.41215216862E+02  0.10566000000E+00 0.  1.
        994    1    1    2    0    0  0.69899199039E+01 -0.21167314338E+01  0.15878407969E+01  0.17136306711E+03  0.17120000000E+03 0.  0.
        998    1    1    2    0    0  0.25939164359E+01 -0.24090399074E+01  0.14585831408E+04  0.14586217160E+04  0.10000000000E+02 0.  1.
</event>
<event>
 5    1  0.1658612E-008  0.3694807E+03  0.7957747E-01  0.3498281E+00
         13   -1    0    0    0    0  0.00000000000E+00  0.00000000000E+00  0.14999999963E+04  0.15000000000E+04  0.10566000000E+00 0.  1.
        994   -1    0    0    0    0 -0.00000000000E+00 -0.00000000000E+00  0.11368683772E-12  0.17120000000E+03  0.17120000000E+03 0.  0.
         13    1    1    2    0    0 -0.10338429692E+03 -0.10313487078E+02  0.40476862109E+03  0.41789033088E+03  0.10566000000E+00 0.  1.
        994    1    1    2    0    0  0.91207995327E+02 -0.73548039239E+01  0.40483435029E+02  0.19829609190E+03  0.17120000000E+03 0.  0.
        998    1    1    2    0    0  0.12176301591E+02  0.17668291002E+02  0.10547479402E+04  0.10550135772E+04  0.10000000000E+02 0.  1.
</event>
<event>
 5    1  0.1658612E-008  0.3823138E+03  0.7957747E-01  0.3441145E+00
         13   -1    0    0    0    0  0.00000000000E+00  0.00000000000E+00  0.14999999963E+04  0.15000000000E+04  0.10566000000E+00 0.  1.
        994   -1    0    0    0    0 -0.00000000000E+00 -0.00000000000E+00  0.11368683772E-12  0.17120000000E+03  0.17120000000E+03 0.  0.
         13    1    1    2    0    0  0.52075209225E+01 -0.14463328291E+02  0.39898795166E+02  0.42757819860E+02  0.10566000000E+00 0.  1.
        994    1    1    2    0    0 -0.27404906590E+01  0.20890449478E+01  0.30090790379E+01  0.17126111338E+03  0.17120000000E+03 0.  0.
        998    1    1    2    0    0 -0.24670302636E+01  0.12374283344E+02  0.14570921221E+04  0.14571810668E+04  0.10000000000E+02 0.  1.
</event>
<event>
 5    1  0.1658612E-008  0.3795702E+03  0.7957747E-01  0.3453032E+00
         13   -1    0    0    0    0  0.00000000000E+00  0.00000000000E+00  0.14999999963E+04  0.15000000000E+04  0.10566000000E+00 0.  1.
        994   -1    0    0    0    0 -0.00000000000E+00 -0.00000000000E+00  0.11368683772E-12  0.17120000000E+03  0.17120000000E+03 0.  0.
         13    1    1    2    0    0 -0.83008901529E+01 -0.44672626176E+02  0.55893329842E+02  0.72032102508E+02  0.10566000000E+00 0.  1.
        994    1    1    2    0    0  0.16726902735E+00  0.48161432100E+02  0.24530832303E+02  0.17952925459E+03  0.17120000000E+03 0.  0.
        998    1    1    2    0    0  0.81336211256E+01 -0.34888059244E+01  0.14195758341E+04  0.14196386429E+04  0.10000000000E+02 0.  1.
</event>
<event>
 5    1  0.1658612E-008  0.3820230E+03  0.7957747E-01  0.3442397E+00
         13   -1    0    0    0    0  0.00000000000E+00  0.00000000000E+00  0.14999999963E+04  0.15000000000E+04  0.10566000000E+00 0. -1.
        994   -1    0    0    0    0 -0.00000000000E+00 -0.00000000000E+00  0.11368683772E-12  0.17120000000E+03  0.17120000000E+03 0.  0.
         13    1    1    2    0    0 -0.13108730463E+02 -0.48664990313E+01  0.30373296184E+02  0.33437552427E+02  0.10566000000E+00 0. -1.
        994    1    1    2    0    0  0.67106877443E+01  0.54203022356E+01  0.33625831160E+01  0.17145016760E+03  0.17120000000E+03 0.  0.
        998    1    1    2    0    0  0.63980427188E+01 -0.55380320433E+00  0.14662641170E+04  0.14663122800E+04  0.10000000000E+02 0. -1.
</event>
<event>
 5    1  0.1658612E-008  0.3851858E+03  0.7957747E-01  0.3428885E+00
         13   -1    0    0    0    0  0.00000000000E+00  0.00000000000E+00  0.14999999963E+04  0.15000000000E+04  0.10566000000E+00 0.  1.
        994   -1    0    0    0    0 -0.00000000000E+00 -0.00000000000E+00  0.11368683772E-12  0.17120000000E+03  0.17120000000E+03 0.  0.
         13    1    1    2    0    0  0.11079512676E+02 -0.11788919918E+02  0.93746605661E+02  0.95132389180E+02  0.10566000000E+00 0.  1.
        994    1    1    2    0    0  0.47958820642E+01  0.26105697826E+01  0.16359379641E+01  0.17129486814E+03  0.17120000000E+03 0.  0.
        998    1    1    2    0    0 -0.15875394740E+02  0.91783501355E+01  0.14046174527E+04  0.14047727427E+04  0.10000000000E+02 0.  1.
</event>
<event>
 5    1  0.1658612E-008  0.3728365E+03  0.7957747E-01  0.3482955E+00
         13   -1    0    0    0    0  0.00000000000E+00  0.00000000000E+00  0.14999999963E+04  0.15000000000E+04  0.10566000000E+00 0.  1.
        994   -1    0    0    0    0 -0.00000000000E+00 -0.00000000000E+00  0.11368683772E-12  0.17120000000E+03  0.17120000000E+03 0.  0.
         13    1    1    2    0    0 -0.45715419480E+01  0.11812501260E+02  0.67311004387E+01  0.14344094916E+02  0.10566000000E+00 0.  1.
        994    1    1    2    0    0 -0.37536179737E+01 -0.11749654927E+02  0.83150576899E+01  0.17184505877E+03  0.17120000000E+03 0.  0.
        998    1    1    2    0    0  0.83251599217E+01 -0.62846333309E-01  0.14849538382E+04  0.14850108463E+04  0.10000000000E+02 0.  1.
</event>
<event>
 5    1  0.1658612E-008  0.3817589E+03  0.7957747E-01  0.3443535E+00
         13   -1    0    0    0    0  0.00000000000E+00  0.00000000000E+00  0.14999999963E+04  0.15000000000E+04  0.10566000000E+00 0.  1.
        994   -1    0    0    0    0 -0.00000000000E+00 -0.00000000000E+00  0.11368683772E-12  0.17120000000E+03  0.17120000000E+03 0.  0.
         13    1    1    2    0    0 -0.11388366547E+02  0.14130592817E+02  0.50913200045E+02  0.54051213204E+02  0.10566000000E+00 0.  1.
        994    1    1    2    0    0  0.35586659259E+01 -0.42511825204E+01  0.33500496017E+01  0.17132250141E+03  0.17120000000E+03 0.  0.
        998    1    1    2    0    0  0.78297006214E+01 -0.98794102969E+01  0.14457367466E+04  0.14458262854E+04  0.10000000000E+02 0.  1.
</event>
<event>
 5    1  0.1658612E-008  0.3821653E+03  0.7957747E-01  0.3441784E+00
         13   -1    0    0    0    0  0.00000000000E+00  0.00000000000E+00  0.14999999963E+04  0.15000000000E+04  0.10566000000E+00 0. -1.
        994   -1    0    0    0    0 -0.00000000000E+00 -0.00000000000E+00  0.11368683772E-12  0.17120000000E+03  0.17120000000E+03 0.  0.
         13    1    1    2    0    0  0.17257048355E+02  0.79604361672E+01  0.59515501048E+02  0.62476237811E+02  0.10566000000E+00 0. -1.
        994    1    1    2    0    0  0.78991167090E+01 -0.38104063108E+02  0.80866932376E+01  0.17575309465E+03  0.17120000000E+03 0.  0.
        998    1    1    2    0    0 -0.25156165064E+02  0.30143626941E+02  0.14323978020E+04  0.14329706675E+04  0.10000000000E+02 0. -1.
</event>
<event>
 5    1  0.1658612E-008  0.3728863E+03  0.7957747E-01  0.3482730E+00
         13   -1    0    0    0    0  0.00000000000E+00  0.00000000000E+00  0.14999999963E+04  0.15000000000E+04  0.10566000000E+00 0. -1.
        994   -1    0    0    0    0 -0.00000000000E+00 -0.00000000000E+00  0.11368683772E-12  0.17120000000E+03  0.17120000000E+03 0.  0.
         13    1    1    2    0    0 -0.50124292985E+02 -0.27632640650E+02  0.15428240229E+03  0.16455721922E+03  0.10566000000E+00 0. -1.
        994    1    1    2    0    0 -0.19897947721E+02  0.13434800444E+02  0.14511533971E+02  0.17348327529E+03  0.17120000000E+03 0.  0.
        998    1    1    2    0    0  0.70022240706E+02  0.14197840207E+02  0.13312060600E+04  0.13331595055E+04  0.10000000000E+02 0. -1.
</event>
<event>
 5    1  0.1658612E-008  0.3828547E+03  0.7957747E-01  0.3438822E+00
         13   -1    0    0    0    0  0.00000000000E+00  0.00000000000E+00  0.14999999963E+04  0.15000000000E+04  0.10566000000E+00 0. -1.
        994   -1    0    0    0    0 -0.00000000000E+00 -0.00000000000E+00  0.11368683772E-12  0.17120000000E+03  0.17120000000E+03 0.  0.
         13    1    1    2    0    0 -0.12457345673E+01  0.17859339002E+02  0.56234580226E+02  0.59015650649E+02  0.10566000000E+00 0. -1.
        994    1    1    2    0    0  0.43837907710E+01 -0.20060030141E+02  0.40965314412E+01  0.17247563306E+03  0.17120000000E+03 0.  0.
        998    1    1    2    0    0 -0.31380562038E+01  0.22006911390E+01  0.14396688846E+04  0.14397087163E+04  0.10000000000E+02 0. -1.
</event>
<event>
 5    1  0.1658612E-008  0.3859492E+03  0.7957747E-01  0.3425656E+00
         13   -1    0    0    0    0  0.00000000000E+00  0.00000000000E+00  0.14999999963E+04  0.15000000000E+04  0.10566000000E+00 0. -1.
        994   -1    0    0    0    0 -0.00000000000E+00 -0.00000000000E+00  0.11368683772E-12  0.17120000000E+03  0.17120000000E+03 0.  0.
         13    1    1    2    0    0  0.91856222142E+01  0.59877627958E+01  0.53308431979E+02  0.54424526115E+02  0.10566000000E+00 0. -1.
        994    1    1    2    0    0 -0.25368435162E+01 -0.50225103559E+01  0.12633980195E+01  0.17129710260E+03  0.17120000000E+03 0.  0.
        998    1    1    2    0    0 -0.66487786980E+01 -0.96525243993E+00  0.14454281663E+04  0.14454783713E+04  0.10000000000E+02 0. -1.
</event>
<event>
 5    1  0.1658612E-008  0.3848862E+03  0.7957747E-01  0.3430155E+00
         13   -1    0    0    0    0  0.00000000000E+00  0.00000000000E+00  0.14999999963E+04  0.15000000000E+04  0.10566000000E+00 0. -1.
        994   -1    0    0    0    0 -0.00000000000E+00 -0.00000000000E+00  0.11368683772E-12  0.17120000000E+03  0.17120000000E+03 0.  0.
         13    1    1    2    0    0 -0.66395624776E+01  0.16044430077E+02  0.10120623291E+03  0.10268505378E+03  0.10566000000E+00 0. -1.
        994    1    1    2    0    0  0.14402506797E+01  0.54005291180E+01  0.17894254695E+01  0.17130056065E+03  0.17120000000E+03 0.  0.
        998    1    1    2    0    0  0.51993117979E+01 -0.21444959195E+02  0.13970043379E+04  0.13972143856E+04  0.10000000000E+02 0. -1.
</event>
<event>
 5    1  0.1658612E-008  0.3821325E+03  0.7957747E-01  0.3441925E+00
         13   -1    0    0    0    0  0.00000000000E+00  0.00000000000E+00  0.14999999963E+04  0.15000000000E+04  0.10566000000E+00 0. -1.
        994   -1    0    0    0    0 -0.00000000000E+00 -0.00000000000E+00  0.11368683772E-12  0.17120000000E+03  0.17120000000E+03 0.  0.
         13    1    1    2    0    0  0.58891293937E+01  0.24454295819E+02  0.97400782338E+02  0.10059631203E+03  0.10566000000E+00 0. -1.
        994    1    1    2    0    0 -0.14390904311E+02 -0.21450725188E+02  0.52785710191E+01  0.17321817182E+03  0.17120000000E+03 0.  0.
        998    1    1    2    0    0  0.85017749177E+01 -0.30035706307E+01  0.13973206429E+04  0.13973855162E+04  0.10000000000E+02 0. -1.
</event>
<event>
 5    1  0.1658612E-008  0.3864880E+03  0.7957747E-01  0.3423386E+00
         13   -1    0    0    0    0  0.00000000000E+00  0.00000000000E+00  0.14999999963E+04  0.15000000000E+04  0.10566000000E+00 0. -1.
        994   -1    0    0    0    0 -0.00000000000E+00 -0.00000000000E+00  0.11368683772E-12  0.17120000000E+03  0.17120000000E+03 0.  0.
         13    1    1    2    0    0 -0.65842395581E+01  0.83855840587E+01  0.61557828506E+02  0.62474375907E+02  0.10566000000E+00 0. -1.
        994    1    1    2    0    0  0.11336004954E+02 -0.86863541382E+01  0.15609589172E+01  0.17180172976E+03  0.17120000000E+03 0.  0.
        998    1    1    2    0    0 -0.47517653959E+01  0.30077007950E+00  0.14368812089E+04  0.14369238943E+04  0.10000000000E+02 0. -1.
</event>
<event>
 5    1  0.1658612E-008  0.3848607E+03  0.7957747E-01  0.3430263E+00
         13   -1    0    0    0    0  0.00000000000E+00  0.00000000000E+00  0.14999999963E+04  0.15000000000E+04  0.10566000000E+00 0.  1.
        994   -1    0    0    0    0 -0.00000000000E+00 -0.00000000000E+00  0.11368683772E-12  0.17120000000E+03  0.17120000000E+03 0.  0.
         13    1    1    2    0    0  0.10174833540E+02  0.45235568992E+01  0.34504235712E+02  0.36256630438E+02  0.10566000000E+00 0.  1.
        994    1    1    2    0    0 -0.19254605133E+02 -0.18898932983E+01  0.29318058688E+01  0.17231467436E+03  0.17120000000E+03 0.  0.
        998    1    1    2    0    0  0.90797715927E+01 -0.26336636009E+01  0.14625639547E+04  0.14626286952E+04  0.10000000000E+02 0.  1.
</event>
<event>
 5    1  0.1658612E-008  0.3724709E+03  0.7957747E-01  0.3484612E+00
         13   -1    0    0    0    0  0.00000000000E+00  0.00000000000E+00  0.14999999963E+04  0.15000000000E+04  0.10566000000E+00 0. -1.
        994   -1    0    0    0    0 -0.00000000000E+00 -0.00000000000E+00  0.11368683772E-12  0.17120000000E+03  0.17120000000E+03 0.  0.
         13    1    1    2    0    0 -0.46645063132E+00 -0.13836620905E+02  0.83851575722E+01  0.16186157228E+02  0.10566000000E+00 0. -1.
        994    1    1    2    0    0 -0.10741243537E+01  0.10799496814E+02  0.83871744179E+01  0.17174855915E+03  0.17120000000E+03 0.  0.
        998    1    1    2    0    0  0.15405749850E+01  0.30371240910E+01  0.14832276643E+04  0.14832652836E+04  0.10000000000E+02 0. -1.
</event>
<event>
 5    1  0.1658612E-008  0.3859200E+03  0.7957747E-01  0.3425780E+00
         13   -1    0    0    0    0  0.00000000000E+00  0.00000000000E+00  0.14999999963E+04  0.15000000000E+04  0.10566000000E+00 0.  1.
        994   -1    0    0    0    0 -0.00000000000E+00 -0.00000000000E+00  0.11368683772E-12  0.17120000000E+03  0.17120000000E+03 0.  0.
         13    1    1    2    0    0  0.62661378374E+01  0.88017566702E+01  0.52693174189E+02  0.53789563802E+02  0.10566000000E+00 0.  1.
        994    1    1    2    0    0 -0.24849123293E+01  0.15443904222E+01  0.12021316105E+01  0.17122921787E+03  0.17120000000E+03 0.  0.
        998    1    1    2    0    0 -0.37812255081E+01 -0.10346147092E+02  0.14461046905E+04  0.14461812183E+04  0.10000000000E+02 0.  1.
</event>
<event>
 5    1  0.1658612E-008  0.4097032E+03  0.7957747E-01  0.3331215E+00
         13   -1    0    0    0    0  0.00000000000E+00  0.00000000000E+00  0.14999999963E+04  0.15000000000E+04  0.10566000000E+00 0.  1.
        994   -1    0    0    0    0 -0.00000000000E+00 -0.00000000000E+00  0.11368683772E-12  0.17120000000E+03  0.17120000000E+03 0.  0.
         13    1    1    2    0    0 -0.35575284454E+02  0.98832486062E+02  0.16243959983E+03  0.19344274585E+03  0.10566000000E+00 0.  1.
        994    1    1    2    0    0  0.29613240546E+02 -0.51601568313E+02  0.48285384386E+02  0.18756488001E+03  0.17120000000E+03 0.  0.
        998    1    1    2    0    0  0.59620439082E+01 -0.47230917749E+02  0.12892750121E+04  0.12901923741E+04  0.10000000000E+02 0.  1.
</event>
<event>
 5    1  0.1658612E-008  0.3825244E+03  0.7957747E-01  0.3440240E+00
         13   -1    0    0    0    0  0.00000000000E+00  0.00000000000E+00  0.14999999963E+04  0.15000000000E+04  0.10566000000E+00 0.  1.
        994   -1    0    0    0    0 -0.00000000000E+00 -0.00000000000E+00  0.11368683772E-12  0.17120000000E+03  0.17120000000E+03 0.  0.
         13    1    1    2    0    0  0.11275918621E+02  0.23695368306E+02  0.13539362658E+03  0.13791324121E+03  0.10566000000E+00 0.  1.
        994    1    1    2    0    0 -0.50581288788E+01  0.41266975842E+01  0.30055099566E+01  0.17135077295E+03  0.17120000000E+03 0.  0.
        998    1    1    2    0    0 -0.62177897424E+01 -0.27822065891E+02  0.13616008597E+04  0.13619359858E+04  0.10000000000E+02 0.  1.
</event>
<event>
 5    1  0.1658612E-008  0.3835313E+03  0.7957747E-01  0.3435925E+00
         13   -1    0    0    0    0  0.00000000000E+00  0.00000000000E+00  0.14999999963E+04  0.15000000000E+04  0.10566000000E+00 0.  1.
        994   -1    0    0    0    0 -0.00000000000E+00 -0.00000000000E+00  0.11368683772E-12  0.17120000000E+03  0.17120000000E+03 0.  0.
         13    1    1    2    0    0  0.42591082793E+02 -0.79112516452E+02  0.27335812280E+03  0.28774548660E+03  0.10566000000E+00 0.  1.
        994    1    1    2    0    0 -0.11793747244E+02  0.74128941193E+00  0.18793666070E+02  0.17263337994E+03  0.17120000000E+03 0.  0.
        998    1    1    2    0    0 -0.30797335549E+02  0.78371227040E+02  0.12078482074E+04  0.12108211335E+04  0.10000000000E+02 0.  1.
</event>
<event>
 5    1  0.1658612E-008  0.3857204E+03  0.7957747E-01  0.3426623E+00
         13   -1    0    0    0    0  0.00000000000E+00  0.00000000000E+00  0.14999999963E+04  0.15000000000E+04  0.10566000000E+00 0.  1.
        994   -1    0    0    0    0 -0.00000000000E+00 -0.00000000000E+00  0.11368683772E-12  0.17120000000E+03  0.17120000000E+03 0.  0.
         13    1    1    2    0    0 -0.46439882794E+01 -0.11305151611E+02  0.63010170570E+02  0.64184623076E+02  0.10566000000E+00 0.  1.
        994    1    1    2    0    0 -0.28010870348E+01  0.29232625200E+00  0.12989039747E+01  0.17122808968E+03  0.17120000000E+03 0.  0.
        998    1    1    2    0    0  0.74450753142E+01  0.11012825359E+02  0.14356909217E+04  0.14357872872E+04  0.10000000000E+02 0.  1.
</event>
<event>
 5    1  0.1658612E-008  0.3838084E+03  0.7957747E-01  0.3434742E+00
         13   -1    0    0    0    0  0.00000000000E+00  0.00000000000E+00  0.14999999963E+04  0.15000000000E+04  0.10566000000E+00 0. -1.
        994   -1    0    0    0    0 -0.00000000000E+00 -0.00000000000E+00  0.11368683772E-12  0.17120000000E+03  0.17120000000E+03 0.  0.
         13    1    1    2    0    0  0.24121814917E+01 -0.14406957108E+02  0.50062958926E+02  0.52150647676E+02  0.10566000000E+00 0. -1.
        994    1    1    2    0    0 -0.39261473921E+01 -0.19044119149E+01  0.22857597457E+01  0.17127085600E+03  0.17120000000E+03 0.  0.
        998    1    1    2    0    0  0.15139659004E+01  0.16311369023E+02  0.14476512776E+04  0.14477784963E+04  0.10000000000E+02 0. -1.
</event>
<event>
 5    1  0.1658612E-008  0.2739776E+03  0.7957747E-01  0.4101306E+00
         13   -1    0    0    0    0  0.00000000000E+00  0.00000000000E+00  0.14999999963E+04  0.15000000000E+04  0.10566000000E+00 0.  1.
        994   -1    0    0    0    0 -0.00000000000E+00 -0.00000000000E+00  0.11368683772E-12  0.17120000000E+03  0.17120000000E+03 0.  0.
         13    1    1    2    0    0  0.51441758831E+02 -0.24900892866E+03  0.79800929007E+03  0.83753838080E+03  0.10566000000E+00 0.  1.
        994    1    1    2    0    0 -0.56754462460E+02  0.53488077544E+02  0.12895171395E+03  0.22807899504E+03  0.17120000000E+03 0.  0.
        998    1    1    2    0    0  0.53127036292E+01  0.19552085111E+03  0.57303899226E+03  0.60558262416E+03  0.10000000000E+02 0. -1.
</event>
<event>
 5    1  0.1658612E-008  0.4052861E+03  0.7957747E-01  0.3347944E+00
         13   -1    0    0    0    0  0.00000000000E+00  0.00000000000E+00  0.14999999963E+04  0.15000000000E+04  0.10566000000E+00 0.  1.
        994   -1    0    0    0    0 -0.00000000000E+00 -0.00000000000E+00  0.11368683772E-12  0.17120000000E+03  0.17120000000E+03 0.  0.
         13    1    1    2    0    0  0.39589453015E+02  0.41425971500E+02  0.41453911486E+02  0.70723926971E+02  0.10566000000E+00 0.  1.
        994    1    1    2    0    0 -0.24118073742E+02 -0.48373375264E+02  0.42758857701E+02  0.18455195699E+03  0.17120000000E+03 0.  0.
        998    1    1    2    0    0 -0.15471379273E+02  0.69474037644E+01  0.14157872271E+04  0.14159241160E+04  0.10000000000E+02 0.  1.
</event>
<event>
 5    1  0.1658612E-008  0.3736608E+03  0.7957747E-01  0.3479234E+00
         13   -1    0    0    0    0  0.00000000000E+00  0.00000000000E+00  0.14999999963E+04  0.15000000000E+04  0.10566000000E+00 0.  1.
        994   -1    0    0    0    0 -0.00000000000E+00 -0.00000000000E+00  0.11368683772E-12  0.17120000000E+03  0.17120000000E+03 0.  0.
         13    1    1    2    0    0  0.24578575488E+02  0.24484563464E+02  0.79975977140E+02  0.87176649997E+02  0.10566000000E+00 0.  1.
        994    1    1    2    0    0  0.92658365791E+01 -0.35736997478E+02  0.12036406486E+02  0.17554857959E+03  0.17120000000E+03 0.  0.
        998    1    1    2    0    0 -0.33844412067E+02  0.11252434014E+02  0.14079876127E+04  0.14084747704E+04  0.10000000000E+02 0.  1.
</event>
<event>
 5    1  0.1658612E-008  0.3750718E+03  0.7957747E-01  0.3472902E+00
         13   -1    0    0    0    0  0.00000000000E+00  0.00000000000E+00  0.14999999963E+04  0.15000000000E+04  0.10566000000E+00 0. -1.
        994   -1    0    0    0    0 -0.00000000000E+00 -0.00000000000E+00  0.11368683772E-12  0.17120000000E+03  0.17120000000E+03 0.  0.
         13    1    1    2    0    0 -0.96187717348E+00  0.21518355929E+02  0.32078856896E+02  0.38639734386E+02  0.10566000000E+00 0. -1.
        994    1    1    2    0    0  0.19424401406E+01 -0.16153577516E+02  0.75419614394E+01  0.17213666757E+03  0.17120000000E+03 0.  0.
        998    1    1    2    0    0 -0.98056296714E+00 -0.53647784134E+01  0.14603791779E+04  0.14604235980E+04  0.10000000000E+02 0. -1.
</event>
<event>
 5    1  0.1658612E-008  0.3797148E+03  0.7957747E-01  0.3452401E+00
         13   -1    0    0    0    0  0.00000000000E+00  0.00000000000E+00  0.14999999963E+04  0.15000000000E+04  0.10566000000E+00 0.  1.
        994   -1    0    0    0    0 -0.00000000000E+00 -0.00000000000E+00  0.11368683772E-12  0.17120000000E+03  0.17120000000E+03 0.  0.
         13    1    1    2    0    0 -0.12003332245E+03  0.14903061552E+02  0.38603411707E+03  0.40453980082E+03  0.10566000000E+00 0.  1.
        994    1    1    2    0    0  0.93975982641E+02 -0.17136831722E+02  0.49996062901E+02  0.20232202703E+03  0.17120000000E+03 0.  0.
        998    1    1    2    0    0  0.26057339806E+02  0.22337701701E+01  0.10639698163E+04  0.10643381722E+04  0.10000000000E+02 0.  1.
</event>
<event>
 5    1  0.1658612E-008  0.3815661E+03  0.7957747E-01  0.3444367E+00
         13   -1    0    0    0    0  0.00000000000E+00  0.00000000000E+00  0.14999999963E+04  0.15000000000E+04  0.10566000000E+00 0. -1.
        994   -1    0    0    0    0 -0.00000000000E+00 -0.00000000000E+00  0.11368683772E-12  0.17120000000E+03  0.17120000000E+03 0.  0.
         13    1    1    2    0    0  0.67013318851E+01  0.13909974137E+02  0.35291667915E+02  0.38521529276E+02  0.10566000000E+00 0. -1.
        994    1    1    2    0    0  0.30659724591E+00 -0.36844777508E+01  0.33901229102E+01  0.17127347229E+03  0.17120000000E+03 0.  0.
        998    1    1    2    0    0 -0.70079291310E+01 -0.10225496386E+02  0.14613182055E+04  0.14614049984E+04  0.10000000000E+02 0. -1.
</event>
<event>
 5    1  0.1658612E-008  0.3836434E+03  0.7957747E-01  0.3435446E+00
         13   -1    0    0    0    0  0.00000000000E+00  0.00000000000E+00  0.14999999963E+04  0.15000000000E+04  0.10566000000E+00 0. -1.
        994   -1    0    0    0    0 -0.00000000000E+00 -0.00000000000E+00  0.11368683772E-12  0.17120000000E+03  0.17120000000E+03 0.  0.
         13    1    1    2    0    0 -0.28403699076E+02 -0.40126627253E+01  0.15592407214E+03  0.15854084338E+03  0.10566000000E+00 0. -1.
        994    1    1    2    0    0  0.32951158565E+02  0.34664262939E+01  0.59398095831E+01  0.17447783899E+03  0.17120000000E+03 0.  0.
        998    1    1    2    0    0 -0.45474594892E+01  0.54623643138E+00  0.13381361146E+04  0.13381813176E+04  0.10000000000E+02 0. -1.
</event>
<event>
 5    1  0.1658612E-008  0.3828787E+03  0.7957747E-01  0.3438719E+00
         13   -1    0    0    0    0  0.00000000000E+00  0.00000000000E+00  0.14999999963E+04  0.15000000000E+04  0.10566000000E+00 0. -1.
        994   -1    0    0    0    0 -0.00000000000E+00 -0.00000000000E+00  0.11368683772E-12  0.17120000000E+03  0.17120000000E+03 0.  0.
         13    1    1    2    0    0 -0.33511495464E+01  0.17463459073E+02  0.60920382669E+02  0.63462640937E+02  0.10566000000E+00 0. -1.
        994    1    1    2    0    0  0.38533428467E+01 -0.10176042858E+01  0.27395941931E+01  0.17126829580E+03  0.17120000000E+03 0.  0.
        998    1    1    2    0    0 -0.50219330031E+00 -0.16445854787E+02  0.14363400194E+04  0.14364690633E+04  0.10000000000E+02 0. -1.
</event>
<event>
 5    1  0.1658612E-008  0.3765495E+03  0.7957747E-01  0.3466322E+00
         13   -1    0    0    0    0  0.00000000000E+00  0.00000000000E+00  0.14999999963E+04  0.15000000000E+04  0.10566000000E+00 0. -1.
        994   -1    0    0    0    0 -0.00000000000E+00 -0.00000000000E+00  0.11368683772E-12  0.17120000000E+03  0.17120000000E+03 0.  0.
         13    1    1    2    0    0 -0.48395139245E+02  0.83323015624E+02  0.52050680935E+03  0.52935070056E+03  0.10566000000E+00 0. -1.
        994    1    1    2    0    0  0.57354365833E+02 -0.75644191228E+02  0.36993003175E+02  0.19922221069E+03  0.17120000000E+03 0.  0.
        998    1    1    2    0    0 -0.89592265880E+01 -0.76788243968E+01  0.94250018375E+03  0.94262708876E+03  0.10000000000E+02 0. -1.
</event>
<event>
 5    1  0.1658612E-008  0.3819654E+03  0.7957747E-01  0.3442645E+00
         13   -1    0    0    0    0  0.00000000000E+00  0.00000000000E+00  0.14999999963E+04  0.15000000000E+04  0.10566000000E+00 0.  1.
        994   -1    0    0    0    0 -0.00000000000E+00 -0.00000000000E+00  0.11368683772E-12  0.17120000000E+03  0.17120000000E+03 0.  0.
         13    1    1    2    0    0 -0.23723699220E+02  0.11974965575E+02  0.12022501257E+03  0.12312708279E+03  0.10566000000E+00 0.  1.
        994    1    1    2    0    0  0.83470259939E+01  0.70790970833E+01  0.35422324382E+01  0.17158605383E+03  0.17120000000E+03 0.  0.
        998    1    1    2    0    0  0.15376673226E+02 -0.19054062658E+02  0.13762327513E+04  0.13764868634E+04  0.10000000000E+02 0.  1.
</event>
<event>
 5    1  0.1658612E-008  0.3824528E+03  0.7957747E-01  0.3440548E+00
         13   -1    0    0    0    0  0.00000000000E+00  0.00000000000E+00  0.14999999963E+04  0.15000000000E+04  0.10566000000E+00 0. -1.
        994   -1    0    0    0    0 -0.00000000000E+00 -0.00000000000E+00  0.11368683772E-12  0.17120000000E+03  0.17120000000E+03 0.  0.
         13    1    1    2    0    0  0.95431905245E+01 -0.22992187841E+02  0.10918387143E+03  0.11198590149E+03  0.10566000000E+00 0. -1.
        994    1    1    2    0    0  0.90236742407E+01  0.15356870510E+02  0.39528346634E+01  0.17216946614E+03  0.17120000000E+03 0.  0.
        998    1    1    2    0    0 -0.18566864765E+02  0.76353173316E+01  0.13868632902E+04  0.13870446324E+04  0.10000000000E+02 0. -1.
</event>
<event>
 5    1  0.1658612E-008  0.3691113E+03  0.7957747E-01  0.3499985E+00
         13   -1    0    0    0    0  0.00000000000E+00  0.00000000000E+00  0.14999999963E+04  0.15000000000E+04  0.10566000000E+00 0.  1.
        994   -1    0    0    0    0 -0.00000000000E+00 -0.00000000000E+00  0.11368683772E-12  0.17120000000E+03  0.17120000000E+03 0.  0.
         13    1    1    2    0    0  0.13856208664E+03  0.12230710782E+02  0.60439630141E+03  0.62019669659E+03  0.10566000000E+00 0.  1.
        994    1    1    2    0    0 -0.13132740096E+03 -0.10271520135E+02  0.72574317831E+02  0.22787905120E+03  0.17120000000E+03 0.  0.
        998    1    1    2    0    0 -0.72346856815E+01 -0.19591906468E+01  0.82302937704E+03  0.82312425221E+03  0.10000000000E+02 0.  1.
</event>
<event>
 5    1  0.1658612E-008  0.3847216E+03  0.7957747E-01  0.3430854E+00
         13   -1    0    0    0    0  0.00000000000E+00  0.00000000000E+00  0.14999999963E+04  0.15000000000E+04  0.10566000000E+00 0. -1.
        994   -1    0    0    0    0 -0.00000000000E+00 -0.00000000000E+00  0.11368683772E-12  0.17120000000E+03  0.17120000000E+03 0.  0.
         13    1    1    2    0    0 -0.12330976451E+02  0.13268541264E+01  0.42983520080E+02  0.44737095174E+02  0.10566000000E+00 0. -1.
        994    1    1    2    0    0  0.10231699727E+02  0.48313772053E+01  0.21899748266E+01  0.17158748752E+03  0.17120000000E+03 0.  0.
        998    1    1    2    0    0  0.20992767234E+01 -0.61582313316E+01  0.14548265014E+04  0.14548754173E+04  0.10000000000E+02 0. -1.
</event>
<event>
 5    1  0.1658612E-008  0.3850371E+03  0.7957747E-01  0.3429515E+00
         13   -1    0    0    0    0  0.00000000000E+00  0.00000000000E+00  0.14999999963E+04  0.15000000000E+04  0.10566000000E+00 0. -1.
        994   -1    0    0    0    0 -0.00000000000E+00 -0.00000000000E+00  0.11368683772E-12  0.17120000000E+03  0.17120000000E+03 0.  0.
         13    1    1    2    0    0  0.19654664555E+01  0.12556546107E+02  0.49802178601E+02  0.51398424742E+02  0.10566000000E+00 0. -1.
        994    1    1    2    0    0  0.20107547992E+01 -0.99185360155E+01  0.19485610328E+01  0.17150993377E+03  0.17120000000E+03 0.  0.
        998    1    1    2    0    0 -0.39762212547E+01 -0.26380100914E+01  0.14482492566E+04  0.14482916415E+04  0.10000000000E+02 0. -1.
</event>
<event>
 5    1  0.1658612E-008  0.3769284E+03  0.7957747E-01  0.3464643E+00
         13   -1    0    0    0    0  0.00000000000E+00  0.00000000000E+00  0.14999999963E+04  0.15000000000E+04  0.10566000000E+00 0.  1.
        994   -1    0    0    0    0 -0.00000000000E+00 -0.00000000000E+00  0.11368683772E-12  0.17120000000E+03  0.17120000000E+03 0.  0.
         13    1    1    2    0    0 -0.66098985765E+02  0.58156169714E+02  0.50313194020E+03  0.51077683621E+03  0.10566000000E+00 0.  1.
        994    1    1    2    0    0  0.82211127681E+02 -0.28984828030E+02  0.31801319915E+02  0.19472943722E+03  0.17120000000E+03 0.  0.
        998    1    1    2    0    0 -0.16112141916E+02 -0.29171341684E+02  0.96506673617E+03  0.96569372657E+03  0.10000000000E+02 0.  1.
</event>
<event>
 5    1  0.1658612E-008  0.3753273E+03  0.7957747E-01  0.3471760E+00
         13   -1    0    0    0    0  0.00000000000E+00  0.00000000000E+00  0.14999999963E+04  0.15000000000E+04  0.10566000000E+00 0.  1.
        994   -1    0    0    0    0 -0.00000000000E+00 -0.00000000000E+00  0.11368683772E-12  0.17120000000E+03  0.17120000000E+03 0.  0.
         13    1    1    2    0    0 -0.72344419181E+01 -0.12352637639E+02  0.12716404420E+02  0.19147921870E+02  0.10566000000E+00 0.  1.
        994    1    1    2    0    0  0.19174913026E+01  0.16224355035E+02  0.74175545080E+01  0.17213763849E+03  0.17120000000E+03 0.  0.
        998    1    1    2    0    0  0.53169506155E+01 -0.38717173961E+01  0.14798660374E+04  0.14799144396E+04  0.10000000000E+02 0.  1.
</event>
<event>
 5    1  0.1658612E-008  0.3853843E+03  0.7957747E-01  0.3428044E+00
         13   -1    0    0    0    0  0.00000000000E+00  0.00000000000E+00  0.14999999963E+04  0.15000000000E+04  0.10566000000E+00 0. -1.
        994   -1    0    0    0    0 -0.00000000000E+00 -0.00000000000E+00  0.11368683772E-12  0.17120000000E+03  0.17120000000E+03 0.  0.
         13    1    1    2    0    0  0.64427876143E+01 -0.12741283255E+02  0.73198077736E+02  0.74577607628E+02  0.10566000000E+00 0. -1.
        994    1    1    2    0    0 -0.27587548895E+01  0.45438264092E+01  0.15323015123E+01  0.17128936054E+03  0.17120000000E+03 0.  0.
        998    1    1    2    0    0 -0.36840327248E+01  0.81974568457E+01  0.14252696170E+04  0.14253330318E+04  0.10000000000E+02 0. -1.
</event>
<event>
 5    1  0.1658612E-008  0.3816745E+03  0.7957747E-01  0.3443900E+00
         13   -1    0    0    0    0  0.00000000000E+00  0.00000000000E+00  0.14999999963E+04  0.15000000000E+04  0.10566000000E+00 0. -1.
        994   -1    0    0    0    0 -0.00000000000E+00 -0.00000000000E+00  0.11368683772E-12  0.17120000000E+03  0.17120000000E+03 0.  0.
         13    1    1    2    0    0 -0.24997382507E+02 -0.13182401187E+02  0.13361407093E+03  0.13657004045E+03  0.10566000000E+00 0. -1.
        994    1    1    2    0    0  0.20473929722E+01 -0.10855377831E+01  0.33081303165E+01  0.17124763921E+03  0.17120000000E+03 0.  0.
        998    1    1    2    0    0  0.22949989535E+02  0.14267938970E+02  0.13630777950E+04  0.13633823203E+04  0.10000000000E+02 0. -1.
</event>
<event>
 5    1  0.1658612E-008  0.3854128E+03  0.7957747E-01  0.3427923E+00
         13   -1    0    0    0    0  0.00000000000E+00  0.00000000000E+00  0.14999999963E+04  0.15000000000E+04  0.10566000000E+00 0.  1.
        994   -1    0    0    0    0 -0.00000000000E+00 -0.00000000000E+00  0.11368683772E-12  0.17120000000E+03  0.17120000000E+03 0.  0.
         13    1    1    2    0    0 -0.12383341263E+02  0.31305602140E+01  0.59418767936E+02  0.60776218171E+02  0.10566000000E+00 0.  1.
        994    1    1    2    0    0  0.39707143212E+01  0.20567529919E+01  0.14910096503E+01  0.17126488232E+03  0.17120000000E+03 0.  0.
        998    1    1    2    0    0  0.84126269421E+01 -0.51873132059E+01  0.14390902187E+04  0.14391588995E+04  0.10000000000E+02 0.  1.
</event>
<event>
 5    1  0.1658612E-008  0.3813954E+03  0.7957747E-01  0.3445105E+00
         13   -1    0    0    0    0  0.00000000000E+00  0.00000000000E+00  0.14999999963E+04  0.15000000000E+04  0.10566000000E+00 0.  1.
        994   -1    0    0    0    0 -0.00000000000E+00 -0.00000000000E+00  0.11368683772E-12  0.17120000000E+03  0.17120000000E+03 0.  0.
         13    1    1    2    0    0  0.23205079933E+02 -0.43410225633E+01  0.75636766721E+02  0.79235420461E+02  0.10566000000E+00 0.  1.
        994    1    1    2    0    0 -0.26143749602E+02  0.47218975531E+01  0.57825112010E+01  0.17334552026E+03  0.17120000000E+03 0.  0.
        998    1    1    2    0    0  0.29386696685E+01 -0.38087498982E+00  0.14185807184E+04  0.14186190593E+04  0.10000000000E+02 0.  1.
</event>
<event>
 5    1  0.1658612E-008  0.3810179E+03  0.7957747E-01  0.3446738E+00
         13   -1    0    0    0    0  0.00000000000E+00  0.00000000000E+00  0.14999999963E+04  0.15000000000E+04  0.10566000000E+00 0.  1.
        994   -1    0    0    0    0 -0.00000000000E+00 -0.00000000000E+00  0.11368683772E-12  0.17120000000E+03  0.17120000000E+03 0.  0.
         13    1    1    2    0    0  0.31489600975E+01  0.25692913340E+02  0.89981832959E+02  0.93631101523E+02  0.10566000000E+00 0.  1.
        994    1    1    2    0    0 -0.62121030550E+01 -0.18193836351E+02  0.48525999283E+01  0.17234440412E+03  0.17120000000E+03 0.  0.
        998    1    1    2    0    0  0.30631429574E+01 -0.74990769891E+01  0.14051655634E+04  0.14052244944E+04  0.10000000000E+02 0.  1.
</event>
<event>
 5    1  0.1658612E-008  0.3932589E+03  0.7957747E-01  0.3395383E+00
         13   -1    0    0    0    0  0.00000000000E+00  0.00000000000E+00  0.14999999963E+04  0.15000000000E+04  0.10566000000E+00 0. -1.
        994   -1    0    0    0    0 -0.00000000000E+00 -0.00000000000E+00  0.11368683772E-12  0.17120000000E+03  0.17120000000E+03 0.  0.
         13    1    1    2    0    0  0.36416619964E+02 -0.46509688234E+02  0.62477171802E+02  0.85980983186E+02  0.10566000000E+00 0. -1.
        994    1    1    2    0    0 -0.41289401946E+02  0.42702405710E+02  0.37380297502E+02  0.18502712452E+03  0.17120000000E+03 0.  0.
        998    1    1    2    0    0  0.48727819825E+01  0.38072825245E+01  0.14001425270E+04  0.14001918923E+04  0.10000000000E+02 0. -1.
</event>
<event>
 5    1  0.1658612E-008  0.3846755E+03  0.7957747E-01  0.3431050E+00
         13   -1    0    0    0    0  0.00000000000E+00  0.00000000000E+00  0.14999999963E+04  0.15000000000E+04  0.10566000000E+00 0.  1.
        994   -1    0    0    0    0 -0.00000000000E+00 -0.00000000000E+00  0.11368683772E-12  0.17120000000E+03  0.17120000000E+03 0.  0.
         13    1    1    2    0    0 -0.11108262654E+02  0.13927697881E+01  0.34549606020E+02  0.36318311457E+02  0.10566000000E+00 0.  1.
        994    1    1    2    0    0  0.92594562783E+01  0.63153303259E+01  0.22050018820E+01  0.17158066022E+03  0.17120000000E+03 0.  0.
        998    1    1    2    0    0  0.18488063753E+01 -0.77081001140E+01  0.14632453884E+04  0.14633010283E+04  0.10000000000E+02 0.  1.
</event>
<event>
 5    1  0.1658612E-008  0.3820947E+03  0.7957747E-01  0.3442088E+00
         13   -1    0    0    0    0  0.00000000000E+00  0.00000000000E+00  0.14999999963E+04  0.15000000000E+04  0.10566000000E+00 0. -1.
        994   -1    0    0    0    0 -0.00000000000E+00 -0.00000000000E+00  0.11368683772E-12  0.17120000000E+03  0.17120000000E+03 0.  0.
         13    1    1    2    0    0  0.99887612006E+01 -0.49287429547E+01  0.19517461097E+02  0.22472434428E+02  0.10566000000E+00 0. -1.
        994    1    1    2    0    0  0.30640968380E+01 -0.81538504673E-01  0.31106586567E+01  0.17125569052E+03  0.17120000000E+03 0.  0.
        998    1    1    2    0    0 -0.13052858039E+02  0.50102814594E+01  0.14773718765E+04  0.14774718751E+04  0.10000000000E+02 0. -1.
</event>
<event>
 5    1  0.1658612E-008  0.3818514E+03  0.7957747E-01  0.3443136E+00
         13   -1    0    0    0    0  0.00000000000E+00  0.00000000000E+00  0.14999999963E+04  0.15000000000E+04  0.10566000000E+00 0. -1.
        994   -1    0    0    0    0 -0.00000000000E+00 -0.00000000000E+00  0.11368683772E-12  0.17120000000E+03  0.17120000000E+03 0.  0.
         13    1    1    2    0    0 -0.10761490297E+02  0.10481979161E+02  0.34140695149E+02  0.37299863134E+02  0.10566000000E+00 0. -1.
        994    1    1    2    0    0  0.42815342539E+01 -0.94339304363E+01  0.35581727214E+01  0.17155008357E+03  0.17120000000E+03 0.  0.
        998    1    1    2    0    0  0.64799560431E+01 -0.10480487243E+01  0.14623011284E+04  0.14623500533E+04  0.10000000000E+02 0. -1.
</event>
<event>
 5    1  0.1658612E-008  0.3844345E+03  0.7957747E-01  0.3432074E+00
         13   -1    0    0    0    0  0.00000000000E+00  0.00000000000E+00  0.14999999963E+04  0.15000000000E+04  0.10566000000E+00 0.  1.
        994   -1    0    0    0    0 -0.00000000000E+00 -0.00000000000E+00  0.11368683772E-12  0.17120000000E+03  0.17120000000E+03 0.  0.
         13    1    1    2    0    0  0.89563923717E+01 -0.13746450411E+02  0.69983480627E+02  0.71881016882E+02  0.10566000000E+00 0.  1.
        994    1    1    2    0    0 -0.10170536035E+02  0.66862645832E+01  0.23994241376E+01  0.17164889505E+03  0.17120000000E+03 0.  0.
        998    1    1    2    0    0  0.12141436632E+01  0.70601858279E+01  0.14276170915E+04  0.14276700881E+04  0.10000000000E+02 0.  1.
</event>
<event>
 5    1  0.1658612E-008  0.3746802E+03  0.7957747E-01  0.3474654E+00
         13   -1    0    0    0    0  0.00000000000E+00  0.00000000000E+00  0.14999999963E+04  0.15000000000E+04  0.10566000000E+00 0.  1.
        994   -1    0    0    0    0 -0.00000000000E+00 -0.00000000000E+00  0.11368683772E-12  0.17120000000E+03  0.17120000000E+03 0.  0.
         13    1    1    2    0    0 -0.98468167972E+01 -0.39582439630E+02  0.18960748520E+03  0.19394519571E+03  0.10566000000E+00 0.  1.
        994    1    1    2    0    0 -0.26881183877E+02 -0.45372467326E+02  0.16366846514E+02  0.17988488681E+03  0.17120000000E+03 0.  0.
        998    1    1    2    0    0  0.36728000674E+02  0.84954906956E+02  0.12940256646E+04  0.12973699175E+04  0.10000000000E+02 0.  1.
</event>
<event>
 5    1  0.1658612E-008  0.3854763E+03  0.7957747E-01  0.3427655E+00
         13   -1    0    0    0    0  0.00000000000E+00  0.00000000000E+00  0.14999999963E+04  0.15000000000E+04  0.10566000000E+00 0. -1.
        994   -1    0    0    0    0 -0.00000000000E+00 -0.00000000000E+00  0.11368683772E-12  0.17120000000E+03  0.17120000000E+03 0.  0.
         13    1    1    2    0    0  0.15556912035E+02  0.52912971555E+00  0.86033048538E+02  0.87429938208E+02  0.10566000000E+00 0. -1.
        994    1    1    2    0    0 -0.12031016335E+02  0.20675876135E+00  0.18694099394E+01  0.17163252255E+03  0.17120000000E+03 0.  0.
        998    1    1    2    0    0 -0.35258956997E+01 -0.73588847690E+00  0.14120975378E+04  0.14121375392E+04  0.10000000000E+02 0. -1.
</event>
<event>
 5    1  0.1658612E-008  0.3842888E+03  0.7957747E-01  0.3432694E+00
         13   -1    0    0    0    0  0.00000000000E+00  0.00000000000E+00  0.14999999963E+04  0.15000000000E+04  0.10566000000E+00 0. -1.
        994   -1    0    0    0    0 -0.00000000000E+00 -0.00000000000E+00  0.11368683772E-12  0.17120000000E+03  0.17120000000E+03 0.  0.
         13    1    1    2    0    0  0.19075483047E+03  0.42458936186E+02  0.10274131656E+04  0.10458336343E+04  0.10566000000E+00 0. -1.
        994    1    1    2    0    0 -0.21006202823E+03 -0.38297082078E+02  0.17045323420E+03  0.32242280820E+03  0.17120000000E+03 0.  0.
        998    1    1    2    0    0  0.19307197759E+02 -0.41618541085E+01  0.30213359643E+03  0.30294355746E+03  0.10000000000E+02 0. -1.
</event>
<event>
 5    1  0.1658612E-008  0.3767113E+03  0.7957747E-01  0.3465604E+00
         13   -1    0    0    0    0  0.00000000000E+00  0.00000000000E+00  0.14999999963E+04  0.15000000000E+04  0.10566000000E+00 0.  1.
        994   -1    0    0    0    0 -0.00000000000E+00 -0.00000000000E+00  0.11368683772E-12  0.17120000000E+03  0.17120000000E+03 0.  0.
         13    1    1    2    0    0 -0.26795334559E+02  0.26019931159E+02  0.11378198399E+03  0.11975549180E+03  0.10566000000E+00 0.  1.
        994    1    1    2    0    0  0.23262900250E+02 -0.19821195442E+02  0.89657830706E+01  0.17413749620E+03  0.17120000000E+03 0.  0.
        998    1    1    2    0    0  0.35324343091E+01 -0.61987357176E+01  0.13772522292E+04  0.13773070120E+04  0.10000000000E+02 0.  1.
</event>
<event>
 5    1  0.1658612E-008  0.3811543E+03  0.7957747E-01  0.3446148E+00
         13   -1    0    0    0    0  0.00000000000E+00  0.00000000000E+00  0.14999999963E+04  0.15000000000E+04  0.10566000000E+00 0.  1.
        994   -1    0    0    0    0 -0.00000000000E+00 -0.00000000000E+00  0.11368683772E-12  0.17120000000E+03  0.17120000000E+03 0.  0.
         13    1    1    2    0    0 -0.16985574673E+02 -0.23860867028E+02  0.14321059582E+03  0.14617502058E+03  0.10566000000E+00 0.  1.
        994    1    1    2    0    0 -0.22301297934E+01 -0.94040031550E+01  0.38627523899E+01  0.17151609140E+03  0.17120000000E+03 0.  0.
        998    1    1    2    0    0  0.19215704466E+02  0.33264870183E+02  0.13529266481E+04  0.13535088880E+04  0.10000000000E+02 0.  1.
</event>
<event>
 5    1  0.1658612E-008  0.3845879E+03  0.7957747E-01  0.3431422E+00
         13   -1    0    0    0    0  0.00000000000E+00  0.00000000000E+00  0.14999999963E+04  0.15000000000E+04  0.10566000000E+00 0.  1.
        994   -1    0    0    0    0 -0.00000000000E+00 -0.00000000000E+00  0.11368683772E-12  0.17120000000E+03  0.17120000000E+03 0.  0.
         13    1    1    2    0    0 -0.75031660987E+01  0.18001124737E+02  0.97051066945E+02  0.98991205430E+02  0.10566000000E+00 0.  1.
        994    1    1    2    0    0  0.83567479314E+01 -0.19492932450E+02  0.33175041150E+01  0.17254059083E+03  0.17120000000E+03 0.  0.
        998    1    1    2    0    0 -0.85358183269E+00  0.14918077124E+01  0.13996314252E+04  0.13996682037E+04  0.10000000000E+02 0.  1.
</event>
<event>
 5    1  0.1658612E-008  0.3838154E+03  0.7957747E-01  0.3434712E+00
         13   -1    0    0    0    0  0.00000000000E+00  0.00000000000E+00  0.14999999963E+04  0.15000000000E+04  0.10566000000E+00 0.  1.
        994   -1    0    0    0    0 -0.00000000000E+00 -0.00000000000E+00  0.11368683772E-12  0.17120000000E+03  0.17120000000E+03 0.  0.
         13    1    1    2    0    0 -0.48373870379E+01  0.11729112558E+02  0.34465428800E+02  0.36726684320E+02  0.10566000000E+00 0.  1.
        994    1    1    2    0    0  0.55406987741E+01 -0.15976992489E+02  0.31640216959E+01  0.17206224067E+03  0.17120000000E+03 0.  0.
        998    1    1    2    0    0 -0.70331173614E+00  0.42478799303E+01  0.14623705458E+04  0.14624110750E+04  0.10000000000E+02 0.  1.
</event>
<event>
 5    1  0.1658612E-008  0.3852682E+03  0.7957747E-01  0.3428536E+00
         13   -1    0    0    0    0  0.00000000000E+00  0.00000000000E+00  0.14999999963E+04  0.15000000000E+04  0.10566000000E+00 0. -1.
        994   -1    0    0    0    0 -0.00000000000E+00 -0.00000000000E+00  0.11368683772E-12  0.17120000000E+03  0.17120000000E+03 0.  0.
         13    1    1    2    0    0 -0.76196234388E+01 -0.92215886438E+01  0.48957441479E+02  0.50397803510E+02  0.10566000000E+00 0. -1.
        994    1    1    2    0    0  0.16640413378E+01  0.39461003773E+01  0.15573251021E+01  0.17126063764E+03  0.17120000000E+03 0.  0.
        998    1    1    2    0    0  0.59555821009E+01  0.52754882664E+01  0.14494852297E+04  0.14495415589E+04  0.10000000000E+02 0. -1.
</event>
<event>
 5    1  0.1658612E-008  0.4096229E+03  0.7957747E-01  0.3331516E+00
         13   -1    0    0    0    0  0.00000000000E+00  0.00000000000E+00  0.14999999963E+04  0.15000000000E+04  0.10566000000E+00 0.  1.
        994   -1    0    0    0    0 -0.00000000000E+00 -0.00000000000E+00  0.11368683772E-12  0.17120000000E+03  0.17120000000E+03 0.  0.
         13    1    1    2    0    0  0.17868857781E+02  0.52059385473E+02  0.31892925720E+02  0.63613249950E+02  0.10566000000E+00 0.  1.
        994    1    1    2    0    0 -0.25618545933E+02 -0.51405280860E+02  0.47228229023E+02  0.18665143560E+03  0.17120000000E+03 0.  0.
        998    1    1    2    0    0  0.77496881512E+01 -0.65410461280E+00  0.14208788415E+04  0.14209353144E+04  0.10000000000E+02 0.  1.
</event>
<event>
 5    1  0.1658612E-008  0.3754538E+03  0.7957747E-01  0.3471196E+00
         13   -1    0    0    0    0  0.00000000000E+00  0.00000000000E+00  0.14999999963E+04  0.15000000000E+04  0.10566000000E+00 0.  1.
        994   -1    0    0    0    0 -0.00000000000E+00 -0.00000000000E+00  0.11368683772E-12  0.17120000000E+03  0.17120000000E+03 0.  0.
         13    1    1    2    0    0  0.10616093112E+02 -0.45108989360E+02  0.14049282836E+03  0.14793839373E+03  0.10566000000E+00 0.  1.
        994    1    1    2    0    0 -0.21165464442E+02  0.55612041960E+02  0.18559217521E+02  0.18219374482E+03  0.17120000000E+03 0.  0.
        998    1    1    2    0    0  0.10549371331E+02 -0.10503052600E+02  0.13409479504E+04  0.13410678615E+04  0.10000000000E+02 0.  1.
</event>
<event>
 5    1  0.1658612E-008  0.3848424E+03  0.7957747E-01  0.3430341E+00
         13   -1    0    0    0    0  0.00000000000E+00  0.00000000000E+00  0.14999999963E+04  0.15000000000E+04  0.10566000000E+00 0. -1.
        994   -1    0    0    0    0 -0.00000000000E+00 -0.00000000000E+00  0.11368683772E-12  0.17120000000E+03  0.17120000000E+03 0.  0.
         13    1    1    2    0    0  0.19083626583E+02 -0.71484648733E+01  0.11443816931E+03  0.11623850959E+03  0.10566000000E+00 0. -1.
        994    1    1    2    0    0 -0.18326525126E+02  0.84644081315E+01  0.30503643863E+01  0.17241302866E+03  0.17120000000E+03 0.  0.
        998    1    1    2    0    0 -0.75710145745E+00 -0.13159432582E+01  0.13825114626E+04  0.13825484618E+04  0.10000000000E+02 0. -1.
</event>
<event>
 5    1  0.1658612E-008  0.3863729E+03  0.7957747E-01  0.3423870E+00
         13   -1    0    0    0    0  0.00000000000E+00  0.00000000000E+00  0.14999999963E+04  0.15000000000E+04  0.10566000000E+00 0. -1.
        994   -1    0    0    0    0 -0.00000000000E+00 -0.00000000000E+00  0.11368683772E-12  0.17120000000E+03  0.17120000000E+03 0.  0.
         13    1    1    2    0    0  0.36142707623E+01  0.11052668171E+02  0.70341517719E+02  0.71296316216E+02  0.10566000000E+00 0. -1.
        994    1    1    2    0    0 -0.23008979177E+01 -0.11084579658E+02  0.13697699229E+01  0.17157936446E+03  0.17120000000E+03 0.  0.
        998    1    1    2    0    0 -0.13133728446E+01  0.31911486817E-01  0.14282887086E+04  0.14283243193E+04  0.10000000000E+02 0. -1.
</event>
<event>
 5    1  0.1658612E-008  0.3794207E+03  0.7957747E-01  0.3453685E+00
         13   -1    0    0    0    0  0.00000000000E+00  0.00000000000E+00  0.14999999963E+04  0.15000000000E+04  0.10566000000E+00 0.  1.
        994   -1    0    0    0    0 -0.00000000000E+00 -0.00000000000E+00  0.11368683772E-12  0.17120000000E+03  0.17120000000E+03 0.  0.
         13    1    1    2    0    0 -0.36328772366E+02 -0.91712141698E+00  0.14048238419E+03  0.14510662371E+03  0.10566000000E+00 0.  1.
        994    1    1    2    0    0  0.29799039211E+02  0.66215289800E+01  0.75531389306E+01  0.17406411833E+03  0.17120000000E+03 0.  0.
        998    1    1    2    0    0  0.65297331556E+01 -0.57044075630E+01  0.13519644732E+04  0.13520292580E+04  0.10000000000E+02 0.  1.
</event>
<event>
 5    1  0.1658612E-008  0.3847936E+03  0.7957747E-01  0.3430548E+00
         13   -1    0    0    0    0  0.00000000000E+00  0.00000000000E+00  0.14999999963E+04  0.15000000000E+04  0.10566000000E+00 0. -1.
        994   -1    0    0    0    0 -0.00000000000E+00 -0.00000000000E+00  0.11368683772E-12  0.17120000000E+03  0.17120000000E+03 0.  0.
         13    1    1    2    0    0 -0.17461155057E+02  0.39019893237E+01  0.97755439837E+02  0.99379347142E+02  0.10566000000E+00 0. -1.
        994    1    1    2    0    0  0.41487675782E+01  0.48374776343E+00  0.17900423006E+01  0.17126030052E+03  0.17120000000E+03 0.  0.
        998    1    1    2    0    0  0.13312387479E+02 -0.43857370872E+01  0.14004545141E+04  0.14005603523E+04  0.10000000000E+02 0. -1.
</event>
<event>
 5    1  0.1658612E-008  0.3787194E+03  0.7957747E-01  0.3456754E+00
         13   -1    0    0    0    0  0.00000000000E+00  0.00000000000E+00  0.14999999963E+04  0.15000000000E+04  0.10566000000E+00 0.  1.
        994   -1    0    0    0    0 -0.00000000000E+00 -0.00000000000E+00  0.11368683772E-12  0.17120000000E+03  0.17120000000E+03 0.  0.
         13    1    1    2    0    0  0.14019510556E+02  0.25129202354E+02  0.91695180903E+02  0.96104322754E+02  0.10566000000E+00 0.  1.
        994    1    1    2    0    0  0.10226548722E+02 -0.72414506789E+01  0.53083004192E+01  0.17174003307E+03  0.17120000000E+03 0.  0.
        998    1    1    2    0    0 -0.24246059278E+02 -0.17887751675E+02  0.14029965150E+04  0.14033556442E+04  0.10000000000E+02 0.  1.
</event>
<event>
 5    1  0.1658612E-008  0.3785870E+03  0.7957747E-01  0.3457334E+00
         13   -1    0    0    0    0  0.00000000000E+00  0.00000000000E+00  0.14999999963E+04  0.15000000000E+04  0.10566000000E+00 0. -1.
        994   -1    0    0    0    0 -0.00000000000E+00 -0.00000000000E+00  0.11368683772E-12  0.17120000000E+03  0.17120000000E+03 0.  0.
         13    1    1    2    0    0  0.16762012669E+02 -0.85396875090E+01  0.34425407544E+02  0.39230232985E+02  0.10566000000E+00 0. -1.
        994    1    1    2    0    0 -0.13025194265E+02  0.52769754521E+01  0.55117467507E+01  0.17186425314E+03  0.17120000000E+03 0.  0.
        998    1    1    2    0    0 -0.37368184037E+01  0.32627120569E+01  0.14600628420E+04  0.14601055139E+04  0.10000000000E+02 0. -1.
</event>
<event>
 5    1  0.1658612E-008  0.3830976E+03  0.7957747E-01  0.3437781E+00
         13   -1    0    0    0    0  0.00000000000E+00  0.00000000000E+00  0.14999999963E+04  0.15000000000E+04  0.10566000000E+00 0. -1.
        994   -1    0    0    0    0 -0.00000000000E+00 -0.00000000000E+00  0.11368683772E-12  0.17120000000E+03  0.17120000000E+03 0.  0.
         13    1    1    2    0    0 -0.19410992890E+02  0.84932248519E+01  0.84265487934E+02  0.86888463758E+02  0.10566000000E+00 0. -1.
        994    1    1    2    0    0  0.16845518827E+02 -0.53583980944E+01  0.36123017400E+01  0.17214811256E+03  0.17120000000E+03 0.  0.
        998    1    1    2    0    0  0.25654740620E+01 -0.31348267574E+01  0.14121222066E+04  0.14121634237E+04  0.10000000000E+02 0. -1.
</event>
<event>
 5    1  0.1658612E-008  0.3781589E+03  0.7957747E-01  0.3459214E+00
         13   -1    0    0    0    0  0.00000000000E+00  0.00000000000E+00  0.14999999963E+04  0.15000000000E+04  0.10566000000E+00 0.  1.
        994   -1    0    0    0    0 -0.00000000000E+00 -0.00000000000E+00  0.11368683772E-12  0.17120000000E+03  0.17120000000E+03 0.  0.
         13    1    1    2    0    0  0.15561062110E+02 -0.84910120437E+01  0.29592274945E+02  0.34495765537E+02  0.10566000000E+00 0.  1.
        994    1    1    2    0    0 -0.53254415298E+01 -0.39714982490E+00  0.51613311134E+01  0.17136101480E+03  0.17120000000E+03 0.  0.
        998    1    1    2    0    0 -0.10235620580E+02  0.88881618686E+01  0.14652463902E+04  0.14653432197E+04  0.10000000000E+02 0.  1.
</event>
<event>
 5    1  0.1658612E-008  0.3724322E+03  0.7957747E-01  0.3484787E+00
         13   -1    0    0    0    0  0.00000000000E+00  0.00000000000E+00  0.14999999963E+04  0.15000000000E+04  0.10566000000E+00 0.  1.
        994   -1    0    0    0    0 -0.00000000000E+00 -0.00000000000E+00  0.11368683772E-12  0.17120000000E+03  0.17120000000E+03 0.  0.
         13    1    1    2    0    0 -0.16048532905E+02 -0.46057078936E+02  0.12908965005E+03  0.13799622764E+03  0.10566000000E+00 0.  1.
        994    1    1    2    0    0  0.18670013387E+02  0.53930765338E+02  0.19255425054E+02  0.18148638584E+03  0.17120000000E+03 0.  0.
        998    1    1    2    0    0 -0.26214804817E+01 -0.78736864019E+01  0.13516549212E+04  0.13517173865E+04  0.10000000000E+02 0.  1.
</event>
<event>
 5    1  0.1658612E-008  0.3829466E+03  0.7957747E-01  0.3438428E+00
         13   -1    0    0    0    0  0.00000000000E+00  0.00000000000E+00  0.14999999963E+04  0.15000000000E+04  0.10566000000E+00 0. -1.
        994   -1    0    0    0    0 -0.00000000000E+00 -0.00000000000E+00  0.11368683772E-12  0.17120000000E+03  0.17120000000E+03 0.  0.
         13    1    1    2    0    0  0.12998287747E+02 -0.17571246806E+02  0.89419078671E+02  0.92051545305E+02  0.10566000000E+00 0. -1.
        994    1    1    2    0    0 -0.67856892759E+01  0.11647733486E+02  0.32549025629E+01  0.17176073377E+03  0.17120000000E+03 0.  0.
        998    1    1    2    0    0 -0.62125984714E+01  0.59235133197E+01  0.14073260150E+04  0.14073877209E+04  0.10000000000E+02 0. -1.
</event>
<event>
 5    1  0.1658612E-008  0.3780018E+03  0.7957747E-01  0.3459906E+00
         13   -1    0    0    0    0  0.00000000000E+00  0.00000000000E+00  0.14999999963E+04  0.15000000000E+04  0.10566000000E+00 0.  1.
        994   -1    0    0    0    0 -0.00000000000E+00 -0.00000000000E+00  0.11368683772E-12  0.17120000000E+03  0.17120000000E+03 0.  0.
         13    1    1    2    0    0 -0.10059318043E+02  0.24197318103E+02  0.63958861526E+02  0.69119079961E+02  0.10566000000E+00 0.  1.
        994    1    1    2    0    0  0.10979893103E+01 -0.21377075507E+02  0.66886371075E+01  0.17266256920E+03  0.17120000000E+03 0.  0.
        998    1    1    2    0    0  0.89613287330E+01 -0.28202425956E+01  0.14293524976E+04  0.14294183508E+04  0.10000000000E+02 0.  1.
</event>
<event>
 5    1  0.1658612E-008  0.3818102E+03  0.7957747E-01  0.3443314E+00
         13   -1    0    0    0    0  0.00000000000E+00  0.00000000000E+00  0.14999999963E+04  0.15000000000E+04  0.10566000000E+00 0. -1.
        994   -1    0    0    0    0 -0.00000000000E+00 -0.00000000000E+00  0.11368683772E-12  0.17120000000E+03  0.17120000000E+03 0.  0.
         13    1    1    2    0    0 -0.31719136976E+00  0.22393469421E+02  0.73332271061E+02  0.76675949464E+02  0.10566000000E+00 0. -1.
        994    1    1    2    0    0 -0.89618654220E+01 -0.23636745736E+02  0.53485233265E+01  0.17313883875E+03  0.17120000000E+03 0.  0.
        998    1    1    2    0    0  0.92790567917E+01  0.12432763143E+01  0.14213192019E+04  0.14213852118E+04  0.10000000000E+02 0. -1.
</event>
<event>
 5    1  0.1658612E-008  0.3858188E+03  0.7957747E-01  0.3426207E+00
         13   -1    0    0    0    0  0.00000000000E+00  0.00000000000E+00  0.14999999963E+04  0.15000000000E+04  0.10566000000E+00 0. -1.
        994   -1    0    0    0    0 -0.00000000000E+00 -0.00000000000E+00  0.11368683772E-12  0.17120000000E+03  0.17120000000E+03 0.  0.
         13    1    1    2    0    0  0.29514102714E+01  0.13173679780E+02  0.70864586940E+02  0.72139153778E+02  0.10566000000E+00 0. -1.
        994    1    1    2    0    0  0.12019844913E+02 -0.20186055752E+02  0.30366163880E+01  0.17283117357E+03  0.17120000000E+03 0.  0.
        998    1    1    2    0    0 -0.14971255184E+02  0.70123759722E+01  0.14260987930E+04  0.14262296727E+04  0.10000000000E+02 0. -1.
</event>
<event>
 5    1  0.1658612E-008  0.3828405E+03  0.7957747E-01  0.3438883E+00
         13   -1    0    0    0    0  0.00000000000E+00  0.00000000000E+00  0.14999999963E+04  0.15000000000E+04  0.10566000000E+00 0.  1.
        994   -1    0    0    0    0 -0.00000000000E+00 -0.00000000000E+00  0.11368683772E-12  0.17120000000E+03  0.17120000000E+03 0.  0.
         13    1    1    2    0    0  0.25759010451E+03  0.15225260385E+03  0.98026052678E+03  0.10249118152E+04  0.10566000000E+00 0.  1.
        994    1    1    2    0    0 -0.26293896765E+03 -0.15107296925E+03  0.41862578889E+03  0.54453368479E+03  0.17120000000E+03 0.  0.
        998    1    1    2    0    0  0.53488631353E+01 -0.11796345909E+01  0.10111368061E+03  0.10175450006E+03  0.10000000000E+02 0.  1.
</event>
<event>
 5    1  0.1658612E-008  0.3840903E+03  0.7957747E-01  0.3433540E+00
         13   -1    0    0    0    0  0.00000000000E+00  0.00000000000E+00  0.14999999963E+04  0.15000000000E+04  0.10566000000E+00 0. -1.
        994   -1    0    0    0    0 -0.00000000000E+00 -0.00000000000E+00  0.11368683772E-12  0.17120000000E+03  0.17120000000E+03 0.  0.
         13    1    1    2    0    0  0.46953403438E+01 -0.45527427307E+02  0.50826209367E+02  0.68396692762E+02  0.10566000000E+00 0. -1.
        994    1    1    2    0    0 -0.11289099150E+01  0.23040852401E+02  0.20552385584E+02  0.17396550195E+03  0.17120000000E+03 0.  0.
        998    1    1    2    0    0 -0.35664304288E+01  0.22486574906E+02  0.14286214013E+04  0.14288378053E+04  0.10000000000E+02 0. -1.
</event>
<event>
 5    1  0.1658612E-008  0.3810257E+03  0.7957747E-01  0.3446704E+00
         13   -1    0    0    0    0  0.00000000000E+00  0.00000000000E+00  0.14999999963E+04  0.15000000000E+04  0.10566000000E+00 0. -1.
        994   -1    0    0    0    0 -0.00000000000E+00 -0.00000000000E+00  0.11368683772E-12  0.17120000000E+03  0.17120000000E+03 0.  0.
         13    1    1    2    0    0  0.56887819880E+01 -0.19229249470E+02  0.53269539486E+02  0.56919076563E+02  0.10566000000E+00 0. -1.
        994    1    1    2    0    0  0.67305756537E+00  0.18750917225E+02  0.47900344780E+01  0.17229171290E+03  0.17120000000E+03 0.  0.
        998    1    1    2    0    0 -0.63618395533E+01  0.47833224502E+00  0.14419404223E+04  0.14419892105E+04  0.10000000000E+02 0. -1.
</event>
<event>
 5    1  0.1658612E-008  0.3735805E+03  0.7957747E-01  0.3479596E+00
         13   -1    0    0    0    0  0.00000000000E+00  0.00000000000E+00  0.14999999963E+04  0.15000000000E+04  0.10566000000E+00 0.  1.
        994   -1    0    0    0    0 -0.00000000000E+00 -0.00000000000E+00  0.11368683772E-12  0.17120000000E+03  0.17120000000E+03 0.  0.
         13    1    1    2    0    0 -0.22530829210E+02  0.13404505682E+02  0.44161725949E+02  0.51357455547E+02  0.10566000000E+00 0.  1.
        994    1    1    2    0    0  0.10259190990E+02 -0.62715764129E+01  0.79034592729E+01  0.17180363308E+03  0.17120000000E+03 0.  0.
        998    1    1    2    0    0  0.12271638220E+02 -0.71329292687E+01  0.14479348111E+04  0.14480389114E+04  0.10000000000E+02 0.  1.
</event>
<event>
 5    1  0.1658612E-008  0.3827270E+03  0.7957747E-01  0.3439370E+00
         13   -1    0    0    0    0  0.00000000000E+00  0.00000000000E+00  0.14999999963E+04  0.15000000000E+04  0.10566000000E+00 0. -1.
        994   -1    0    0    0    0 -0.00000000000E+00 -0.00000000000E+00  0.11368683772E-12  0.17120000000E+03  0.17120000000E+03 0.  0.
         13    1    1    2    0    0  0.12890972574E+02 -0.74801190973E+01  0.41125642422E+02  0.43743102133E+02  0.10566000000E+00 0. -1.
        994    1    1    2    0    0 -0.92329752978E+00 -0.40101926114E+01  0.28189596259E+01  0.17127265005E+03  0.17120000000E+03 0.  0.
        998    1    1    2    0    0 -0.11967675044E+02  0.11490311709E+02  0.14560553942E+04  0.14561842478E+04  0.10000000000E+02 0. -1.
</event>
<event>
 5    1  0.1967138E-008  0.3863240E+03  0.7957747E-01  0.3424076E+00
         13   -1    0    0    0    0  0.00000000000E+00  0.00000000000E+00  0.14999999963E+04  0.15000000000E+04  0.10566000000E+00 0.  1.
        994   -1    0    0    0    0 -0.00000000000E+00 -0.00000000000E+00  0.11368683772E-12  0.17120000000E+03  0.17120000000E+03 0.  0.
         13    1    1    2    0    0 -0.74208306045E+01 -0.73378849187E+01  0.62015567792E+02  0.62887638646E+02  0.10566000000E+00 0.  1.
        994    1    1    2    0    0 -0.65338221359E+01  0.14950535745E+01  0.11213315347E+01  0.17133482834E+03  0.17120000000E+03 0.  0.
        998    1    1    2    0    0  0.13954652740E+02  0.58428313442E+01  0.14368630970E+04  0.14369775330E+04  0.10000000000E+02 0.  1.
</event>
<event>
 5    1  0.1658612E-008  0.3690214E+03  0.7957747E-01  0.3500400E+00
         13   -1    0    0    0    0  0.00000000000E+00  0.00000000000E+00  0.14999999963E+04  0.15000000000E+04  0.10566000000E+00 0. -1.
        994   -1    0    0    0    0 -0.00000000000E+00 -0.00000000000E+00  0.11368683772E-12  0.17120000000E+03  0.17120000000E+03 0.  0.
         13    1    1    2    0    0  0.23274269365E+01 -0.25137666110E+02  0.27106994356E+02  0.37042131157E+02  0.10566000000E+00 0. -1.
        994    1    1    2    0    0 -0.10883492432E+02  0.37548168573E+02  0.15102398889E+02  0.17625503631E+03  0.17120000000E+03 0.  0.
        998    1    1    2    0    0  0.85560654953E+01 -0.12410502463E+02  0.14577906030E+04  0.14579028325E+04  0.10000000000E+02 0. -1.
</event>
<event>
 5    1  0.1658612E-008  0.3709768E+03  0.7957747E-01  0.3491414E+00
         13   -1    0    0    0    0  0.00000000000E+00  0.00000000000E+00  0.14999999963E+04  0.15000000000E+04  0.10566000000E+00 0.  1.
        994   -1    0    0    0    0 -0.00000000000E+00 -0.00000000000E+00  0.11368683772E-12  0.17120000000E+03  0.17120000000E+03 0.  0.
         13    1    1    2    0    0 -0.40883480639E+02 -0.59898755576E+02  0.29589705233E+03  0.30465455298E+03  0.10566000000E+00 0.  1.
        994    1    1    2    0    0  0.20722313996E+02  0.37393403310E+02  0.15084064066E+02  0.17710067729E+03  0.17120000000E+03 0.  0.
        998    1    1    2    0    0  0.20161166643E+02  0.22505352266E+02  0.11890188799E+04  0.11894447697E+04  0.10000000000E+02 0.  1.
</event>
<event>
 5    1  0.1658612E-008  0.2003773E+03  0.7957747E-01  0.5032525E+00
         13   -1    0    0    0    0  0.00000000000E+00  0.00000000000E+00  0.14999999963E+04  0.15000000000E+04  0.10566000000E+00 0.  1.
        994   -1    0    0    0    0 -0.00000000000E+00 -0.00000000000E+00  0.11368683772E-12  0.17120000000E+03  0.17120000000E+03 0.  0.
         13    1    1    2    0    0 -0.14358982816E+03  0.46743469225E+02  0.18190736304E+03  0.23641761897E+03  0.10566000000E+00 0.  1.
        994    1    1    2    0    0  0.73306926990E+02  0.10788849905E+02  0.96968584603E+02  0.21024426562E+03  0.17120000000E+03 0.  0.
        998    1    1    2    0    0  0.70282901168E+02 -0.57532319130E+02  0.12211240486E+04  0.12245381154E+04  0.10000000000E+02 0.  1.
</event>
<event>
 5    1  0.1658612E-008  0.3835626E+03  0.7957747E-01  0.3435791E+00
         13   -1    0    0    0    0  0.00000000000E+00  0.00000000000E+00  0.14999999963E+04  0.15000000000E+04  0.10566000000E+00 0. -1.
        994   -1    0    0    0    0 -0.00000000000E+00 -0.00000000000E+00  0.11368683772E-12  0.17120000000E+03  0.17120000000E+03 0.  0.
         13    1    1    2    0    0  0.27507682961E+02  0.84159715955E+01  0.16300019813E+03  0.16551911356E+03  0.10566000000E+00 0. -1.
        994    1    1    2    0    0 -0.27017245856E+02 -0.99572027794E+00  0.47642223486E+01  0.17338702618E+03  0.17120000000E+03 0.  0.
        998    1    1    2    0    0 -0.49043710553E+00 -0.74202513176E+01  0.13322355758E+04  0.13322938603E+04  0.10000000000E+02 0. -1.
</event>
<event>
 5    1  0.1658612E-008  0.3778703E+03  0.7957747E-01  0.3460485E+00
         13   -1    0    0    0    0  0.00000000000E+00  0.00000000000E+00  0.14999999963E+04  0.15000000000E+04  0.10566000000E+00 0.  1.
        994   -1    0    0    0    0 -0.00000000000E+00 -0.00000000000E+00  0.11368683772E-12  0.17120000000E+03  0.17120000000E+03 0.  0.
         13    1    1    2    0    0 -0.18717139022E+02 -0.11871084819E+02  0.44138850899E+02  0.49391327890E+02  0.10566000000E+00 0.  1.
        994    1    1    2    0    0  0.20876409985E+02  0.65857064077E+01  0.68270443309E+01  0.17272881797E+03  0.17120000000E+03 0.  0.
        998    1    1    2    0    0 -0.21592709628E+01  0.52853784116E+01  0.14490341010E+04  0.14490798541E+04  0.10000000000E+02 0.  1.
</event>
<event>
 5    1  0.1658612E-008  0.3783475E+03  0.7957747E-01  0.3458386E+00
         13   -1    0    0    0    0  0.00000000000E+00  0.00000000000E+00  0.14999999963E+04  0.15000000000E+04  0.10566000000E+00 0. -1.
        994   -1    0    0    0    0 -0.00000000000E+00 -0.00000000000E+00  0.11368683772E-12  0.17120000000E+03  0.17120000000E+03 0.  0.
         13    1    1    2    0    0 -0.96297891661E+02 -0.67576531113E+02  0.70377899890E+03  0.71354380521E+03  0.10566000000E+00 0. -1.
        994    1    1    2    0    0  0.88058387769E+02  0.81176456462E+02  0.54804812504E+02  0.21600209308E+03  0.17120000000E+03 0.  0.
        998    1    1    2    0    0  0.82395038913E+01 -0.13599925349E+02  0.74141618488E+03  0.74165410172E+03  0.10000000000E+02 0. -1.
</event>
<event>
 5    1  0.1658612E-008  0.3858079E+03  0.7957747E-01  0.3426253E+00
         13   -1    0    0    0    0  0.00000000000E+00  0.00000000000E+00  0.14999999963E+04  0.15000000000E+04  0.10566000000E+00 0.  1.
        994   -1    0    0    0    0 -0.00000000000E+00 -0.00000000000E+00  0.11368683772E-12  0.17120000000E+03  0.17120000000E+03 0.  0.
         13    1    1    2    0    0 -0.86883948392E+01  0.53142091796E+01  0.41199853945E+02  0.42440171456E+02  0.10566000000E+00 0.  1.
        994    1    1    2    0    0  0.13075549221E+02 -0.22894939285E+01  0.18077566336E+01  0.17172338150E+03  0.17120000000E+03 0.  0.
        998    1    1    2    0    0 -0.43871543815E+01 -0.30247152511E+01  0.14569923857E+04  0.14570364470E+04  0.10000000000E+02 0.  1.
</event>
<event>
 5    1  0.1658612E-008  0.3824643E+03  0.7957747E-01  0.3440498E+00
         13   -1    0    0    0    0  0.00000000000E+00  0.00000000000E+00  0.14999999963E+04  0.15000000000E+04  0.10566000000E+00 0.  1.
        994   -1    0    0    0    0 -0.00000000000E+00 -0.00000000000E+00  0.11368683772E-12  0.17120000000E+03  0.17120000000E+03 0.  0.
         13    1    1    2    0    0  0.13526770281E+01  0.27660001755E+02  0.14620044352E+03  0.14880015551E+03  0.10566000000E+00 0.  1.
        994    1    1    2    0    0 -0.31777519478E+02 -0.24641560990E+01  0.62702177005E+01  0.17425452201E+03  0.17120000000E+03 0.  0.
        998    1    1    2    0    0  0.30424842450E+02 -0.25195845655E+02  0.13475293351E+04  0.13481453225E+04  0.10000000000E+02 0.  1.
</event>
<event>
 5    1  0.1658612E-008  0.3836369E+03  0.7957747E-01  0.3435474E+00
         13   -1    0    0    0    0  0.00000000000E+00  0.00000000000E+00  0.14999999963E+04  0.15000000000E+04  0.10566000000E+00 0.  1.
        994   -1    0    0    0    0 -0.00000000000E+00 -0.00000000000E+00  0.11368683772E-12  0.17120000000E+03  0.17120000000E+03 0.  0.
         13    1    1    2    0    0  0.10283216812E+02  0.70971788913E+01  0.33753681866E+02  0.35992175536E+02  0.10566000000E+00 0.  1.
        994    1    1    2    0    0 -0.94292621369E+01  0.67448272941E+01  0.27525210886E+01  0.17161416041E+03  0.17120000000E+03 0.  0.
        998    1    1    2    0    0 -0.85395467457E+00 -0.13842006185E+02  0.14634937933E+04  0.14635936641E+04  0.10000000000E+02 0.  1.
</event>
<event>
 5    1  0.1658612E-008  0.3782017E+03  0.7957747E-01  0.3459026E+00
         13   -1    0    0    0    0  0.00000000000E+00  0.00000000000E+00  0.14999999963E+04  0.15000000000E+04  0.10566000000E+00 0. -1.
        994   -1    0    0    0    0 -0.00000000000E+00 -0.00000000000E+00  0.11368683772E-12  0.17120000000E+03  0.17120000000E+03 0.  0.
         13    1    1    2    0    0 -0.39403694452E+01  0.22385055011E+02  0.52134872319E+02  0.56874188126E+02  0.10566000000E+00 0. -1.
        994    1    1    2    0    0  0.43326835121E+01  0.18170144875E+01  0.51179043282E+01  0.17134090765E+03  0.17120000000E+03 0.  0.
        998    1    1    2    0    0 -0.39231406698E+00 -0.24202069498E+02  0.14427472196E+04  0.14429849042E+04  0.10000000000E+02 0.  1.
</event>
<event>
 5    1  0.1658612E-008  0.3756620E+03  0.7957747E-01  0.3470267E+00
         13   -1    0    0    0    0  0.00000000000E+00  0.00000000000E+00  0.14999999963E+04  0.15000000000E+04  0.10566000000E+00 0. -1.
        994   -1    0    0    0    0 -0.00000000000E+00 -0.00000000000E+00  0.11368683772E-12  0.17120000000E+03  0.17120000000E+03 0.  0.
         13    1    1    2    0    0 -0.84515216070E+01  0.15994562722E+02  0.23280377797E+02  0.29482900274E+02  0.10566000000E+00 0. -1.
        994    1    1    2    0    0 -0.32495136898E+01 -0.13172914845E+02  0.69637393433E+01  0.17187791798E+03  0.17120000000E+03 0.  0.
        998    1    1    2    0    0  0.11701035297E+02 -0.28216478777E+01  0.14697558791E+04  0.14698391817E+04  0.10000000000E+02 0. -1.
</event>
<event>
 5    1  0.1658612E-008  0.3792815E+03  0.7957747E-01  0.3454293E+00
         13   -1    0    0    0    0  0.00000000000E+00  0.00000000000E+00  0.14999999963E+04  0.15000000000E+04  0.10566000000E+00 0.  1.
        994   -1    0    0    0    0 -0.00000000000E+00 -0.00000000000E+00  0.11368683772E-12  0.17120000000E+03  0.17120000000E+03 0.  0.
         13    1    1    2    0    0  0.13740495615E+03 -0.41001519954E+02  0.85955523378E+03  0.87143356470E+03  0.10566000000E+00 0.  1.
        994    1    1    2    0    0 -0.13911266320E+03  0.39337951967E+02  0.78051044930E+02  0.23727876673E+03  0.17120000000E+03 0.  0.
        998    1    1    2    0    0  0.17077070569E+01  0.16635679864E+01  0.56239371757E+03  0.56248766856E+03  0.10000000000E+02 0.  0.
</event>
<event>
 5    1  0.1658612E-008  0.3863376E+03  0.7957747E-01  0.3424019E+00
         13   -1    0    0    0    0  0.00000000000E+00  0.00000000000E+00  0.14999999963E+04  0.15000000000E+04  0.10566000000E+00 0. -1.
        994   -1    0    0    0    0 -0.00000000000E+00 -0.00000000000E+00  0.11368683772E-12  0.17120000000E+03  0.17120000000E+03 0.  0.
         13    1    1    2    0    0  0.33530336875E+02 -0.30905894533E+02  0.43516984636E+02  0.63033300117E+02  0.10566000000E+00 0. -1.
        994    1    1    2    0    0 -0.28055464175E+02  0.38850904161E+02  0.28422135498E+02  0.18003821708E+03  0.17120000000E+03 0.  0.
        998    1    1    2    0    0 -0.54748726995E+01 -0.79450096277E+01  0.14280608761E+04  0.14281284828E+04  0.10000000000E+02 0. -1.
</event>
<event>
 5    1  0.1658612E-008  0.3830176E+03  0.7957747E-01  0.3438124E+00
         13   -1    0    0    0    0  0.00000000000E+00  0.00000000000E+00  0.14999999963E+04  0.15000000000E+04  0.10566000000E+00 0.  1.
        994   -1    0    0    0    0 -0.00000000000E+00 -0.00000000000E+00  0.11368683772E-12  0.17120000000E+03  0.17120000000E+03 0.  0.
         13    1    1    2    0    0  0.13964863270E+02  0.97472473764E+01  0.57736586585E+02  0.60195937007E+02  0.10566000000E+00 0.  1.
        994    1    1    2    0    0 -0.17064584688E+01  0.28406531188E+01  0.26539301724E+01  0.17125263401E+03  0.17120000000E+03 0.  0.
        998    1    1    2    0    0 -0.12258404801E+02 -0.12587900495E+02  0.14396094795E+04  0.14397514290E+04  0.10000000000E+02 0.  1.
</event>
<event>
 5    1  0.1658612E-008  0.3691811E+03  0.7957747E-01  0.3499663E+00
         13   -1    0    0    0    0  0.00000000000E+00  0.00000000000E+00  0.14999999963E+04  0.15000000000E+04  0.10566000000E+00 0.  1.
        994   -1    0    0    0    0 -0.00000000000E+00 -0.00000000000E+00  0.11368683772E-12  0.17120000000E+03  0.17120000000E+03 0.  0.
         13    1    1    2    0    0  0.10025735069E+01 -0.35019167425E+02  0.60938835242E+02  0.70291536087E+02  0.10566000000E+00 0.  1.
        994    1    1    2    0    0  0.32911738444E+01 -0.14942619590E+02  0.11322992078E+02  0.17225493855E+03  0.17120000000E+03 0.  0.
        998    1    1    2    0    0 -0.42937473513E+01  0.49961787015E+02  0.14277381690E+04  0.14286535254E+04  0.10000000000E+02 0.  1.
</event>
<event>
 5    1  0.1658612E-008  0.3836641E+03  0.7957747E-01  0.3435358E+00
         13   -1    0    0    0    0  0.00000000000E+00  0.00000000000E+00  0.14999999963E+04  0.15000000000E+04  0.10566000000E+00 0.  1.
        994   -1    0    0    0    0 -0.00000000000E+00 -0.00000000000E+00  0.11368683772E-12  0.17120000000E+03  0.17120000000E+03 0.  0.
         13    1    1    2    0    0 -0.14224654225E+02 -0.81995675627E+01  0.56423481006E+02  0.58763884052E+02  0.10566000000E+00 0.  1.
        994    1    1    2    0    0  0.15670396408E+02  0.64877212878E+01  0.32455203214E+01  0.17206866436E+03  0.17120000000E+03 0.  0.
        998    1    1    2    0    0 -0.14457421835E+01  0.17118462749E+01  0.14403309950E+04  0.14403674516E+04  0.10000000000E+02 0.  1.
</event>
<event>
 5    1  0.1658612E-008  0.3771323E+03  0.7957747E-01  0.3463741E+00
         13   -1    0    0    0    0  0.00000000000E+00  0.00000000000E+00  0.14999999963E+04  0.15000000000E+04  0.10566000000E+00 0. -1.
        994   -1    0    0    0    0 -0.00000000000E+00 -0.00000000000E+00  0.11368683772E-12  0.17120000000E+03  0.17120000000E+03 0.  0.
         13    1    1    2    0    0 -0.46209695666E+02 -0.41237529805E+02  0.28336267634E+03  0.29005221486E+03  0.10566000000E+00 0. -1.
        994    1    1    2    0    0  0.42502808193E+02  0.41869935259E+02  0.17696961800E+02  0.18215982718E+03  0.17120000000E+03 0.  0.
        998    1    1    2    0    0  0.37068874733E+01 -0.63240545387E+00  0.11989403581E+04  0.11989879580E+04  0.10000000000E+02 0.  0.
</event>
<event>
 5    1  0.1658612E-008  0.3832394E+03  0.7957747E-01  0.3437174E+00
         13   -1    0    0    0    0  0.00000000000E+00  0.00000000000E+00  0.14999999963E+04  0.15000000000E+04  0.10566000000E+00 0.  1.
        994   -1    0    0    0    0 -0.00000000000E+00 -0.00000000000E+00  0.11368683772E-12  0.17120000000E+03  0.17120000000E+03 0.  0.
         13    1    1    2    0    0  0.15844652152E+02 -0.73703650212E+01  0.59133523259E+02  0.61661657612E+02  0.10566000000E+00 0.  1.
        994    1    1    2    0    0 -0.13504838017E+02  0.65976097873E+01  0.32543463412E+01  0.17188932449E+03  0.17120000000E+03 0.  0.
        998    1    1    2    0    0 -0.23398141352E+01  0.77275523388E+00  0.14376121267E+04  0.14376490179E+04  0.10000000000E+02 0.  1.
</event>
<event>
 5    1  0.1658612E-008  0.3788953E+03  0.7957747E-01  0.3455983E+00
         13   -1    0    0    0    0  0.00000000000E+00  0.00000000000E+00  0.14999999963E+04  0.15000000000E+04  0.10566000000E+00 0.  1.
        994   -1    0    0    0    0 -0.00000000000E+00 -0.00000000000E+00  0.11368683772E-12  0.17120000000E+03  0.17120000000E+03 0.  0.
         13    1    1    2    0    0 -0.13565254148E+02  0.41266840644E+02  0.20180323297E+03  0.20642559013E+03  0.10566000000E+00 0.  1.
        994    1    1    2    0    0  0.60241098160E+02 -0.91384248515E+01  0.17250399379E+02  0.18253634431E+03  0.17120000000E+03 0.  0.
        998    1    1    2    0    0 -0.46675844012E+02 -0.32128415792E+02  0.12809463639E+04  0.12822380656E+04  0.10000000000E+02 0.  1.
</event>
<event>
 5    1  0.1658612E-008  0.3746109E+03  0.7957747E-01  0.3474965E+00
         13   -1    0    0    0    0  0.00000000000E+00  0.00000000000E+00  0.14999999963E+04  0.15000000000E+04  0.10566000000E+00 0.  1.
        994   -1    0    0    0    0 -0.00000000000E+00 -0.00000000000E+00  0.11368683772E-12  0.17120000000E+03  0.17120000000E+03 0.  0.
         13    1    1    2    0    0 -0.28304760830E+02 -0.43454753012E+01  0.27577856231E+02  0.39756659311E+02  0.10566000000E+00 0.  1.
        994    1    1    2    0    0 -0.20629688010E+02  0.36566007303E+01  0.14959240763E+02  0.17312473434E+03  0.17120000000E+03 0.  0.
        998    1    1    2    0    0  0.48934448840E+02  0.68887457086E+00  0.14574628993E+04  0.14583186063E+04  0.10000000000E+02 0.  1.
</event>
<event>
 5    1  0.1658612E-008  0.3816631E+03  0.7957747E-01  0.3443949E+00
         13   -1    0    0    0    0  0.00000000000E+00  0.00000000000E+00  0.14999999963E+04  0.15000000000E+04  0.10566000000E+00 0. -1.
        994   -1    0    0    0    0 -0.00000000000E+00 -0.00000000000E+00  0.11368683772E-12  0.17120000000E+03  0.17120000000E+03 0.  0.
         13    1    1    2    0    0  0.40242181462E+01 -0.13183431051E+02  0.27729097120E+02  0.30966290981E+02  0.10566000000E+00 0. -1.
        994    1    1    2    0    0  0.35162651899E+02  0.18692779274E+02  0.85862808294E+01  0.17598010201E+03  0.17120000000E+03 0.  0.
        998    1    1    2    0    0 -0.39186870045E+02 -0.55093482231E+01  0.14636846183E+04  0.14642536070E+04  0.10000000000E+02 0. -1.
</event>
<event>
 5    1  0.1658612E-008  0.3850476E+03  0.7957747E-01  0.3429470E+00
         13   -1    0    0    0    0  0.00000000000E+00  0.00000000000E+00  0.14999999963E+04  0.15000000000E+04  0.10566000000E+00 0.  1.
        994   -1    0    0    0    0 -0.00000000000E+00 -0.00000000000E+00  0.11368683772E-12  0.17120000000E+03  0.17120000000E+03 0.  0.
         13    1    1    2    0    0  0.14976520682E+02 -0.14898134607E+01  0.69869937698E+02  0.71472617650E+02  0.10566000000E+00 0.  1.
        994    1    1    2    0    0 -0.95923267771E+01  0.27311760572E+02  0.43666374579E+01  0.17368492313E+03  0.17120000000E+03 0.  0.
        998    1    1    2    0    0 -0.53841939045E+01 -0.25821947111E+02  0.14257634211E+04  0.14260424592E+04  0.10000000000E+02 0.  1.
</event>
<event>
 5    1  0.1658612E-008  0.3835364E+03  0.7957747E-01  0.3435903E+00
         13   -1    0    0    0    0  0.00000000000E+00  0.00000000000E+00  0.14999999963E+04  0.15000000000E+04  0.10566000000E+00 0. -1.
        994   -1    0    0    0    0 -0.00000000000E+00 -0.00000000000E+00  0.11368683772E-12  0.17120000000E+03  0.17120000000E+03 0.  0.
         13    1    1    2    0    0 -0.56303139996E+01 -0.90705714488E+01  0.24119083543E+02  0.26376448911E+02  0.10566000000E+00 0. -1.
        994    1    1    2    0    0 -0.70616097726E+01  0.23886324455E+01  0.25421934212E+01  0.17138108018E+03  0.17120000000E+03 0.  0.
        998    1    1    2    0    0  0.12691923772E+02  0.66819390033E+01  0.14733387193E+04  0.14734424709E+04  0.10000000000E+02 0. -1.
</event>
<event>
 5    1  0.1658612E-008  0.3848585E+03  0.7957747E-01  0.3430273E+00
         13   -1    0    0    0    0  0.00000000000E+00  0.00000000000E+00  0.14999999963E+04  0.15000000000E+04  0.10566000000E+00 0.  1.
        994   -1    0    0    0    0 -0.00000000000E+00 -0.00000000000E+00  0.11368683772E-12  0.17120000000E+03  0.17120000000E+03 0.  0.
         13    1    1    2    0    0  0.14368244502E+02 -0.11237238158E+02  0.10539714582E+03  0.10696397282E+03  0.10566000000E+00 0.  1.
        994    1    1    2    0    0  0.22106326597E+00  0.40687552914E+01  0.17550472376E+01  0.17125747817E+03  0.17120000000E+03 0.  0.
        998    1    1    2    0    0 -0.14589307768E+02  0.71684828667E+01  0.13928478032E+04  0.13929785490E+04  0.10000000000E+02 0.  1.
</event>
<event>
 5    1  0.1658612E-008  0.3731319E+03  0.7957747E-01  0.3481620E+00
         13   -1    0    0    0    0  0.00000000000E+00  0.00000000000E+00  0.14999999963E+04  0.15000000000E+04  0.10566000000E+00 0.  1.
        994   -1    0    0    0    0 -0.00000000000E+00 -0.00000000000E+00  0.11368683772E-12  0.17120000000E+03  0.17120000000E+03 0.  0.
         13    1    1    2    0    0  0.11416017886E+02 -0.98175853852E+00  0.51551676518E+01  0.12564880889E+02  0.10566000000E+00 0.  1.
        994    1    1    2    0    0 -0.69065003986E+00  0.13422247234E+02  0.82593291263E+01  0.17192524607E+03  0.17120000000E+03 0.  0.
        998    1    1    2    0    0 -0.10725367846E+02 -0.12440488695E+02  0.14865854995E+04  0.14867098730E+04  0.10000000000E+02 0.  1.
</event>
<event>
 5    1  0.1658612E-008  0.3859604E+03  0.7957747E-01  0.3425609E+00
         13   -1    0    0    0    0  0.00000000000E+00  0.00000000000E+00  0.14999999963E+04  0.15000000000E+04  0.10566000000E+00 0. -1.
        994   -1    0    0    0    0 -0.00000000000E+00 -0.00000000000E+00  0.11368683772E-12  0.17120000000E+03  0.17120000000E+03 0.  0.
         13    1    1    2    0    0  0.10312185435E+02  0.36502383637E+01  0.51502620373E+02  0.52651652186E+02  0.10566000000E+00 0. -1.
        994    1    1    2    0    0 -0.17269648788E+01 -0.27707391639E+02  0.36847594146E+01  0.17347535678E+03  0.17120000000E+03 0.  0.
        998    1    1    2    0    0 -0.85852205564E+01  0.24057153275E+02  0.14448126165E+04  0.14450729910E+04  0.10000000000E+02 0. -1.
</event>
<event>
 5    1  0.1658612E-008  0.3857467E+03  0.7957747E-01  0.3426511E+00
         13   -1    0    0    0    0  0.00000000000E+00  0.00000000000E+00  0.14999999963E+04  0.15000000000E+04  0.10566000000E+00 0. -1.
        994   -1    0    0    0    0 -0.00000000000E+00 -0.00000000000E+00  0.11368683772E-12  0.17120000000E+03  0.17120000000E+03 0.  0.
         13    1    1    2    0    0  0.48494336940E+01 -0.12570150073E+02  0.77383179961E+02  0.78547395787E+02  0.10566000000E+00 0. -1.
        994    1    1    2    0    0 -0.26665837888E+01 -0.10837611296E+00  0.12832193808E+01  0.17122560868E+03  0.17120000000E+03 0.  0.
        998    1    1    2    0    0 -0.21828499052E+01  0.12678526186E+02  0.14213335969E+04  0.14214269955E+04  0.10000000000E+02 0. -1.
</event>
<event>
 5    1  0.1658612E-008  0.3801577E+03  0.7957747E-01  0.3450472E+00
         13   -1    0    0    0    0  0.00000000000E+00  0.00000000000E+00  0.14999999963E+04  0.15000000000E+04  0.10566000000E+00 0. -1.
        994   -1    0    0    0    0 -0.00000000000E+00 -0.00000000000E+00  0.11368683772E-12  0.17120000000E+03  0.17120000000E+03 0.  0.
         13    1    1    2    0    0  0.52419062014E+02 -0.12448566169E+02  0.30442589202E+03  0.30915669127E+03  0.10566000000E+00 0. -1.
        994    1    1    2    0    0 -0.45540427894E+02  0.14925740705E+02  0.11765693468E+02  0.17817008686E+03  0.17120000000E+03 0.  0.
        998    1    1    2    0    0 -0.68786341196E+01 -0.24771745360E+01  0.11838084108E+04  0.11838732219E+04  0.10000000000E+02 0. -1.
</event>
<event>
 5    1  0.1658612E-008  0.3783183E+03  0.7957747E-01  0.3458514E+00
         13   -1    0    0    0    0  0.00000000000E+00  0.00000000000E+00  0.14999999963E+04  0.15000000000E+04  0.10566000000E+00 0. -1.
        994   -1    0    0    0    0 -0.00000000000E+00 -0.00000000000E+00  0.11368683772E-12  0.17120000000E+03  0.17120000000E+03 0.  0.
         13    1    1    2    0    0  0.38419887044E+01  0.16848728046E+02  0.27629292399E+02  0.32588793725E+02  0.10566000000E+00 0. -1.
        994    1    1    2    0    0 -0.13732518886E+02 -0.12729212210E+02  0.61639635686E+01  0.17233121994E+03  0.17120000000E+03 0.  0.
        998    1    1    2    0    0  0.98905301815E+01 -0.41195158359E+01  0.14662067403E+04  0.14662799863E+04  0.10000000000E+02 0. -1.
</event>
<event>
 5    1  0.1658612E-008  0.3790843E+03  0.7957747E-01  0.3455155E+00
         13   -1    0    0    0    0  0.00000000000E+00  0.00000000000E+00  0.14999999963E+04  0.15000000000E+04  0.10566000000E+00 0. -1.
        994   -1    0    0    0    0 -0.00000000000E+00 -0.00000000000E+00  0.11368683772E-12  0.17120000000E+03  0.17120000000E+03 0.  0.
         13    1    1    2    0    0  0.99144505658E+01 -0.26125858872E+02  0.80017205630E+02  0.84756245744E+02  0.10566000000E+00 0. -1.
        994    1    1    2    0    0 -0.83305159831E+01  0.25137129782E+02  0.69510563735E+01  0.17337540187E+03  0.17120000000E+03 0.  0.
        998    1    1    2    0    0 -0.15839345826E+01  0.98872908949E+00  0.14130317343E+04  0.14130683524E+04  0.10000000000E+02 0.  0.
</event>
<event>
 5    1  0.1658612E-008  0.3823423E+03  0.7957747E-01  0.3441022E+00
         13   -1    0    0    0    0  0.00000000000E+00  0.00000000000E+00  0.14999999963E+04  0.15000000000E+04  0.10566000000E+00 0.  1.
        994   -1    0    0    0    0 -0.00000000000E+00 -0.00000000000E+00  0.11368683772E-12  0.17120000000E+03  0.17120000000E+03 0.  0.
         13    1    1    2    0    0 -0.18068339429E+02 -0.12510865856E+02  0.76411103781E+02  0.79508833467E+02  0.10566000000E+00 0.  1.
        994    1    1    2    0    0  0.21918137712E+02  0.11522890812E+02  0.49921237122E+01  0.17305358440E+03  0.17120000000E+03 0.  0.
        998    1    1    2    0    0 -0.38497982837E+01  0.98797504344E+00  0.14185967688E+04  0.14186375821E+04  0.10000000000E+02 0.  1.
</event>
<event>
 5    1  0.1658612E-008  0.3815984E+03  0.7957747E-01  0.3444228E+00
         13   -1    0    0    0    0  0.00000000000E+00  0.00000000000E+00  0.14999999963E+04  0.15000000000E+04  0.10566000000E+00 0.  1.
        994   -1    0    0    0    0 -0.00000000000E+00 -0.00000000000E+00  0.11368683772E-12  0.17120000000E+03  0.17120000000E+03 0.  0.
         13    1    1    2    0    0  0.15100820424E+02 -0.16772479767E+02  0.78787652764E+02  0.81956428955E+02  0.10566000000E+00 0.  1.
        994    1    1    2    0    0 -0.34986353085E+01  0.42832287379E+01  0.34301617633E+01  0.17132364842E+03  0.17120000000E+03 0.  0.
        998    1    1    2    0    0 -0.11602185115E+02  0.12489251030E+02  0.14177821818E+04  0.14179199226E+04  0.10000000000E+02 0.  1.
</event>
<event>
 5    1  0.1658612E-008  0.3846094E+03  0.7957747E-01  0.3431331E+00
         13   -1    0    0    0    0  0.00000000000E+00  0.00000000000E+00  0.14999999963E+04  0.15000000000E+04  0.10566000000E+00 0. -1.
        994   -1    0    0    0    0 -0.00000000000E+00 -0.00000000000E+00  0.11368683772E-12  0.17120000000E+03  0.17120000000E+03 0.  0.
         13    1    1    2    0    0 -0.15613617292E+02 -0.24122011342E+01  0.72069062865E+02  0.73780517384E+02  0.10566000000E+00 0. -1.
        994    1    1    2    0    0  0.19633958978E+01 -0.11170143609E+01  0.18410027021E+01  0.17122479942E+03  0.17120000000E+03 0.  0.
        998    1    1    2    0    0  0.13650221394E+02  0.35292154951E+01  0.14260899307E+04  0.14261946832E+04  0.10000000000E+02 0. -1.
</event>
<event>
 5    1  0.1658612E-008  0.3813978E+03  0.7957747E-01  0.3445095E+00
         13   -1    0    0    0    0  0.00000000000E+00  0.00000000000E+00  0.14999999963E+04  0.15000000000E+04  0.10566000000E+00 0. -1.
        994   -1    0    0    0    0 -0.00000000000E+00 -0.00000000000E+00  0.11368683772E-12  0.17120000000E+03  0.17120000000E+03 0.  0.
         13    1    1    2    0    0  0.46760460755E+02 -0.35781765024E+02  0.11468542971E+03  0.12891716081E+03  0.10566000000E+00 0. -1.
        994    1    1    2    0    0  0.89772775988E+01 -0.15532380252E+02  0.18270269153E+02  0.17310427229E+03  0.17120000000E+03 0.  0.
        998    1    1    2    0    0 -0.55737738353E+02  0.51314145276E+02  0.13670442974E+04  0.13691785669E+04  0.10000000000E+02 0. -1.
</event>
<event>
 5    1  0.1658612E-008  0.3709053E+03  0.7957747E-01  0.3491741E+00
         13   -1    0    0    0    0  0.00000000000E+00  0.00000000000E+00  0.14999999963E+04  0.15000000000E+04  0.10566000000E+00 0. -1.
        994   -1    0    0    0    0 -0.00000000000E+00 -0.00000000000E+00  0.11368683772E-12  0.17120000000E+03  0.17120000000E+03 0.  0.
         13    1    1    2    0    0  0.70909756297E+02 -0.12924527529E+02  0.24254549502E+03  0.25302878348E+03  0.10566000000E+00 0. -1.
        994    1    1    2    0    0 -0.71960478347E+02  0.17548459492E+02  0.27951756129E+02  0.18861866171E+03  0.17120000000E+03 0.  0.
        998    1    1    2    0    0  0.10507220501E+01 -0.46239319627E+01  0.12295027451E+04  0.12295525548E+04  0.10000000000E+02 0.  0.
</event>
<event>
 5    1  0.1658612E-008  0.3841856E+03  0.7957747E-01  0.3433134E+00
         13   -1    0    0    0    0  0.00000000000E+00  0.00000000000E+00  0.14999999963E+04  0.15000000000E+04  0.10566000000E+00 0.  1.
        994   -1    0    0    0    0 -0.00000000000E+00 -0.00000000000E+00  0.11368683772E-12  0.17120000000E+03  0.17120000000E+03 0.  0.
         13    1    1    2    0    0  0.11753495646E+02  0.14552195428E+01  0.35494866207E+02  0.37418698733E+02  0.10566000000E+00 0.  1.
        994    1    1    2    0    0  0.23212189365E+01 -0.17455293156E+01  0.20628302794E+01  0.17123705849E+03  0.17120000000E+03 0.  0.
        998    1    1    2    0    0 -0.14074714583E+02  0.29030977279E+00  0.14624422998E+04  0.14625442428E+04  0.10000000000E+02 0.  1.
</event>
<event>
 5    1  0.1658612E-008  0.3806203E+03  0.7957747E-01  0.3448462E+00
         13   -1    0    0    0    0  0.00000000000E+00  0.00000000000E+00  0.14999999963E+04  0.15000000000E+04  0.10566000000E+00 0. -1.
        994   -1    0    0    0    0 -0.00000000000E+00 -0.00000000000E+00  0.11368683772E-12  0.17120000000E+03  0.17120000000E+03 0.  0.
         13    1    1    2    0    0  0.20377342348E+02 -0.39369587280E+01  0.52892979947E+02  0.56819136010E+02  0.10566000000E+00 0. -1.
        994    1    1    2    0    0 -0.22819928572E+02  0.45670808778E+01  0.56292835916E+01  0.17286623789E+03  0.17120000000E+03 0.  0.
        998    1    1    2    0    0  0.24425862240E+01 -0.63012214977E+00  0.14414777327E+04  0.14415146261E+04  0.10000000000E+02 0. -1.
</event>
<event>
 5    1  0.1658612E-008  0.3852515E+03  0.7957747E-01  0.3428606E+00
         13   -1    0    0    0    0  0.00000000000E+00  0.00000000000E+00  0.14999999963E+04  0.15000000000E+04  0.10566000000E+00 0.  1.
        994   -1    0    0    0    0 -0.00000000000E+00 -0.00000000000E+00  0.11368683772E-12  0.17120000000E+03  0.17120000000E+03 0.  0.
         13    1    1    2    0    0 -0.18014207246E+02 -0.54349473703E+01  0.11148006723E+03  0.11305691871E+03  0.10566000000E+00 0.  1.
        994    1    1    2    0    0  0.18797172995E+02  0.15664247545E+01  0.26752870417E+01  0.17225674025E+03  0.17120000000E+03 0.  0.
        998    1    1    2    0    0 -0.78296574909E+00  0.38685226158E+01  0.13858446420E+04  0.13858863410E+04  0.10000000000E+02 0.  1.
</event>
<event>
 5    1  0.1658612E-008  0.4084424E+03  0.7957747E-01  0.3335954E+00
         13   -1    0    0    0    0  0.00000000000E+00  0.00000000000E+00  0.14999999963E+04  0.15000000000E+04  0.10566000000E+00 0. -1.
        994   -1    0    0    0    0 -0.00000000000E+00 -0.00000000000E+00  0.11368683772E-12  0.17120000000E+03  0.17120000000E+03 0.  0.
         13    1    1    2    0    0 -0.94293711056E+02  0.64836906943E+01  0.11248309324E+03  0.14692106595E+03  0.10566000000E+00 0. -1.
        994    1    1    2    0    0  0.10437449124E+03 -0.97592289148E+01  0.79078548240E+02  0.21575943493E+03  0.17120000000E+03 0.  0.
        998    1    1    2    0    0 -0.10080780179E+02  0.32755382205E+01  0.13084383548E+04  0.13085194991E+04  0.10000000000E+02 0. -1.
</event>
<event>
 5    1  0.1658612E-008  0.3821122E+03  0.7957747E-01  0.3442013E+00
         13   -1    0    0    0    0  0.00000000000E+00  0.00000000000E+00  0.14999999963E+04  0.15000000000E+04  0.10566000000E+00 0. -1.
        994   -1    0    0    0    0 -0.00000000000E+00 -0.00000000000E+00  0.11368683772E-12  0.17120000000E+03  0.17120000000E+03 0.  0.
         13    1    1    2    0    0 -0.95394820391E+00 -0.14083997210E+02  0.32066261161E+02  0.35036056620E+02  0.10566000000E+00 0. -1.
        994    1    1    2    0    0  0.78009343217E+01  0.24751807630E+01  0.32930803671E+01  0.17142714334E+03  0.17120000000E+03 0.  0.
        998    1    1    2    0    0 -0.68469861178E+01  0.11608816447E+02  0.14646406548E+04  0.14647368000E+04  0.10000000000E+02 0. -1.
</event>
<event>
 5    1  0.1658612E-008  0.3707176E+03  0.7957747E-01  0.3492599E+00
         13   -1    0    0    0    0  0.00000000000E+00  0.00000000000E+00  0.14999999963E+04  0.15000000000E+04  0.10566000000E+00 0. -1.
        994   -1    0    0    0    0 -0.00000000000E+00 -0.00000000000E+00  0.11368683772E-12  0.17120000000E+03  0.17120000000E+03 0.  0.
         13    1    1    2    0    0 -0.10467554088E+03  0.80455285508E+02  0.79287290784E+03  0.80378945065E+03  0.10566000000E+00 0. -1.
        994    1    1    2    0    0  0.10259355794E+03 -0.91013614047E+01  0.49486587333E+02  0.20583157007E+03  0.17120000000E+03 0.  0.
        998    1    1    2    0    0  0.20819829373E+01 -0.71353924103E+02  0.65764050110E+03  0.66157897928E+03  0.10000000000E+02 0. -1.
</event>
<event>
 5    1  0.1658612E-008  0.3780393E+03  0.7957747E-01  0.3459740E+00
         13   -1    0    0    0    0  0.00000000000E+00  0.00000000000E+00  0.14999999963E+04  0.15000000000E+04  0.10566000000E+00 0.  1.
        994   -1    0    0    0    0 -0.00000000000E+00 -0.00000000000E+00  0.11368683772E-12  0.17120000000E+03  0.17120000000E+03 0.  0.
         13    1    1    2    0    0 -0.77815312437E+01 -0.13939191805E+03  0.78875711358E+03  0.80101713741E+03  0.10566000000E+00 0.  1.
        994    1    1    2    0    0  0.40703906756E+02  0.14429424819E+03  0.84919394006E+02  0.24289582451E+03  0.17120000000E+03 0.  0.
        998    1    1    2    0    0 -0.32922375512E+02 -0.49023301412E+01  0.62632348869E+03  0.62728703808E+03  0.10000000000E+02 0.  1.
</event>
<event>
 5    1  0.1658612E-008  0.3850445E+03  0.7957747E-01  0.3429483E+00
         13   -1    0    0    0    0  0.00000000000E+00  0.00000000000E+00  0.14999999963E+04  0.15000000000E+04  0.10566000000E+00 0. -1.
        994   -1    0    0    0    0 -0.00000000000E+00 -0.00000000000E+00  0.11368683772E-12  0.17120000000E+03  0.17120000000E+03 0.  0.
         13    1    1    2    0    0  0.93865519735E+00 -0.18863987512E+02  0.10845838338E+03  0.11009070437E+03  0.10566000000E+00 0. -1.
        994    1    1    2    0    0  0.70934532748E+01  0.15281476708E+02  0.25419117222E+01  0.17204575532E+03  0.17120000000E+03 0.  0.
        998    1    1    2    0    0 -0.80321084721E+01  0.35825108043E+01  0.13889997012E+04  0.13890635403E+04  0.10000000000E+02 0. -1.
</event>
<event>
 5    1  0.1658612E-008  0.3760517E+03  0.7957747E-01  0.3468533E+00
         13   -1    0    0    0    0  0.00000000000E+00  0.00000000000E+00  0.14999999963E+04  0.15000000000E+04  0.10566000000E+00 0. -1.
        994   -1    0    0    0    0 -0.00000000000E+00 -0.00000000000E+00  0.11368683772E-12  0.17120000000E+03  0.17120000000E+03 0.  0.
         13    1    1    2    0    0  0.22412700075E+02 -0.43748712537E+02  0.21457950968E+03  0.22013781164E+03  0.10566000000E+00 0. -1.
        994    1    1    2    0    0 -0.93172173600E+02 -0.20530002782E+02  0.37623006111E+02  0.19956819771E+03  0.17120000000E+03 0.  0.
        998    1    1    2    0    0  0.70759473525E+02  0.64278715319E+02  0.12477974805E+04  0.12514939907E+04  0.10000000000E+02 0. -1.
</event>
<event>
 5    1  0.1658612E-008  0.3853468E+03  0.7957747E-01  0.3428203E+00
         13   -1    0    0    0    0  0.00000000000E+00  0.00000000000E+00  0.14999999963E+04  0.15000000000E+04  0.10566000000E+00 0. -1.
        994   -1    0    0    0    0 -0.00000000000E+00 -0.00000000000E+00  0.11368683772E-12  0.17120000000E+03  0.17120000000E+03 0.  0.
         13    1    1    2    0    0 -0.11762552654E+02 -0.82932444544E+00  0.49634427177E+02  0.51016006794E+02  0.10566000000E+00 0. -1.
        994    1    1    2    0    0  0.13448111175E+01  0.24115687050E+01  0.14830885389E+01  0.17122868840E+03  0.17120000000E+03 0.  0.
        998    1    1    2    0    0  0.10417741536E+02 -0.15822442596E+01  0.14488824806E+04  0.14489553048E+04  0.10000000000E+02 0. -1.
</event>
<event>
 5    1  0.1658612E-008  0.3785246E+03  0.7957747E-01  0.3457608E+00
         13   -1    0    0    0    0  0.00000000000E+00  0.00000000000E+00  0.14999999963E+04  0.15000000000E+04  0.10566000000E+00 0. -1.
        994   -1    0    0    0    0 -0.00000000000E+00 -0.00000000000E+00  0.11368683772E-12  0.17120000000E+03  0.17120000000E+03 0.  0.
         13    1    1    2    0    0  0.32683810203E+02 -0.12039015268E+02  0.11426464993E+03  0.11945539220E+03  0.10566000000E+00 0. -1.
        994    1    1    2    0    0 -0.31975437864E+02  0.13754516020E+02  0.89607209292E+01  0.17493241511E+03  0.17120000000E+03 0.  0.
        998    1    1    2    0    0 -0.70837233924E+00 -0.17155007510E+01  0.13767746254E+04  0.13768121927E+04  0.10000000000E+02 0. -1.
</event>
<event>
 5    1  0.1658612E-008  0.3756606E+03  0.7957747E-01  0.3470274E+00
         13   -1    0    0    0    0  0.00000000000E+00  0.00000000000E+00  0.14999999963E+04  0.15000000000E+04  0.10566000000E+00 0. -1.
        994   -1    0    0    0    0 -0.00000000000E+00 -0.00000000000E+00  0.11368683772E-12  0.17120000000E+03  0.17120000000E+03 0.  0.
         13    1    1    2    0    0  0.13807965053E+02 -0.26726086771E+01  0.12539366419E+02  0.18842760155E+02  0.10566000000E+00 0. -1.
        994    1    1    2    0    0 -0.18144819085E+02  0.48022795884E+01  0.75356725973E+01  0.17239061085E+03  0.17120000000E+03 0.  0.
        998    1    1    2    0    0  0.43368540329E+01 -0.21296709113E+01  0.14799249573E+04  0.14799666290E+04  0.10000000000E+02 0. -1.
</event>
<event>
 5    1  0.1658612E-008  0.3823841E+03  0.7957747E-01  0.3440843E+00
         13   -1    0    0    0    0  0.00000000000E+00  0.00000000000E+00  0.14999999963E+04  0.15000000000E+04  0.10566000000E+00 0.  1.
        994   -1    0    0    0    0 -0.00000000000E+00 -0.00000000000E+00  0.11368683772E-12  0.17120000000E+03  0.17120000000E+03 0.  0.
         13    1    1    2    0    0  0.33366489208E+02 -0.24977738224E+02  0.23115789278E+03  0.23488548820E+03  0.10566000000E+00 0.  1.
        994    1    1    2    0    0 -0.41412554799E+02  0.30017584020E+02  0.11660348957E+02  0.17905713832E+03  0.17120000000E+03 0.  0.
        998    1    1    2    0    0  0.80460655912E+01 -0.50398457967E+01  0.12571817545E+04  0.12572573735E+04  0.10000000000E+02 0.  1.
</event>
<event>
 5    1  0.1658612E-008  0.3858682E+03  0.7957747E-01  0.3425998E+00
         13   -1    0    0    0    0  0.00000000000E+00  0.00000000000E+00  0.14999999963E+04  0.15000000000E+04  0.10566000000E+00 0. -1.
        994   -1    0    0    0    0 -0.00000000000E+00 -0.00000000000E+00  0.11368683772E-12  0.17120000000E+03  0.17120000000E+03 0.  0.
         13    1    1    2    0    0  0.64087713832E+01 -0.98723683456E+01  0.57516289166E+02  0.58708352821E+02  0.10566000000E+00 0. -1.
        994    1    1    2    0    0 -0.78635028198E+01  0.66475251461E+01  0.15474536656E+01  0.17151635164E+03  0.17120000000E+03 0.  0.
        998    1    1    2    0    0  0.14547314367E+01  0.32248431994E+01  0.14409362534E+04  0.14409752955E+04  0.10000000000E+02 0. -1.
</event>
<event>
 5    1  0.1658612E-008  0.3827756E+03  0.7957747E-01  0.3439161E+00
         13   -1    0    0    0    0  0.00000000000E+00  0.00000000000E+00  0.14999999963E+04  0.15000000000E+04  0.10566000000E+00 0.  1.
        994   -1    0    0    0    0 -0.00000000000E+00 -0.00000000000E+00  0.11368683772E-12  0.17120000000E+03  0.17120000000E+03 0.  0.
         13    1    1    2    0    0 -0.21127465100E+02  0.14510439021E+02  0.11031146224E+03  0.11324995579E+03  0.10566000000E+00 0.  1.
        994    1    1    2    0    0  0.21905616814E+02 -0.16906657089E+02  0.52790583326E+01  0.17350216010E+03  0.17120000000E+03 0.  0.
        998    1    1    2    0    0 -0.77815171393E+00  0.23962180677E+01  0.13844094757E+04  0.13844478841E+04  0.10000000000E+02 0.  1.
</event>
<event>
 5    1  0.1658612E-008  0.3835429E+03  0.7957747E-01  0.3435876E+00
         13   -1    0    0    0    0  0.00000000000E+00  0.00000000000E+00  0.14999999963E+04  0.15000000000E+04  0.10566000000E+00 0.  1.
        994   -1    0    0    0    0 -0.00000000000E+00 -0.00000000000E+00  0.11368683772E-12  0.17120000000E+03  0.17120000000E+03 0.  0.
         13    1    1    2    0    0  0.60769249928E+01 -0.93939822473E+01  0.25836795306E+02  0.28155409348E+02  0.10566000000E+00 0.  1.
        994    1    1    2    0    0 -0.79171073734E+01  0.36671809402E+01  0.26068968007E+01  0.17144201561E+03  0.17120000000E+03 0.  0.
        998    1    1    2    0    0  0.18401823805E+01  0.57268013071E+01  0.14715563042E+04  0.14716025750E+04  0.10000000000E+02 0.  1.
</event>
<event>
 5    1  0.1658612E-008  0.3725795E+03  0.7957747E-01  0.3484119E+00
         13   -1    0    0    0    0  0.00000000000E+00  0.00000000000E+00  0.14999999963E+04  0.15000000000E+04  0.10566000000E+00 0. -1.
        994   -1    0    0    0    0 -0.00000000000E+00 -0.00000000000E+00  0.11368683772E-12  0.17120000000E+03  0.17120000000E+03 0.  0.
         13    1    1    2    0    0 -0.43427312745E+02  0.30945840396E+02  0.11625181916E+03  0.12789868315E+03  0.10566000000E+00 0. -1.
        994    1    1    2    0    0  0.29133816332E+02  0.29564690978E+01  0.15340432578E+02  0.17436252130E+03  0.17120000000E+03 0.  0.
        998    1    1    2    0    0  0.14293496413E+02 -0.33902309494E+02  0.13684077445E+04  0.13689387955E+04  0.10000000000E+02 0.  1.
</event>
<event>
 5    1  0.1658612E-008  0.3826309E+03  0.7957747E-01  0.3439783E+00
         13   -1    0    0    0    0  0.00000000000E+00  0.00000000000E+00  0.14999999963E+04  0.15000000000E+04  0.10566000000E+00 0.  1.
        994   -1    0    0    0    0 -0.00000000000E+00 -0.00000000000E+00  0.11368683772E-12  0.17120000000E+03  0.17120000000E+03 0.  0.
         13    1    1    2    0    0  0.32098565587E+02  0.25225993467E+01  0.17024139323E+03  0.17325941404E+03  0.10566000000E+00 0.  1.
        994    1    1    2    0    0 -0.28428476566E+02 -0.27488916153E+00  0.54942158557E+01  0.17363144949E+03  0.17120000000E+03 0.  0.
        998    1    1    2    0    0 -0.36700890206E+01 -0.22477101852E+01  0.13242643872E+04  0.13243091365E+04  0.10000000000E+02 0.  1.
</event>
<event>
 5    1  0.1658612E-008  0.3826946E+03  0.7957747E-01  0.3439509E+00
         13   -1    0    0    0    0  0.00000000000E+00  0.00000000000E+00  0.14999999963E+04  0.15000000000E+04  0.10566000000E+00 0. -1.
        994   -1    0    0    0    0 -0.00000000000E+00 -0.00000000000E+00  0.11368683772E-12  0.17120000000E+03  0.17120000000E+03 0.  0.
         13    1    1    2    0    0 -0.55094075146E+01  0.19582641709E+02  0.72517105172E+02  0.75316499746E+02  0.10566000000E+00 0. -1.
        994    1    1    2    0    0 -0.49514138634E+00 -0.16606857845E+02  0.36942272569E+01  0.17204394848E+03  0.17120000000E+03 0.  0.
        998    1    1    2    0    0  0.60045489010E+01 -0.29757838638E+01  0.14237886638E+04  0.14238395518E+04  0.10000000000E+02 0. -1.
</event>
<event>
 5    1  0.1658612E-008  0.3850956E+03  0.7957747E-01  0.3429267E+00
         13   -1    0    0    0    0  0.00000000000E+00  0.00000000000E+00  0.14999999963E+04  0.15000000000E+04  0.10566000000E+00 0. -1.
        994   -1    0    0    0    0 -0.00000000000E+00 -0.00000000000E+00  0.11368683772E-12  0.17120000000E+03  0.17120000000E+03 0.  0.
         13    1    1    2    0    0 -0.51773550853E+01 -0.12415026037E+02  0.59636405216E+02  0.61134686294E+02  0.10566000000E+00 0. -1.
        994    1    1    2    0    0  0.38899582511E+01  0.77967247969E+00  0.16344147849E+01  0.17125376193E+03  0.17120000000E+03 0.  0.
        998    1    1    2    0    0  0.12873968342E+01  0.11635353557E+02  0.14387291763E+04  0.14388115518E+04  0.10000000000E+02 0. -1.
</event>
<event>
 5    1  0.1658612E-008  0.3837808E+03  0.7957747E-01  0.3434860E+00
         13   -1    0    0    0    0  0.00000000000E+00  0.00000000000E+00  0.14999999963E+04  0.15000000000E+04  0.10566000000E+00 0. -1.
        994   -1    0    0    0    0 -0.00000000000E+00 -0.00000000000E+00  0.11368683772E-12  0.17120000000E+03  0.17120000000E+03 0.  0.
         13    1    1    2    0    0 -0.15213797174E+02  0.46954496748E+01  0.54268844977E+02  0.56556392842E+02  0.10566000000E+00 0. -1.
        994    1    1    2    0    0  0.16599615389E+02 -0.47223937762E+01  0.32206956926E+01  0.17209782426E+03  0.17120000000E+03 0.  0.
        998    1    1    2    0    0 -0.13858182154E+01  0.26944101412E-01  0.14425104556E+04  0.14425457829E+04  0.10000000000E+02 0. -1.
</event>
<event>
 5    1  0.1658612E-008  0.3840949E+03  0.7957747E-01  0.3433520E+00
         13   -1    0    0    0    0  0.00000000000E+00  0.00000000000E+00  0.14999999963E+04  0.15000000000E+04  0.10566000000E+00 0. -1.
        994   -1    0    0    0    0 -0.00000000000E+00 -0.00000000000E+00  0.11368683772E-12  0.17120000000E+03  0.17120000000E+03 0.  0.
         13    1    1    2    0    0  0.16859719882E+02  0.79735693050E+01  0.93163786269E+02  0.95012263409E+02  0.10566000000E+00 0. -1.
        994    1    1    2    0    0  0.52373364123E+01 -0.65242080134E+00  0.21720415118E+01  0.17129510533E+03  0.17120000000E+03 0.  0.
        998    1    1    2    0    0 -0.22097056294E+02 -0.73211485036E+01  0.14046641685E+04  0.14048926313E+04  0.10000000000E+02 0. -1.
</event>
<event>
 5    1  0.1658612E-008  0.3806584E+03  0.7957747E-01  0.3448297E+00
         13   -1    0    0    0    0  0.00000000000E+00  0.00000000000E+00  0.14999999963E+04  0.15000000000E+04  0.10566000000E+00 0.  1.
        994   -1    0    0    0    0 -0.00000000000E+00 -0.00000000000E+00  0.11368683772E-12  0.17120000000E+03  0.17120000000E+03 0.  0.
         13    1    1    2    0    0  0.35447137974E+02  0.18217616058E+01  0.17737981834E+03  0.18089618438E+03  0.10566000000E+00 0.  1.
        994    1    1    2    0    0 -0.11473061933E+02 -0.51600745261E+02  0.13178730169E+02  0.17965908547E+03  0.17120000000E+03 0.  0.
        998    1    1    2    0    0 -0.23974076040E+02  0.49778983655E+02  0.13094414478E+04  0.13106447301E+04  0.10000000000E+02 0.  1.
</event>
<event>
 5    1  0.1658612E-008  0.3686065E+03  0.7957747E-01  0.3502320E+00
         13   -1    0    0    0    0  0.00000000000E+00  0.00000000000E+00  0.14999999963E+04  0.15000000000E+04  0.10566000000E+00 0. -1.
        994   -1    0    0    0    0 -0.00000000000E+00 -0.00000000000E+00  0.11368683772E-12  0.17120000000E+03  0.17120000000E+03 0.  0.
         13    1    1    2    0    0  0.42790919243E+02 -0.21139016193E+02  0.92809776030E+02  0.10436276379E+03  0.10566000000E+00 0. -1.
        994    1    1    2    0    0 -0.72865458242E+02  0.17110308089E+02  0.29956000182E+02  0.18923250142E+03  0.17120000000E+03 0.  0.
        998    1    1    2    0    0  0.30074538999E+02  0.40287081032E+01  0.13772342201E+04  0.13776047348E+04  0.10000000000E+02 0. -1.
</event>
<event>
 5    1  0.1658612E-008  0.3809037E+03  0.7957747E-01  0.3447233E+00
         13   -1    0    0    0    0  0.00000000000E+00  0.00000000000E+00  0.14999999963E+04  0.15000000000E+04  0.10566000000E+00 0. -1.
        994   -1    0    0    0    0 -0.00000000000E+00 -0.00000000000E+00  0.11368683772E-12  0.17120000000E+03  0.17120000000E+03 0.  0.
         13    1    1    2    0    0 -0.20449273354E+02  0.61301345410E+00  0.57261256076E+02  0.60806341591E+02  0.10566000000E+00 0. -1.
        994    1    1    2    0    0  0.62257271120E+01  0.26086716801E+01  0.38295483340E+01  0.17137581593E+03  0.17120000000E+03 0.  0.
        998    1    1    2    0    0  0.14223546242E+02 -0.32216851342E+01  0.14389091919E+04  0.14390178425E+04  0.10000000000E+02 0. -1.
</event>
<event>
 5    1  0.1658612E-008  0.3853717E+03  0.7957747E-01  0.3428097E+00
         13   -1    0    0    0    0  0.00000000000E+00  0.00000000000E+00  0.14999999963E+04  0.15000000000E+04  0.10566000000E+00 0. -1.
        994   -1    0    0    0    0 -0.00000000000E+00 -0.00000000000E+00  0.11368683772E-12  0.17120000000E+03  0.17120000000E+03 0.  0.
         13    1    1    2    0    0  0.21438630984E+00  0.14495530225E+02  0.68144210379E+02  0.69669296898E+02  0.10566000000E+00 0. -1.
        994    1    1    2    0    0 -0.11606044917E+02 -0.19624567434E+02  0.31550185416E+01  0.17274031975E+03  0.17120000000E+03 0.  0.
        998    1    1    2    0    0  0.11391658607E+02  0.51290372085E+01  0.14287007674E+04  0.14287903834E+04  0.10000000000E+02 0. -1.
</event>
<event>
 5    1  0.1658612E-008  0.3854462E+03  0.7957747E-01  0.3427782E+00
         13   -1    0    0    0    0  0.00000000000E+00  0.00000000000E+00  0.14999999963E+04  0.15000000000E+04  0.10566000000E+00 0. -1.
        994   -1    0    0    0    0 -0.00000000000E+00 -0.00000000000E+00  0.11368683772E-12  0.17120000000E+03  0.17120000000E+03 0.  0.
         13    1    1    2    0    0  0.15104899316E+01 -0.99633135960E+01  0.35215986319E+02  0.36629578951E+02  0.10566000000E+00 0. -1.
        994    1    1    2    0    0 -0.25239188017E+01  0.11395220687E+02  0.18562390306E+01  0.17160742071E+03  0.17120000000E+03 0.  0.
        998    1    1    2    0    0  0.10134288701E+01 -0.14319070912E+01  0.14629277709E+04  0.14629630003E+04  0.10000000000E+02 0. -1.
</event>
<event>
 5    1  0.1658612E-008  0.3737174E+03  0.7957747E-01  0.3478979E+00
         13   -1    0    0    0    0  0.00000000000E+00  0.00000000000E+00  0.14999999963E+04  0.15000000000E+04  0.10566000000E+00 0.  1.
        994   -1    0    0    0    0 -0.00000000000E+00 -0.00000000000E+00  0.11368683772E-12  0.17120000000E+03  0.17120000000E+03 0.  0.
         13    1    1    2    0    0 -0.18398393484E+02 -0.36597600544E+02  0.10613941645E+03  0.11376938136E+03  0.10566000000E+00 0.  1.
        994    1    1    2    0    0  0.83439525657E+01  0.37637363704E+02  0.12429619445E+02  0.17592648502E+03  0.17120000000E+03 0.  0.
        998    1    1    2    0    0  0.10054440918E+02 -0.10397631596E+01  0.13814309604E+04  0.13815041336E+04  0.10000000000E+02 0.  1.
</event>
<event>
 5    1  0.1658612E-008  0.3791091E+03  0.7957747E-01  0.3455047E+00
         13   -1    0    0    0    0  0.00000000000E+00  0.00000000000E+00  0.14999999963E+04  0.15000000000E+04  0.10566000000E+00 0. -1.
        994   -1    0    0    0    0 -0.00000000000E+00 -0.00000000000E+00  0.11368683772E-12  0.17120000000E+03  0.17120000000E+03 0.  0.
         13    1    1    2    0    0 -0.22106146334E+02 -0.75227017897E+01  0.62332141165E+02  0.66562600116E+02  0.10566000000E+00 0. -1.
        994    1    1    2    0    0 -0.15077074538E+01 -0.81847549140E+01  0.48158021366E+01  0.17146980884E+03  0.17120000000E+03 0.  0.
        998    1    1    2    0    0  0.23613853788E+02  0.15707456704E+02  0.14328520530E+04  0.14331675910E+04  0.10000000000E+02 0. -1.
</event>
<event>
 5    1  0.1658612E-008  0.3693076E+03  0.7957747E-01  0.3499079E+00
         13   -1    0    0    0    0  0.00000000000E+00  0.00000000000E+00  0.14999999963E+04  0.15000000000E+04  0.10566000000E+00 0. -1.
        994   -1    0    0    0    0 -0.00000000000E+00 -0.00000000000E+00  0.11368683772E-12  0.17120000000E+03  0.17120000000E+03 0.  0.
         13    1    1    2    0    0  0.25121411060E+02  0.24807228182E+02  0.54587329481E+02  0.65009780553E+02  0.10566000000E+00 0. -1.
        994    1    1    2    0    0 -0.21020654073E+02 -0.15634416912E+02  0.12970377040E+02  0.17367778663E+03  0.17120000000E+03 0.  0.
        998    1    1    2    0    0 -0.41007569866E+01 -0.91728112698E+01  0.14324422898E+04  0.14325124328E+04  0.10000000000E+02 0. -1.
</event>
<event>
 5    1  0.1658612E-008  0.3795148E+03  0.7957747E-01  0.3453274E+00
         13   -1    0    0    0    0  0.00000000000E+00  0.00000000000E+00  0.14999999963E+04  0.15000000000E+04  0.10566000000E+00 0. -1.
        994   -1    0    0    0    0 -0.00000000000E+00 -0.00000000000E+00  0.11368683772E-12  0.17120000000E+03  0.17120000000E+03 0.  0.
         13    1    1    2    0    0 -0.26498382496E+02  0.10058317657E+01  0.72407554206E+02  0.77110576724E+02  0.10566000000E+00 0. -1.
        994    1    1    2    0    0  0.35252680761E+02 -0.37717638667E+02  0.13354898405E+02  0.17931303656E+03  0.17120000000E+03 0.  0.
        998    1    1    2    0    0 -0.87542982652E+01  0.36711806902E+02  0.14142375437E+04  0.14147763867E+04  0.10000000000E+02 0. -1.
</event>
<event>
 5    1  0.1658612E-008  0.3862199E+03  0.7957747E-01  0.3424515E+00
         13   -1    0    0    0    0  0.00000000000E+00  0.00000000000E+00  0.14999999963E+04  0.15000000000E+04  0.10566000000E+00 0. -1.
        994   -1    0    0    0    0 -0.00000000000E+00 -0.00000000000E+00  0.11368683772E-12  0.17120000000E+03  0.17120000000E+03 0.  0.
         13    1    1    2    0    0  0.85904008988E+01  0.76204383683E+01  0.68057799589E+02  0.69019861760E+02  0.10566000000E+00 0. -1.
        994    1    1    2    0    0  0.80048315556E+00 -0.48111257247E+01  0.11035912523E+01  0.17127301486E+03  0.17120000000E+03 0.  0.
        998    1    1    2    0    0 -0.93908840544E+01 -0.28093126436E+01  0.14308386054E+04  0.14309071234E+04  0.10000000000E+02 0. -1.
</event>
<event>
 5    1  0.1658612E-008  0.3843869E+03  0.7957747E-01  0.3432277E+00
         13   -1    0    0    0    0  0.00000000000E+00  0.00000000000E+00  0.14999999963E+04  0.15000000000E+04  0.10566000000E+00 0.  1.
        994   -1    0    0    0    0 -0.00000000000E+00 -0.00000000000E+00  0.11368683772E-12  0.17120000000E+03  0.17120000000E+03 0.  0.
         13    1    1    2    0    0 -0.85597875489E+01 -0.14092473643E+02  0.70516450829E+02  0.72418566527E+02  0.10566000000E+00 0.  1.
        994    1    1    2    0    0  0.21732923728E+01  0.97949687337E+01  0.22666267601E+01  0.17150872342E+03  0.17120000000E+03 0.  0.
        998    1    1    2    0    0  0.63864951761E+01  0.42975049090E+01  0.14272169187E+04  0.14272727101E+04  0.10000000000E+02 0.  1.
</event>
<event>
 5    1  0.1904311E-008  0.3855098E+03  0.7957747E-01  0.3427513E+00
         13   -1    0    0    0    0  0.00000000000E+00  0.00000000000E+00  0.14999999963E+04  0.15000000000E+04  0.10566000000E+00 0. -1.
        994   -1    0    0    0    0 -0.00000000000E+00 -0.00000000000E+00  0.11368683772E-12  0.17120000000E+03  0.17120000000E+03 0.  0.
         13    1    1    2    0    0 -0.12942202058E+02  0.50569028886E+01  0.71940637031E+02  0.73270316510E+02  0.10566000000E+00 0. -1.
        994    1    1    2    0    0  0.45068648377E+01 -0.58017944436E+01  0.15544683999E+01  0.17136460843E+03  0.17120000000E+03 0.  0.
        998    1    1    2    0    0  0.84353372207E+01  0.74489155498E+00  0.14265048908E+04  0.14265650751E+04  0.10000000000E+02 0. -1.
</event>
<event>
 5    1  0.1658612E-008  0.3838761E+03  0.7957747E-01  0.3434453E+00
         13   -1    0    0    0    0  0.00000000000E+00  0.00000000000E+00  0.14999999963E+04  0.15000000000E+04  0.10566000000E+00 0.  1.
        994   -1    0    0    0    0 -0.00000000000E+00 -0.00000000000E+00  0.11368683772E-12  0.17120000000E+03  0.17120000000E+03 0.  0.
         13    1    1    2    0    0 -0.23078700234E+01 -0.22249709690E+02  0.12027482542E+03  0.12233732316E+03  0.10566000000E+00 0.  1.
        994    1    1    2    0    0  0.10342499112E+02  0.56584346958E+01  0.26480444712E+01  0.17162586434E+03  0.17120000000E+03 0.  0.
        998    1    1    2    0    0 -0.80346290882E+01  0.16591274994E+02  0.13770771264E+04  0.13772368125E+04  0.10000000000E+02 0.  1.
</event>
<event>
 5    1  0.1658612E-008  0.3824834E+03  0.7957747E-01  0.3440416E+00
         13   -1    0    0    0    0  0.00000000000E+00  0.00000000000E+00  0.14999999963E+04  0.15000000000E+04  0.10566000000E+00 0. -1.
        994   -1    0    0    0    0 -0.00000000000E+00 -0.00000000000E+00  0.11368683772E-12  0.17120000000E+03  0.17120000000E+03 0.  0.
         13    1    1    2    0    0  0.19500478527E+02 -0.51836810688E+01  0.70029794176E+02  0.72878820301E+02  0.10566000000E+00 0. -1.
        994    1    1    2    0    0 -0.12945344790E+02 -0.24201006728E+01  0.34600474852E+01  0.17174064972E+03  0.17120000000E+03 0.  0.
        998    1    1    2    0    0 -0.65551337369E+01  0.76037817415E+01  0.14265101546E+04  0.14265805300E+04  0.10000000000E+02 0. -1.
</event>
<event>
 5    1  0.1658612E-008  0.3689172E+03  0.7957747E-01  0.3500882E+00
         13   -1    0    0    0    0  0.00000000000E+00  0.00000000000E+00  0.14999999963E+04  0.15000000000E+04  0.10566000000E+00 0. -1.
        994   -1    0    0    0    0 -0.00000000000E+00 -0.00000000000E+00  0.11368683772E-12  0.17120000000E+03  0.17120000000E+03 0.  0.
         13    1    1    2    0    0 -0.23973968831E+02 -0.66268156089E+02  0.27361225541E+03  0.28254185030E+03  0.10566000000E+00 0. -1.
        994    1    1    2    0    0 -0.25639796063E+02  0.28408034080E+02  0.15484924341E+02  0.17610689488E+03  0.17120000000E+03 0.  0.
        998    1    1    2    0    0  0.49613764893E+02  0.37860122009E+02  0.12109028165E+04  0.12125512548E+04  0.10000000000E+02 0. -1.
</event>
<event>
 5    1  0.1658612E-008  0.3814209E+03  0.7957747E-01  0.3444995E+00
         13   -1    0    0    0    0  0.00000000000E+00  0.00000000000E+00  0.14999999963E+04  0.15000000000E+04  0.10566000000E+00 0. -1.
        994   -1    0    0    0    0 -0.00000000000E+00 -0.00000000000E+00  0.11368683772E-12  0.17120000000E+03  0.17120000000E+03 0.  0.
         13    1    1    2    0    0 -0.11782860120E+02 -0.39193642183E+01  0.21515744224E+02  0.24842214515E+02  0.10566000000E+00 0. -1.
        994    1    1    2    0    0  0.31963912250E+01  0.13418727923E+01  0.34576059408E+01  0.17126999906E+03  0.17120000000E+03 0.  0.
        998    1    1    2    0    0  0.85864688952E+01  0.25774914260E+01  0.14750266461E+04  0.14750877864E+04  0.10000000000E+02 0. -1.
</event>
<event>
 5    1  0.1658612E-008  0.4149496E+03  0.7957747E-01  0.3311804E+00
         13   -1    0    0    0    0  0.00000000000E+00  0.00000000000E+00  0.14999999963E+04  0.15000000000E+04  0.10566000000E+00 0. -1.
        994   -1    0    0    0    0 -0.00000000000E+00 -0.00000000000E+00  0.11368683772E-12  0.17120000000E+03  0.17120000000E+03 0.  0.
         13    1    1    2    0    0 -0.73983784918E+01  0.13404212103E+03  0.21309427841E+03  0.25185553174E+03  0.10566000000E+00 0. -1.
        994    1    1    2    0    0 -0.53359981890E+02 -0.11637429139E+03  0.10948155718E+03  0.24017892232E+03  0.17120000000E+03 0.  0.
        998    1    1    2    0    0  0.60758360382E+02 -0.17667829642E+02  0.11774241607E+04  0.11791655459E+04  0.10000000000E+02 0. -1.
</event>
<event>
 5    1  0.1658612E-008  0.3778987E+03  0.7957747E-01  0.3460359E+00
         13   -1    0    0    0    0  0.00000000000E+00  0.00000000000E+00  0.14999999963E+04  0.15000000000E+04  0.10566000000E+00 0.  1.
        994   -1    0    0    0    0 -0.00000000000E+00 -0.00000000000E+00  0.11368683772E-12  0.17120000000E+03  0.17120000000E+03 0.  0.
         13    1    1    2    0    0 -0.12574724031E+02  0.47017069990E+01  0.15000927472E+02  0.20131287148E+02  0.10566000000E+00 0.  1.
        994    1    1    2    0    0  0.11817636942E+02 -0.15347761563E+01  0.56758251274E+01  0.17170808680E+03  0.17120000000E+03 0.  0.
        998    1    1    2    0    0  0.75708708947E+00 -0.31669308427E+01  0.14793232437E+04  0.14793606261E+04  0.10000000000E+02 0.  1.
</event>
<event>
 5    1  0.1658612E-008  0.3832307E+03  0.7957747E-01  0.3437211E+00
         13   -1    0    0    0    0  0.00000000000E+00  0.00000000000E+00  0.14999999963E+04  0.15000000000E+04  0.10566000000E+00 0.  1.
        994   -1    0    0    0    0 -0.00000000000E+00 -0.00000000000E+00  0.11368683772E-12  0.17120000000E+03  0.17120000000E+03 0.  0.
         13    1    1    2    0    0 -0.19526981078E+02 -0.48955593023E+01  0.77156455221E+02  0.79739571338E+02  0.10566000000E+00 0.  1.
        994    1    1    2    0    0  0.19181895443E+02  0.27433785168E+01  0.37540088874E+01  0.17233398916E+03  0.17120000000E+03 0.  0.
        998    1    1    2    0    0  0.34508563536E+00  0.21521807854E+01  0.14190895322E+04  0.14191264395E+04  0.10000000000E+02 0.  1.
</event>
<event>
 5    1  0.1832348E-008  0.3861896E+03  0.7957747E-01  0.3424643E+00
         13   -1    0    0    0    0  0.00000000000E+00  0.00000000000E+00  0.14999999963E+04  0.15000000000E+04  0.10566000000E+00 0.  1.
        994   -1    0    0    0    0 -0.00000000000E+00 -0.00000000000E+00  0.11368683772E-12  0.17120000000E+03  0.17120000000E+03 0.  0.
         13    1    1    2    0    0 -0.68820287604E+01 -0.87374253868E+01  0.58250359264E+02  0.59302786112E+02  0.10566000000E+00 0.  1.
        994    1    1    2    0    0  0.88446559097E+01  0.85825027874E+01  0.15384023146E+01  0.17164991691E+03  0.17120000000E+03 0.  0.
        998    1    1    2    0    0 -0.19626271493E+01  0.15492259943E+00  0.14402112347E+04  0.14402472970E+04  0.10000000000E+02 0.  1.
</event>
<event>
 5    1  0.1658612E-008  0.3859711E+03  0.7957747E-01  0.3425564E+00
         13   -1    0    0    0    0  0.00000000000E+00  0.00000000000E+00  0.14999999963E+04  0.15000000000E+04  0.10566000000E+00 0. -1.
        994   -1    0    0    0    0 -0.00000000000E+00 -0.00000000000E+00  0.11368683772E-12  0.17120000000E+03  0.17120000000E+03 0.  0.
         13    1    1    2    0    0 -0.10965304017E+02 -0.32162259312E+01  0.55589062318E+02  0.56751537555E+02  0.10566000000E+00 0. -1.
        994    1    1    2    0    0  0.12261812236E+02  0.26659766044E+01  0.16651446644E+01  0.17166732997E+03  0.17120000000E+03 0.  0.
        998    1    1    2    0    0 -0.12965082190E+01  0.55024932679E+00  0.14427457893E+04  0.14427811325E+04  0.10000000000E+02 0. -1.
</event>
<event>
 5    1  0.1658612E-008  0.3789580E+03  0.7957747E-01  0.3455708E+00
         13   -1    0    0    0    0  0.00000000000E+00  0.00000000000E+00  0.14999999963E+04  0.15000000000E+04  0.10566000000E+00 0. -1.
        994   -1    0    0    0    0 -0.00000000000E+00 -0.00000000000E+00  0.11368683772E-12  0.17120000000E+03  0.17120000000E+03 0.  0.
         13    1    1    2    0    0 -0.22967060240E+02 -0.34606637461E+02  0.15752363513E+03  0.16290737246E+03  0.10566000000E+00 0. -1.
        994    1    1    2    0    0  0.30258791128E+02  0.39426032719E+02  0.12990677780E+02  0.17874060592E+03  0.17120000000E+03 0.  0.
        998    1    1    2    0    0 -0.72917308888E+01 -0.48193952574E+01  0.13294856834E+04  0.13295520216E+04  0.10000000000E+02 0. -1.
</event>
<event>
 5    1  0.1658612E-008  0.3855268E+03  0.7957747E-01  0.3427441E+00
         13   -1    0    0    0    0  0.00000000000E+00  0.00000000000E+00  0.14999999963E+04  0.15000000000E+04  0.10566000000E+00 0. -1.
        994   -1    0    0    0    0 -0.00000000000E+00 -0.00000000000E+00  0.11368683772E-12  0.17120000000E+03  0.17120000000E+03 0.  0.
         13    1    1    2    0    0 -0.40226847792E+01  0.10042777858E+02  0.43554358537E+02  0.44877975573E+02  0.10566000000E+00 0. -1.
        994    1    1    2    0    0  0.25015575063E+01 -0.40718903491E+01  0.14437958276E+01  0.17127277258E+03  0.17120000000E+03 0.  0.
        998    1    1    2    0    0  0.15211272729E+01 -0.59708875089E+01  0.14550018419E+04  0.14550492518E+04  0.10000000000E+02 0. -1.
</event>
<event>
 5    1  0.1658612E-008  0.3728453E+03  0.7957747E-01  0.3482916E+00
         13   -1    0    0    0    0  0.00000000000E+00  0.00000000000E+00  0.14999999963E+04  0.15000000000E+04  0.10566000000E+00 0. -1.
        994   -1    0    0    0    0 -0.00000000000E+00 -0.00000000000E+00  0.11368683772E-12  0.17120000000E+03  0.17120000000E+03 0.  0.
         13    1    1    2    0    0  0.12467136406E+02 -0.43848350883E+01  0.76205196056E+01  0.15255810435E+02  0.10566000000E+00 0. -1.
        994    1    1    2    0    0 -0.10913679600E+02  0.72528245207E+01  0.83775833607E+01  0.17190501962E+03  0.17120000000E+03 0.  0.
        998    1    1    2    0    0 -0.15534568062E+01 -0.28679894325E+01  0.14840018933E+04  0.14840391700E+04  0.10000000000E+02 0. -1.
</event>
<event>
 5    1  0.1658612E-008  0.3822883E+03  0.7957747E-01  0.3441255E+00
         13   -1    0    0    0    0  0.00000000000E+00  0.00000000000E+00  0.14999999963E+04  0.15000000000E+04  0.10566000000E+00 0.  1.
        994   -1    0    0    0    0 -0.00000000000E+00 -0.00000000000E+00  0.11368683772E-12  0.17120000000E+03  0.17120000000E+03 0.  0.
         13    1    1    2    0    0  0.89284386550E+01 -0.19861513059E+02  0.81395229063E+02  0.84257885067E+02  0.10566000000E+00 0.  1.
        994    1    1    2    0    0  0.16222546522E+01  0.85680981059E+01  0.32348197903E+01  0.17145246593E+03  0.17120000000E+03 0.  0.
        998    1    1    2    0    0 -0.10550693307E+02  0.11293414953E+02  0.14153699474E+04  0.14154896490E+04  0.10000000000E+02 0.  1.
</event>
<event>
 5    1  0.1658612E-008  0.3713063E+03  0.7957747E-01  0.3489909E+00
         13   -1    0    0    0    0  0.00000000000E+00  0.00000000000E+00  0.14999999963E+04  0.15000000000E+04  0.10566000000E+00 0. -1.
        994   -1    0    0    0    0 -0.00000000000E+00 -0.00000000000E+00  0.11368683772E-12  0.17120000000E+03  0.17120000000E+03 0.  0.
         13    1    1    2    0    0 -0.27205661461E+01  0.21954820050E+02  0.23574832782E+02  0.32329545439E+02  0.10566000000E+00 0. -1.
        994    1    1    2    0    0 -0.40007083164E+00 -0.37791666370E+02  0.13520516967E+02  0.17584258438E+03  0.17120000000E+03 0.  0.
        998    1    1    2    0    0  0.31206369778E+01  0.15836846320E+02  0.14629046465E+04  0.14630278702E+04  0.10000000000E+02 0. -1.
</event>
<event>
 5    1  0.4066445E-008  0.3860857E+03  0.7957747E-01  0.3425081E+00
         13   -1    0    0    0    0  0.00000000000E+00  0.00000000000E+00  0.14999999963E+04  0.15000000000E+04  0.10566000000E+00 0. -1.
        994   -1    0    0    0    0 -0.00000000000E+00 -0.00000000000E+00  0.11368683772E-12  0.17120000000E+03  0.17120000000E+03 0.  0.
         13    1    1    2    0    0 -0.72087219164E+01 -0.82939645321E+01  0.55999603575E+02  0.57067699130E+02  0.10566000000E+00 0. -1.
        994    1    1    2    0    0  0.42711544763E+01  0.61377331140E+01  0.12753193573E+01  0.17136796949E+03  0.17120000000E+03 0.  0.
        998    1    1    2    0    0  0.29375674401E+01  0.21562314181E+01  0.14427250733E+04  0.14427643314E+04  0.10000000000E+02 0. -1.
</event>
<event>
 5    1  0.1658612E-008  0.3709843E+03  0.7957747E-01  0.3491379E+00
         13   -1    0    0    0    0  0.00000000000E+00  0.00000000000E+00  0.14999999963E+04  0.15000000000E+04  0.10566000000E+00 0. -1.
        994   -1    0    0    0    0 -0.00000000000E+00 -0.00000000000E+00  0.11368683772E-12  0.17120000000E+03  0.17120000000E+03 0.  0.
         13    1    1    2    0    0  0.47546702654E+02  0.20493478751E+02  0.21160966283E+03  0.21785162880E+03  0.10566000000E+00 0. -1.
        994    1    1    2    0    0 -0.21917009264E+01  0.67782259525E+02  0.24775110850E+02  0.18580227226E+03  0.17120000000E+03 0.  0.
        998    1    1    2    0    0 -0.45355001728E+02 -0.88275738276E+02  0.12636152226E+04  0.12675460989E+04  0.10000000000E+02 0. -1.
</event>
<event>
 5    1  0.1658612E-008  0.3819413E+03  0.7957747E-01  0.3442749E+00
         13   -1    0    0    0    0  0.00000000000E+00  0.00000000000E+00  0.14999999963E+04  0.15000000000E+04  0.10566000000E+00 0. -1.
        994   -1    0    0    0    0 -0.00000000000E+00 -0.00000000000E+00  0.11368683772E-12  0.17120000000E+03  0.17120000000E+03 0.  0.
         13    1    1    2    0    0 -0.27397589271E+02 -0.17910518984E+02  0.15901731795E+03  0.16235126473E+03  0.10566000000E+00 0. -1.
        994    1    1    2    0    0  0.28523877727E+02  0.66204720217E+01  0.60097101174E+01  0.17379010002E+03  0.17120000000E+03 0.  0.
        998    1    1    2    0    0 -0.11262884567E+01  0.11290046963E+02  0.13349729682E+04  0.13350586352E+04  0.10000000000E+02 0. -1.
</event>
<event>
 5    1  0.1658612E-008  0.3825607E+03  0.7957747E-01  0.3440084E+00
         13   -1    0    0    0    0  0.00000000000E+00  0.00000000000E+00  0.14999999963E+04  0.15000000000E+04  0.10566000000E+00 0. -1.
        994   -1    0    0    0    0 -0.00000000000E+00 -0.00000000000E+00  0.11368683772E-12  0.17120000000E+03  0.17120000000E+03 0.  0.
         13    1    1    2    0    0  0.22763622972E+02  0.30274690615E+02  0.20738886273E+03  0.21081956970E+03  0.10566000000E+00 0. -1.
        994    1    1    2    0    0 -0.54334305126E+02 -0.16884991822E+02  0.13652497106E+02  0.18092305088E+03  0.17120000000E+03 0.  0.
        998    1    1    2    0    0  0.31570682154E+02 -0.13389698793E+02  0.12789586364E+04  0.12794573794E+04  0.10000000000E+02 0. -1.
</event>
<event>
 5    1  0.1658612E-008  0.3781688E+03  0.7957747E-01  0.3459171E+00
         13   -1    0    0    0    0  0.00000000000E+00  0.00000000000E+00  0.14999999963E+04  0.15000000000E+04  0.10566000000E+00 0.  1.
        994   -1    0    0    0    0 -0.00000000000E+00 -0.00000000000E+00  0.11368683772E-12  0.17120000000E+03  0.17120000000E+03 0.  0.
         13    1    1    2    0    0  0.11478753412E+03 -0.29850344737E+02  0.58810851028E+03  0.59994904125E+03  0.10566000000E+00 0.  1.
        994    1    1    2    0    0 -0.13340483269E+03  0.52185644755E+02  0.77504571905E+02  0.23629767153E+03  0.17120000000E+03 0.  0.
        998    1    1    2    0    0  0.18617298569E+02 -0.22335300018E+02  0.83438691409E+03  0.83495328722E+03  0.10000000000E+02 0.  1.
</event>
<event>
 5    1  0.2502527E-008  0.3858713E+03  0.7957747E-01  0.3425985E+00
         13   -1    0    0    0    0  0.00000000000E+00  0.00000000000E+00  0.14999999963E+04  0.15000000000E+04  0.10566000000E+00 0. -1.
        994   -1    0    0    0    0 -0.00000000000E+00 -0.00000000000E+00  0.11368683772E-12  0.17120000000E+03  0.17120000000E+03 0.  0.
         13    1    1    2    0    0  0.10364557941E+02 -0.43772915615E+01  0.54112735580E+02  0.55270100948E+02  0.10566000000E+00 0. -1.
        994    1    1    2    0    0 -0.29226615321E+01  0.70806415711E+01  0.13906015476E+01  0.17137692729E+03  0.17120000000E+03 0.  0.
        998    1    1    2    0    0 -0.74418964089E+01 -0.27033500096E+01  0.14444966592E+04  0.14445529718E+04  0.10000000000E+02 0. -1.
</event>
<event>
 5    1  0.1658612E-008  0.3842992E+03  0.7957747E-01  0.3432650E+00
         13   -1    0    0    0    0  0.00000000000E+00  0.00000000000E+00  0.14999999963E+04  0.15000000000E+04  0.10566000000E+00 0. -1.
        994   -1    0    0    0    0 -0.00000000000E+00 -0.00000000000E+00  0.11368683772E-12  0.17120000000E+03  0.17120000000E+03 0.  0.
         13    1    1    2    0    0  0.95275384787E+01 -0.49222341088E+01  0.28668393628E+02  0.30608664383E+02  0.10566000000E+00 0. -1.
        994    1    1    2    0    0 -0.46497541430E+01  0.48866821339E+01  0.21284499498E+01  0.17134605386E+03  0.17120000000E+03 0.  0.
        998    1    1    2    0    0 -0.48777843357E+01  0.35551974961E-01  0.14692031527E+04  0.14692452818E+04  0.10000000000E+02 0. -1.
</event>
<event>
 5    1  0.1658612E-008  0.3851322E+03  0.7957747E-01  0.3429112E+00
         13   -1    0    0    0    0  0.00000000000E+00  0.00000000000E+00  0.14999999963E+04  0.15000000000E+04  0.10566000000E+00 0. -1.
        994   -1    0    0    0    0 -0.00000000000E+00 -0.00000000000E+00  0.11368683772E-12  0.17120000000E+03  0.17120000000E+03 0.  0.
         13    1    1    2    0    0 -0.40258210475E+01 -0.18229745299E+02  0.11121134544E+03  0.11276748364E+03  0.10566000000E+00 0. -1.
        994    1    1    2    0    0 -0.47635268182E+01  0.13637533757E+02  0.22507615720E+01  0.17182310509E+03  0.17120000000E+03 0.  0.
        998    1    1    2    0    0  0.87893478657E+01  0.45922115422E+01  0.13865378893E+04  0.13866094113E+04  0.10000000000E+02 0. -1.
</event>
<event>
 5    1  0.1658612E-008  0.3696316E+03  0.7957747E-01  0.3497586E+00
         13   -1    0    0    0    0  0.00000000000E+00  0.00000000000E+00  0.14999999963E+04  0.15000000000E+04  0.10566000000E+00 0.  1.
        994   -1    0    0    0    0 -0.00000000000E+00 -0.00000000000E+00  0.11368683772E-12  0.17120000000E+03  0.17120000000E+03 0.  0.
         13    1    1    2    0    0  0.46170915160E+02  0.68985753541E+01  0.15576009549E+03  0.16260554191E+03  0.10566000000E+00 0.  1.
        994    1    1    2    0    0  0.47249741880E+02 -0.47876539694E+02  0.25293957580E+02  0.18567155262E+03  0.17120000000E+03 0.  0.
        998    1    1    2    0    0 -0.93420657040E+02  0.40977964340E+02  0.13189459432E+04  0.13229229055E+04  0.10000000000E+02 0.  1.
</event>
<event>
 5    1  0.1658612E-008  0.3802300E+03  0.7957747E-01  0.3450158E+00
         13   -1    0    0    0    0  0.00000000000E+00  0.00000000000E+00  0.14999999963E+04  0.15000000000E+04  0.10566000000E+00 0.  1.
        994   -1    0    0    0    0 -0.00000000000E+00 -0.00000000000E+00  0.11368683772E-12  0.17120000000E+03  0.17120000000E+03 0.  0.
         13    1    1    2    0    0 -0.24361295740E+01  0.22175292462E+02  0.60912190180E+02  0.64868978716E+02  0.10566000000E+00 0.  1.
        994    1    1    2    0    0  0.34939811243E+01 -0.12304053081E+02  0.45637725652E+01  0.17173778165E+03  0.17120000000E+03 0.  0.
        998    1    1    2    0    0 -0.10578515503E+01 -0.98712393813E+01  0.14345240335E+04  0.14345932396E+04  0.10000000000E+02 0.  1.
</event>
<event>
 5    1  0.1658612E-008  0.4197520E+03  0.7957747E-01  0.3294453E+00
         13   -1    0    0    0    0  0.00000000000E+00  0.00000000000E+00  0.14999999963E+04  0.15000000000E+04  0.10566000000E+00 0.  1.
        994   -1    0    0    0    0 -0.00000000000E+00 -0.00000000000E+00  0.11368683772E-12  0.17120000000E+03  0.17120000000E+03 0.  0.
         13    1    1    2    0    0 -0.59164791989E+02 -0.37130207061E+02  0.44435663540E+02  0.82786860345E+02  0.10566000000E+00 0.  1.
        994    1    1    2    0    0  0.46970494352E+02  0.73367205699E+02  0.73324714868E+02  0.20560867691E+03  0.17120000000E+03 0.  0.
        998    1    1    2    0    0  0.12194297637E+02 -0.36236998637E+02  0.13822396179E+04  0.13828044627E+04  0.10000000000E+02 0.  1.
</event>
<event>
 5    1  0.1658612E-008  0.3832345E+03  0.7957747E-01  0.3437194E+00
         13   -1    0    0    0    0  0.00000000000E+00  0.00000000000E+00  0.14999999963E+04  0.15000000000E+04  0.10566000000E+00 0. -1.
        994   -1    0    0    0    0 -0.00000000000E+00 -0.00000000000E+00  0.11368683772E-12  0.17120000000E+03  0.17120000000E+03 0.  0.
         13    1    1    2    0    0  0.22479997908E+01  0.16983598286E+02  0.54284263803E+02  0.56923532695E+02  0.10566000000E+00 0. -1.
        994    1    1    2    0    0 -0.49488924273E+01 -0.23913968216E+02  0.44842421108E+01  0.17299109179E+03  0.17120000000E+03 0.  0.
        998    1    1    2    0    0  0.27008926365E+01  0.69303699294E+01  0.14412314904E+04  0.14412853755E+04  0.10000000000E+02 0. -1.
</event>
<event>
 5    1  0.1658612E-008  0.3733138E+03  0.7957747E-01  0.3480799E+00
         13   -1    0    0    0    0  0.00000000000E+00  0.00000000000E+00  0.14999999963E+04  0.15000000000E+04  0.10566000000E+00 0. -1.
        994   -1    0    0    0    0 -0.00000000000E+00 -0.00000000000E+00  0.11368683772E-12  0.17120000000E+03  0.17120000000E+03 0.  0.
         13    1    1    2    0    0  0.29909581606E+02  0.13746231717E+02  0.66653783345E+02  0.74338953157E+02  0.10566000000E+00 0. -1.
        994    1    1    2    0    0 -0.29494738590E+02 -0.10409318611E+02  0.10898946464E+02  0.17437465571E+03  0.17120000000E+03 0.  0.
        998    1    1    2    0    0 -0.41484301662E+00 -0.33369131057E+01  0.14224472665E+04  0.14224863911E+04  0.10000000000E+02 0. -1.
</event>
<event>
 5    1  0.1658612E-008  0.3847509E+03  0.7957747E-01  0.3430729E+00
         13   -1    0    0    0    0  0.00000000000E+00  0.00000000000E+00  0.14999999963E+04  0.15000000000E+04  0.10566000000E+00 0. -1.
        994   -1    0    0    0    0 -0.00000000000E+00 -0.00000000000E+00  0.11368683772E-12  0.17120000000E+03  0.17120000000E+03 0.  0.
         13    1    1    2    0    0  0.68169135108E+01  0.20366735709E+02  0.12210846037E+03  0.12398290806E+03  0.10566000000E+00 0. -1.
        994    1    1    2    0    0 -0.37494274607E+01 -0.22163156735E+02  0.34186041840E+01  0.17270318636E+03  0.17120000000E+03 0.  0.
        998    1    1    2    0    0 -0.30674860501E+01  0.17964210254E+01  0.13744729317E+04  0.13745139056E+04  0.10000000000E+02 0. -1.
</event>
<event>
 5    1  0.1658612E-008  0.3828395E+03  0.7957747E-01  0.3438887E+00
         13   -1    0    0    0    0  0.00000000000E+00  0.00000000000E+00  0.14999999963E+04  0.15000000000E+04  0.10566000000E+00 0. -1.
        994   -1    0    0    0    0 -0.00000000000E+00 -0.00000000000E+00  0.11368683772E-12  0.17120000000E+03  0.17120000000E+03 0.  0.
         13    1    1    2    0    0 -0.26376509163E+02  0.25214617687E+02  0.20420032233E+03  0.20743500183E+03  0.10566000000E+00 0. -1.
        994    1    1    2    0    0  0.27318893117E+02 -0.32218297040E+02  0.86386846761E+01  0.17654576590E+03  0.17120000000E+03 0.  0.
        998    1    1    2    0    0 -0.94238395437E+00  0.70036793537E+01  0.12871609893E+04  0.12872192323E+04  0.10000000000E+02 0. -1.
</event>
<event>
 5    1  0.1658612E-008  0.3836681E+03  0.7957747E-01  0.3435341E+00
         13   -1    0    0    0    0  0.00000000000E+00  0.00000000000E+00  0.14999999963E+04  0.15000000000E+04  0.10566000000E+00 0. -1.
        994   -1    0    0    0    0 -0.00000000000E+00 -0.00000000000E+00  0.11368683772E-12  0.17120000000E+03  0.17120000000E+03 0.  0.
         13    1    1    2    0    0  0.10195859485E+02  0.54107038871E+00  0.21944342201E+02  0.24203587058E+02  0.10566000000E+00 0. -1.
        994    1    1    2    0    0 -0.72146249250E+01 -0.30640120832E+01  0.24958093121E+01  0.17139751470E+03  0.17120000000E+03 0.  0.
        998    1    1    2    0    0 -0.29812345600E+01  0.25229416945E+01  0.14755598448E+04  0.14755988982E+04  0.10000000000E+02 0. -1.
</event>
<event>
 5    1  0.1658612E-008  0.3803547E+03  0.7957747E-01  0.3449616E+00
         13   -1    0    0    0    0  0.00000000000E+00  0.00000000000E+00  0.14999999963E+04  0.15000000000E+04  0.10566000000E+00 0. -1.
        994   -1    0    0    0    0 -0.00000000000E+00 -0.00000000000E+00  0.11368683772E-12  0.17120000000E+03  0.17120000000E+03 0.  0.
         13    1    1    2    0    0  0.27559890295E+01 -0.15976377671E+02  0.31268467774E+02  0.35221702968E+02  0.10566000000E+00 0. -1.
        994    1    1    2    0    0  0.88282977785E+01  0.16946832767E+02  0.51743500348E+01  0.17234078995E+03  0.17120000000E+03 0.  0.
        998    1    1    2    0    0 -0.11584286808E+02 -0.97045509619E+00  0.14635571785E+04  0.14636375071E+04  0.10000000000E+02 0. -1.
</event>
<event>
 5    1  0.1658612E-008  0.3824608E+03  0.7957747E-01  0.3440513E+00
         13   -1    0    0    0    0  0.00000000000E+00  0.00000000000E+00  0.14999999963E+04  0.15000000000E+04  0.10566000000E+00 0.  1.
        994   -1    0    0    0    0 -0.00000000000E+00 -0.00000000000E+00  0.11368683772E-12  0.17120000000E+03  0.17120000000E+03 0.  0.
         13    1    1    2    0    0  0.11999631118E+00  0.10706396189E+02  0.18834404600E+02  0.21665347427E+02  0.10566000000E+00 0.  1.
        994    1    1    2    0    0 -0.11563971469E+01 -0.43973713370E+01  0.29646172679E+01  0.17128602711E+03  0.17120000000E+03 0.  0.
        998    1    1    2    0    0  0.10364008358E+01 -0.63090248518E+01  0.14782009744E+04  0.14782486255E+04  0.10000000000E+02 0.  1.
</event>
<event>
 5    1  0.1658612E-008  0.3707307E+03  0.7957747E-01  0.3492539E+00
         13   -1    0    0    0    0  0.00000000000E+00  0.00000000000E+00  0.14999999963E+04  0.15000000000E+04  0.10566000000E+00 0. -1.
        994   -1    0    0    0    0 -0.00000000000E+00 -0.00000000000E+00  0.11368683772E-12  0.17120000000E+03  0.17120000000E+03 0.  0.
         13    1    1    2    0    0 -0.39218979569E+02 -0.29686922865E+01  0.84912235700E+02  0.93579059773E+02  0.10566000000E+00 0. -1.
        994    1    1    2    0    0  0.26410183319E+02 -0.62015059460E+02  0.24724596809E+02  0.18564512132E+03  0.17120000000E+03 0.  0.
        998    1    1    2    0    0  0.12808796250E+02  0.64983751747E+02  0.13903631638E+04  0.13919758189E+04  0.10000000000E+02 0. -1.
</event>
<event>
 5    1  0.1658612E-008  0.3806906E+03  0.7957747E-01  0.3448157E+00
         13   -1    0    0    0    0  0.00000000000E+00  0.00000000000E+00  0.14999999963E+04  0.15000000000E+04  0.10566000000E+00 0.  1.
        994   -1    0    0    0    0 -0.00000000000E+00 -0.00000000000E+00  0.11368683772E-12  0.17120000000E+03  0.17120000000E+03 0.  0.
         13    1    1    2    0    0  0.42194840384E+02  0.23191364874E+02  0.26691151774E+03  0.27121949308E+03  0.10566000000E+00 0.  1.
        994    1    1    2    0    0 -0.34970304724E+02 -0.24649442940E+02  0.99145241492E+01  0.17674347241E+03  0.17120000000E+03 0.  0.
        998    1    1    2    0    0 -0.72245356593E+01  0.14580780663E+01  0.12231739544E+04  0.12232370345E+04  0.10000000000E+02 0.  1.
</event>
<event>
 5    1  0.1658612E-008  0.3765894E+03  0.7957747E-01  0.3466145E+00
         13   -1    0    0    0    0  0.00000000000E+00  0.00000000000E+00  0.14999999963E+04  0.15000000000E+04  0.10566000000E+00 0.  1.
        994   -1    0    0    0    0 -0.00000000000E+00 -0.00000000000E+00  0.11368683772E-12  0.17120000000E+03  0.17120000000E+03 0.  0.
         13    1    1    2    0    0 -0.15034786219E+02  0.24215733661E+02  0.62115668703E+02  0.68343353853E+02  0.10566000000E+00 0.  1.
        994    1    1    2    0    0  0.21844459607E+02 -0.32840945844E+02  0.11142859065E+02  0.17603781255E+03  0.17120000000E+03 0.  0.
        998    1    1    2    0    0 -0.68096733872E+01  0.86252121830E+01  0.14267414685E+04  0.14268188336E+04  0.10000000000E+02 0.  1.
</event>
<event>
 5    1  0.1658612E-008  0.3846297E+03  0.7957747E-01  0.3431244E+00
         13   -1    0    0    0    0  0.00000000000E+00  0.00000000000E+00  0.14999999963E+04  0.15000000000E+04  0.10566000000E+00 0. -1.
        994   -1    0    0    0    0 -0.00000000000E+00 -0.00000000000E+00  0.11368683772E-12  0.17120000000E+03  0.17120000000E+03 0.  0.
         13    1    1    2    0    0 -0.18955338725E+02 -0.65858840551E+01  0.10639222417E+03  0.10826816366E+03  0.10566000000E+00 0. -1.
        994    1    1    2    0    0  0.16489802797E+02  0.73020407104E+01  0.28856855640E+01  0.17217142787E+03  0.17120000000E+03 0.  0.
        998    1    1    2    0    0  0.24655359283E+01 -0.71615665532E+00  0.13907220865E+04  0.13907604085E+04  0.10000000000E+02 0. -1.
</event>
<event>
 5    1  0.1658612E-008  0.3746229E+03  0.7957747E-01  0.3474911E+00
         13   -1    0    0    0    0  0.00000000000E+00  0.00000000000E+00  0.14999999963E+04  0.15000000000E+04  0.10566000000E+00 0. -1.
        994   -1    0    0    0    0 -0.00000000000E+00 -0.00000000000E+00  0.11368683772E-12  0.17120000000E+03  0.17120000000E+03 0.  0.
         13    1    1    2    0    0  0.20835520085E+02  0.36888133215E+02  0.13362779957E+03  0.14018292781E+03  0.10566000000E+00 0. -1.
        994    1    1    2    0    0 -0.36901004841E+02  0.79069775756E+00  0.11523258601E+02  0.17551220713E+03  0.17120000000E+03 0.  0.
        998    1    1    2    0    0  0.16065484755E+02 -0.37678830973E+02  0.13548489381E+04  0.13555048651E+04  0.10000000000E+02 0. -1.
</event>
<event>
 5    1  0.1658612E-008  0.3858990E+03  0.7957747E-01  0.3425868E+00
         13   -1    0    0    0    0  0.00000000000E+00  0.00000000000E+00  0.14999999963E+04  0.15000000000E+04  0.10566000000E+00 0. -1.
        994   -1    0    0    0    0 -0.00000000000E+00 -0.00000000000E+00  0.11368683772E-12  0.17120000000E+03  0.17120000000E+03 0.  0.
         13    1    1    2    0    0  0.12709432856E+02 -0.13611266902E+01  0.52551088868E+02  0.54083365785E+02  0.10566000000E+00 0. -1.
        994    1    1    2    0    0 -0.50480721573E+02  0.38600159103E+02  0.14540027908E+02  0.18319150620E+03  0.17120000000E+03 0.  0.
        998    1    1    2    0    0  0.37771288717E+02 -0.37239032412E+02  0.14329088795E+04  0.14339251280E+04  0.10000000000E+02 0. -1.
</event>
<event>
 5    1  0.1658612E-008  0.3860147E+03  0.7957747E-01  0.3425380E+00
         13   -1    0    0    0    0  0.00000000000E+00  0.00000000000E+00  0.14999999963E+04  0.15000000000E+04  0.10566000000E+00 0. -1.
        994   -1    0    0    0    0 -0.00000000000E+00 -0.00000000000E+00  0.11368683772E-12  0.17120000000E+03  0.17120000000E+03 0.  0.
         13    1    1    2    0    0 -0.11679947734E+01  0.10426085085E+02  0.53379599572E+02  0.54400921651E+02  0.10566000000E+00 0. -1.
        994    1    1    2    0    0 -0.21770540090E+02  0.97171556286E+00  0.26854035481E+01  0.17260229442E+03  0.17120000000E+03 0.  0.
        998    1    1    2    0    0  0.22938534864E+02 -0.11397800648E+02  0.14439349932E+04  0.14441967839E+04  0.10000000000E+02 0. -1.
</event>
<event>
 5    1  0.1658612E-008  0.3765634E+03  0.7957747E-01  0.3466260E+00
         13   -1    0    0    0    0  0.00000000000E+00  0.00000000000E+00  0.14999999963E+04  0.15000000000E+04  0.10566000000E+00 0.  1.
        994   -1    0    0    0    0 -0.00000000000E+00 -0.00000000000E+00  0.11368683772E-12  0.17120000000E+03  0.17120000000E+03 0.  0.
         13    1    1    2    0    0 -0.60265713298E+02  0.30320701486E+02  0.36813525027E+03  0.37426578095E+03  0.10566000000E+00 0.  1.
        994    1    1    2    0    0  0.45535079048E+02 -0.69727059587E+01  0.13087475462E+02  0.17777171897E+03  0.17120000000E+03 0.  0.
        998    1    1    2    0    0  0.14730634250E+02 -0.23347995528E+02  0.11187772706E+04  0.11191625001E+04  0.10000000000E+02 0.  1.
</event>
<event>
 5    1  0.1658612E-008  0.3838786E+03  0.7957747E-01  0.3434442E+00
         13   -1    0    0    0    0  0.00000000000E+00  0.00000000000E+00  0.14999999963E+04  0.15000000000E+04  0.10566000000E+00 0. -1.
        994   -1    0    0    0    0 -0.00000000000E+00 -0.00000000000E+00  0.11368683772E-12  0.17120000000E+03  0.17120000000E+03 0.  0.
         13    1    1    2    0    0  0.11883816738E+02  0.38543076475E+01  0.36066676200E+02  0.38169321239E+02  0.10566000000E+00 0. -1.
        994    1    1    2    0    0 -0.41631747480E+01  0.65579573046E+01  0.23870868195E+01  0.17139275659E+03  0.17120000000E+03 0.  0.
        998    1    1    2    0    0 -0.77206419901E+01 -0.10412264952E+02  0.14615462333E+04  0.14616379222E+04  0.10000000000E+02 0. -1.
</event>
<event>
 5    1  0.1658612E-008  0.3847858E+03  0.7957747E-01  0.3430581E+00
         13   -1    0    0    0    0  0.00000000000E+00  0.00000000000E+00  0.14999999963E+04  0.15000000000E+04  0.10566000000E+00 0. -1.
        994   -1    0    0    0    0 -0.00000000000E+00 -0.00000000000E+00  0.11368683772E-12  0.17120000000E+03  0.17120000000E+03 0.  0.
         13    1    1    2    0    0  0.98703903601E+01  0.14561750968E+02  0.86224668195E+02  0.88000987304E+02  0.10566000000E+00 0. -1.
        994    1    1    2    0    0 -0.73746262726E+01 -0.14191649668E+02  0.25787593895E+01  0.17196475811E+03  0.17120000000E+03 0.  0.
        998    1    1    2    0    0 -0.24957640874E+01 -0.37010129977E+00  0.14111965687E+04  0.14112342546E+04  0.10000000000E+02 0. -1.
</event>
<event>
 5    1  0.1658612E-008  0.3796673E+03  0.7957747E-01  0.3452608E+00
         13   -1    0    0    0    0  0.00000000000E+00  0.00000000000E+00  0.14999999963E+04  0.15000000000E+04  0.10566000000E+00 0.  1.
        994   -1    0    0    0    0 -0.00000000000E+00 -0.00000000000E+00  0.11368683772E-12  0.17120000000E+03  0.17120000000E+03 0.  0.
         13    1    1    2    0    0  0.16124887429E+02 -0.36821435114E+01  0.29775423832E+02  0.34061080486E+02  0.10566000000E+00 0.  1.
        994    1    1    2    0    0 -0.14988794402E+02  0.25477307648E+00  0.50535956342E+01  0.17192936833E+03  0.17120000000E+03 0.  0.
        998    1    1    2    0    0 -0.11360930270E+01  0.34273704349E+01  0.14651709768E+04  0.14652095512E+04  0.10000000000E+02 0.  1.
</event>
<event>
 5    1  0.1658612E-008  0.3780718E+03  0.7957747E-01  0.3459598E+00
         13   -1    0    0    0    0  0.00000000000E+00  0.00000000000E+00  0.14999999963E+04  0.15000000000E+04  0.10566000000E+00 0.  1.
        994   -1    0    0    0    0 -0.00000000000E+00 -0.00000000000E+00  0.11368683772E-12  0.17120000000E+03  0.17120000000E+03 0.  0.
         13    1    1    2    0    0 -0.13044972065E+03 -0.57324951921E+02  0.76218789353E+03  0.77539259472E+03  0.10566000000E+00 0.  1.
        994    1    1    2    0    0  0.15675718777E+03  0.30520664644E+02  0.96358222405E+02  0.25317715915E+03  0.17120000000E+03 0.  0.
        998    1    1    2    0    0 -0.26307467130E+02  0.26804287277E+02  0.64145388034E+03  0.64263024614E+03  0.10000000000E+02 0.  1.
</event>
<event>
 5    1  0.1658612E-008  0.3850363E+03  0.7957747E-01  0.3429518E+00
         13   -1    0    0    0    0  0.00000000000E+00  0.00000000000E+00  0.14999999963E+04  0.15000000000E+04  0.10566000000E+00 0. -1.
        994   -1    0    0    0    0 -0.00000000000E+00 -0.00000000000E+00  0.11368683772E-12  0.17120000000E+03  0.17120000000E+03 0.  0.
         13    1    1    2    0    0 -0.65826549313E+02  0.39472092363E+02  0.13185125679E+03  0.15256456257E+03  0.10566000000E+00 0. -1.
        994    1    1    2    0    0  0.66744385099E+02 -0.51802532166E+02  0.45981059395E+02  0.19637212914E+03  0.17120000000E+03 0.  0.
        998    1    1    2    0    0 -0.91783578614E+00  0.12330439803E+02  0.13221676801E+04  0.13222633083E+04  0.10000000000E+02 0. -1.
</event>
<event>
 5    1  0.1658612E-008  0.3771424E+03  0.7957747E-01  0.3463696E+00
         13   -1    0    0    0    0  0.00000000000E+00  0.00000000000E+00  0.14999999963E+04  0.15000000000E+04  0.10566000000E+00 0. -1.
        994   -1    0    0    0    0 -0.00000000000E+00 -0.00000000000E+00  0.11368683772E-12  0.17120000000E+03  0.17120000000E+03 0.  0.
         13    1    1    2    0    0 -0.12184974018E+02  0.47387496701E+01  0.13288216319E+02  0.18641813143E+02  0.10566000000E+00 0. -1.
        994    1    1    2    0    0 -0.20853558062E+01  0.94331420049E+01  0.58976849657E+01  0.17157376129E+03  0.17120000000E+03 0.  0.
        998    1    1    2    0    0  0.14270329824E+02 -0.14171891675E+02  0.14808140950E+04  0.14809844256E+04  0.10000000000E+02 0. -1.
</event>
<event>
 5    1  0.1658612E-008  0.3846455E+03  0.7957747E-01  0.3431177E+00
         13   -1    0    0    0    0  0.00000000000E+00  0.00000000000E+00  0.14999999963E+04  0.15000000000E+04  0.10566000000E+00 0.  1.
        994   -1    0    0    0    0 -0.00000000000E+00 -0.00000000000E+00  0.11368683772E-12  0.17120000000E+03  0.17120000000E+03 0.  0.
         13    1    1    2    0    0  0.55371114706E+01 -0.13847962423E+02  0.61863287757E+02  0.63635706980E+02  0.10566000000E+00 0.  1.
        994    1    1    2    0    0  0.11428527209E+02  0.14059338287E+02  0.28878350073E+01  0.17218030032E+03  0.17120000000E+03 0.  0.
        998    1    1    2    0    0 -0.16965638679E+02 -0.21137586451E+00  0.14352488735E+04  0.14353839927E+04  0.10000000000E+02 0.  1.
</event>
<event>
 5    1  0.1658612E-008  0.3828716E+03  0.7957747E-01  0.3438749E+00
         13   -1    0    0    0    0  0.00000000000E+00  0.00000000000E+00  0.14999999963E+04  0.15000000000E+04  0.10566000000E+00 0.  1.
        994   -1    0    0    0    0 -0.00000000000E+00 -0.00000000000E+00  0.11368683772E-12  0.17120000000E+03  0.17120000000E+03 0.  0.
         13    1    1    2    0    0  0.65927346083E+01  0.17157320345E+02  0.61837973334E+02  0.64511889610E+02  0.10566000000E+00 0.  1.
        994    1    1    2    0    0  0.31818388653E+01 -0.14527643793E+02  0.34233061056E+01  0.17187883976E+03  0.17120000000E+03 0.  0.
        998    1    1    2    0    0 -0.97745734736E+01 -0.26296765517E+01  0.14347387168E+04  0.14348092706E+04  0.10000000000E+02 0.  1.
</event>
<event>
 5    1  0.1658612E-008  0.3856932E+03  0.7957747E-01  0.3426737E+00
         13   -1    0    0    0    0  0.00000000000E+00  0.00000000000E+00  0.14999999963E+04  0.15000000000E+04  0.10566000000E+00 0. -1.
        994   -1    0    0    0    0 -0.00000000000E+00 -0.00000000000E+00  0.11368683772E-12  0.17120000000E+03  0.17120000000E+03 0.  0.
         13    1    1    2    0    0 -0.10954058267E+02  0.25321677983E+01  0.43884903237E+02  0.45302308577E+02  0.10566000000E+00 0. -1.
        994    1    1    2    0    0  0.28450011060E+02 -0.31218479750E+01  0.39788312726E+01  0.17362148531E+03  0.17120000000E+03 0.  0.
        998    1    1    2    0    0 -0.17495952793E+02  0.58968017676E+00  0.14521362618E+04  0.14522762061E+04  0.10000000000E+02 0. -1.
</event>
<event>
 5    1  0.1658612E-008  0.3845496E+03  0.7957747E-01  0.3431585E+00
         13   -1    0    0    0    0  0.00000000000E+00  0.00000000000E+00  0.14999999963E+04  0.15000000000E+04  0.10566000000E+00 0. -1.
        994   -1    0    0    0    0 -0.00000000000E+00 -0.00000000000E+00  0.11368683772E-12  0.17120000000E+03  0.17120000000E+03 0.  0.
         13    1    1    2    0    0  0.12291618674E+02 -0.47162384160E+01  0.46490259622E+02  0.48318549214E+02  0.10566000000E+00 0. -1.
        994    1    1    2    0    0 -0.12438647645E+02 -0.77759020544E+01  0.25629510219E+01  0.17184642366E+03  0.17120000000E+03 0.  0.
        998    1    1    2    0    0  0.14702897089E+00  0.12492140470E+02  0.14509467856E+04  0.14510350271E+04  0.10000000000E+02 0. -1.
</event>
<event>
 5    1  0.1658612E-008  0.3795125E+03  0.7957747E-01  0.3453284E+00
         13   -1    0    0    0    0  0.00000000000E+00  0.00000000000E+00  0.14999999963E+04  0.15000000000E+04  0.10566000000E+00 0.  1.
        994   -1    0    0    0    0 -0.00000000000E+00 -0.00000000000E+00  0.11368683772E-12  0.17120000000E+03  0.17120000000E+03 0.  0.
         13    1    1    2    0    0 -0.40916495112E+01 -0.19533577996E+02  0.43071041846E+02  0.47470286230E+02  0.10566000000E+00 0.  1.
        994    1    1    2    0    0  0.55817248080E+01  0.17248154853E+02  0.54806488619E+01  0.17224439616E+03  0.17120000000E+03 0.  0.
        998    1    1    2    0    0 -0.14900752969E+01  0.22854231424E+01  0.14514483056E+04  0.14514853176E+04  0.10000000000E+02 0.  1.
</event>
<event>
 5    1  0.1658612E-008  0.3730781E+03  0.7957747E-01  0.3481863E+00
         13   -1    0    0    0    0  0.00000000000E+00  0.00000000000E+00  0.14999999963E+04  0.15000000000E+04  0.10566000000E+00 0.  1.
        994   -1    0    0    0    0 -0.00000000000E+00 -0.00000000000E+00  0.11368683772E-12  0.17120000000E+03  0.17120000000E+03 0.  0.
         13    1    1    2    0    0 -0.13539463629E+02  0.10330099365E+03  0.42925085132E+03  0.44171338772E+03  0.10566000000E+00 0.  1.
        994    1    1    2    0    0  0.17718408726E+02 -0.11755137800E+03  0.57681940293E+02  0.21626121870E+03  0.17120000000E+03 0.  0.
        998    1    1    2    0    0 -0.41789450977E+01  0.14250384344E+02  0.10130672047E+04  0.10132253936E+04  0.10000000000E+02 0.  1.
</event>
<event>
 5    1  0.1658612E-008  0.3841744E+03  0.7957747E-01  0.3433181E+00
         13   -1    0    0    0    0  0.00000000000E+00  0.00000000000E+00  0.14999999963E+04  0.15000000000E+04  0.10566000000E+00 0. -1.
        994   -1    0    0    0    0 -0.00000000000E+00 -0.00000000000E+00  0.11368683772E-12  0.17120000000E+03  0.17120000000E+03 0.  0.
         13    1    1    2    0    0  0.22139534665E+01  0.24704537184E+02  0.13583385979E+03  0.13807992026E+03  0.10566000000E+00 0. -1.
        994    1    1    2    0    0  0.12973758444E+01 -0.27823269325E+02  0.46030340551E+01  0.17351209013E+03  0.17120000000E+03 0.  0.
        998    1    1    2    0    0 -0.35113293109E+01  0.31187321402E+01  0.13595631024E+04  0.13596079896E+04  0.10000000000E+02 0. -1.
</event>
<event>
 5    1  0.1658612E-008  0.3843694E+03  0.7957747E-01  0.3432351E+00
         13   -1    0    0    0    0  0.00000000000E+00  0.00000000000E+00  0.14999999963E+04  0.15000000000E+04  0.10566000000E+00 0.  1.
        994   -1    0    0    0    0 -0.00000000000E+00 -0.00000000000E+00  0.11368683772E-12  0.17120000000E+03  0.17120000000E+03 0.  0.
         13    1    1    2    0    0 -0.46066656989E+01 -0.10371031571E+02  0.31210415369E+02  0.33209650047E+02  0.10566000000E+00 0.  1.
        994    1    1    2    0    0  0.91879453056E+01  0.16541949082E+02  0.31243749701E+01  0.17227088012E+03  0.17120000000E+03 0.  0.
        998    1    1    2    0    0 -0.45812796067E+01 -0.61709175115E+01  0.14656652059E+04  0.14657194698E+04  0.10000000000E+02 0.  1.
</event>
<event>
 5    1  0.1658612E-008  0.3772528E+03  0.7957747E-01  0.3463208E+00
         13   -1    0    0    0    0  0.00000000000E+00  0.00000000000E+00  0.14999999963E+04  0.15000000000E+04  0.10566000000E+00 0. -1.
        994   -1    0    0    0    0 -0.00000000000E+00 -0.00000000000E+00  0.11368683772E-12  0.17120000000E+03  0.17120000000E+03 0.  0.
         13    1    1    2    0    0  0.15195995945E+03  0.37491519204E+02  0.81505753022E+03  0.82994953583E+03  0.10566000000E+00 0. -1.
        994    1    1    2    0    0 -0.15502018981E+03 -0.45110357411E+02  0.99215836343E+02  0.25538094247E+03  0.17120000000E+03 0.  0.
        998    1    1    2    0    0  0.30602303593E+01  0.76188382072E+01  0.58572662972E+03  0.58586952171E+03  0.10000000000E+02 0. -1.
</event>
<event>
 5    1  0.1658612E-008  0.3745065E+03  0.7957747E-01  0.3475433E+00
         13   -1    0    0    0    0  0.00000000000E+00  0.00000000000E+00  0.14999999963E+04  0.15000000000E+04  0.10566000000E+00 0. -1.
        994   -1    0    0    0    0 -0.00000000000E+00 -0.00000000000E+00  0.11368683772E-12  0.17120000000E+03  0.17120000000E+03 0.  0.
         13    1    1    2    0    0 -0.36833624291E+02  0.81184519886E+01  0.10679620914E+03  0.11326105506E+03  0.10566000000E+00 0. -1.
        994    1    1    2    0    0  0.85600764748E+01  0.78964563047E+00  0.71840405429E+01  0.17156616475E+03  0.17120000000E+03 0.  0.
        998    1    1    2    0    0  0.28273547816E+02 -0.89080976191E+01  0.13860197466E+04  0.13863727802E+04  0.10000000000E+02 0. -1.
</event>
<event>
 5    1  0.1658612E-008  0.3770572E+03  0.7957747E-01  0.3464073E+00
         13   -1    0    0    0    0  0.00000000000E+00  0.00000000000E+00  0.14999999963E+04  0.15000000000E+04  0.10566000000E+00 0. -1.
        994   -1    0    0    0    0 -0.00000000000E+00 -0.00000000000E+00  0.11368683772E-12  0.17120000000E+03  0.17120000000E+03 0.  0.
         13    1    1    2    0    0  0.22082111703E+02 -0.13944277633E+02  0.57506276442E+02  0.63158891142E+02  0.10566000000E+00 0. -1.
        994    1    1    2    0    0 -0.17150978509E+02  0.13228317845E+02  0.72114378764E+01  0.17271534180E+03  0.17120000000E+03 0.  0.
        998    1    1    2    0    0 -0.49311331935E+01  0.71595978850E+00  0.14352822820E+04  0.14353257671E+04  0.10000000000E+02 0. -1.
</event>
<event>
 5    1  0.1658612E-008  0.3795130E+03  0.7957747E-01  0.3453282E+00
         13   -1    0    0    0    0  0.00000000000E+00  0.00000000000E+00  0.14999999963E+04  0.15000000000E+04  0.10566000000E+00 0. -1.
        994   -1    0    0    0    0 -0.00000000000E+00 -0.00000000000E+00  0.11368683772E-12  0.17120000000E+03  0.17120000000E+03 0.  0.
         13    1    1    2    0    0  0.82995338433E+01 -0.14371708714E+02  0.28937936732E+02  0.33359310840E+02  0.10566000000E+00 0. -1.
        994    1    1    2    0    0 -0.94695348747E+01  0.17519641737E+02  0.57082721612E+01  0.17244893247E+03  0.17120000000E+03 0.  0.
        998    1    1    2    0    0  0.11700010314E+01 -0.31479330231E+01  0.14653537874E+04  0.14653917567E+04  0.10000000000E+02 0.  0.
</event>
<event>
 5    1  0.1658612E-008  0.3806165E+03  0.7957747E-01  0.3448479E+00
         13   -1    0    0    0    0  0.00000000000E+00  0.00000000000E+00  0.14999999963E+04  0.15000000000E+04  0.10566000000E+00 0. -1.
        994   -1    0    0    0    0 -0.00000000000E+00 -0.00000000000E+00  0.11368683772E-12  0.17120000000E+03  0.17120000000E+03 0.  0.
         13    1    1    2    0    0  0.12592901633E+01  0.10128837766E+02  0.11904218455E+02  0.15681222760E+02  0.10566000000E+00 0. -1.
        994    1    1    2    0    0 -0.16909651891E+01 -0.94192570271E+01  0.41278670893E+01  0.17151694101E+03  0.17120000000E+03 0.  0.
        998    1    1    2    0    0  0.43167502589E+00 -0.70958073857E+00  0.14839679107E+04  0.14840018362E+04  0.10000000000E+02 0. -1.
</event>
<event>
 5    1  0.1658612E-008  0.3826884E+03  0.7957747E-01  0.3439535E+00
         13   -1    0    0    0    0  0.00000000000E+00  0.00000000000E+00  0.14999999963E+04  0.15000000000E+04  0.10566000000E+00 0.  1.
        994   -1    0    0    0    0 -0.00000000000E+00 -0.00000000000E+00  0.11368683772E-12  0.17120000000E+03  0.17120000000E+03 0.  0.
         13    1    1    2    0    0 -0.65349008184E+01  0.27523466636E+02  0.11944359263E+03  0.12274782739E+03  0.10566000000E+00 0.  1.
        994    1    1    2    0    0  0.22629741001E+02 -0.40669623180E+02  0.99929967845E+01  0.17769474785E+03  0.17120000000E+03 0.  0.
        998    1    1    2    0    0 -0.16094840182E+02  0.13146156545E+02  0.13705634069E+04  0.13707574248E+04  0.10000000000E+02 0.  1.
</event>
<event>
 5    1  0.1810039E-008  0.3862762E+03  0.7957747E-01  0.3424278E+00
         13   -1    0    0    0    0  0.00000000000E+00  0.00000000000E+00  0.14999999963E+04  0.15000000000E+04  0.10566000000E+00 0.  1.
        994   -1    0    0    0    0 -0.00000000000E+00 -0.00000000000E+00  0.11368683772E-12  0.17120000000E+03  0.17120000000E+03 0.  0.
         13    1    1    2    0    0 -0.11657602149E+01  0.10261275450E+02  0.54564118635E+02  0.55532935968E+02  0.10566000000E+00 0.  1.
        994    1    1    2    0    0  0.88788288803E+01 -0.55500237275E+01  0.13569885713E+01  0.17152526864E+03  0.17120000000E+03 0.  0.
        998    1    1    2    0    0 -0.77130686655E+01 -0.47112517220E+01  0.14440788891E+04  0.14441417954E+04  0.10000000000E+02 0.  1.
</event>
<event>
 5    1  0.1658612E-008  0.3833107E+03  0.7957747E-01  0.3436868E+00
         13   -1    0    0    0    0  0.00000000000E+00  0.00000000000E+00  0.14999999963E+04  0.15000000000E+04  0.10566000000E+00 0.  1.
        994   -1    0    0    0    0 -0.00000000000E+00 -0.00000000000E+00  0.11368683772E-12  0.17120000000E+03  0.17120000000E+03 0.  0.
         13    1    1    2    0    0 -0.14245000481E+02 -0.45588972234E+01  0.44981355681E+02  0.47402922964E+02  0.10566000000E+00 0.  1.
        994    1    1    2    0    0  0.75360286593E+01  0.19430753846E+01  0.26714605422E+01  0.17139761950E+03  0.17120000000E+03 0.  0.
        998    1    1    2    0    0  0.67089718217E+01  0.26158218387E+01  0.14523471801E+04  0.14523994575E+04  0.10000000000E+02 0.  1.
</event>
<event>
 5    1  0.1658612E-008  0.3784303E+03  0.7957747E-01  0.3458022E+00
         13   -1    0    0    0    0  0.00000000000E+00  0.00000000000E+00  0.14999999963E+04  0.15000000000E+04  0.10566000000E+00 0.  1.
        994   -1    0    0    0    0 -0.00000000000E+00 -0.00000000000E+00  0.11368683772E-12  0.17120000000E+03  0.17120000000E+03 0.  0.
         13    1    1    2    0    0  0.10269884362E+02 -0.88787073115E+01  0.16395606661E+02  0.21286828090E+02  0.10566000000E+00 0.  1.
        994    1    1    2    0    0 -0.12180982884E+02  0.74578186310E+01  0.56133979271E+01  0.17188643239E+03  0.17120000000E+03 0.  0.
        998    1    1    2    0    0  0.19110985212E+01  0.14208886805E+01  0.14779909917E+04  0.14780267395E+04  0.10000000000E+02 0.  1.
</event>
<event>
 5    1  0.1658612E-008  0.3853332E+03  0.7957747E-01  0.3428260E+00
         13   -1    0    0    0    0  0.00000000000E+00  0.00000000000E+00  0.14999999963E+04  0.15000000000E+04  0.10566000000E+00 0. -1.
        994   -1    0    0    0    0 -0.00000000000E+00 -0.00000000000E+00  0.11368683772E-12  0.17120000000E+03  0.17120000000E+03 0.  0.
         13    1    1    2    0    0 -0.15685482056E+01  0.14106670425E+02  0.80202960377E+02  0.81449275695E+02  0.10566000000E+00 0. -1.
        994    1    1    2    0    0  0.76804641615E+01  0.11204205903E+02  0.20712234273E+01  0.17175055670E+03  0.17120000000E+03 0.  0.
        998    1    1    2    0    0 -0.61119159558E+01 -0.25310876328E+02  0.14177258125E+04  0.14180001676E+04  0.10000000000E+02 0. -1.
</event>
<event>
 5    1  0.1658612E-008  0.3706771E+03  0.7957747E-01  0.3492785E+00
         13   -1    0    0    0    0  0.00000000000E+00  0.00000000000E+00  0.14999999963E+04  0.15000000000E+04  0.10566000000E+00 0. -1.
        994   -1    0    0    0    0 -0.00000000000E+00 -0.00000000000E+00  0.11368683772E-12  0.17120000000E+03  0.17120000000E+03 0.  0.
         13    1    1    2    0    0  0.18664934466E+02  0.12808670831E+02  0.25077829669E+02  0.33783879765E+02  0.10566000000E+00 0. -1.
        994    1    1    2    0    0 -0.21490374416E+01 -0.22613081556E+02  0.10697501990E+02  0.17303134505E+03  0.17120000000E+03 0.  0.
        998    1    1    2    0    0 -0.16515897025E+02  0.98044107255E+01  0.14642246646E+04  0.14643847752E+04  0.10000000000E+02 0. -1.
</event>
<event>
 5    1  0.1658612E-008  0.3847068E+03  0.7957747E-01  0.3430917E+00
         13   -1    0    0    0    0  0.00000000000E+00  0.00000000000E+00  0.14999999963E+04  0.15000000000E+04  0.10566000000E+00 0.  1.
        994   -1    0    0    0    0 -0.00000000000E+00 -0.00000000000E+00  0.11368683772E-12  0.17120000000E+03  0.17120000000E+03 0.  0.
         13    1    1    2    0    0  0.94218839387E+01 -0.69950307648E+01  0.39053924463E+02  0.40778947171E+02  0.10566000000E+00 0.  1.
        994    1    1    2    0    0 -0.44140505825E+01  0.24036565962E+01  0.18589534807E+01  0.17128384955E+03  0.17120000000E+03 0.  0.
        998    1    1    2    0    0 -0.50078333562E+01  0.45913741687E+01  0.14590871183E+04  0.14591372033E+04  0.10000000000E+02 0.  1.
</event>
<event>
 5    1  0.1658612E-008  0.4327238E+03  0.7957747E-01  0.3249477E+00
         13   -1    0    0    0    0  0.00000000000E+00  0.00000000000E+00  0.14999999963E+04  0.15000000000E+04  0.10566000000E+00 0.  1.
        994   -1    0    0    0    0 -0.00000000000E+00 -0.00000000000E+00  0.11368683772E-12  0.17120000000E+03  0.17120000000E+03 0.  0.
         13    1    1    2    0    0  0.24040451679E+02  0.10011103449E+03  0.10999494450E+03  0.15066207726E+03  0.10566000000E+00 0.  1.
        994    1    1    2    0    0 -0.10911077204E+02 -0.29844230960E+02  0.53602795707E+02  0.18218789596E+03  0.17120000000E+03 0.  0.
        998    1    1    2    0    0 -0.13129374475E+02 -0.70266803531E+02  0.13364022561E+04  0.13383500268E+04  0.10000000000E+02 0.  1.
</event>
<event>
 5    1  0.1658612E-008  0.3842110E+03  0.7957747E-01  0.3433025E+00
         13   -1    0    0    0    0  0.00000000000E+00  0.00000000000E+00  0.14999999963E+04  0.15000000000E+04  0.10566000000E+00 0. -1.
        994   -1    0    0    0    0 -0.00000000000E+00 -0.00000000000E+00  0.11368683772E-12  0.17120000000E+03  0.17120000000E+03 0.  0.
         13    1    1    2    0    0 -0.18544499092E+02  0.32655042582E+01  0.82096208433E+02  0.84228027210E+02  0.10566000000E+00 0. -1.
        994    1    1    2    0    0  0.21537568061E+02 -0.30217908581E+01  0.35834461372E+01  0.17261309088E+03  0.17120000000E+03 0.  0.
        998    1    1    2    0    0 -0.29930689692E+01 -0.24371340014E+00  0.14143203417E+04  0.14143588819E+04  0.10000000000E+02 0.  0.
</event>
<event>
 5    1  0.1658612E-008  0.3812537E+03  0.7957747E-01  0.3445718E+00
         13   -1    0    0    0    0  0.00000000000E+00  0.00000000000E+00  0.14999999963E+04  0.15000000000E+04  0.10566000000E+00 0.  1.
        994   -1    0    0    0    0 -0.00000000000E+00 -0.00000000000E+00  0.11368683772E-12  0.17120000000E+03  0.17120000000E+03 0.  0.
         13    1    1    2    0    0 -0.17777569484E+02 -0.10583003156E+02  0.60472959326E+02  0.63914254327E+02  0.10566000000E+00 0.  1.
        994    1    1    2    0    0  0.15107596607E+02 -0.35233367791E+01  0.43031900590E+01  0.17195525820E+03  0.17120000000E+03 0.  0.
        998    1    1    2    0    0  0.26699728766E+01  0.14106339935E+02  0.14352238469E+04  0.14353304875E+04  0.10000000000E+02 0.  1.
</event>
<event>
 5    1  0.1658612E-008  0.3818695E+03  0.7957747E-01  0.3443059E+00
         13   -1    0    0    0    0  0.00000000000E+00  0.00000000000E+00  0.14999999963E+04  0.15000000000E+04  0.10566000000E+00 0.  1.
        994   -1    0    0    0    0 -0.00000000000E+00 -0.00000000000E+00  0.11368683772E-12  0.17120000000E+03  0.17120000000E+03 0.  0.
         13    1    1    2    0    0 -0.18441848907E+03  0.19469454690E+03  0.83327360210E+03  0.87536338330E+03  0.10566000000E+00 0.  1.
        994    1    1    2    0    0  0.19269487360E+03 -0.23096135719E+03  0.41139006934E+03  0.53761109733E+03  0.17120000000E+03 0.  0.
        998    1    1    2    0    0 -0.82763845227E+01  0.36266810287E+02  0.25533632484E+03  0.25822551937E+03  0.10000000000E+02 0.  1.
</event>
<event>
 5    1  0.1658612E-008  0.3769642E+03  0.7957747E-01  0.3464484E+00
         13   -1    0    0    0    0  0.00000000000E+00  0.00000000000E+00  0.14999999963E+04  0.15000000000E+04  0.10566000000E+00 0.  1.
        994   -1    0    0    0    0 -0.00000000000E+00 -0.00000000000E+00  0.11368683772E-12  0.17120000000E+03  0.17120000000E+03 0.  0.
         13    1    1    2    0    0 -0.56301393824E+02  0.28477975620E+02  0.28654444098E+03  0.29340853748E+03  0.10566000000E+00 0.  1.
        994    1    1    2    0    0  0.51982400650E+02 -0.34040845649E+02  0.18824342183E+02  0.18309763791E+03  0.17120000000E+03 0.  0.
        998    1    1    2    0    0  0.43189931747E+01  0.55628700290E+01  0.11946312131E+04  0.11946938246E+04  0.10000000000E+02 0.  1.
</event>
<event>
 5    1  0.1658612E-008  0.3821982E+03  0.7957747E-01  0.3441642E+00
         13   -1    0    0    0    0  0.00000000000E+00  0.00000000000E+00  0.14999999963E+04  0.15000000000E+04  0.10566000000E+00 0.  1.
        994   -1    0    0    0    0 -0.00000000000E+00 -0.00000000000E+00  0.11368683772E-12  0.17120000000E+03  0.17120000000E+03 0.  0.
         13    1    1    2    0    0  0.13042522459E+02 -0.19006261959E+02  0.89170248786E+02  0.92101519088E+02  0.10566000000E+00 0.  1.
        994    1    1    2    0    0 -0.14901146820E+02  0.14855648159E+01  0.37721914489E+01  0.17189508576E+03  0.17120000000E+03 0.  0.
        998    1    1    2    0    0  0.18586243607E+01  0.17520697144E+02  0.14070575560E+04  0.14072033952E+04  0.10000000000E+02 0.  1.
</event>
<event>
 5    1  0.1658612E-008  0.3856732E+03  0.7957747E-01  0.3426822E+00
         13   -1    0    0    0    0  0.00000000000E+00  0.00000000000E+00  0.14999999963E+04  0.15000000000E+04  0.10566000000E+00 0.  1.
        994   -1    0    0    0    0 -0.00000000000E+00 -0.00000000000E+00  0.11368683772E-12  0.17120000000E+03  0.17120000000E+03 0.  0.
         13    1    1    2    0    0  0.50188921598E+01  0.13398087322E+02  0.66944951718E+02  0.68456816658E+02  0.10566000000E+00 0.  1.
        994    1    1    2    0    0 -0.19028147568E+02 -0.29466614956E+02  0.53440961167E+01  0.17483807125E+03  0.17120000000E+03 0.  0.
        998    1    1    2    0    0  0.14009255408E+02  0.16068527635E+02  0.14277109484E+04  0.14279051121E+04  0.10000000000E+02 0.  1.
</event>
<event>
 5    1  0.1658612E-008  0.3695631E+03  0.7957747E-01  0.3497901E+00
         13   -1    0    0    0    0  0.00000000000E+00  0.00000000000E+00  0.14999999963E+04  0.15000000000E+04  0.10566000000E+00 0. -1.
        994   -1    0    0    0    0 -0.00000000000E+00 -0.00000000000E+00  0.11368683772E-12  0.17120000000E+03  0.17120000000E+03 0.  0.
         13    1    1    2    0    0  0.60151181678E+02 -0.30482374624E+01  0.23687467258E+03  0.24441169793E+03  0.10566000000E+00 0. -1.
        994    1    1    2    0    0  0.47362522133E+01  0.80799414203E+01  0.98014270963E+01  0.17173591794E+03  0.17120000000E+03 0.  0.
        998    1    1    2    0    0 -0.64887433891E+02 -0.50317039579E+01  0.12533238966E+04  0.12550523841E+04  0.10000000000E+02 0. -1.
</event>
<event>
 5    1  0.1658612E-008  0.3860844E+03  0.7957747E-01  0.3425086E+00
         13   -1    0    0    0    0  0.00000000000E+00  0.00000000000E+00  0.14999999963E+04  0.15000000000E+04  0.10566000000E+00 0.  1.
        994   -1    0    0    0    0 -0.00000000000E+00 -0.00000000000E+00  0.11368683772E-12  0.17120000000E+03  0.17120000000E+03 0.  0.
         13    1    1    2    0    0  0.64388119051E+01  0.10731592653E+02  0.75374207877E+02  0.76406202345E+02  0.10566000000E+00 0.  1.
        994    1    1    2    0    0 -0.23778432047E+01 -0.29664490695E+01  0.11400902254E+01  0.17124600364E+03  0.17120000000E+03 0.  0.
        998    1    1    2    0    0 -0.40609687004E+01 -0.77651435831E+01  0.14234856982E+04  0.14235477940E+04  0.10000000000E+02 0.  1.
</event>
<event>
 5    1  0.1658612E-008  0.3814614E+03  0.7957747E-01  0.3444820E+00
         13   -1    0    0    0    0  0.00000000000E+00  0.00000000000E+00  0.14999999963E+04  0.15000000000E+04  0.10566000000E+00 0. -1.
        994   -1    0    0    0    0 -0.00000000000E+00 -0.00000000000E+00  0.11368683772E-12  0.17120000000E+03  0.17120000000E+03 0.  0.
         13    1    1    2    0    0  0.16150477714E+02  0.71245175668E+01  0.44514035534E+02  0.47886398952E+02  0.10566000000E+00 0. -1.
        994    1    1    2    0    0 -0.83627109385E+01 -0.11875430564E+02  0.40993940069E+01  0.17186391656E+03  0.17120000000E+03 0.  0.
        998    1    1    2    0    0 -0.77877667758E+01  0.47509129969E+01  0.14513865667E+04  0.14514496845E+04  0.10000000000E+02 0. -1.
</event>
<event>
 5    1  0.1658612E-008  0.3828318E+03  0.7957747E-01  0.3438920E+00
         13   -1    0    0    0    0  0.00000000000E+00  0.00000000000E+00  0.14999999963E+04  0.15000000000E+04  0.10566000000E+00 0. -1.
        994   -1    0    0    0    0 -0.00000000000E+00 -0.00000000000E+00  0.11368683772E-12  0.17120000000E+03  0.17120000000E+03 0.  0.
         13    1    1    2    0    0  0.20906074565E+02 -0.12264101776E+02  0.11163810389E+03  0.11423900188E+03  0.10566000000E+00 0. -1.
        994    1    1    2    0    0 -0.10857304208E+02 -0.14340469648E+00  0.31010152393E+01  0.17157201962E+03  0.17120000000E+03 0.  0.
        998    1    1    2    0    0 -0.10048770357E+02  0.12407506473E+02  0.13852608772E+04  0.13853889785E+04  0.10000000000E+02 0. -1.
</event>
<event>
 5    1  0.1658612E-008  0.3853500E+03  0.7957747E-01  0.3428189E+00
         13   -1    0    0    0    0  0.00000000000E+00  0.00000000000E+00  0.14999999963E+04  0.15000000000E+04  0.10566000000E+00 0. -1.
        994   -1    0    0    0    0 -0.00000000000E+00 -0.00000000000E+00  0.11368683772E-12  0.17120000000E+03  0.17120000000E+03 0.  0.
         13    1    1    2    0    0  0.91781586026E+01  0.11487891548E+02  0.75929057186E+02  0.77339790126E+02  0.10566000000E+00 0. -1.
        994    1    1    2    0    0 -0.19628272815E+01 -0.74090892244E+01  0.16494544223E+01  0.17137942699E+03  0.17120000000E+03 0.  0.
        998    1    1    2    0    0 -0.72153313211E+01 -0.40788023232E+01  0.14224214847E+04  0.14224807829E+04  0.10000000000E+02 0. -1.
</event>
<event>
 5    1  0.1658612E-008  0.3831261E+03  0.7957747E-01  0.3437659E+00
         13   -1    0    0    0    0  0.00000000000E+00  0.00000000000E+00  0.14999999963E+04  0.15000000000E+04  0.10566000000E+00 0.  1.
        994   -1    0    0    0    0 -0.00000000000E+00 -0.00000000000E+00  0.11368683772E-12  0.17120000000E+03  0.17120000000E+03 0.  0.
         13    1    1    2    0    0 -0.20837895309E+01 -0.18802892889E+02  0.70488143678E+02  0.72982741269E+02  0.10566000000E+00 0.  1.
        994    1    1    2    0    0 -0.83308482764E+00  0.85695399985E+01  0.28086965466E+01  0.17143937652E+03  0.17120000000E+03 0.  0.
        998    1    1    2    0    0  0.29168743585E+01  0.10233352891E+02  0.14267031561E+04  0.14267778822E+04  0.10000000000E+02 0.  1.
</event>
<event>
 5    1  0.1658612E-008  0.3855365E+03  0.7957747E-01  0.3427400E+00
         13   -1    0    0    0    0  0.00000000000E+00  0.00000000000E+00  0.14999999963E+04  0.15000000000E+04  0.10566000000E+00 0. -1.
        994   -1    0    0    0    0 -0.00000000000E+00 -0.00000000000E+00  0.11368683772E-12  0.17120000000E+03  0.17120000000E+03 0.  0.
         13    1    1    2    0    0  0.11946804108E+02 -0.43338486505E+01  0.63961180347E+02  0.65211595042E+02  0.10566000000E+00 0. -1.
        994    1    1    2    0    0 -0.10996603152E+01 -0.83824818031E+01  0.15987157068E+01  0.17141607610E+03  0.17120000000E+03 0.  0.
        998    1    1    2    0    0 -0.10847143792E+02  0.12716330454E+02  0.14344401002E+04  0.14345723289E+04  0.10000000000E+02 0. -1.
</event>
<event>
 5    1  0.1658612E-008  0.3806815E+03  0.7957747E-01  0.3448196E+00
         13   -1    0    0    0    0  0.00000000000E+00  0.00000000000E+00  0.14999999963E+04  0.15000000000E+04  0.10566000000E+00 0.  1.
        994   -1    0    0    0    0 -0.00000000000E+00 -0.00000000000E+00  0.11368683772E-12  0.17120000000E+03  0.17120000000E+03 0.  0.
         13    1    1    2    0    0 -0.28208551265E+02 -0.35521572647E+02  0.23840783070E+03  0.24268458828E+03  0.10566000000E+00 0.  1.
        994    1    1    2    0    0  0.23836962304E+02  0.33445709670E+02  0.94362724209E+01  0.17631023653E+03  0.17120000000E+03 0.  0.
        998    1    1    2    0    0  0.43715889611E+01  0.20758629770E+01  0.12521558932E+04  0.12522051752E+04  0.10000000000E+02 0.  1.
</event>
<event>
 5    1  0.1658612E-008  0.3861878E+03  0.7957747E-01  0.3424650E+00
         13   -1    0    0    0    0  0.00000000000E+00  0.00000000000E+00  0.14999999963E+04  0.15000000000E+04  0.10566000000E+00 0. -1.
        994   -1    0    0    0    0 -0.00000000000E+00 -0.00000000000E+00  0.11368683772E-12  0.17120000000E+03  0.17120000000E+03 0.  0.
         13    1    1    2    0    0 -0.68293748912E+01 -0.78008582398E+01  0.55192790293E+02  0.56158249751E+02  0.10566000000E+00 0. -1.
        994    1    1    2    0    0 -0.20744272864E+01  0.16316302251E+01  0.10643724993E+01  0.17122365010E+03  0.17120000000E+03 0.  0.
        998    1    1    2    0    0  0.89038021776E+01  0.61692280147E+01  0.14437428335E+04  0.14438181001E+04  0.10000000000E+02 0. -1.
</event>
<event>
 5    1  0.1658612E-008  0.3856743E+03  0.7957747E-01  0.3426817E+00
         13   -1    0    0    0    0  0.00000000000E+00  0.00000000000E+00  0.14999999963E+04  0.15000000000E+04  0.10566000000E+00 0.  1.
        994   -1    0    0    0    0 -0.00000000000E+00 -0.00000000000E+00  0.11368683772E-12  0.17120000000E+03  0.17120000000E+03 0.  0.
         13    1    1    2    0    0  0.10459699152E+02  0.87170826856E+02  0.17396000499E+03  0.19485957215E+03  0.10566000000E+00 0.  1.
        994    1    1    2    0    0 -0.59130033034E+01 -0.81601842056E+02  0.44697551282E+02  0.19493879892E+03  0.17120000000E+03 0.  0.
        998    1    1    2    0    0 -0.45466958489E+01 -0.55689847995E+01  0.12813424400E+04  0.12814016289E+04  0.10000000000E+02 0.  1.
</event>
<event>
 5    1  0.1658612E-008  0.3841709E+03  0.7957747E-01  0.3433196E+00
         13   -1    0    0    0    0  0.00000000000E+00  0.00000000000E+00  0.14999999963E+04  0.15000000000E+04  0.10566000000E+00 0. -1.
        994   -1    0    0    0    0 -0.00000000000E+00 -0.00000000000E+00  0.11368683772E-12  0.17120000000E+03  0.17120000000E+03 0.  0.
         13    1    1    2    0    0 -0.55059667073E+00 -0.15340674087E+02  0.56668032928E+02  0.58710446754E+02  0.10566000000E+00 0. -1.
        994    1    1    2    0    0  0.39251602306E+01  0.12088360601E+02  0.25751753586E+01  0.17169043908E+03  0.17120000000E+03 0.  0.
        998    1    1    2    0    0 -0.33745635598E+01  0.32523134862E+01  0.14407567880E+04  0.14407991142E+04  0.10000000000E+02 0. -1.
</event>
<event>
 5    1  0.1658612E-008  0.3818522E+03  0.7957747E-01  0.3443133E+00
         13   -1    0    0    0    0  0.00000000000E+00  0.00000000000E+00  0.14999999963E+04  0.15000000000E+04  0.10566000000E+00 0.  1.
        994   -1    0    0    0    0 -0.00000000000E+00 -0.00000000000E+00  0.11368683772E-12  0.17120000000E+03  0.17120000000E+03 0.  0.
         13    1    1    2    0    0  0.15777123291E+02  0.11495238178E+02  0.59947159546E+02  0.63045469479E+02  0.10566000000E+00 0.  1.
        994    1    1    2    0    0 -0.40365928878E+01 -0.63344042898E+01  0.33885420267E+01  0.17139819421E+03  0.17120000000E+03 0.  0.
        998    1    1    2    0    0 -0.11740530403E+02 -0.51608338884E+01  0.14366642947E+04  0.14367563363E+04  0.10000000000E+02 0.  1.
</event>
<event>
 5    1  0.1658612E-008  0.3810320E+03  0.7957747E-01  0.3446677E+00
         13   -1    0    0    0    0  0.00000000000E+00  0.00000000000E+00  0.14999999963E+04  0.15000000000E+04  0.10566000000E+00 0.  1.
        994   -1    0    0    0    0 -0.00000000000E+00 -0.00000000000E+00  0.11368683772E-12  0.17120000000E+03  0.17120000000E+03 0.  0.
         13    1    1    2    0    0 -0.28234468814E+02 -0.26140236729E+02  0.36539881018E+02  0.53062899227E+02  0.10566000000E+00 0.  1.
        994    1    1    2    0    0  0.27923494292E+02  0.23417934310E+02  0.21741260006E+02  0.17638096147E+03  0.17120000000E+03 0.  0.
        998    1    1    2    0    0  0.31097452220E+00  0.27223024193E+01  0.14417188553E+04  0.14417561393E+04  0.10000000000E+02 0.  1.
</event>
<event>
 5    1  0.1658612E-008  0.3837661E+03  0.7957747E-01  0.3434922E+00
         13   -1    0    0    0    0  0.00000000000E+00  0.00000000000E+00  0.14999999963E+04  0.15000000000E+04  0.10566000000E+00 0.  1.
        994   -1    0    0    0    0 -0.00000000000E+00 -0.00000000000E+00  0.11368683772E-12  0.17120000000E+03  0.17120000000E+03 0.  0.
         13    1    1    2    0    0  0.11915701160E+02 -0.26874944122E+01  0.32499942212E+02  0.34719792168E+02  0.10566000000E+00 0.  1.
        994    1    1    2    0    0  0.43920904982E+00  0.46771531160E+02  0.95014425087E+01  0.17772868773E+03  0.17120000000E+03 0.  0.
        998    1    1    2    0    0 -0.12354910210E+02 -0.44084036748E+02  0.14579986116E+04  0.14587515201E+04  0.10000000000E+02 0.  1.
</event>
<event>
 5    1  0.1658612E-008  0.3866561E+03  0.7957747E-01  0.3422679E+00
         13   -1    0    0    0    0  0.00000000000E+00  0.00000000000E+00  0.14999999963E+04  0.15000000000E+04  0.10566000000E+00 0.  1.
        994   -1    0    0    0    0 -0.00000000000E+00 -0.00000000000E+00  0.11368683772E-12  0.17120000000E+03  0.17120000000E+03 0.  0.
         13    1    1    2    0    0  0.43602059609E+01 -0.91171719804E+01  0.60577974670E+02  0.61415278231E+02  0.10566000000E+00 0.  1.
        994    1    1    2    0    0 -0.16377470775E+02  0.85103717189E+01  0.19252105784E+01  0.17220277121E+03  0.17120000000E+03 0.  0.
        998    1    1    2    0    0  0.12017264814E+02  0.60680026157E+00  0.14374968110E+04  0.14375819506E+04  0.10000000000E+02 0.  1.
</event>
<event>
 5    1  0.1658612E-008  0.3731538E+03  0.7957747E-01  0.3481521E+00
         13   -1    0    0    0    0  0.00000000000E+00  0.00000000000E+00  0.14999999963E+04  0.15000000000E+04  0.10566000000E+00 0. -1.
        994   -1    0    0    0    0 -0.00000000000E+00 -0.00000000000E+00  0.11368683772E-12  0.17120000000E+03  0.17120000000E+03 0.  0.
         13    1    1    2    0    0 -0.61964365989E+02 -0.15158459556E+02  0.33088011909E+03  0.33697333117E+03  0.10566000000E+00 0. -1.
        994    1    1    2    0    0  0.97798555173E+01 -0.63627526707E+01  0.80956203163E+01  0.17178797765E+03  0.17120000000E+03 0.  0.
        998    1    1    2    0    0  0.52184510471E+02  0.21521212226E+02  0.11610242569E+04  0.11624386912E+04  0.10000000000E+02 0. -1.
</event>
<event>
 5    1  0.1658612E-008  0.3853397E+03  0.7957747E-01  0.3428233E+00
         13   -1    0    0    0    0  0.00000000000E+00  0.00000000000E+00  0.14999999963E+04  0.15000000000E+04  0.10566000000E+00 0. -1.
        994   -1    0    0    0    0 -0.00000000000E+00 -0.00000000000E+00  0.11368683772E-12  0.17120000000E+03  0.17120000000E+03 0.  0.
         13    1    1    2    0    0  0.12728977944E+02 -0.69887935012E+01  0.69079066436E+02  0.70588941753E+02  0.10566000000E+00 0. -1.
        994    1    1    2    0    0 -0.19628061542E+02 -0.13134827531E+01  0.27338680601E+01  0.17234819428E+03  0.17120000000E+03 0.  0.
        998    1    1    2    0    0  0.68990835982E+01  0.83022762544E+01  0.14281870618E+04  0.14282628640E+04  0.10000000000E+02 0. -1.
</event>
<event>
 5    1  0.1658612E-008  0.3799008E+03  0.7957747E-01  0.3451591E+00
         13   -1    0    0    0    0  0.00000000000E+00  0.00000000000E+00  0.14999999963E+04  0.15000000000E+04  0.10566000000E+00 0. -1.
        994   -1    0    0    0    0 -0.00000000000E+00 -0.00000000000E+00  0.11368683772E-12  0.17120000000E+03  0.17120000000E+03 0.  0.
         13    1    1    2    0    0 -0.41792120737E+02  0.54916124203E+02  0.12977426289E+03  0.14698208233E+03  0.10566000000E+00 0. -1.
        994    1    1    2    0    0  0.49134549682E+02 -0.48243188269E+02  0.33655311715E+02  0.18757326354E+03  0.17120000000E+03 0.  0.
        998    1    1    2    0    0 -0.73424289454E+01 -0.66729359341E+01  0.13365704217E+04  0.13366446541E+04  0.10000000000E+02 0. -1.
</event>
<event>
 5    1  0.1658612E-008  0.3741347E+03  0.7957747E-01  0.3477102E+00
         13   -1    0    0    0    0  0.00000000000E+00  0.00000000000E+00  0.14999999963E+04  0.15000000000E+04  0.10566000000E+00 0.  1.
        994   -1    0    0    0    0 -0.00000000000E+00 -0.00000000000E+00  0.11368683772E-12  0.17120000000E+03  0.17120000000E+03 0.  0.
         13    1    1    2    0    0  0.15282178338E+03  0.13245812159E+03  0.91254017538E+03  0.93468135441E+03  0.10566000000E+00 0.  1.
        994    1    1    2    0    0 -0.14300689530E+03 -0.13913841376E+03  0.15790219304E+03  0.30668063658E+03  0.17120000000E+03 0.  0.
        998    1    1    2    0    0 -0.98148880846E+01  0.66802921667E+01  0.42955762786E+03  0.42983800901E+03  0.10000000000E+02 0.  1.
</event>
<event>
 5    1  0.1658612E-008  0.3744588E+03  0.7957747E-01  0.3475647E+00
         13   -1    0    0    0    0  0.00000000000E+00  0.00000000000E+00  0.14999999963E+04  0.15000000000E+04  0.10566000000E+00 0.  1.
        994   -1    0    0    0    0 -0.00000000000E+00 -0.00000000000E+00  0.11368683772E-12  0.17120000000E+03  0.17120000000E+03 0.  0.
         13    1    1    2    0    0 -0.48107606639E+01  0.17017338985E+02  0.20450935672E+02  0.27036737565E+02  0.10566000000E+00 0.  1.
        994    1    1    2    0    0 -0.23202077273E+02  0.16192935296E+01  0.88012967913E+01  0.17299670900E+03  0.17120000000E+03 0.  0.
        998    1    1    2    0    0  0.28012837937E+02 -0.18636632515E+02  0.14707477638E+04  0.14711665534E+04  0.10000000000E+02 0.  1.
</event>
<event>
 5    1  0.1658612E-008  0.3779226E+03  0.7957747E-01  0.3460254E+00
         13   -1    0    0    0    0  0.00000000000E+00  0.00000000000E+00  0.14999999963E+04  0.15000000000E+04  0.10566000000E+00 0.  1.
        994   -1    0    0    0    0 -0.00000000000E+00 -0.00000000000E+00  0.11368683772E-12  0.17120000000E+03  0.17120000000E+03 0.  0.
         13    1    1    2    0    0  0.34922807780E+01  0.13516597815E+02  0.16301740907E+02  0.21462813473E+02  0.10566000000E+00 0.  1.
        994    1    1    2    0    0  0.30546022307E+01 -0.17384546393E+02  0.62348796311E+01  0.17222040173E+03  0.17120000000E+03 0.  0.
        998    1    1    2    0    0 -0.65468830087E+01  0.38679485776E+01  0.14774633757E+04  0.14775167848E+04  0.10000000000E+02 0.  1.
</event>
<event>
 5    1  0.1658612E-008  0.3789280E+03  0.7957747E-01  0.3455840E+00
         13   -1    0    0    0    0  0.00000000000E+00  0.00000000000E+00  0.14999999963E+04  0.15000000000E+04  0.10566000000E+00 0.  1.
        994   -1    0    0    0    0 -0.00000000000E+00 -0.00000000000E+00  0.11368683772E-12  0.17120000000E+03  0.17120000000E+03 0.  0.
         13    1    1    2    0    0  0.30635778374E+02  0.10505328663E+02  0.11466121156E+03  0.11914746094E+03  0.10566000000E+00 0.  1.
        994    1    1    2    0    0 -0.13569629275E+02  0.89099383061E+00  0.52959240360E+01  0.17182088208E+03  0.17120000000E+03 0.  0.
        998    1    1    2    0    0 -0.17066149099E+02 -0.11396322494E+02  0.13800428607E+04  0.13802316570E+04  0.10000000000E+02 0.  1.
</event>
<event>
 5    1  0.1658612E-008  0.3787982E+03  0.7957747E-01  0.3456408E+00
         13   -1    0    0    0    0  0.00000000000E+00  0.00000000000E+00  0.14999999963E+04  0.15000000000E+04  0.10566000000E+00 0.  1.
        994   -1    0    0    0    0 -0.00000000000E+00 -0.00000000000E+00  0.11368683772E-12  0.17120000000E+03  0.17120000000E+03 0.  0.
         13    1    1    2    0    0 -0.14139182302E+02 -0.58136770887E+01  0.22656547983E+02  0.27332135811E+02  0.10566000000E+00 0.  1.
        994    1    1    2    0    0  0.76835608394E+01  0.98899913996E+01  0.52676281784E+01  0.17173828037E+03  0.17120000000E+03 0.  0.
        998    1    1    2    0    0  0.64556214629E+01 -0.40763143108E+01  0.14720758201E+04  0.14721295838E+04  0.10000000000E+02 0.  1.
</event>
<event>
 5    1  0.1658612E-008  0.3788196E+03  0.7957747E-01  0.3456314E+00
         13   -1    0    0    0    0  0.00000000000E+00  0.00000000000E+00  0.14999999963E+04  0.15000000000E+04  0.10566000000E+00 0.  1.
        994   -1    0    0    0    0 -0.00000000000E+00 -0.00000000000E+00  0.11368683772E-12  0.17120000000E+03  0.17120000000E+03 0.  0.
         13    1    1    2    0    0  0.14979091752E+02 -0.34192147995E+01  0.23504436446E+02  0.28080846074E+02  0.10566000000E+00 0.  1.
        994    1    1    2    0    0 -0.17982376811E+01  0.31653388354E+01  0.47746786757E+01  0.17130525557E+03  0.17120000000E+03 0.  0.
        998    1    1    2    0    0 -0.13180854070E+02  0.25387596404E+00  0.14717208812E+04  0.14718138984E+04  0.10000000000E+02 0.  1.
</event>
<event>
 5    1  0.1658612E-008  0.3761289E+03  0.7957747E-01  0.3468189E+00
         13   -1    0    0    0    0  0.00000000000E+00  0.00000000000E+00  0.14999999963E+04  0.15000000000E+04  0.10566000000E+00 0.  1.
        994   -1    0    0    0    0 -0.00000000000E+00 -0.00000000000E+00  0.11368683772E-12  0.17120000000E+03  0.17120000000E+03 0.  0.
         13    1    1    2    0    0  0.71634958859E+00 -0.11189362088E+02  0.75143585880E+01  0.13497841668E+02  0.10566000000E+00 0.  1.
        994    1    1    2    0    0 -0.40137576804E+01  0.86368944581E+01  0.64073575501E+01  0.17158438282E+03  0.17120000000E+03 0.  0.
        998    1    1    2    0    0  0.32974080918E+01  0.25524676295E+01  0.14860782801E+04  0.14861177755E+04  0.10000000000E+02 0.  1.
</event>
<event>
 5    1  0.1658612E-008  0.3846285E+03  0.7957747E-01  0.3431249E+00
         13   -1    0    0    0    0  0.00000000000E+00  0.00000000000E+00  0.14999999963E+04  0.15000000000E+04  0.10566000000E+00 0.  1.
        994   -1    0    0    0    0 -0.00000000000E+00 -0.00000000000E+00  0.11368683772E-12  0.17120000000E+03  0.17120000000E+03 0.  0.
         13    1    1    2    0    0  0.22903042795E+01  0.14524868327E+02  0.57638455117E+02  0.59484619574E+02  0.10566000000E+00 0.  1.
        994    1    1    2    0    0 -0.55583786899E+00 -0.15092216109E+02  0.25660411952E+01  0.17188399725E+03  0.17120000000E+03 0.  0.
        998    1    1    2    0    0 -0.17344664105E+01  0.56734778222E+00  0.14397955000E+04  0.14398313832E+04  0.10000000000E+02 0.  0.
</event>
<event>
 5    1  0.1658612E-008  0.3845626E+03  0.7957747E-01  0.3431529E+00
         13   -1    0    0    0    0  0.00000000000E+00  0.00000000000E+00  0.14999999963E+04  0.15000000000E+04  0.10566000000E+00 0.  1.
        994   -1    0    0    0    0 -0.00000000000E+00 -0.00000000000E+00  0.11368683772E-12  0.17120000000E+03  0.17120000000E+03 0.  0.
         13    1    1    2    0    0 -0.72261769855E+01  0.10259868087E+02  0.40701981106E+02  0.42592780573E+02  0.10566000000E+00 0.  1.
        994    1    1    2    0    0  0.48545238847E+01 -0.16947634382E+02  0.28716507271E+01  0.17212923950E+03  0.17120000000E+03 0.  0.
        998    1    1    2    0    0  0.23716531008E+01  0.66877662954E+01  0.14564263644E+04  0.14564779799E+04  0.10000000000E+02 0.  1.
</event>
<event>
 5    1  0.1658612E-008  0.3843001E+03  0.7957747E-01  0.3432646E+00
         13   -1    0    0    0    0  0.00000000000E+00  0.00000000000E+00  0.14999999963E+04  0.15000000000E+04  0.10566000000E+00 0. -1.
        994   -1    0    0    0    0 -0.00000000000E+00 -0.00000000000E+00  0.11368683772E-12  0.17120000000E+03  0.17120000000E+03 0.  0.
         13    1    1    2    0    0 -0.10577369320E+02  0.48854900533E+01  0.33308399231E+02  0.35287524398E+02  0.10566000000E+00 0. -1.
        994    1    1    2    0    0  0.13426380893E+02  0.98298683279E+00  0.25756065528E+01  0.17174780265E+03  0.17120000000E+03 0.  0.
        998    1    1    2    0    0 -0.28490115726E+01 -0.58684768861E+01  0.14641159905E+04  0.14641646729E+04  0.10000000000E+02 0. -1.
</event>
<event>
 5    1  0.1658612E-008  0.3844647E+03  0.7957747E-01  0.3431946E+00
         13   -1    0    0    0    0  0.00000000000E+00  0.00000000000E+00  0.14999999963E+04  0.15000000000E+04  0.10566000000E+00 0.  1.
        994   -1    0    0    0    0 -0.00000000000E+00 -0.00000000000E+00  0.11368683772E-12  0.17120000000E+03  0.17120000000E+03 0.  0.
         13    1    1    2    0    0 -0.99451838331E+01  0.80751398922E+01  0.43518952626E+02  0.45365460071E+02  0.10566000000E+00 0.  1.
        994    1    1    2    0    0  0.40684995087E+01 -0.43290187474E+01  0.20124411850E+01  0.17131486512E+03  0.17120000000E+03 0.  0.
        998    1    1    2    0    0  0.58766843244E+01 -0.37461211448E+01  0.14544686025E+04  0.14545196748E+04  0.10000000000E+02 0.  1.
</event>
<event>
 5    1  0.1658612E-008  0.3762673E+03  0.7957747E-01  0.3467574E+00
         13   -1    0    0    0    0  0.00000000000E+00  0.00000000000E+00  0.14999999963E+04  0.15000000000E+04  0.10566000000E+00 0.  1.
        994   -1    0    0    0    0 -0.00000000000E+00 -0.00000000000E+00  0.11368683772E-12  0.17120000000E+03  0.17120000000E+03 0.  0.
         13    1    1    2    0    0 -0.64951142908E+02  0.23694548947E+02  0.33923627122E+03  0.34620996734E+03  0.10566000000E+00 0.  1.
        994    1    1    2    0    0  0.57382623530E+02 -0.10837581324E+02  0.17660641950E+02  0.18174585807E+03  0.17120000000E+03 0.  0.
        998    1    1    2    0    0  0.75685193780E+01 -0.12856967624E+02  0.11431030831E+04  0.11432441746E+04  0.10000000000E+02 0.  1.
</event>
<event>
 5    1  0.1658612E-008  0.3857836E+03  0.7957747E-01  0.3426356E+00
         13   -1    0    0    0    0  0.00000000000E+00  0.00000000000E+00  0.14999999963E+04  0.15000000000E+04  0.10566000000E+00 0. -1.
        994   -1    0    0    0    0 -0.00000000000E+00 -0.00000000000E+00  0.11368683772E-12  0.17120000000E+03  0.17120000000E+03 0.  0.
         13    1    1    2    0    0 -0.39848439610E+01 -0.10980498198E+02  0.60865009521E+02  0.61975889425E+02  0.10566000000E+00 0. -1.
        994    1    1    2    0    0  0.23198337876E+01 -0.65301582039E+01  0.13991581410E+01  0.17134591398E+03  0.17120000000E+03 0.  0.
        998    1    1    2    0    0  0.16650101734E+01  0.17510656402E+02  0.14377358286E+04  0.14378781966E+04  0.10000000000E+02 0. -1.
</event>
<event>
 5    1  0.1658612E-008  0.3846243E+03  0.7957747E-01  0.3431267E+00
         13   -1    0    0    0    0  0.00000000000E+00  0.00000000000E+00  0.14999999963E+04  0.15000000000E+04  0.10566000000E+00 0.  1.
        994   -1    0    0    0    0 -0.00000000000E+00 -0.00000000000E+00  0.11368683772E-12  0.17120000000E+03  0.17120000000E+03 0.  0.
         13    1    1    2    0    0  0.86461117550E+01 -0.67193796648E+01  0.31772539473E+02  0.33606706773E+02  0.10566000000E+00 0.  1.
        994    1    1    2    0    0 -0.11302650076E+02  0.78634508813E+01  0.24412758321E+01  0.17177014754E+03  0.17120000000E+03 0.  0.
        998    1    1    2    0    0  0.26565383211E+01 -0.11440712165E+01  0.14657861810E+04  0.14658231457E+04  0.10000000000E+02 0.  1.
</event>
<event>
 5    1  0.1658612E-008  0.3857917E+03  0.7957747E-01  0.3426321E+00
         13   -1    0    0    0    0  0.00000000000E+00  0.00000000000E+00  0.14999999963E+04  0.15000000000E+04  0.10566000000E+00 0.  1.
        994   -1    0    0    0    0 -0.00000000000E+00 -0.00000000000E+00  0.11368683772E-12  0.17120000000E+03  0.17120000000E+03 0.  0.
         13    1    1    2    0    0  0.13051417536E+02 -0.24779161829E+01  0.77091684940E+02  0.78227991277E+02  0.10566000000E+00 0.  1.
        994    1    1    2    0    0  0.19565898633E+01  0.11881810544E+02  0.17133599866E+01  0.17163152761E+03  0.17120000000E+03 0.  0.
        998    1    1    2    0    0 -0.15008007399E+02 -0.94038943611E+01  0.14211949514E+04  0.14213404811E+04  0.10000000000E+02 0.  1.
</event>
<event>
 5    1  0.1658612E-008  0.3739944E+03  0.7957747E-01  0.3477733E+00
         13   -1    0    0    0    0  0.00000000000E+00  0.00000000000E+00  0.14999999963E+04  0.15000000000E+04  0.10566000000E+00 0. -1.
        994   -1    0    0    0    0 -0.00000000000E+00 -0.00000000000E+00  0.11368683772E-12  0.17120000000E+03  0.17120000000E+03 0.  0.
         13    1    1    2    0    0 -0.66526581336E+00 -0.54404321165E+02  0.18957042334E+03  0.19722380513E+03  0.10566000000E+00 0. -1.
        994    1    1    2    0    0 -0.77806718860E+01  0.44398980632E+02  0.14157889017E+02  0.17759981463E+03  0.17120000000E+03 0.  0.
        998    1    1    2    0    0  0.84459376994E+01  0.10005340533E+02  0.12962716839E+04  0.12963763802E+04  0.10000000000E+02 0. -1.
</event>
<event>
 5    1  0.1658612E-008  0.2251729E+03  0.7957747E-01  0.4636034E+00
         13   -1    0    0    0    0  0.00000000000E+00  0.00000000000E+00  0.14999999963E+04  0.15000000000E+04  0.10566000000E+00 0.  1.
        994   -1    0    0    0    0 -0.00000000000E+00 -0.00000000000E+00  0.11368683772E-12  0.17120000000E+03  0.17120000000E+03 0.  0.
         13    1    1    2    0    0 -0.14367439244E+03  0.59039196409E-01  0.14301632494E+03  0.20272152054E+03  0.10566000000E+00 0.  1.
        994    1    1    2    0    0  0.14816921400E+03  0.13312175757E+02  0.17526471880E+03  0.28663302611E+03  0.17120000000E+03 0.  0.
        998    1    1    2    0    0 -0.44948215697E+01 -0.13371214953E+02  0.11817189525E+04  0.11818454533E+04  0.10000000000E+02 0.  1.
</event>
<event>
 5    1  0.1658612E-008  0.3720554E+03  0.7957747E-01  0.3486498E+00
         13   -1    0    0    0    0  0.00000000000E+00  0.00000000000E+00  0.14999999963E+04  0.15000000000E+04  0.10566000000E+00 0. -1.
        994   -1    0    0    0    0 -0.00000000000E+00 -0.00000000000E+00  0.11368683772E-12  0.17120000000E+03  0.17120000000E+03 0.  0.
         13    1    1    2    0    0  0.13468900623E+02 -0.25555929899E+01  0.76389865520E+01  0.15694190617E+02  0.10566000000E+00 0. -1.
        994    1    1    2    0    0 -0.15439353113E+02  0.34155946776E+01  0.90575944740E+01  0.17216712790E+03  0.17120000000E+03 0.  0.
        998    1    1    2    0    0  0.19704524896E+01 -0.86000168777E+00  0.14833034153E+04  0.14833386815E+04  0.10000000000E+02 0. -1.
</event>
<event>
 5    1  0.1658612E-008  0.3831851E+03  0.7957747E-01  0.3437406E+00
         13   -1    0    0    0    0  0.00000000000E+00  0.00000000000E+00  0.14999999963E+04  0.15000000000E+04  0.10566000000E+00 0. -1.
        994   -1    0    0    0    0 -0.00000000000E+00 -0.00000000000E+00  0.11368683772E-12  0.17120000000E+03  0.17120000000E+03 0.  0.
         13    1    1    2    0    0 -0.36069808153E+01 -0.12730528413E+02  0.32825786519E+02  0.35392373316E+02  0.10566000000E+00 0. -1.
        994    1    1    2    0    0  0.73726540142E+01  0.14710126032E+02  0.34300297911E+01  0.17202310583E+03  0.17120000000E+03 0.  0.
        998    1    1    2    0    0 -0.37656731989E+01 -0.19795976196E+01  0.14637441800E+04  0.14637845209E+04  0.10000000000E+02 0. -1.
</event>
<event>
 5    1  0.1658612E-008  0.3715447E+03  0.7957747E-01  0.3488822E+00
         13   -1    0    0    0    0  0.00000000000E+00  0.00000000000E+00  0.14999999963E+04  0.15000000000E+04  0.10566000000E+00 0. -1.
        994   -1    0    0    0    0 -0.00000000000E+00 -0.00000000000E+00  0.11368683772E-12  0.17120000000E+03  0.17120000000E+03 0.  0.
         13    1    1    2    0    0  0.19338821988E+02 -0.23520008027E+02  0.49346891705E+02  0.57985409358E+02  0.10566000000E+00 0. -1.
        994    1    1    2    0    0 -0.21043189797E+02  0.27582156945E+02  0.12614728723E+02  0.17513469844E+03  0.17120000000E+03 0.  0.
        998    1    1    2    0    0  0.17043678093E+01 -0.40621489188E+01  0.14380383759E+04  0.14380798922E+04  0.10000000000E+02 0. -1.
</event>
<event>
 5    1  0.1888147E-008  0.3850801E+03  0.7957747E-01  0.3429333E+00
         13   -1    0    0    0    0  0.00000000000E+00  0.00000000000E+00  0.14999999963E+04  0.15000000000E+04  0.10566000000E+00 0.  1.
        994   -1    0    0    0    0 -0.00000000000E+00 -0.00000000000E+00  0.11368683772E-12  0.17120000000E+03  0.17120000000E+03 0.  0.
         13    1    1    2    0    0 -0.48517523845E+01 -0.10027882850E+02  0.38357123704E+02  0.39942183698E+02  0.10566000000E+00 0.  1.
        994    1    1    2    0    0  0.54801648668E+01  0.89133292815E+01  0.19504033332E+01  0.17153053291E+03  0.17120000000E+03 0.  0.
        998    1    1    2    0    0 -0.62841248235E+00  0.11145535682E+01  0.14596924692E+04  0.14597272834E+04  0.10000000000E+02 0.  1.
</event>
<event>
 5    1  0.1658612E-008  0.3751729E+03  0.7957747E-01  0.3472450E+00
         13   -1    0    0    0    0  0.00000000000E+00  0.00000000000E+00  0.14999999963E+04  0.15000000000E+04  0.10566000000E+00 0. -1.
        994   -1    0    0    0    0 -0.00000000000E+00 -0.00000000000E+00  0.11368683772E-12  0.17120000000E+03  0.17120000000E+03 0.  0.
         13    1    1    2    0    0 -0.16040003900E+02 -0.13013913477E+01  0.16631358441E+02  0.23142787045E+02  0.10566000000E+00 0. -1.
        994    1    1    2    0    0  0.15427645421E+02 -0.69439080949E-01  0.73989681896E+01  0.17205290406E+03  0.17120000000E+03 0.  0.
        998    1    1    2    0    0  0.61235847968E+00  0.13708304286E+01  0.14759696696E+04  0.14760043089E+04  0.10000000000E+02 0. -1.
</event>
<event>
 5    1  0.1658612E-008  0.3741456E+03  0.7957747E-01  0.3477053E+00
         13   -1    0    0    0    0  0.00000000000E+00  0.00000000000E+00  0.14999999963E+04  0.15000000000E+04  0.10566000000E+00 0. -1.
        994   -1    0    0    0    0 -0.00000000000E+00 -0.00000000000E+00  0.11368683772E-12  0.17120000000E+03  0.17120000000E+03 0.  0.
         13    1    1    2    0    0 -0.49525486363E+01  0.34055303051E+02  0.39391867470E+02  0.52306995619E+02  0.10566000000E+00 0. -1.
        994    1    1    2    0    0  0.22302534635E+01 -0.29378017805E+02  0.16233386866E+02  0.17447350747E+03  0.17120000000E+03 0.  0.
        998    1    1    2    0    0  0.27222951728E+01 -0.46772852459E+01  0.14443747419E+04  0.14444194969E+04  0.10000000000E+02 0. -1.
</event>
<event>
 5    1  0.1658612E-008  0.3789253E+03  0.7957747E-01  0.3455851E+00
         13   -1    0    0    0    0  0.00000000000E+00  0.00000000000E+00  0.14999999963E+04  0.15000000000E+04  0.10566000000E+00 0.  1.
        994   -1    0    0    0    0 -0.00000000000E+00 -0.00000000000E+00  0.11368683772E-12  0.17120000000E+03  0.17120000000E+03 0.  0.
         13    1    1    2    0    0 -0.39199850515E+02  0.89327847382E+02  0.51763039455E+03  0.52674218468E+03  0.10566000000E+00 0.  1.
        994    1    1    2    0    0  0.57719770776E+02 -0.10121166784E+03  0.51657899007E+02  0.21343231286E+03  0.17120000000E+03 0.  0.
        998    1    1    2    0    0 -0.18519920261E+02  0.11883820455E+02  0.93071170272E+03  0.93102550245E+03  0.10000000000E+02 0.  1.
</event>
<event>
 5    1  0.1658612E-008  0.3822017E+03  0.7957747E-01  0.3441628E+00
         13   -1    0    0    0    0  0.00000000000E+00  0.00000000000E+00  0.14999999963E+04  0.15000000000E+04  0.10566000000E+00 0. -1.
        994   -1    0    0    0    0 -0.00000000000E+00 -0.00000000000E+00  0.11368683772E-12  0.17120000000E+03  0.17120000000E+03 0.  0.
         13    1    1    2    0    0  0.23060576304E+02  0.30322881434E+02  0.22927985209E+03  0.23242316807E+03  0.10566000000E+00 0. -1.
        994    1    1    2    0    0 -0.66712212486E+01 -0.28470676569E+02  0.58688766768E+01  0.17377850365E+03  0.17120000000E+03 0.  0.
        998    1    1    2    0    0 -0.16389355055E+02 -0.18522048647E+01  0.12648512675E+04  0.12649983283E+04  0.10000000000E+02 0. -1.
</event>
<event>
 5    1  0.1658612E-008  0.3827678E+03  0.7957747E-01  0.3439195E+00
         13   -1    0    0    0    0  0.00000000000E+00  0.00000000000E+00  0.14999999963E+04  0.15000000000E+04  0.10566000000E+00 0. -1.
        994   -1    0    0    0    0 -0.00000000000E+00 -0.00000000000E+00  0.11368683772E-12  0.17120000000E+03  0.17120000000E+03 0.  0.
         13    1    1    2    0    0  0.24117310193E+02  0.11686805860E+01  0.99549908033E+02  0.10243635008E+03  0.10566000000E+00 0. -1.
        994    1    1    2    0    0 -0.24897841107E+02  0.82633283947E+01  0.50254815989E+01  0.17327111864E+03  0.17120000000E+03 0.  0.
        998    1    1    2    0    0  0.78053091438E+00 -0.94320089807E+01  0.13954246066E+04  0.13954925313E+04  0.10000000000E+02 0. -1.
</event>
<event>
 5    1  0.1658612E-008  0.3715683E+03  0.7957747E-01  0.3488714E+00
         13   -1    0    0    0    0  0.00000000000E+00  0.00000000000E+00  0.14999999963E+04  0.15000000000E+04  0.10566000000E+00 0. -1.
        994   -1    0    0    0    0 -0.00000000000E+00 -0.00000000000E+00  0.11368683772E-12  0.17120000000E+03  0.17120000000E+03 0.  0.
         13    1    1    2    0    0 -0.23268549787E+02  0.24541196128E+02  0.63594152460E+02  0.72027238652E+02  0.10566000000E+00 0. -1.
        994    1    1    2    0    0  0.27656333465E+02 -0.10038572535E+02  0.11434424144E+02  0.17408570238E+03  0.17120000000E+03 0.  0.
        998    1    1    2    0    0 -0.43877836777E+01 -0.14502623592E+02  0.14249714197E+04  0.14250870590E+04  0.10000000000E+02 0. -1.
</event>
<event>
 5    1  0.1658612E-008  0.3835901E+03  0.7957747E-01  0.3435674E+00
         13   -1    0    0    0    0  0.00000000000E+00  0.00000000000E+00  0.14999999963E+04  0.15000000000E+04  0.10566000000E+00 0.  1.
        994   -1    0    0    0    0 -0.00000000000E+00 -0.00000000000E+00  0.11368683772E-12  0.17120000000E+03  0.17120000000E+03 0.  0.
         13    1    1    2    0    0  0.17490970963E+02 -0.72203087800E+01  0.77299940162E+02  0.79582402811E+02  0.10566000000E+00 0.  1.
        994    1    1    2    0    0 -0.10146370566E+02  0.84627364322E+00  0.26743093931E+01  0.17152334228E+03  0.17120000000E+03 0.  0.
        998    1    1    2    0    0 -0.73446003972E+01  0.63740351368E+01  0.14200257467E+04  0.14200942549E+04  0.10000000000E+02 0.  1.
</event>
<event>
 5    1  0.1658612E-008  0.3854923E+03  0.7957747E-01  0.3427587E+00
         13   -1    0    0    0    0  0.00000000000E+00  0.00000000000E+00  0.14999999963E+04  0.15000000000E+04  0.10566000000E+00 0.  1.
        994   -1    0    0    0    0 -0.00000000000E+00 -0.00000000000E+00  0.11368683772E-12  0.17120000000E+03  0.17120000000E+03 0.  0.
         13    1    1    2    0    0 -0.97074418980E+01  0.95217680925E+01  0.64965653490E+02  0.66373532324E+02  0.10566000000E+00 0.  1.
        994    1    1    2    0    0  0.10131218565E+02 -0.91271866689E+01  0.19967004155E+01  0.17175381783E+03  0.17120000000E+03 0.  0.
        998    1    1    2    0    0 -0.42377666677E+00 -0.39458142355E+00  0.14330376424E+04  0.14330726498E+04  0.10000000000E+02 0.  0.
</event>
<event>
 5    1  0.1658612E-008  0.3847519E+03  0.7957747E-01  0.3430725E+00
         13   -1    0    0    0    0  0.00000000000E+00  0.00000000000E+00  0.14999999963E+04  0.15000000000E+04  0.10566000000E+00 0. -1.
        994   -1    0    0    0    0 -0.00000000000E+00 -0.00000000000E+00  0.11368683772E-12  0.17120000000E+03  0.17120000000E+03 0.  0.
         13    1    1    2    0    0 -0.79873126027E+01 -0.83247057271E+01  0.37935552014E+02  0.39651168441E+02  0.10566000000E+00 0. -1.
        994    1    1    2    0    0  0.84168033627E+01  0.94693771335E+00  0.19894958741E+01  0.17142093619E+03  0.17120000000E+03 0.  0.
        998    1    1    2    0    0 -0.42949075997E+00  0.73777680137E+01  0.14600749484E+04  0.14601278954E+04  0.10000000000E+02 0. -1.
</event>
<event>
 5    1  0.1658612E-008  0.3781897E+03  0.7957747E-01  0.3459079E+00
         13   -1    0    0    0    0  0.00000000000E+00  0.00000000000E+00  0.14999999963E+04  0.15000000000E+04  0.10566000000E+00 0. -1.
        994   -1    0    0    0    0 -0.00000000000E+00 -0.00000000000E+00  0.11368683772E-12  0.17120000000E+03  0.17120000000E+03 0.  0.
         13    1    1    2    0    0  0.80911737903E+01  0.13791649463E+02  0.22827632277E+02  0.27870928360E+02  0.10566000000E+00 0. -1.
        994    1    1    2    0    0 -0.79741714683E+01 -0.15314304315E+02  0.60529651350E+01  0.17217489281E+03  0.17120000000E+03 0.  0.
        998    1    1    2    0    0 -0.11700232198E+00  0.15226548516E+01  0.14711193989E+04  0.14711541788E+04  0.10000000000E+02 0. -1.
</event>
<event>
 5    1  0.1658612E-008  0.3782316E+03  0.7957747E-01  0.3458895E+00
         13   -1    0    0    0    0  0.00000000000E+00  0.00000000000E+00  0.14999999963E+04  0.15000000000E+04  0.10566000000E+00 0.  1.
        994   -1    0    0    0    0 -0.00000000000E+00 -0.00000000000E+00  0.11368683772E-12  0.17120000000E+03  0.17120000000E+03 0.  0.
         13    1    1    2    0    0 -0.41721529018E+02  0.10107601224E+02  0.15912365260E+03  0.16481261350E+03  0.10566000000E+00 0.  1.
        994    1    1    2    0    0  0.45868704868E+02 -0.12230547598E+02  0.12643812049E+02  0.17810904066E+03  0.17120000000E+03 0.  0.
        998    1    1    2    0    0 -0.41471758499E+01  0.21229463738E+01  0.13282325316E+04  0.13282783458E+04  0.10000000000E+02 0.  1.
</event>
<event>
 5    1  0.1658612E-008  0.3842569E+03  0.7957747E-01  0.3432830E+00
         13   -1    0    0    0    0  0.00000000000E+00  0.00000000000E+00  0.14999999963E+04  0.15000000000E+04  0.10566000000E+00 0. -1.
        994   -1    0    0    0    0 -0.00000000000E+00 -0.00000000000E+00  0.11368683772E-12  0.17120000000E+03  0.17120000000E+03 0.  0.
         13    1    1    2    0    0 -0.87487326452E+01 -0.52430395638E+01  0.24870318081E+02  0.26880730501E+02  0.10566000000E+00 0. -1.
        994    1    1    2    0    0  0.17418167238E+02 -0.31281607351E+01  0.30326417080E+01  0.17213894055E+03  0.17120000000E+03 0.  0.
        998    1    1    2    0    0 -0.86694345924E+01  0.83712002988E+01  0.14720970365E+04  0.14721803289E+04  0.10000000000E+02 0. -1.
</event>
<event>
 5    1  0.1658612E-008  0.3795239E+03  0.7957747E-01  0.3453234E+00
         13   -1    0    0    0    0  0.00000000000E+00  0.00000000000E+00  0.14999999963E+04  0.15000000000E+04  0.10566000000E+00 0.  1.
        994   -1    0    0    0    0 -0.00000000000E+00 -0.00000000000E+00  0.11368683772E-12  0.17120000000E+03  0.17120000000E+03 0.  0.
         13    1    1    2    0    0 -0.12028182399E+03  0.66994819553E+02  0.81264273936E+03  0.82422342604E+03  0.10566000000E+00 0.  1.
        994    1    1    2    0    0  0.12875651644E+03 -0.63403602380E+02  0.76747738796E+02  0.23621581812E+03  0.17120000000E+03 0.  0.
        998    1    1    2    0    0 -0.84746924578E+01 -0.35912171725E+01  0.61060951812E+03  0.61076075584E+03  0.10000000000E+02 0. -1.
</event>
<event>
 5    1  0.1658612E-008  0.3857360E+03  0.7957747E-01  0.3426557E+00
         13   -1    0    0    0    0  0.00000000000E+00  0.00000000000E+00  0.14999999963E+04  0.15000000000E+04  0.10566000000E+00 0.  1.
        994   -1    0    0    0    0 -0.00000000000E+00 -0.00000000000E+00  0.11368683772E-12  0.17120000000E+03  0.17120000000E+03 0.  0.
         13    1    1    2    0    0 -0.65856622927E+01  0.12431726187E+02  0.84676946689E+02  0.85837726137E+02  0.10566000000E+00 0.  1.
        994    1    1    2    0    0 -0.23430041302E+01 -0.18991453836E+01  0.12950096978E+01  0.17123146169E+03  0.17120000000E+03 0.  0.
        998    1    1    2    0    0  0.89286664229E+01 -0.10532580804E+02  0.14140280399E+04  0.14141308122E+04  0.10000000000E+02 0.  1.
</event>
<event>
 5    1  0.1658612E-008  0.3694580E+03  0.7957747E-01  0.3498385E+00
         13   -1    0    0    0    0  0.00000000000E+00  0.00000000000E+00  0.14999999963E+04  0.15000000000E+04  0.10566000000E+00 0. -1.
        994   -1    0    0    0    0 -0.00000000000E+00 -0.00000000000E+00  0.11368683772E-12  0.17120000000E+03  0.17120000000E+03 0.  0.
         13    1    1    2    0    0  0.55425768847E+02  0.74693829819E+02  0.28456368803E+03  0.29937883655E+03  0.10566000000E+00 0. -1.
        994    1    1    2    0    0 -0.40580218520E+02 -0.13229171385E+03  0.79138150357E+02  0.23392336038E+03  0.17120000000E+03 0.  0.
        998    1    1    2    0    0 -0.14845550327E+02  0.57597884029E+02  0.11362981579E+04  0.11378978031E+04  0.10000000000E+02 0. -1.
</event>
<event>
 5    1  0.1658612E-008  0.3742885E+03  0.7957747E-01  0.3476411E+00
         13   -1    0    0    0    0  0.00000000000E+00  0.00000000000E+00  0.14999999963E+04  0.15000000000E+04  0.10566000000E+00 0. -1.
        994   -1    0    0    0    0 -0.00000000000E+00 -0.00000000000E+00  0.11368683772E-12  0.17120000000E+03  0.17120000000E+03 0.  0.
         13    1    1    2    0    0  0.69655611518E+01 -0.12884013194E+03  0.52685398186E+03  0.54242366099E+03  0.10566000000E+00 0. -1.
        994    1    1    2    0    0  0.41421622424E+01  0.15807933555E+03  0.97687910430E+02  0.25270259531E+03  0.17120000000E+03 0.  0.
        998    1    1    2    0    0 -0.11107723394E+02 -0.29239203606E+02  0.87545810399E+03  0.87607374370E+03  0.10000000000E+02 0. -1.
</event>
<event>
 5    1  0.1658612E-008  0.3804867E+03  0.7957747E-01  0.3449042E+00
         13   -1    0    0    0    0  0.00000000000E+00  0.00000000000E+00  0.14999999963E+04  0.15000000000E+04  0.10566000000E+00 0.  1.
        994   -1    0    0    0    0 -0.00000000000E+00 -0.00000000000E+00  0.11368683772E-12  0.17120000000E+03  0.17120000000E+03 0.  0.
         13    1    1    2    0    0  0.48044879188E+02  0.15254806720E+03  0.95792158032E+03  0.97118123357E+03  0.10566000000E+00 0.  1.
        994    1    1    2    0    0 -0.48235871644E+02 -0.15450633923E+03  0.96943716632E+02  0.25476740838E+03  0.17120000000E+03 0.  0.
        998    1    1    2    0    0  0.19099245552E+00  0.19582720340E+01  0.44513469933E+03  0.44525135806E+03  0.10000000000E+02 0.  0.
</event>
<event>
 5    1  0.1658612E-008  0.3831384E+03  0.7957747E-01  0.3437606E+00
         13   -1    0    0    0    0  0.00000000000E+00  0.00000000000E+00  0.14999999963E+04  0.15000000000E+04  0.10566000000E+00 0.  1.
        994   -1    0    0    0    0 -0.00000000000E+00 -0.00000000000E+00  0.11368683772E-12  0.17120000000E+03  0.17120000000E+03 0.  0.
         13    1    1    2    0    0  0.55559871712E+01  0.17082528974E+02  0.61976056930E+02  0.64526929155E+02  0.10566000000E+00 0.  1.
        994    1    1    2    0    0 -0.36518848375E+01 -0.12387948011E+02  0.31092594249E+01  0.17171460338E+03  0.17120000000E+03 0.  0.
        998    1    1    2    0    0 -0.19041023337E+01 -0.46945809633E+01  0.14349146799E+04  0.14349584675E+04  0.10000000000E+02 0.  1.
</event>
<event>
 5    1  0.1658612E-008  0.3818460E+03  0.7957747E-01  0.3443160E+00
         13   -1    0    0    0    0  0.00000000000E+00  0.00000000000E+00  0.14999999963E+04  0.15000000000E+04  0.10566000000E+00 0.  1.
        994   -1    0    0    0    0 -0.00000000000E+00 -0.00000000000E+00  0.11368683772E-12  0.17120000000E+03  0.17120000000E+03 0.  0.
         13    1    1    2    0    0  0.69597299093E+02 -0.13981494984E+02  0.14426810028E+03  0.16078731967E+03  0.10566000000E+00 0.  1.
        994    1    1    2    0    0 -0.35137956316E+02  0.13679180440E+02  0.22549631445E+02  0.17674762185E+03  0.17120000000E+03 0.  0.
        998    1    1    2    0    0 -0.34459342777E+02  0.30231454369E+00  0.13331822646E+04  0.13336650585E+04  0.10000000000E+02 0.  1.
</event>
<event>
 5    1  0.1658612E-008  0.3833085E+03  0.7957747E-01  0.3436878E+00
         13   -1    0    0    0    0  0.00000000000E+00  0.00000000000E+00  0.14999999963E+04  0.15000000000E+04  0.10566000000E+00 0. -1.
        994   -1    0    0    0    0 -0.00000000000E+00 -0.00000000000E+00  0.11368683772E-12  0.17120000000E+03  0.17120000000E+03 0.  0.
         13    1    1    2    0    0  0.66005924792E+00  0.16447575240E+02  0.52589474848E+02  0.55105557237E+02  0.10566000000E+00 0. -1.
        994    1    1    2    0    0  0.74593612164E+01 -0.17213540493E+02  0.36369587530E+01  0.17226321579E+03  0.17120000000E+03 0.  0.
        998    1    1    2    0    0 -0.81194204643E+01  0.76596525276E+00  0.14437735627E+04  0.14438312270E+04  0.10000000000E+02 0. -1.
</event>
<event>
 5    1  0.1658612E-008  0.3815087E+03  0.7957747E-01  0.3444616E+00
         13   -1    0    0    0    0  0.00000000000E+00  0.00000000000E+00  0.14999999963E+04  0.15000000000E+04  0.10566000000E+00 0. -1.
        994   -1    0    0    0    0 -0.00000000000E+00 -0.00000000000E+00  0.11368683772E-12  0.17120000000E+03  0.17120000000E+03 0.  0.
         13    1    1    2    0    0  0.15164104371E+02 -0.23213091576E+02  0.11657379663E+03  0.11982595256E+03  0.10566000000E+00 0. -1.
        994    1    1    2    0    0  0.74435159432E+01  0.18869471980E+02  0.47433583143E+01  0.17246275642E+03  0.17120000000E+03 0.  0.
        998    1    1    2    0    0 -0.22607620314E+02  0.43436195962E+01  0.13786828413E+04  0.13789112910E+04  0.10000000000E+02 0. -1.
</event>
<event>
 5    1  0.1658612E-008  0.3947472E+03  0.7957747E-01  0.3389357E+00
         13   -1    0    0    0    0  0.00000000000E+00  0.00000000000E+00  0.14999999963E+04  0.15000000000E+04  0.10566000000E+00 0. -1.
        994   -1    0    0    0    0 -0.00000000000E+00 -0.00000000000E+00  0.11368683772E-12  0.17120000000E+03  0.17120000000E+03 0.  0.
         13    1    1    2    0    0 -0.17601404649E+01  0.81090446049E+02  0.25754367534E+03  0.27001391521E+03  0.10566000000E+00 0. -1.
        994    1    1    2    0    0  0.86539757276E+02  0.10418960362E+03  0.99040413496E+02  0.23971451061E+03  0.17120000000E+03 0.  0.
        998    1    1    2    0    0 -0.84779616811E+02 -0.18528004967E+03  0.11434159074E+04  0.11614715742E+04  0.10000000000E+02 0. -1.
</event>
<event>
 5    1  0.1658612E-008  0.3844964E+03  0.7957747E-01  0.3431811E+00
         13   -1    0    0    0    0  0.00000000000E+00  0.00000000000E+00  0.14999999963E+04  0.15000000000E+04  0.10566000000E+00 0. -1.
        994   -1    0    0    0    0 -0.00000000000E+00 -0.00000000000E+00  0.11368683772E-12  0.17120000000E+03  0.17120000000E+03 0.  0.
         13    1    1    2    0    0 -0.15454999488E+02  0.12794747581E+02  0.10229079256E+03  0.10424001143E+03  0.10566000000E+00 0. -1.
        994    1    1    2    0    0  0.12840981602E+02 -0.13548830118E+02  0.30290515830E+01  0.17224133290E+03  0.17120000000E+03 0.  0.
        998    1    1    2    0    0  0.26140178868E+01  0.75408253661E+00  0.13946801521E+04  0.13947186557E+04  0.10000000000E+02 0.  0.
</event>
<event>
 5    1  0.1658612E-008  0.3724191E+03  0.7957747E-01  0.3484847E+00
         13   -1    0    0    0    0  0.00000000000E+00  0.00000000000E+00  0.14999999963E+04  0.15000000000E+04  0.10566000000E+00 0.  1.
        994   -1    0    0    0    0 -0.00000000000E+00 -0.00000000000E+00  0.11368683772E-12  0.17120000000E+03  0.17120000000E+03 0.  0.
         13    1    1    2    0    0  0.56506488945E+01 -0.45885367580E+02  0.15028311996E+03  0.15723366083E+03  0.10566000000E+00 0.  1.
        994    1    1    2    0    0  0.20078588672E+01 -0.88315860389E+00  0.80265970823E+01  0.17140209371E+03  0.17120000000E+03 0.  0.
        998    1    1    2    0    0 -0.76585077616E+01  0.46768526184E+02  0.13416902792E+04  0.13425642455E+04  0.10000000000E+02 0.  1.
</event>
<event>
 5    1  0.1658612E-008  0.3812414E+03  0.7957747E-01  0.3445771E+00
         13   -1    0    0    0    0  0.00000000000E+00  0.00000000000E+00  0.14999999963E+04  0.15000000000E+04  0.10566000000E+00 0.  1.
        994   -1    0    0    0    0 -0.00000000000E+00 -0.00000000000E+00  0.11368683772E-12  0.17120000000E+03  0.17120000000E+03 0.  0.
         13    1    1    2    0    0  0.21419231099E+02  0.21817791629E+02  0.12793521781E+03  0.13153794362E+03  0.10566000000E+00 0.  1.
        994    1    1    2    0    0 -0.12570467013E+02 -0.20448562727E+02  0.54283678719E+01  0.17295972808E+03  0.17120000000E+03 0.  0.
        998    1    1    2    0    0 -0.88487640860E+01 -0.13692289024E+01  0.13666364106E+04  0.13667023283E+04  0.10000000000E+02 0.  1.
</event>
<event>
 5    1  0.1658612E-008  0.3822622E+03  0.7957747E-01  0.3441367E+00
         13   -1    0    0    0    0  0.00000000000E+00  0.00000000000E+00  0.14999999963E+04  0.15000000000E+04  0.10566000000E+00 0.  1.
        994   -1    0    0    0    0 -0.00000000000E+00 -0.00000000000E+00  0.11368683772E-12  0.17120000000E+03  0.17120000000E+03 0.  0.
         13    1    1    2    0    0 -0.51849590291E+01 -0.21701170922E+02  0.85277419860E+02  0.88148023923E+02  0.10566000000E+00 0.  1.
        994    1    1    2    0    0  0.69042802947E+01  0.57778538662E+01  0.32645201765E+01  0.17146763477E+03  0.17120000000E+03 0.  0.
        998    1    1    2    0    0 -0.17193212656E+01  0.15923317056E+02  0.14114580562E+04  0.14115843413E+04  0.10000000000E+02 0.  1.
</event>
<event>
 5    1  0.1658612E-008  0.3764471E+03  0.7957747E-01  0.3466776E+00
         13   -1    0    0    0    0  0.00000000000E+00  0.00000000000E+00  0.14999999963E+04  0.15000000000E+04  0.10566000000E+00 0.  1.
        994   -1    0    0    0    0 -0.00000000000E+00 -0.00000000000E+00  0.11368683772E-12  0.17120000000E+03  0.17120000000E+03 0.  0.
         13    1    1    2    0    0 -0.57296077224E+02  0.54185553490E+02  0.39069417375E+03  0.39857353554E+03  0.10566000000E+00 0.  1.
        994    1    1    2    0    0  0.55934367800E+02 -0.53181661087E+02  0.26361531711E+02  0.18963468283E+03  0.17120000000E+03 0.  0.
        998    1    1    2    0    0  0.13617094242E+01 -0.10038924033E+01  0.10829442908E+04  0.10829917816E+04  0.10000000000E+02 0.  0.
</event>
<event>
 5    1  0.3024070E-008  0.3845010E+03  0.7957747E-01  0.3431791E+00
         13   -1    0    0    0    0  0.00000000000E+00  0.00000000000E+00  0.14999999963E+04  0.15000000000E+04  0.10566000000E+00 0.  1.
        994   -1    0    0    0    0 -0.00000000000E+00 -0.00000000000E+00  0.11368683772E-12  0.17120000000E+03  0.17120000000E+03 0.  0.
         13    1    1    2    0    0 -0.46731041030E+01 -0.97625180919E+01  0.30678237882E+02  0.32531678485E+02  0.10566000000E+00 0.  1.
        994    1    1    2    0    0  0.29372322062E+01  0.75915115235E+01  0.20963699915E+01  0.17140622260E+03  0.17120000000E+03 0.  0.
        998    1    1    2    0    0  0.17358718968E+01  0.21710065684E+01  0.14672253884E+04  0.14672620989E+04  0.10000000000E+02 0.  1.
</event>
<event>
 5    1  0.1658612E-008  0.3823574E+03  0.7957747E-01  0.3440958E+00
         13   -1    0    0    0    0  0.00000000000E+00  0.00000000000E+00  0.14999999963E+04  0.15000000000E+04  0.10566000000E+00 0.  1.
        994   -1    0    0    0    0 -0.00000000000E+00 -0.00000000000E+00  0.11368683772E-12  0.17120000000E+03  0.17120000000E+03 0.  0.
         13    1    1    2    0    0 -0.18627162801E+01 -0.18535134205E+02  0.57994267782E+02  0.60912783318E+02  0.10566000000E+00 0.  1.
        994    1    1    2    0    0 -0.19365671101E+02  0.14037015193E+02  0.48477557688E+01  0.17293064433E+03  0.17120000000E+03 0.  0.
        998    1    1    2    0    0  0.21228387381E+02  0.44981190123E+01  0.14371579727E+04  0.14373565724E+04  0.10000000000E+02 0.  1.
</event>
<event>
 5    1  0.1658612E-008  0.3701122E+03  0.7957747E-01  0.3495375E+00
         13   -1    0    0    0    0  0.00000000000E+00  0.00000000000E+00  0.14999999963E+04  0.15000000000E+04  0.10566000000E+00 0. -1.
        994   -1    0    0    0    0 -0.00000000000E+00 -0.00000000000E+00  0.11368683772E-12  0.17120000000E+03  0.17120000000E+03 0.  0.
         13    1    1    2    0    0 -0.51841988078E+02 -0.92145065362E+01  0.15343423724E+03  0.16221767838E+03  0.10566000000E+00 0. -1.
        994    1    1    2    0    0  0.24805093987E+02 -0.77469490837E+01  0.11548034812E+02  0.17354568567E+03  0.17120000000E+03 0.  0.
        998    1    1    2    0    0  0.27036894091E+02  0.16961455620E+02  0.13350177242E+04  0.13354366359E+04  0.10000000000E+02 0.  1.
</event>
<event>
 5    1  0.1658612E-008  0.4368316E+03  0.7957747E-01  0.3235777E+00
         13   -1    0    0    0    0  0.00000000000E+00  0.00000000000E+00  0.14999999963E+04  0.15000000000E+04  0.10566000000E+00 0.  1.
        994   -1    0    0    0    0 -0.00000000000E+00 -0.00000000000E+00  0.11368683772E-12  0.17120000000E+03  0.17120000000E+03 0.  0.
         13    1    1    2    0    0 -0.28797031533E+02 -0.12848681623E+03  0.13759317424E+03  0.19044690528E+03  0.10566000000E+00 0.  1.
        994    1    1    2    0    0  0.32740240042E+02  0.12599098185E+03  0.13635641128E+03  0.25465302222E+03  0.17120000000E+03 0.  0.
        998    1    1    2    0    0 -0.39432085086E+01  0.24958343763E+01  0.12260504108E+04  0.12261000725E+04  0.10000000000E+02 0.  0.
</event>
<event>
 5    1  0.1658612E-008  0.3741410E+03  0.7957747E-01  0.3477073E+00
         13   -1    0    0    0    0  0.00000000000E+00  0.00000000000E+00  0.14999999963E+04  0.15000000000E+04  0.10566000000E+00 0.  1.
        994   -1    0    0    0    0 -0.00000000000E+00 -0.00000000000E+00  0.11368683772E-12  0.17120000000E+03  0.17120000000E+03 0.  0.
         13    1    1    2    0    0  0.98660397789E+01  0.42507423648E+02  0.11966463798E+03  0.12737290352E+03  0.10566000000E+00 0.  1.
        994    1    1    2    0    0 -0.25484364625E+02 -0.42479716964E+02  0.15532795005E+02  0.17889853804E+03  0.17120000000E+03 0.  0.
        998    1    1    2    0    0  0.15618324846E+02 -0.27706683668E-01  0.13648025633E+04  0.13649285584E+04  0.10000000000E+02 0.  1.
</event>
<event>
 5    1  0.1658612E-008  0.3814774E+03  0.7957747E-01  0.3444751E+00
         13   -1    0    0    0    0  0.00000000000E+00  0.00000000000E+00  0.14999999963E+04  0.15000000000E+04  0.10566000000E+00 0. -1.
        994   -1    0    0    0    0 -0.00000000000E+00 -0.00000000000E+00  0.11368683772E-12  0.17120000000E+03  0.17120000000E+03 0.  0.
         13    1    1    2    0    0  0.11815495120E+02  0.23918929459E+01  0.20339544735E+02  0.23643927780E+02  0.10566000000E+00 0. -1.
        994    1    1    2    0    0 -0.16680076949E+01 -0.11221355137E+02  0.38174836809E+01  0.17161793100E+03  0.17120000000E+03 0.  0.
        998    1    1    2    0    0 -0.10147487425E+02  0.88294621909E+01  0.14758429679E+04  0.14759381412E+04  0.10000000000E+02 0. -1.
</event>
<event>
 5    1  0.1658612E-008  0.3828795E+03  0.7957747E-01  0.3438716E+00
         13   -1    0    0    0    0  0.00000000000E+00  0.00000000000E+00  0.14999999963E+04  0.15000000000E+04  0.10566000000E+00 0. -1.
        994   -1    0    0    0    0 -0.00000000000E+00 -0.00000000000E+00  0.11368683772E-12  0.17120000000E+03  0.17120000000E+03 0.  0.
         13    1    1    2    0    0  0.16130061298E+00 -0.15940156864E+02  0.41153336754E+02  0.44133013819E+02  0.10566000000E+00 0. -1.
        994    1    1    2    0    0 -0.24853509335E+02  0.40272320600E+02  0.10138366872E+02  0.17790948040E+03  0.17120000000E+03 0.  0.
        998    1    1    2    0    0  0.24692208722E+02 -0.24332163736E+02  0.14487082927E+04  0.14491575058E+04  0.10000000000E+02 0. -1.
</event>
<event>
 5    1  0.1658612E-008  0.3769965E+03  0.7957747E-01  0.3464342E+00
         13   -1    0    0    0    0  0.00000000000E+00  0.00000000000E+00  0.14999999963E+04  0.15000000000E+04  0.10566000000E+00 0. -1.
        994   -1    0    0    0    0 -0.00000000000E+00 -0.00000000000E+00  0.11368683772E-12  0.17120000000E+03  0.17120000000E+03 0.  0.
         13    1    1    2    0    0  0.35367974269E+02  0.46937781421E+01  0.10699905788E+03  0.11279066765E+03  0.10566000000E+00 0. -1.
        994    1    1    2    0    0 -0.28258174382E+02 -0.40873237595E+01  0.84145573750E+01  0.17376845344E+03  0.17120000000E+03 0.  0.
        998    1    1    2    0    0 -0.71097998868E+01 -0.60645438257E+00  0.13845863810E+04  0.13846408789E+04  0.10000000000E+02 0. -1.
</event>
<event>
 5    1  0.1658612E-008  0.3739418E+03  0.7957747E-01  0.3477969E+00
         13   -1    0    0    0    0  0.00000000000E+00  0.00000000000E+00  0.14999999963E+04  0.15000000000E+04  0.10566000000E+00 0. -1.
        994   -1    0    0    0    0 -0.00000000000E+00 -0.00000000000E+00  0.11368683772E-12  0.17120000000E+03  0.17120000000E+03 0.  0.
         13    1    1    2    0    0 -0.42691830522E+02  0.32768847567E+01  0.12279322153E+03  0.13004428778E+03  0.10566000000E+00 0. -1.
        994    1    1    2    0    0  0.29491809607E+02  0.79748359940E+01  0.10413797799E+02  0.17421610726E+03  0.17120000000E+03 0.  0.
        998    1    1    2    0    0  0.13200020915E+02 -0.11251720751E+02  0.13667929769E+04  0.13669396050E+04  0.10000000000E+02 0. -1.
</event>
<event>
 5    1  0.1658612E-008  0.3821917E+03  0.7957747E-01  0.3441671E+00
         13   -1    0    0    0    0  0.00000000000E+00  0.00000000000E+00  0.14999999963E+04  0.15000000000E+04  0.10566000000E+00 0.  1.
        994   -1    0    0    0    0 -0.00000000000E+00 -0.00000000000E+00  0.11368683772E-12  0.17120000000E+03  0.17120000000E+03 0.  0.
         13    1    1    2    0    0 -0.11912182224E+02 -0.54177228123E+01  0.28260260071E+02  0.31143302155E+02  0.10566000000E+00 0.  1.
        994    1    1    2    0    0 -0.51522378425E+01  0.35661832346E+01  0.31611831371E+01  0.17134379562E+03  0.17120000000E+03 0.  0.
        998    1    1    2    0    0  0.17064420067E+02  0.18515395778E+01  0.14685785531E+04  0.14687129022E+04  0.10000000000E+02 0.  1.
</event>
<event>
 5    1  0.1658612E-008  0.3853773E+03  0.7957747E-01  0.3428074E+00
         13   -1    0    0    0    0  0.00000000000E+00  0.00000000000E+00  0.14999999963E+04  0.15000000000E+04  0.10566000000E+00 0. -1.
        994   -1    0    0    0    0 -0.00000000000E+00 -0.00000000000E+00  0.11368683772E-12  0.17120000000E+03  0.17120000000E+03 0.  0.
         13    1    1    2    0    0 -0.49632815953E+01 -0.98449235660E+01  0.45849530744E+02  0.47156625385E+02  0.10566000000E+00 0. -1.
        994    1    1    2    0    0  0.31377876698E+01 -0.93664313410E+01  0.17635203520E+01  0.17149380674E+03  0.17120000000E+03 0.  0.
        998    1    1    2    0    0  0.18254939255E+01  0.19211354907E+02  0.14523869452E+04  0.14525495679E+04  0.10000000000E+02 0. -1.
</event>
<event>
 5    1  0.1658612E-008  0.3784803E+03  0.7957747E-01  0.3457802E+00
         13   -1    0    0    0    0  0.00000000000E+00  0.00000000000E+00  0.14999999963E+04  0.15000000000E+04  0.10566000000E+00 0. -1.
        994   -1    0    0    0    0 -0.00000000000E+00 -0.00000000000E+00  0.11368683772E-12  0.17120000000E+03  0.17120000000E+03 0.  0.
         13    1    1    2    0    0 -0.11205156131E+02 -0.14137615345E+02  0.31355556718E+02  0.36174712061E+02  0.10566000000E+00 0. -1.
        994    1    1    2    0    0  0.72337204642E+01  0.79428144971E+01  0.52901184934E+01  0.17161829846E+03  0.17120000000E+03 0.  0.
        998    1    1    2    0    0  0.39714356668E+01  0.61948008481E+01  0.14633543211E+04  0.14634069895E+04  0.10000000000E+02 0. -1.
</event>
<event>
 5    1  0.1658612E-008  0.3760054E+03  0.7957747E-01  0.3468739E+00
         13   -1    0    0    0    0  0.00000000000E+00  0.00000000000E+00  0.14999999963E+04  0.15000000000E+04  0.10566000000E+00 0. -1.
        994   -1    0    0    0    0 -0.00000000000E+00 -0.00000000000E+00  0.11368683772E-12  0.17120000000E+03  0.17120000000E+03 0.  0.
         13    1    1    2    0    0  0.39449918212E+02  0.37541467531E+01  0.12262631583E+03  0.12887053256E+03  0.10566000000E+00 0. -1.
        994    1    1    2    0    0 -0.26969340753E+02 -0.15119583063E+02  0.94086373577E+01  0.17422373429E+03  0.17120000000E+03 0.  0.
        998    1    1    2    0    0 -0.12480577460E+02  0.11365436310E+02  0.13679650431E+04  0.13681057331E+04  0.10000000000E+02 0. -1.
</event>
<event>
 5    1  0.1658612E-008  0.3814415E+03  0.7957747E-01  0.3444906E+00
         13   -1    0    0    0    0  0.00000000000E+00  0.00000000000E+00  0.14999999963E+04  0.15000000000E+04  0.10566000000E+00 0. -1.
        994   -1    0    0    0    0 -0.00000000000E+00 -0.00000000000E+00  0.11368683772E-12  0.17120000000E+03  0.17120000000E+03 0.  0.
         13    1    1    2    0    0  0.11012687849E+02  0.41910329548E+01  0.19215652138E+02  0.22540996030E+02  0.10566000000E+00 0. -1.
        994    1    1    2    0    0 -0.42985893210E+01 -0.24997192938E+00  0.34689685123E+01  0.17128927024E+03  0.17120000000E+03 0.  0.
        998    1    1    2    0    0 -0.67140985276E+01 -0.39410610254E+01  0.14773153756E+04  0.14773697337E+04  0.10000000000E+02 0. -1.
</event>
<event>
 5    1  0.1893702E-008  0.3863799E+03  0.7957747E-01  0.3423841E+00
         13   -1    0    0    0    0  0.00000000000E+00  0.00000000000E+00  0.14999999963E+04  0.15000000000E+04  0.10566000000E+00 0. -1.
        994   -1    0    0    0    0 -0.00000000000E+00 -0.00000000000E+00  0.11368683772E-12  0.17120000000E+03  0.17120000000E+03 0.  0.
         13    1    1    2    0    0 -0.63425276081E+01  0.78106826267E+01  0.56714497359E+02  0.57600171825E+02  0.10566000000E+00 0. -1.
        994    1    1    2    0    0 -0.11744851798E+01 -0.30943226358E+01  0.98244404018E+00  0.17123480792E+03  0.17120000000E+03 0.  0.
        998    1    1    2    0    0  0.75170127878E+01 -0.47163599909E+01  0.14423030549E+04  0.14423650203E+04  0.10000000000E+02 0. -1.
</event>
<event>
 5    1  0.1658612E-008  0.3808405E+03  0.7957747E-01  0.3447507E+00
         13   -1    0    0    0    0  0.00000000000E+00  0.00000000000E+00  0.14999999963E+04  0.15000000000E+04  0.10566000000E+00 0.  1.
        994   -1    0    0    0    0 -0.00000000000E+00 -0.00000000000E+00  0.11368683772E-12  0.17120000000E+03  0.17120000000E+03 0.  0.
         13    1    1    2    0    0  0.17553747491E+02 -0.78220853855E+01  0.49921778134E+02  0.53493122612E+02  0.10566000000E+00 0.  1.
        994    1    1    2    0    0 -0.36674426442E+01  0.36787806890E+01  0.37994318624E+01  0.17132092472E+03  0.17120000000E+03 0.  0.
        998    1    1    2    0    0 -0.13886304847E+02  0.41433046965E+01  0.14462787863E+04  0.14463859527E+04  0.10000000000E+02 0.  1.
</event>
<event>
 5    1  0.1658612E-008  0.3750789E+03  0.7957747E-01  0.3472870E+00
         13   -1    0    0    0    0  0.00000000000E+00  0.00000000000E+00  0.14999999963E+04  0.15000000000E+04  0.10566000000E+00 0. -1.
        994   -1    0    0    0    0 -0.00000000000E+00 -0.00000000000E+00  0.11368683772E-12  0.17120000000E+03  0.17120000000E+03 0.  0.
         13    1    1    2    0    0 -0.33910858988E+01 -0.18817663962E+02  0.24703919209E+02  0.31239377857E+02  0.10566000000E+00 0. -1.
        994    1    1    2    0    0  0.68024914621E+01  0.13032972854E+02  0.73730583687E+01  0.17198818059E+03  0.17120000000E+03 0.  0.
        998    1    1    2    0    0 -0.34114055633E+01  0.57846911081E+01  0.14679230187E+04  0.14679724416E+04  0.10000000000E+02 0. -1.
</event>
<event>
 5    1  0.1658612E-008  0.3814361E+03  0.7957747E-01  0.3444929E+00
         13   -1    0    0    0    0  0.00000000000E+00  0.00000000000E+00  0.14999999963E+04  0.15000000000E+04  0.10566000000E+00 0. -1.
        994   -1    0    0    0    0 -0.00000000000E+00 -0.00000000000E+00  0.11368683772E-12  0.17120000000E+03  0.17120000000E+03 0.  0.
         13    1    1    2    0    0  0.13857176286E+02  0.34065284618E+02  0.18657095417E+03  0.19016097668E+03  0.10566000000E+00 0. -1.
        994    1    1    2    0    0 -0.15537471333E+02 -0.24539477650E+02  0.62217865855E+01  0.17375773251E+03  0.17120000000E+03 0.  0.
        998    1    1    2    0    0  0.16802950470E+01 -0.95258069682E+01  0.13072072555E+04  0.13072812908E+04  0.10000000000E+02 0. -1.
</event>
<event>
 5    1  0.2184612E-008  0.3858302E+03  0.7957747E-01  0.3426159E+00
         13   -1    0    0    0    0  0.00000000000E+00  0.00000000000E+00  0.14999999963E+04  0.15000000000E+04  0.10566000000E+00 0. -1.
        994   -1    0    0    0    0 -0.00000000000E+00 -0.00000000000E+00  0.11368683772E-12  0.17120000000E+03  0.17120000000E+03 0.  0.
         13    1    1    2    0    0  0.21295477860E+01 -0.11401125123E+02  0.56024345725E+02  0.57212403426E+02  0.10566000000E+00 0. -1.
        994    1    1    2    0    0  0.49129038959E+01  0.80145705949E+01  0.15084132151E+01  0.17146453067E+03  0.17120000000E+03 0.  0.
        998    1    1    2    0    0 -0.70424516820E+01  0.33865545285E+01  0.14424672373E+04  0.14425230659E+04  0.10000000000E+02 0. -1.
</event>
<event>
 5    1  0.1658612E-008  0.3836829E+03  0.7957747E-01  0.3435277E+00
         13   -1    0    0    0    0  0.00000000000E+00  0.00000000000E+00  0.14999999963E+04  0.15000000000E+04  0.10566000000E+00 0.  1.
        994   -1    0    0    0    0 -0.00000000000E+00 -0.00000000000E+00  0.11368683772E-12  0.17120000000E+03  0.17120000000E+03 0.  0.
         13    1    1    2    0    0  0.24852683359E+02 -0.11718388157E+01  0.12467790574E+03  0.12713622781E+03  0.10566000000E+00 0.  1.
        994    1    1    2    0    0 -0.25567717951E+02  0.52769156947E+01  0.45396986305E+01  0.17323857222E+03  0.17120000000E+03 0.  0.
        998    1    1    2    0    0  0.71503459197E+00 -0.41050768789E+01  0.13707823919E+04  0.13708252000E+04  0.10000000000E+02 0.  1.
</event>
<event>
 5    1  0.1658612E-008  0.3858740E+03  0.7957747E-01  0.3425974E+00
         13   -1    0    0    0    0  0.00000000000E+00  0.00000000000E+00  0.14999999963E+04  0.15000000000E+04  0.10566000000E+00 0. -1.
        994   -1    0    0    0    0 -0.00000000000E+00 -0.00000000000E+00  0.11368683772E-12  0.17120000000E+03  0.17120000000E+03 0.  0.
         13    1    1    2    0    0  0.10546287411E+02  0.30173094578E+00  0.48789206145E+02  0.49917061412E+02  0.10566000000E+00 0. -1.
        994    1    1    2    0    0 -0.10161755707E+01 -0.38851230841E+01  0.12497335245E+01  0.17125165292E+03  0.17120000000E+03 0.  0.
        998    1    1    2    0    0 -0.95301118404E+01  0.35833921383E+01  0.14499610566E+04  0.14500312857E+04  0.10000000000E+02 0. -1.
</event>
<event>
 5    1  0.1658612E-008  0.3810267E+03  0.7957747E-01  0.3446700E+00
         13   -1    0    0    0    0  0.00000000000E+00  0.00000000000E+00  0.14999999963E+04  0.15000000000E+04  0.10566000000E+00 0. -1.
        994   -1    0    0    0    0 -0.00000000000E+00 -0.00000000000E+00  0.11368683772E-12  0.17120000000E+03  0.17120000000E+03 0.  0.
         13    1    1    2    0    0  0.33579460471E+02  0.16791126392E+02  0.17640542054E+03  0.18035632967E+03  0.10566000000E+00 0. -1.
        994    1    1    2    0    0 -0.33496287875E+02 -0.10890758277E+02  0.77600385728E+01  0.17495790384E+03  0.17120000000E+03 0.  0.
        998    1    1    2    0    0 -0.83172596214E-01 -0.59003681156E+01  0.13158345372E+04  0.13158857665E+04  0.10000000000E+02 0. -1.
</event>
<event>
 5    1  0.1658612E-008  0.3839156E+03  0.7957747E-01  0.3434284E+00
         13   -1    0    0    0    0  0.00000000000E+00  0.00000000000E+00  0.14999999963E+04  0.15000000000E+04  0.10566000000E+00 0. -1.
        994   -1    0    0    0    0 -0.00000000000E+00 -0.00000000000E+00  0.11368683772E-12  0.17120000000E+03  0.17120000000E+03 0.  0.
         13    1    1    2    0    0 -0.51658055718E+01  0.18634924832E+02  0.91862936687E+02  0.93876281730E+02  0.10566000000E+00 0. -1.
        994    1    1    2    0    0 -0.36645483317E+01 -0.30191189351E+01  0.22438820745E+01  0.17128052721E+03  0.17120000000E+03 0.  0.
        998    1    1    2    0    0  0.88303539035E+01 -0.15615805897E+02  0.14058931775E+04  0.14060431911E+04  0.10000000000E+02 0. -1.
</event>
<event>
 5    1  0.1658612E-008  0.3744128E+03  0.7957747E-01  0.3475853E+00
         13   -1    0    0    0    0  0.00000000000E+00  0.00000000000E+00  0.14999999963E+04  0.15000000000E+04  0.10566000000E+00 0. -1.
        994   -1    0    0    0    0 -0.00000000000E+00 -0.00000000000E+00  0.11368683772E-12  0.17120000000E+03  0.17120000000E+03 0.  0.
         13    1    1    2    0    0 -0.10800706557E+03  0.83146024450E+02  0.69507038664E+03  0.70830900117E+03  0.10566000000E+00 0. -1.
        994    1    1    2    0    0  0.10263451087E+03 -0.85389679319E+02  0.70347838582E+02  0.22821809426E+03  0.17120000000E+03 0.  0.
        998    1    1    2    0    0  0.53725547024E+01  0.22436548694E+01  0.73458177106E+03  0.73467290457E+03  0.10000000000E+02 0. -1.
</event>
<event>
 5    1  0.1658612E-008  0.3841819E+03  0.7957747E-01  0.3433149E+00
         13   -1    0    0    0    0  0.00000000000E+00  0.00000000000E+00  0.14999999963E+04  0.15000000000E+04  0.10566000000E+00 0.  1.
        994   -1    0    0    0    0 -0.00000000000E+00 -0.00000000000E+00  0.11368683772E-12  0.17120000000E+03  0.17120000000E+03 0.  0.
         13    1    1    2    0    0  0.14188256214E+02  0.78319737300E+01  0.65048152665E+02  0.67036704544E+02  0.10566000000E+00 0.  1.
        994    1    1    2    0    0 -0.87707812153E+01 -0.80219769547E+00  0.22926656431E+01  0.17144172899E+03  0.17120000000E+03 0.  0.
        998    1    1    2    0    0 -0.54174749991E+01 -0.70297760345E+01  0.14326591780E+04  0.14327215665E+04  0.10000000000E+02 0.  1.
</event>
<event>
 5    1  0.1658612E-008  0.3716772E+03  0.7957747E-01  0.3488218E+00
         13   -1    0    0    0    0  0.00000000000E+00  0.00000000000E+00  0.14999999963E+04  0.15000000000E+04  0.10566000000E+00 0.  1.
        994   -1    0    0    0    0 -0.00000000000E+00 -0.00000000000E+00  0.11368683772E-12  0.17120000000E+03  0.17120000000E+03 0.  0.
         13    1    1    2    0    0 -0.88265958401E+01 -0.82384267737E+02  0.39373626409E+03  0.40235970622E+03  0.10566000000E+00 0.  1.
        994    1    1    2    0    0  0.15382749099E+02  0.50177996333E+02  0.17924354342E+02  0.17995883631E+03  0.17120000000E+03 0.  0.
        998    1    1    2    0    0 -0.65561532584E+01  0.32206271404E+02  0.10883393778E+04  0.10888814575E+04  0.10000000000E+02 0.  1.
</event>
<event>
 5    1  0.1658612E-008  0.3767600E+03  0.7957747E-01  0.3465388E+00
         13   -1    0    0    0    0  0.00000000000E+00  0.00000000000E+00  0.14999999963E+04  0.15000000000E+04  0.10566000000E+00 0. -1.
        994   -1    0    0    0    0 -0.00000000000E+00 -0.00000000000E+00  0.11368683772E-12  0.17120000000E+03  0.17120000000E+03 0.  0.
         13    1    1    2    0    0  0.22770421479E+02  0.22606231330E+02  0.97127564766E+02  0.10229031621E+03  0.10566000000E+00 0. -1.
        994    1    1    2    0    0  0.68528864858E+01  0.63407631814E-01  0.59363979411E+01  0.17143992211E+03  0.17120000000E+03 0.  0.
        998    1    1    2    0    0 -0.29623307965E+02 -0.22669638961E+02  0.13969360336E+04  0.13974697617E+04  0.10000000000E+02 0. -1.
</event>
<event>
 5    1  0.1658612E-008  0.3810477E+03  0.7957747E-01  0.3446609E+00
         13   -1    0    0    0    0  0.00000000000E+00  0.00000000000E+00  0.14999999963E+04  0.15000000000E+04  0.10566000000E+00 0. -1.
        994   -1    0    0    0    0 -0.00000000000E+00 -0.00000000000E+00  0.11368683772E-12  0.17120000000E+03  0.17120000000E+03 0.  0.
         13    1    1    2    0    0 -0.13236931129E+02  0.15588124391E+02  0.60858310174E+02  0.64202422455E+02  0.10566000000E+00 0. -1.
        994    1    1    2    0    0 -0.74124095675E+01 -0.24080575682E+01  0.38075742963E+01  0.17141960267E+03  0.17120000000E+03 0.  0.
        998    1    1    2    0    0  0.20649340697E+02 -0.13180066823E+02  0.14353341118E+04  0.14355779749E+04  0.10000000000E+02 0. -1.
</event>
<event>
 5    1  0.1658612E-008  0.3825859E+03  0.7957747E-01  0.3439976E+00
         13   -1    0    0    0    0  0.00000000000E+00  0.00000000000E+00  0.14999999963E+04  0.15000000000E+04  0.10566000000E+00 0. -1.
        994   -1    0    0    0    0 -0.00000000000E+00 -0.00000000000E+00  0.11368683772E-12  0.17120000000E+03  0.17120000000E+03 0.  0.
         13    1    1    2    0    0  0.69021716734E+01 -0.10488768872E+02  0.27833545084E+02  0.30534761212E+02  0.10566000000E+00 0. -1.
        994    1    1    2    0    0  0.57610141697E+01  0.83290975309E+00  0.29457967649E+01  0.17132425614E+03  0.17120000000E+03 0.  0.
        998    1    1    2    0    0 -0.12663185843E+02  0.96558591194E+01  0.14692206544E+04  0.14693409826E+04  0.10000000000E+02 0. -1.
</event>
<event>
 5    1  0.1658612E-008  0.3816244E+03  0.7957747E-01  0.3444116E+00
         13   -1    0    0    0    0  0.00000000000E+00  0.00000000000E+00  0.14999999963E+04  0.15000000000E+04  0.10566000000E+00 0. -1.
        994   -1    0    0    0    0 -0.00000000000E+00 -0.00000000000E+00  0.11368683772E-12  0.17120000000E+03  0.17120000000E+03 0.  0.
         13    1    1    2    0    0 -0.23226486452E+02  0.92531577129E+01  0.10448576526E+03  0.10743545461E+03  0.10566000000E+00 0. -1.
        994    1    1    2    0    0 -0.28521205256E+01  0.37981752777E+01  0.33904370118E+01  0.17129943313E+03  0.17120000000E+03 0.  0.
        998    1    1    2    0    0  0.26078606978E+02 -0.13051332991E+02  0.13921237940E+04  0.13924651123E+04  0.10000000000E+02 0. -1.
</event>
<event>
 5    1  0.1658612E-008  0.3826489E+03  0.7957747E-01  0.3439705E+00
         13   -1    0    0    0    0  0.00000000000E+00  0.00000000000E+00  0.14999999963E+04  0.15000000000E+04  0.10566000000E+00 0. -1.
        994   -1    0    0    0    0 -0.00000000000E+00 -0.00000000000E+00  0.11368683772E-12  0.17120000000E+03  0.17120000000E+03 0.  0.
         13    1    1    2    0    0 -0.13279771116E+02 -0.13939729340E+02  0.72353568888E+02  0.74871346120E+02  0.10566000000E+00 0. -1.
        994    1    1    2    0    0 -0.11205090939E+02  0.10051319801E+01  0.32214908585E+01  0.17159948239E+03  0.17120000000E+03 0.  0.
        998    1    1    2    0    0  0.24484862056E+02  0.12934597360E+02  0.14244249365E+04  0.14247291715E+04  0.10000000000E+02 0. -1.
</event>
<event>
 5    1  0.1658612E-008  0.3836118E+03  0.7957747E-01  0.3435581E+00
         13   -1    0    0    0    0  0.00000000000E+00  0.00000000000E+00  0.14999999963E+04  0.15000000000E+04  0.10566000000E+00 0.  1.
        994   -1    0    0    0    0 -0.00000000000E+00 -0.00000000000E+00  0.11368683772E-12  0.17120000000E+03  0.17120000000E+03 0.  0.
         13    1    1    2    0    0  0.15578807468E+02 -0.57835476026E+01  0.59749185737E+02  0.62017134933E+02  0.10566000000E+00 0.  1.
        994    1    1    2    0    0 -0.84746755656E+01  0.59309822034E+00  0.25594030516E+01  0.17142975948E+03  0.17120000000E+03 0.  0.
        998    1    1    2    0    0 -0.71041319020E+01  0.51904493822E+01  0.14376914075E+04  0.14377531056E+04  0.10000000000E+02 0.  1.
</event>
<event>
 5    1  0.1658612E-008  0.3718367E+03  0.7957747E-01  0.3487492E+00
         13   -1    0    0    0    0  0.00000000000E+00  0.00000000000E+00  0.14999999963E+04  0.15000000000E+04  0.10566000000E+00 0. -1.
        994   -1    0    0    0    0 -0.00000000000E+00 -0.00000000000E+00  0.11368683772E-12  0.17120000000E+03  0.17120000000E+03 0.  0.
         13    1    1    2    0    0 -0.40808267355E+02  0.14651873446E+02  0.12792472098E+03  0.13507308200E+03  0.10566000000E+00 0. -1.
        994    1    1    2    0    0 -0.10377064085E+02 -0.71316604200E+01  0.88570928839E+01  0.17189075639E+03  0.17120000000E+03 0.  0.
        998    1    1    2    0    0  0.51185331440E+02 -0.75202130259E+01  0.13632181824E+04  0.13642361616E+04  0.10000000000E+02 0. -1.
</event>
<event>
 5    1  0.1658612E-008  0.3836010E+03  0.7957747E-01  0.3435627E+00
         13   -1    0    0    0    0  0.00000000000E+00  0.00000000000E+00  0.14999999963E+04  0.15000000000E+04  0.10566000000E+00 0. -1.
        994   -1    0    0    0    0 -0.00000000000E+00 -0.00000000000E+00  0.11368683772E-12  0.17120000000E+03  0.17120000000E+03 0.  0.
         13    1    1    2    0    0 -0.27053312121E+02 -0.13543246547E+01  0.15830665011E+03  0.16060735514E+03  0.10566000000E+00 0. -1.
        994    1    1    2    0    0  0.15847584812E+02 -0.77195067724E+01  0.33535300103E+01  0.17213780204E+03  0.17120000000E+03 0.  0.
        998    1    1    2    0    0  0.11205727310E+02  0.90738314271E+01  0.13383398162E+04  0.13384548428E+04  0.10000000000E+02 0. -1.
</event>
<event>
 5    1  0.1658612E-008  0.4173707E+03  0.7957747E-01  0.3303007E+00
         13   -1    0    0    0    0  0.00000000000E+00  0.00000000000E+00  0.14999999963E+04  0.15000000000E+04  0.10566000000E+00 0.  1.
        994   -1    0    0    0    0 -0.00000000000E+00 -0.00000000000E+00  0.11368683772E-12  0.17120000000E+03  0.17120000000E+03 0.  0.
         13    1    1    2    0    0  0.70831387610E+02  0.12177979656E+02  0.52420441045E+02  0.88956744897E+02  0.10566000000E+00 0.  1.
        994    1    1    2    0    0 -0.70329181597E+02 -0.14728756637E+02  0.60719023096E+02  0.19534423417E+03  0.17120000000E+03 0.  0.
        998    1    1    2    0    0 -0.50220601361E+00  0.25507769809E+01  0.13868605321E+04  0.13868990209E+04  0.10000000000E+02 0.  1.
</event>
<event>
 5    1  0.1658612E-008  0.3795883E+03  0.7957747E-01  0.3452953E+00
         13   -1    0    0    0    0  0.00000000000E+00  0.00000000000E+00  0.14999999963E+04  0.15000000000E+04  0.10566000000E+00 0.  1.
        994   -1    0    0    0    0 -0.00000000000E+00 -0.00000000000E+00  0.11368683772E-12  0.17120000000E+03  0.17120000000E+03 0.  0.
         13    1    1    2    0    0 -0.37296228149E+02 -0.78541091319E+01  0.19367401814E+03  0.19738878421E+03  0.10566000000E+00 0.  1.
        994    1    1    2    0    0 -0.20409357769E+01  0.15532451755E+02  0.51630972813E+01  0.17199279069E+03  0.17120000000E+03 0.  0.
        998    1    1    2    0    0  0.39337163926E+02 -0.76783426236E+01  0.13011628809E+04  0.13018184251E+04  0.10000000000E+02 0.  1.
</event>
<event>
 5    1  0.1658612E-008  0.3818972E+03  0.7957747E-01  0.3442939E+00
         13   -1    0    0    0    0  0.00000000000E+00  0.00000000000E+00  0.14999999963E+04  0.15000000000E+04  0.10566000000E+00 0. -1.
        994   -1    0    0    0    0 -0.00000000000E+00 -0.00000000000E+00  0.11368683772E-12  0.17120000000E+03  0.17120000000E+03 0.  0.
         13    1    1    2    0    0  0.18210481009E+02  0.19409221847E+02  0.10102738783E+03  0.10447432109E+03  0.10566000000E+00 0. -1.
        994    1    1    2    0    0 -0.18559122084E+02 -0.26111918387E+02  0.65953485410E+01  0.17429633363E+03  0.17120000000E+03 0.  0.
        998    1    1    2    0    0  0.34864107521E+00  0.67026965403E+01  0.13923772599E+04  0.13924293453E+04  0.10000000000E+02 0. -1.
</event>
<event>
 5    1  0.1658612E-008  0.3818253E+03  0.7957747E-01  0.3443249E+00
         13   -1    0    0    0    0  0.00000000000E+00  0.00000000000E+00  0.14999999963E+04  0.15000000000E+04  0.10566000000E+00 0.  1.
        994   -1    0    0    0    0 -0.00000000000E+00 -0.00000000000E+00  0.11368683772E-12  0.17120000000E+03  0.17120000000E+03 0.  0.
         13    1    1    2    0    0 -0.18692718542E+02 -0.49988988905E+01  0.61997609175E+02  0.64947066324E+02  0.10566000000E+00 0.  1.
        994    1    1    2    0    0 -0.58761690836E+01  0.20756583054E+01  0.33436533608E+01  0.17134601757E+03  0.17120000000E+03 0.  0.
        998    1    1    2    0    0  0.24568887626E+02  0.29232405851E+01  0.14346587337E+04  0.14349069161E+04  0.10000000000E+02 0.  1.
</event>
<event>
 5    1  0.1658612E-008  0.3837444E+03  0.7957747E-01  0.3435015E+00
         13   -1    0    0    0    0  0.00000000000E+00  0.00000000000E+00  0.14999999963E+04  0.15000000000E+04  0.10566000000E+00 0.  1.
        994   -1    0    0    0    0 -0.00000000000E+00 -0.00000000000E+00  0.11368683772E-12  0.17120000000E+03  0.17120000000E+03 0.  0.
         13    1    1    2    0    0  0.62333954752E+01  0.11067884616E+02  0.34787061005E+02  0.37033823276E+02  0.10566000000E+00 0.  1.
        994    1    1    2    0    0 -0.56411237828E+01 -0.95855033328E+01  0.26633939062E+01  0.17158157774E+03  0.17120000000E+03 0.  0.
        998    1    1    2    0    0 -0.59227169237E+00 -0.14823812831E+01  0.14625495414E+04  0.14625845990E+04  0.10000000000E+02 0.  1.
</event>
<event>
 5    1  0.1658612E-008  0.3845551E+03  0.7957747E-01  0.3431561E+00
         13   -1    0    0    0    0  0.00000000000E+00  0.00000000000E+00  0.14999999963E+04  0.15000000000E+04  0.10566000000E+00 0.  1.
        994   -1    0    0    0    0 -0.00000000000E+00 -0.00000000000E+00  0.11368683772E-12  0.17120000000E+03  0.17120000000E+03 0.  0.
         13    1    1    2    0    0  0.45807199426E+01 -0.91826407262E+01  0.28497992110E+02  0.30289447077E+02  0.10566000000E+00 0.  1.
        994    1    1    2    0    0  0.25418869840E+01  0.44983208742E+01  0.19391266811E+01  0.17128892636E+03  0.17120000000E+03 0.  0.
        998    1    1    2    0    0 -0.71226069267E+01  0.46843198520E+01  0.14695628775E+04  0.14696216266E+04  0.10000000000E+02 0.  1.
</event>
<event>
 5    1  0.1658612E-008  0.3698692E+03  0.7957747E-01  0.3496492E+00
         13   -1    0    0    0    0  0.00000000000E+00  0.00000000000E+00  0.14999999963E+04  0.15000000000E+04  0.10566000000E+00 0.  1.
        994   -1    0    0    0    0 -0.00000000000E+00 -0.00000000000E+00  0.11368683772E-12  0.17120000000E+03  0.17120000000E+03 0.  0.
         13    1    1    2    0    0  0.87792534885E+01 -0.11721947429E+03  0.55495480047E+03  0.56726741680E+03  0.10566000000E+00 0.  1.
        994    1    1    2    0    0 -0.43475270119E+02  0.82460066555E+02  0.41885213072E+02  0.19938298012E+03  0.17120000000E+03 0.  0.
        998    1    1    2    0    0  0.34696016630E+02  0.34759407733E+02  0.90315998274E+03  0.90454960307E+03  0.10000000000E+02 0.  1.
</event>
<event>
 5    1  0.1658612E-008  0.3834226E+03  0.7957747E-01  0.3436390E+00
         13   -1    0    0    0    0  0.00000000000E+00  0.00000000000E+00  0.14999999963E+04  0.15000000000E+04  0.10566000000E+00 0.  1.
        994   -1    0    0    0    0 -0.00000000000E+00 -0.00000000000E+00  0.11368683772E-12  0.17120000000E+03  0.17120000000E+03 0.  0.
         13    1    1    2    0    0 -0.80663224243E+01 -0.12052675751E+02  0.41398813362E+02  0.43865766402E+02  0.10566000000E+00 0.  1.
        994    1    1    2    0    0  0.88361727532E+01  0.15434221062E+02  0.34615207239E+01  0.17215607818E+03  0.17120000000E+03 0.  0.
        998    1    1    2    0    0 -0.76985032890E+00 -0.33815453109E+01  0.14551396622E+04  0.14551781554E+04  0.10000000000E+02 0.  1.
</event>
<event>
 5    1  0.1658612E-008  0.3847504E+03  0.7957747E-01  0.3430731E+00
         13   -1    0    0    0    0  0.00000000000E+00  0.00000000000E+00  0.14999999963E+04  0.15000000000E+04  0.10566000000E+00 0. -1.
        994   -1    0    0    0    0 -0.00000000000E+00 -0.00000000000E+00  0.11368683772E-12  0.17120000000E+03  0.17120000000E+03 0.  0.
         13    1    1    2    0    0 -0.10339592091E+02  0.46335597348E+01  0.41538823622E+02  0.43056498607E+02  0.10566000000E+00 0. -1.
        994    1    1    2    0    0 -0.15923012202E+02  0.10586259038E+02  0.29583742899E+01  0.17228988124E+03  0.17120000000E+03 0.  0.
        998    1    1    2    0    0  0.26262604293E+02 -0.15219818773E+02  0.14555027984E+04  0.14558536202E+04  0.10000000000E+02 0. -1.
</event>
<event>
 5    1  0.1658612E-008  0.3843437E+03  0.7957747E-01  0.3432461E+00
         13   -1    0    0    0    0  0.00000000000E+00  0.00000000000E+00  0.14999999963E+04  0.15000000000E+04  0.10566000000E+00 0.  1.
        994   -1    0    0    0    0 -0.00000000000E+00 -0.00000000000E+00  0.11368683772E-12  0.17120000000E+03  0.17120000000E+03 0.  0.
         13    1    1    2    0    0 -0.94092417507E+01  0.11181345189E+02  0.55355255857E+02  0.57251828142E+02  0.10566000000E+00 0.  1.
        994    1    1    2    0    0  0.88853232468E+01 -0.36591761357E+00  0.22170188136E+01  0.17144514586E+03  0.17120000000E+03 0.  0.
        998    1    1    2    0    0  0.52391850389E+00 -0.10815427575E+02  0.14424277216E+04  0.14425030260E+04  0.10000000000E+02 0.  1.
</event>
<event>
 5    1  0.1658612E-008  0.3852176E+03  0.7957747E-01  0.3428750E+00
         13   -1    0    0    0    0  0.00000000000E+00  0.00000000000E+00  0.14999999963E+04  0.15000000000E+04  0.10566000000E+00 0.  1.
        994   -1    0    0    0    0 -0.00000000000E+00 -0.00000000000E+00  0.11368683772E-12  0.17120000000E+03  0.17120000000E+03 0.  0.
         13    1    1    2    0    0  0.86428351699E+01  0.11183294514E+02  0.61888883708E+02  0.63482357916E+02  0.10566000000E+00 0.  1.
        994    1    1    2    0    0 -0.75582899112E+01 -0.18148314212E+02  0.27933197867E+01  0.17234770579E+03  0.17120000000E+03 0.  0.
        998    1    1    2    0    0 -0.10845452587E+01  0.69650196976E+01  0.14353177928E+04  0.14353699363E+04  0.10000000000E+02 0.  1.
</event>
<event>
 5    1  0.1658612E-008  0.3737547E+03  0.7957747E-01  0.3478811E+00
         13   -1    0    0    0    0  0.00000000000E+00  0.00000000000E+00  0.14999999963E+04  0.15000000000E+04  0.10566000000E+00 0. -1.
        994   -1    0    0    0    0 -0.00000000000E+00 -0.00000000000E+00  0.11368683772E-12  0.17120000000E+03  0.17120000000E+03 0.  0.
         13    1    1    2    0    0 -0.52114367484E+01  0.56348124186E+02  0.19950473142E+03  0.20737506889E+03  0.10566000000E+00 0. -1.
        994    1    1    2    0    0 -0.33455343436E+01 -0.47697903553E+02  0.15164356523E+02  0.17839753449E+03  0.17120000000E+03 0.  0.
        998    1    1    2    0    0  0.85569710920E+01 -0.86502206335E+01  0.12853309083E+04  0.12854273966E+04  0.10000000000E+02 0. -1.
</event>
<event>
 5    1  0.1658612E-008  0.3794588E+03  0.7957747E-01  0.3453518E+00
         13   -1    0    0    0    0  0.00000000000E+00  0.00000000000E+00  0.14999999963E+04  0.15000000000E+04  0.10566000000E+00 0. -1.
        994   -1    0    0    0    0 -0.00000000000E+00 -0.00000000000E+00  0.11368683772E-12  0.17120000000E+03  0.17120000000E+03 0.  0.
         13    1    1    2    0    0 -0.81813082788E+01 -0.17884729407E+02  0.42571346885E+02  0.46894862093E+02  0.10566000000E+00 0. -1.
        994    1    1    2    0    0 -0.23050118315E+01  0.12534457824E+02  0.49507291654E+01  0.17174508852E+03  0.17120000000E+03 0.  0.
        998    1    1    2    0    0  0.10486320110E+02  0.53502715830E+01  0.14524779202E+04  0.14525600494E+04  0.10000000000E+02 0. -1.
</event>
<event>
 5    1  0.1658612E-008  0.3727981E+03  0.7957747E-01  0.3483129E+00
         13   -1    0    0    0    0  0.00000000000E+00  0.00000000000E+00  0.14999999963E+04  0.15000000000E+04  0.10566000000E+00 0.  1.
        994   -1    0    0    0    0 -0.00000000000E+00 -0.00000000000E+00  0.11368683772E-12  0.17120000000E+03  0.17120000000E+03 0.  0.
         13    1    1    2    0    0  0.15264959072E+02 -0.13222330311E+02  0.23834267658E+02  0.31239917944E+02  0.10566000000E+00 0.  1.
        994    1    1    2    0    0 -0.74827444614E+01 -0.15286710717E+02  0.88064432828E+01  0.17226917435E+03  0.17120000000E+03 0.  0.
        998    1    1    2    0    0 -0.77822146105E+01  0.28509041028E+02  0.14673592853E+04  0.14676909077E+04  0.10000000000E+02 0.  1.
</event>
<event>
 5    1  0.1658612E-008  0.3704896E+03  0.7957747E-01  0.3493644E+00
         13   -1    0    0    0    0  0.00000000000E+00  0.00000000000E+00  0.14999999963E+04  0.15000000000E+04  0.10566000000E+00 0.  1.
        994   -1    0    0    0    0 -0.00000000000E+00 -0.00000000000E+00  0.11368683772E-12  0.17120000000E+03  0.17120000000E+03 0.  0.
         13    1    1    2    0    0 -0.18297497940E+02  0.27081417425E+02  0.44533364911E+02  0.55239780548E+02  0.10566000000E+00 0.  1.
        994    1    1    2    0    0 -0.35091057851E+02 -0.36870220831E+02  0.20326595760E+02  0.17975930023E+03  0.17120000000E+03 0.  0.
        998    1    1    2    0    0  0.53388555791E+02  0.97888034059E+01  0.14351400356E+04  0.14362009192E+04  0.10000000000E+02 0.  1.
</event>
<event>
 5    1  0.1658612E-008  0.3732736E+03  0.7957747E-01  0.3480980E+00
         13   -1    0    0    0    0  0.00000000000E+00  0.00000000000E+00  0.14999999963E+04  0.15000000000E+04  0.10566000000E+00 0.  1.
        994   -1    0    0    0    0 -0.00000000000E+00 -0.00000000000E+00  0.11368683772E-12  0.17120000000E+03  0.17120000000E+03 0.  0.
         13    1    1    2    0    0 -0.78557596777E+01 -0.16856969082E+02  0.19368398254E+02  0.26851748206E+02  0.10566000000E+00 0.  1.
        994    1    1    2    0    0  0.88389880376E+01  0.16001109849E+02  0.87113089980E+01  0.17239341673E+03  0.17120000000E+03 0.  0.
        998    1    1    2    0    0 -0.98322835987E+00  0.85585923291E+00  0.14719202890E+04  0.14719548351E+04  0.10000000000E+02 0.  1.
</event>
<event>
 5    1  0.1658612E-008  0.3801152E+03  0.7957747E-01  0.3450657E+00
         13   -1    0    0    0    0  0.00000000000E+00  0.00000000000E+00  0.14999999963E+04  0.15000000000E+04  0.10566000000E+00 0. -1.
        994   -1    0    0    0    0 -0.00000000000E+00 -0.00000000000E+00  0.11368683772E-12  0.17120000000E+03  0.17120000000E+03 0.  0.
         13    1    1    2    0    0 -0.20002454838E+02 -0.58122135941E+01  0.50007445765E+02  0.54172279096E+02  0.10566000000E+00 0. -1.
        994    1    1    2    0    0  0.21557630937E+02  0.65474026175E+01  0.57730654481E+01  0.17277259105E+03  0.17120000000E+03 0.  0.
        998    1    1    2    0    0 -0.15551760986E+01 -0.73518902340E+00  0.14442194851E+04  0.14442551299E+04  0.10000000000E+02 0. -1.
</event>
<event>
 5    1  0.1658612E-008  0.3858948E+03  0.7957747E-01  0.3425886E+00
         13   -1    0    0    0    0  0.00000000000E+00  0.00000000000E+00  0.14999999963E+04  0.15000000000E+04  0.10566000000E+00 0. -1.
        994   -1    0    0    0    0 -0.00000000000E+00 -0.00000000000E+00  0.11368683772E-12  0.17120000000E+03  0.17120000000E+03 0.  0.
         13    1    1    2    0    0  0.11515616574E+02 -0.82236766397E+01  0.82161908371E+02  0.83371629670E+02  0.10566000000E+00 0. -1.
        994    1    1    2    0    0 -0.17051791498E+02 -0.70978814143E-01  0.21405859053E+01  0.17206042758E+03  0.17120000000E+03 0.  0.
        998    1    1    2    0    0  0.55361749243E+01  0.82946554539E+01  0.14156975020E+04  0.14157679427E+04  0.10000000000E+02 0. -1.
</event>
<event>
 5    1  0.1658612E-008  0.3735499E+03  0.7957747E-01  0.3479734E+00
         13   -1    0    0    0    0  0.00000000000E+00  0.00000000000E+00  0.14999999963E+04  0.15000000000E+04  0.10566000000E+00 0. -1.
        994   -1    0    0    0    0 -0.00000000000E+00 -0.00000000000E+00  0.11368683772E-12  0.17120000000E+03  0.17120000000E+03 0.  0.
         13    1    1    2    0    0 -0.28092324775E+02 -0.55709569992E+02  0.22678977028E+03  0.23521553088E+03  0.10566000000E+00 0. -1.
        994    1    1    2    0    0  0.26485788345E+02  0.52170969430E+02  0.19210639187E+02  0.18193898893E+03  0.17120000000E+03 0.  0.
        998    1    1    2    0    0  0.16065364294E+01  0.35386005621E+01  0.12539995868E+04  0.12540454802E+04  0.10000000000E+02 0.  0.
</event>
<event>
 5    1  0.1658612E-008  0.3694088E+03  0.7957747E-01  0.3498612E+00
         13   -1    0    0    0    0  0.00000000000E+00  0.00000000000E+00  0.14999999963E+04  0.15000000000E+04  0.10566000000E+00 0.  1.
        994   -1    0    0    0    0 -0.00000000000E+00 -0.00000000000E+00  0.11368683772E-12  0.17120000000E+03  0.17120000000E+03 0.  0.
         13    1    1    2    0    0  0.15164165358E+02  0.15133003165E+02  0.21634876264E+02  0.30447310732E+02  0.10566000000E+00 0.  1.
        994    1    1    2    0    0  0.12042655400E+02  0.18467139285E+02  0.11264269375E+02  0.17298087914E+03  0.17120000000E+03 0.  0.
        998    1    1    2    0    0 -0.27206820758E+02 -0.33600142451E+02  0.14671008506E+04  0.14677718101E+04  0.10000000000E+02 0.  1.
</event>
<event>
 5    1  0.1658612E-008  0.3841569E+03  0.7957747E-01  0.3433256E+00
         13   -1    0    0    0    0  0.00000000000E+00  0.00000000000E+00  0.14999999963E+04  0.15000000000E+04  0.10566000000E+00 0.  1.
        994   -1    0    0    0    0 -0.00000000000E+00 -0.00000000000E+00  0.11368683772E-12  0.17120000000E+03  0.17120000000E+03 0.  0.
         13    1    1    2    0    0 -0.26826158492E+01  0.12346482244E+02  0.37072581126E+02  0.39166560826E+02  0.10566000000E+00 0.  1.
        994    1    1    2    0    0  0.11788453655E+01 -0.17148129409E+02  0.30241800953E+01  0.17208728507E+03  0.17120000000E+03 0.  0.
        998    1    1    2    0    0  0.15037704837E+01  0.48016471644E+01  0.14599032351E+04  0.14599461541E+04  0.10000000000E+02 0.  1.
</event>
<event>
 5    1  0.1658612E-008  0.3811374E+03  0.7957747E-01  0.3446221E+00
         13   -1    0    0    0    0  0.00000000000E+00  0.00000000000E+00  0.14999999963E+04  0.15000000000E+04  0.10566000000E+00 0. -1.
        994   -1    0    0    0    0 -0.00000000000E+00 -0.00000000000E+00  0.11368683772E-12  0.17120000000E+03  0.17120000000E+03 0.  0.
         13    1    1    2    0    0  0.94669762559E+00 -0.19058853927E+02  0.49759383862E+02  0.53292997624E+02  0.10566000000E+00 0. -1.
        994    1    1    2    0    0 -0.49606349888E+01  0.12791869949E+02  0.41872582565E+01  0.17179992133E+03  0.17120000000E+03 0.  0.
        998    1    1    2    0    0  0.40139373632E+01  0.62669839778E+01  0.14460533542E+04  0.14461070810E+04  0.10000000000E+02 0. -1.
</event>
<event>
 5    1  0.1658612E-008  0.3759166E+03  0.7957747E-01  0.3469134E+00
         13   -1    0    0    0    0  0.00000000000E+00  0.00000000000E+00  0.14999999963E+04  0.15000000000E+04  0.10566000000E+00 0. -1.
        994   -1    0    0    0    0 -0.00000000000E+00 -0.00000000000E+00  0.11368683772E-12  0.17120000000E+03  0.17120000000E+03 0.  0.
         13    1    1    2    0    0  0.10759736302E+02  0.11305937903E+02  0.12270560113E+02  0.19853814915E+02  0.10566000000E+00 0. -1.
        994    1    1    2    0    0 -0.25232340747E+02 -0.14692949791E+03  0.85680082905E+02  0.24264266934E+03  0.17120000000E+03 0.  0.
        998    1    1    2    0    0  0.14472604445E+02  0.13562356001E+03  0.14020493533E+04  0.14087035158E+04  0.10000000000E+02 0. -1.
</event>
<event>
 5    1  0.1658612E-008  0.3858005E+03  0.7957747E-01  0.3426284E+00
         13   -1    0    0    0    0  0.00000000000E+00  0.00000000000E+00  0.14999999963E+04  0.15000000000E+04  0.10566000000E+00 0. -1.
        994   -1    0    0    0    0 -0.00000000000E+00 -0.00000000000E+00  0.11368683772E-12  0.17120000000E+03  0.17120000000E+03 0.  0.
         13    1    1    2    0    0 -0.86723123918E+01 -0.13810445056E+02  0.90364368752E+02  0.91824112840E+02  0.10566000000E+00 0. -1.
        994    1    1    2    0    0  0.56169226119E+01  0.35750046826E+02  0.55407840903E+01  0.17507071701E+03  0.17120000000E+03 0.  0.
        998    1    1    2    0    0  0.30553897800E+01 -0.21939601770E+02  0.14040948434E+04  0.14043051701E+04  0.10000000000E+02 0. -1.
</event>
<event>
 5    1  0.1658612E-008  0.3824129E+03  0.7957747E-01  0.3440719E+00
         13   -1    0    0    0    0  0.00000000000E+00  0.00000000000E+00  0.14999999963E+04  0.15000000000E+04  0.10566000000E+00 0. -1.
        994   -1    0    0    0    0 -0.00000000000E+00 -0.00000000000E+00  0.11368683772E-12  0.17120000000E+03  0.17120000000E+03 0.  0.
         13    1    1    2    0    0 -0.63738497926E+01  0.29758742434E+02  0.17409376739E+03  0.17673386693E+03  0.10566000000E+00 0. -1.
        994    1    1    2    0    0  0.60507286752E+00 -0.58316835783E+01  0.30340617846E+01  0.17132723128E+03  0.17120000000E+03 0.  0.
        998    1    1    2    0    0  0.57687769251E+01 -0.23927058856E+02  0.13228721671E+04  0.13231389018E+04  0.10000000000E+02 0. -1.
</event>
<event>
 5    1  0.1658612E-008  0.3821395E+03  0.7957747E-01  0.3441895E+00
         13   -1    0    0    0    0  0.00000000000E+00  0.00000000000E+00  0.14999999963E+04  0.15000000000E+04  0.10566000000E+00 0. -1.
        994   -1    0    0    0    0 -0.00000000000E+00 -0.00000000000E+00  0.11368683772E-12  0.17120000000E+03  0.17120000000E+03 0.  0.
         13    1    1    2    0    0 -0.19197760206E+02  0.33742191584E+01  0.60067300401E+02  0.63150859799E+02  0.10566000000E+00 0. -1.
        994    1    1    2    0    0  0.16151181852E+02 -0.30386701459E+01  0.39541111548E+01  0.17203246550E+03  0.17120000000E+03 0.  0.
        998    1    1    2    0    0  0.30465783540E+01 -0.33554901249E+00  0.14359785847E+04  0.14360166747E+04  0.10000000000E+02 0. -1.
</event>
<event>
 5    1  0.1658612E-008  0.3689877E+03  0.7957747E-01  0.3500556E+00
         13   -1    0    0    0    0  0.00000000000E+00  0.00000000000E+00  0.14999999963E+04  0.15000000000E+04  0.10566000000E+00 0.  1.
        994   -1    0    0    0    0 -0.00000000000E+00 -0.00000000000E+00  0.11368683772E-12  0.17120000000E+03  0.17120000000E+03 0.  0.
         13    1    1    2    0    0  0.90790163307E+01  0.83747393311E+01  0.32242046341E+01  0.12766027415E+02  0.10566000000E+00 0.  1.
        994    1    1    2    0    0 -0.91774957867E+01 -0.86449795797E+01  0.10350898806E+02  0.17197541454E+03  0.17120000000E+03 0.  0.
        998    1    1    2    0    0  0.98479455962E-01  0.27024024857E+00  0.14864248928E+04  0.14864585580E+04  0.10000000000E+02 0.  1.
</event>
<event>
 5    1  0.1658612E-008  0.3853361E+03  0.7957747E-01  0.3428248E+00
         13   -1    0    0    0    0  0.00000000000E+00  0.00000000000E+00  0.14999999963E+04  0.15000000000E+04  0.10566000000E+00 0.  1.
        994   -1    0    0    0    0 -0.00000000000E+00 -0.00000000000E+00  0.11368683772E-12  0.17120000000E+03  0.17120000000E+03 0.  0.
         13    1    1    2    0    0 -0.69614665227E+01  0.11993719604E+02  0.69760423116E+02  0.71125516683E+02  0.10566000000E+00 0.  1.
        994    1    1    2    0    0  0.87088006299E+01  0.36878994520E+01  0.17572621965E+01  0.17147003173E+03  0.17120000000E+03 0.  0.
        998    1    1    2    0    0 -0.17473341072E+01 -0.15681619056E+02  0.14284823110E+04  0.14286044516E+04  0.10000000000E+02 0.  1.
</event>
<event>
 5    1  0.1658612E-008  0.4032941E+03  0.7957747E-01  0.3355607E+00
         13   -1    0    0    0    0  0.00000000000E+00  0.00000000000E+00  0.14999999963E+04  0.15000000000E+04  0.10566000000E+00 0.  1.
        994   -1    0    0    0    0 -0.00000000000E+00 -0.00000000000E+00  0.11368683772E-12  0.17120000000E+03  0.17120000000E+03 0.  0.
         13    1    1    2    0    0  0.27874182378E+02  0.48248600857E+02  0.43378019444E+02  0.70615587959E+02  0.10566000000E+00 0.  1.
        994    1    1    2    0    0 -0.23909190282E+02 -0.19042018269E+02  0.33478038883E+02  0.17710016072E+03  0.17120000000E+03 0.  0.
        998    1    1    2    0    0 -0.39649920964E+01 -0.29206582588E+02  0.14231439380E+04  0.14234842513E+04  0.10000000000E+02 0.  1.
</event>
<event>
 5    1  0.1658612E-008  0.3810901E+03  0.7957747E-01  0.3446426E+00
         13   -1    0    0    0    0  0.00000000000E+00  0.00000000000E+00  0.14999999963E+04  0.15000000000E+04  0.10566000000E+00 0. -1.
        994   -1    0    0    0    0 -0.00000000000E+00 -0.00000000000E+00  0.11368683772E-12  0.17120000000E+03  0.17120000000E+03 0.  0.
         13    1    1    2    0    0 -0.78032778214E+01  0.13217445139E+02  0.32590119285E+02  0.36023867641E+02  0.10566000000E+00 0. -1.
        994    1    1    2    0    0 -0.84847209223E+00 -0.72088727192E+00  0.35880204885E+01  0.17124121430E+03  0.17120000000E+03 0.  0.
        998    1    1    2    0    0  0.86517499137E+01 -0.12496557867E+02  0.14638218565E+04  0.14639349181E+04  0.10000000000E+02 0. -1.
</event>
<event>
 5    1  0.1658612E-008  0.3841542E+03  0.7957747E-01  0.3433267E+00
         13   -1    0    0    0    0  0.00000000000E+00  0.00000000000E+00  0.14999999963E+04  0.15000000000E+04  0.10566000000E+00 0.  1.
        994   -1    0    0    0    0 -0.00000000000E+00 -0.00000000000E+00  0.11368683772E-12  0.17120000000E+03  0.17120000000E+03 0.  0.
         13    1    1    2    0    0  0.13020871163E+02 -0.89802778585E+00  0.41972668469E+02  0.43955268196E+02  0.10566000000E+00 0.  1.
        994    1    1    2    0    0 -0.41509912880E+01  0.96222371433E-01  0.21074873644E+01  0.17126331040E+03  0.17120000000E+03 0.  0.
        998    1    1    2    0    0 -0.88698798747E+01  0.80180541441E+00  0.14559198404E+04  0.14559814214E+04  0.10000000000E+02 0.  1.
</event>
<event>
 5    1  0.1658612E-008  0.3746104E+03  0.7957747E-01  0.3474967E+00
         13   -1    0    0    0    0  0.00000000000E+00  0.00000000000E+00  0.14999999963E+04  0.15000000000E+04  0.10566000000E+00 0. -1.
        994   -1    0    0    0    0 -0.00000000000E+00 -0.00000000000E+00  0.11368683772E-12  0.17120000000E+03  0.17120000000E+03 0.  0.
         13    1    1    2    0    0  0.60750406868E+02 -0.18276156623E+02  0.16464753330E+03  0.17644673763E+03  0.10566000000E+00 0. -1.
        994    1    1    2    0    0 -0.18745846417E+02 -0.26010362278E+02  0.17059110815E+02  0.17500971106E+03  0.17120000000E+03 0.  0.
        998    1    1    2    0    0 -0.42004560451E+02  0.44286518901E+02  0.13182933522E+04  0.13197435513E+04  0.10000000000E+02 0. -1.
</event>
<event>
 5    1  0.1658612E-008  0.3828700E+03  0.7957747E-01  0.3438756E+00
         13   -1    0    0    0    0  0.00000000000E+00  0.00000000000E+00  0.14999999963E+04  0.15000000000E+04  0.10566000000E+00 0.  1.
        994   -1    0    0    0    0 -0.00000000000E+00 -0.00000000000E+00  0.11368683772E-12  0.17120000000E+03  0.17120000000E+03 0.  0.
         13    1    1    2    0    0  0.10638192998E+02 -0.66843915273E+01  0.27757970826E+02  0.30469137644E+02  0.10566000000E+00 0.  1.
        994    1    1    2    0    0 -0.99215824915E+01  0.12556375845E+02  0.35398832866E+01  0.17198276410E+03  0.17120000000E+03 0.  0.
        998    1    1    2    0    0 -0.71661050631E+00 -0.58719843176E+01  0.14687021422E+04  0.14687480983E+04  0.10000000000E+02 0.  1.
</event>
<event>
 5    1  0.1658612E-008  0.3753842E+03  0.7957747E-01  0.3471506E+00
         13   -1    0    0    0    0  0.00000000000E+00  0.00000000000E+00  0.14999999963E+04  0.15000000000E+04  0.10566000000E+00 0. -1.
        994   -1    0    0    0    0 -0.00000000000E+00 -0.00000000000E+00  0.11368683772E-12  0.17120000000E+03  0.17120000000E+03 0.  0.
         13    1    1    2    0    0 -0.62752373930E+01  0.28917123008E+02  0.63237385432E+02  0.69818025522E+02  0.10566000000E+00 0. -1.
        994    1    1    2    0    0 -0.45815988128E+00 -0.27986387576E+02  0.91457818912E+01  0.17371394051E+03  0.17120000000E+03 0.  0.
        998    1    1    2    0    0  0.67333972742E+01 -0.93073543217E+00  0.14276168290E+04  0.14276680340E+04  0.10000000000E+02 0. -1.
</event>
<event>
 5    1  0.1658612E-008  0.3684403E+03  0.7957747E-01  0.3503090E+00
         13   -1    0    0    0    0  0.00000000000E+00  0.00000000000E+00  0.14999999963E+04  0.15000000000E+04  0.10566000000E+00 0. -1.
        994   -1    0    0    0    0 -0.00000000000E+00 -0.00000000000E+00  0.11368683772E-12  0.17120000000E+03  0.17120000000E+03 0.  0.
         13    1    1    2    0    0  0.39845781549E+02  0.94504474897E+01  0.74102998125E+02  0.84665593721E+02  0.10566000000E+00 0. -1.
        994    1    1    2    0    0 -0.39518289868E+02 -0.36899260859E+02  0.20350546554E+02  0.18068435303E+03  0.17120000000E+03 0.  0.
        998    1    1    2    0    0 -0.32749168111E+00  0.27448813370E+02  0.14055464516E+04  0.14058500532E+04  0.10000000000E+02 0. -1.
</event>
<event>
 5    1  0.1658612E-008  0.3822571E+03  0.7957747E-01  0.3441389E+00
         13   -1    0    0    0    0  0.00000000000E+00  0.00000000000E+00  0.14999999963E+04  0.15000000000E+04  0.10566000000E+00 0.  1.
        994   -1    0    0    0    0 -0.00000000000E+00 -0.00000000000E+00  0.11368683772E-12  0.17120000000E+03  0.17120000000E+03 0.  0.
         13    1    1    2    0    0  0.38801794774E+01 -0.14561504993E+02  0.35123011306E+02  0.38219501667E+02  0.10566000000E+00 0.  1.
        994    1    1    2    0    0 -0.13774075149E+02  0.20187438713E+02  0.49823888313E+01  0.17300728894E+03  0.17120000000E+03 0.  0.
        998    1    1    2    0    0  0.98938956714E+01 -0.56259337202E+01  0.14598945961E+04  0.14599732094E+04  0.10000000000E+02 0.  1.
</event>
<event>
 5    1  0.1658612E-008  0.3855137E+03  0.7957747E-01  0.3427497E+00
         13   -1    0    0    0    0  0.00000000000E+00  0.00000000000E+00  0.14999999963E+04  0.15000000000E+04  0.10566000000E+00 0.  1.
        994   -1    0    0    0    0 -0.00000000000E+00 -0.00000000000E+00  0.11368683772E-12  0.17120000000E+03  0.17120000000E+03 0.  0.
         13    1    1    2    0    0  0.59319267886E+01 -0.12884872865E+02  0.74223013004E+02  0.75566358438E+02  0.10566000000E+00 0.  1.
        994    1    1    2    0    0  0.13716288501E+02  0.15790776458E+02  0.28129945309E+01  0.17249590757E+03  0.17120000000E+03 0.  0.
        998    1    1    2    0    0 -0.19648215290E+02 -0.29059035926E+01  0.14229639887E+04  0.14231377340E+04  0.10000000000E+02 0.  1.
</event>
<event>
 5    1  0.1658612E-008  0.3684477E+03  0.7957747E-01  0.3503056E+00
         13   -1    0    0    0    0  0.00000000000E+00  0.00000000000E+00  0.14999999963E+04  0.15000000000E+04  0.10566000000E+00 0.  1.
        994   -1    0    0    0    0 -0.00000000000E+00 -0.00000000000E+00  0.11368683772E-12  0.17120000000E+03  0.17120000000E+03 0.  0.
         13    1    1    2    0    0  0.37054724083E+02 -0.75149091302E+02  0.42197733928E+03  0.43021543967E+03  0.10566000000E+00 0.  1.
        994    1    1    2    0    0  0.37460424811E+02  0.50435380517E+02  0.23931995358E+02  0.18392713622E+03  0.17120000000E+03 0.  0.
        998    1    1    2    0    0 -0.74515148894E+02  0.24713710785E+02  0.10540906616E+04  0.10570574241E+04  0.10000000000E+02 0.  1.
</event>
<event>
 5    1  0.1658612E-008  0.3842200E+03  0.7957747E-01  0.3432987E+00
         13   -1    0    0    0    0  0.00000000000E+00  0.00000000000E+00  0.14999999963E+04  0.15000000000E+04  0.10566000000E+00 0.  1.
        994   -1    0    0    0    0 -0.00000000000E+00 -0.00000000000E+00  0.11368683772E-12  0.17120000000E+03  0.17120000000E+03 0.  0.
         13    1    1    2    0    0  0.48910320005E+01 -0.87958951903E+01  0.24683873035E+02  0.26656982543E+02  0.10566000000E+00 0.  1.
        994    1    1    2    0    0 -0.31925292601E+01  0.41612134317E+01  0.21086128928E+01  0.17129329873E+03  0.17120000000E+03 0.  0.
        998    1    1    2    0    0 -0.16985027404E+01  0.46346817586E+01  0.14732075104E+04  0.14732497187E+04  0.10000000000E+02 0.  1.
</event>
<event>
 5    1  0.1658612E-008  0.3838614E+03  0.7957747E-01  0.3434516E+00
         13   -1    0    0    0    0  0.00000000000E+00  0.00000000000E+00  0.14999999963E+04  0.15000000000E+04  0.10566000000E+00 0.  1.
        994   -1    0    0    0    0 -0.00000000000E+00 -0.00000000000E+00  0.11368683772E-12  0.17120000000E+03  0.17120000000E+03 0.  0.
         13    1    1    2    0    0 -0.19675597405E+02  0.18860785898E+01  0.92327112335E+02  0.94419242010E+02  0.10566000000E+00 0.  1.
        994    1    1    2    0    0  0.58561008986E+01 -0.22387678956E+01  0.23262420250E+01  0.17133055011E+03  0.17120000000E+03 0.  0.
        998    1    1    2    0    0  0.13819496506E+02  0.35268930582E+00  0.14053466419E+04  0.14054502079E+04  0.10000000000E+02 0.  1.
</event>
<event>
 5    1  0.1658612E-008  0.3858310E+03  0.7957747E-01  0.3426155E+00
         13   -1    0    0    0    0  0.00000000000E+00  0.00000000000E+00  0.14999999963E+04  0.15000000000E+04  0.10566000000E+00 0. -1.
        994   -1    0    0    0    0 -0.00000000000E+00 -0.00000000000E+00  0.11368683772E-12  0.17120000000E+03  0.17120000000E+03 0.  0.
         13    1    1    2    0    0 -0.67859087971E+01 -0.98834391703E+01  0.59672880852E+02  0.60865382618E+02  0.10566000000E+00 0. -1.
        994    1    1    2    0    0  0.84250185802E+00  0.87856210465E+01  0.14736265335E+01  0.17143368549E+03  0.17120000000E+03 0.  0.
        998    1    1    2    0    0  0.59434069391E+01  0.10978181238E+01  0.14388534889E+04  0.14389009319E+04  0.10000000000E+02 0. -1.
</event>
<event>
 5    1  0.1658612E-008  0.3703419E+03  0.7957747E-01  0.3494321E+00
         13   -1    0    0    0    0  0.00000000000E+00  0.00000000000E+00  0.14999999963E+04  0.15000000000E+04  0.10566000000E+00 0.  1.
        994   -1    0    0    0    0 -0.00000000000E+00 -0.00000000000E+00  0.11368683772E-12  0.17120000000E+03  0.17120000000E+03 0.  0.
         13    1    1    2    0    0  0.14893409558E+02  0.14962767367E+01  0.81424214638E+01  0.17040031798E+02  0.10566000000E+00 0.  1.
        994    1    1    2    0    0 -0.15056002793E+02 -0.24548115358E+01  0.98945259044E+01  0.17216286174E+03  0.17120000000E+03 0.  0.
        998    1    1    2    0    0  0.16259323463E+00  0.95853479901E+00  0.14819630489E+04  0.14819971065E+04  0.10000000000E+02 0.  1.
</event>
<event>
 5    1  0.1658612E-008  0.3822342E+03  0.7957747E-01  0.3441487E+00
         13   -1    0    0    0    0  0.00000000000E+00  0.00000000000E+00  0.14999999963E+04  0.15000000000E+04  0.10566000000E+00 0. -1.
        994   -1    0    0    0    0 -0.00000000000E+00 -0.00000000000E+00  0.11368683772E-12  0.17120000000E+03  0.17120000000E+03 0.  0.
         13    1    1    2    0    0 -0.57594780307E+01 -0.85008262747E+01  0.16538093660E+02  0.19466775297E+02  0.10566000000E+00 0. -1.
        994    1    1    2    0    0  0.61846676379E+00  0.21846634711E+01  0.30266562017E+01  0.17124180536E+03  0.17120000000E+03 0.  0.
        998    1    1    2    0    0  0.51410112669E+01  0.63161628035E+01  0.14804352464E+04  0.14804914193E+04  0.10000000000E+02 0. -1.
</event>
<event>
 5    1  0.1658612E-008  0.3847211E+03  0.7957747E-01  0.3430856E+00
         13   -1    0    0    0    0  0.00000000000E+00  0.00000000000E+00  0.14999999963E+04  0.15000000000E+04  0.10566000000E+00 0.  1.
        994   -1    0    0    0    0 -0.00000000000E+00 -0.00000000000E+00  0.11368683772E-12  0.17120000000E+03  0.17120000000E+03 0.  0.
         13    1    1    2    0    0 -0.98877766162E+01  0.15290591145E+02  0.92569249615E+02  0.94343242695E+02  0.10566000000E+00 0.  1.
        994    1    1    2    0    0  0.34831238090E+01 -0.13521406735E+02  0.24106520779E+01  0.17178536560E+03  0.17120000000E+03 0.  0.
        998    1    1    2    0    0  0.64046528072E+01 -0.17691844103E+01  0.14050200946E+04  0.14050713917E+04  0.10000000000E+02 0.  1.
</event>
<event>
 5    1  0.1658612E-008  0.3703294E+03  0.7957747E-01  0.3494378E+00
         13   -1    0    0    0    0  0.00000000000E+00  0.00000000000E+00  0.14999999963E+04  0.15000000000E+04  0.10566000000E+00 0. -1.
        994   -1    0    0    0    0 -0.00000000000E+00 -0.00000000000E+00  0.11368683772E-12  0.17120000000E+03  0.17120000000E+03 0.  0.
         13    1    1    2    0    0  0.11993667741E+02  0.66277458839E+01  0.32904297347E+01  0.14093018600E+02  0.10566000000E+00 0. -1.
        994    1    1    2    0    0 -0.12149818299E+02 -0.96852142100E+01  0.11958502131E+02  0.17231908551E+03  0.17120000000E+03 0.  0.
        998    1    1    2    0    0  0.15615055817E+00  0.30574683261E+01  0.14847510644E+04  0.14847878959E+04  0.10000000000E+02 0. -1.
</event>
<event>
 5    1  0.1658612E-008  0.3778121E+03  0.7957747E-01  0.3460741E+00
         13   -1    0    0    0    0  0.00000000000E+00  0.00000000000E+00  0.14999999963E+04  0.15000000000E+04  0.10566000000E+00 0.  1.
        994   -1    0    0    0    0 -0.00000000000E+00 -0.00000000000E+00  0.11368683772E-12  0.17120000000E+03  0.17120000000E+03 0.  0.
         13    1    1    2    0    0 -0.25213856055E+02  0.43472346035E+02  0.21390585046E+03  0.21973007858E+03  0.10566000000E+00 0.  1.
        994    1    1    2    0    0  0.17845702963E+02 -0.42082357862E+02  0.12309767045E+02  0.17762422223E+03  0.17120000000E+03 0.  0.
        998    1    1    2    0    0  0.73681530927E+01 -0.13899881732E+01  0.12737843788E+04  0.12738456992E+04  0.10000000000E+02 0.  1.
</event>
<event>
 5    1  0.1658612E-008  0.4078705E+03  0.7957747E-01  0.3338113E+00
         13   -1    0    0    0    0  0.00000000000E+00  0.00000000000E+00  0.14999999963E+04  0.15000000000E+04  0.10566000000E+00 0.  1.
        994   -1    0    0    0    0 -0.00000000000E+00 -0.00000000000E+00  0.11368683772E-12  0.17120000000E+03  0.17120000000E+03 0.  0.
         13    1    1    2    0    0  0.41485551952E+02 -0.43252134922E+02  0.44662189496E+02  0.74743029981E+02  0.10566000000E+00 0.  1.
        994    1    1    2    0    0 -0.29901614597E+02  0.29309565121E+02  0.39692317557E+02  0.18066011523E+03  0.17120000000E+03 0.  0.
        998    1    1    2    0    0 -0.11583937354E+02  0.13942569801E+02  0.14156454892E+04  0.14157968548E+04  0.10000000000E+02 0.  1.
</event>
<event>
 5    1  0.1658612E-008  0.3791600E+03  0.7957747E-01  0.3454824E+00
         13   -1    0    0    0    0  0.00000000000E+00  0.00000000000E+00  0.14999999963E+04  0.15000000000E+04  0.10566000000E+00 0.  1.
        994   -1    0    0    0    0 -0.00000000000E+00 -0.00000000000E+00  0.11368683772E-12  0.17120000000E+03  0.17120000000E+03 0.  0.
         13    1    1    2    0    0 -0.79285984686E+02 -0.20120516288E+02  0.48723299500E+03  0.49405172312E+03  0.10566000000E+00 0.  1.
        994    1    1    2    0    0  0.79045411127E+02  0.24046324178E+02  0.27792592606E+02  0.19211525429E+03  0.17120000000E+03 0.  0.
        998    1    1    2    0    0  0.24057355910E+00 -0.39258078907E+01  0.98497440868E+03  0.98503302259E+03  0.10000000000E+02 0.  1.
</event>
<event>
 5    1  0.1658612E-008  0.3843013E+03  0.7957747E-01  0.3432641E+00
         13   -1    0    0    0    0  0.00000000000E+00  0.00000000000E+00  0.14999999963E+04  0.15000000000E+04  0.10566000000E+00 0. -1.
        994   -1    0    0    0    0 -0.00000000000E+00 -0.00000000000E+00  0.11368683772E-12  0.17120000000E+03  0.17120000000E+03 0.  0.
         13    1    1    2    0    0  0.15001770890E+02 -0.91144633607E+01  0.80081960711E+02  0.81983279805E+02  0.10566000000E+00 0. -1.
        994    1    1    2    0    0 -0.56297871225E+01  0.31584936570E+01  0.21147744857E+01  0.17133471002E+03  0.17120000000E+03 0.  0.
        998    1    1    2    0    0 -0.93719837672E+01  0.59559697037E+01  0.14178032611E+04  0.14178820102E+04  0.10000000000E+02 0. -1.
</event>
<event>
 5    1  0.1658612E-008  0.3854977E+03  0.7957747E-01  0.3427564E+00
         13   -1    0    0    0    0  0.00000000000E+00  0.00000000000E+00  0.14999999963E+04  0.15000000000E+04  0.10566000000E+00 0. -1.
        994   -1    0    0    0    0 -0.00000000000E+00 -0.00000000000E+00  0.11368683772E-12  0.17120000000E+03  0.17120000000E+03 0.  0.
         13    1    1    2    0    0  0.13047144054E+02 -0.65769499329E+01  0.77317184660E+02  0.78685719455E+02  0.10566000000E+00 0. -1.
        994    1    1    2    0    0 -0.63801356359E+01  0.96498577720E+01  0.18227671339E+01  0.17160008265E+03  0.17120000000E+03 0.  0.
        998    1    1    2    0    0 -0.66670084179E+01 -0.30729078391E+01  0.14208600445E+04  0.14209141979E+04  0.10000000000E+02 0. -1.
</event>
<event>
 5    1  0.1658612E-008  0.3837173E+03  0.7957747E-01  0.3435130E+00
         13   -1    0    0    0    0  0.00000000000E+00  0.00000000000E+00  0.14999999963E+04  0.15000000000E+04  0.10566000000E+00 0.  1.
        994   -1    0    0    0    0 -0.00000000000E+00 -0.00000000000E+00  0.11368683772E-12  0.17120000000E+03  0.17120000000E+03 0.  0.
         13    1    1    2    0    0 -0.14869811072E+02  0.16215212623E+02  0.99932851501E+02  0.10232609821E+03  0.10566000000E+00 0.  1.
        994    1    1    2    0    0  0.15592856572E+02 -0.16632976765E+02  0.39867295395E+01  0.17275742272E+03  0.17120000000E+03 0.  0.
        998    1    1    2    0    0 -0.72304549959E+00  0.41776414279E+00  0.13960804152E+04  0.13961164791E+04  0.10000000000E+02 0.  0.
</event>
<event>
 5    1  0.1658612E-008  0.3823059E+03  0.7957747E-01  0.3441179E+00
         13   -1    0    0    0    0  0.00000000000E+00  0.00000000000E+00  0.14999999963E+04  0.15000000000E+04  0.10566000000E+00 0.  1.
        994   -1    0    0    0    0 -0.00000000000E+00 -0.00000000000E+00  0.11368683772E-12  0.17120000000E+03  0.17120000000E+03 0.  0.
         13    1    1    2    0    0 -0.48064402825E+01  0.12455099974E+02  0.28939850965E+02  0.31870951060E+02  0.10566000000E+00 0.  1.
        994    1    1    2    0    0  0.87038961223E+01 -0.58474032256E+01  0.33385129876E+01  0.17155330251E+03  0.17120000000E+03 0.  0.
        998    1    1    2    0    0 -0.38974558398E+01 -0.66076967483E+01  0.14677216323E+04  0.14677757464E+04  0.10000000000E+02 0.  1.
</event>
<event>
 5    1  0.1658612E-008  0.3733724E+03  0.7957747E-01  0.3480534E+00
         13   -1    0    0    0    0  0.00000000000E+00  0.00000000000E+00  0.14999999963E+04  0.15000000000E+04  0.10566000000E+00 0.  1.
        994   -1    0    0    0    0 -0.00000000000E+00 -0.00000000000E+00  0.11368683772E-12  0.17120000000E+03  0.17120000000E+03 0.  0.
         13    1    1    2    0    0 -0.69513201955E+02 -0.78090143431E+02  0.50115031282E+03  0.51193925710E+03  0.10566000000E+00 0.  1.
        994    1    1    2    0    0  0.65969525946E+02  0.73711498931E+02  0.41739367463E+02  0.20208161278E+03  0.17120000000E+03 0.  0.
        998    1    1    2    0    0  0.35436760092E+01  0.43786445001E+01  0.95711031599E+03  0.95717913012E+03  0.10000000000E+02 0.  1.
</event>
<event>
 5    1  0.1658612E-008  0.3801183E+03  0.7957747E-01  0.3450644E+00
         13   -1    0    0    0    0  0.00000000000E+00  0.00000000000E+00  0.14999999963E+04  0.15000000000E+04  0.10566000000E+00 0.  1.
        994   -1    0    0    0    0 -0.00000000000E+00 -0.00000000000E+00  0.11368683772E-12  0.17120000000E+03  0.17120000000E+03 0.  0.
         13    1    1    2    0    0  0.31943599845E+01 -0.10583362095E+02  0.13069128781E+02  0.17117966587E+02  0.10566000000E+00 0.  1.
        994    1    1    2    0    0 -0.16215861985E+02  0.86984236710E+01  0.52057786683E+01  0.17226478713E+03  0.17120000000E+03 0.  0.
        998    1    1    2    0    0  0.13021502000E+02  0.18849384243E+01  0.14817250888E+04  0.14818172463E+04  0.10000000000E+02 0.  1.
</event>
<event>
 5    1  0.1658612E-008  0.3859832E+03  0.7957747E-01  0.3425513E+00
         13   -1    0    0    0    0  0.00000000000E+00  0.00000000000E+00  0.14999999963E+04  0.15000000000E+04  0.10566000000E+00 0. -1.
        994   -1    0    0    0    0 -0.00000000000E+00 -0.00000000000E+00  0.11368683772E-12  0.17120000000E+03  0.17120000000E+03 0.  0.
         13    1    1    2    0    0 -0.10551314843E+02  0.41855094382E+01  0.62071698854E+02  0.63101154481E+02  0.10566000000E+00 0. -1.
        994    1    1    2    0    0 -0.41720898040E+01 -0.33512271942E+00  0.12002122023E+01  0.17125536240E+03  0.17120000000E+03 0.  0.
        998    1    1    2    0    0  0.14723404647E+02 -0.38503867188E+01  0.14367280852E+04  0.14368434831E+04  0.10000000000E+02 0. -1.
</event>
<event>
 5    1  0.1658612E-008  0.3860054E+03  0.7957747E-01  0.3425419E+00
         13   -1    0    0    0    0  0.00000000000E+00  0.00000000000E+00  0.14999999963E+04  0.15000000000E+04  0.10566000000E+00 0.  1.
        994   -1    0    0    0    0 -0.00000000000E+00 -0.00000000000E+00  0.11368683772E-12  0.17120000000E+03  0.17120000000E+03 0.  0.
         13    1    1    2    0    0 -0.31501251270E+01 -0.97049947534E+01  0.49862063459E+02  0.50895449187E+02  0.10566000000E+00 0.  1.
        994    1    1    2    0    0  0.13512660858E+01 -0.40309747579E+01  0.11910329545E+01  0.17125692172E+03  0.17120000000E+03 0.  0.
        998    1    1    2    0    0  0.17988590411E+01  0.13735969511E+02  0.14489468999E+04  0.14490476291E+04  0.10000000000E+02 0.  1.
</event>
<event>
 5    1  0.1658612E-008  0.3863676E+03  0.7957747E-01  0.3423893E+00
         13   -1    0    0    0    0  0.00000000000E+00  0.00000000000E+00  0.14999999963E+04  0.15000000000E+04  0.10566000000E+00 0.  1.
        994   -1    0    0    0    0 -0.00000000000E+00 -0.00000000000E+00  0.11368683772E-12  0.17120000000E+03  0.17120000000E+03 0.  0.
         13    1    1    2    0    0 -0.57114392979E+02  0.13252582481E+03  0.40245225867E+03  0.42754295667E+03  0.10566000000E+00 0.  1.
        994    1    1    2    0    0  0.25805679855E+02 -0.12899148352E+03  0.87326359053E+02  0.23289497401E+03  0.17120000000E+03 0.  0.
        998    1    1    2    0    0  0.31308713124E+02 -0.35343412862E+01  0.10102213786E+04  0.10107620693E+04  0.10000000000E+02 0.  1.
</event>
<event>
 5    1  0.1658612E-008  0.3864143E+03  0.7957747E-01  0.3423696E+00
         13   -1    0    0    0    0  0.00000000000E+00  0.00000000000E+00  0.14999999963E+04  0.15000000000E+04  0.10566000000E+00 0.  1.
        994   -1    0    0    0    0 -0.00000000000E+00 -0.00000000000E+00  0.11368683772E-12  0.17120000000E+03  0.17120000000E+03 0.  0.
         13    1    1    2    0    0 -0.10452807200E+00  0.10045145092E+02  0.56425303750E+02  0.57312668175E+02  0.10566000000E+00 0.  1.
        994    1    1    2    0    0 -0.98548319574E+01 -0.45916801478E+01  0.13166425792E+01  0.17154991923E+03  0.17120000000E+03 0.  0.
        998    1    1    2    0    0  0.99593600294E+01 -0.54534649446E+01  0.14422580499E+04  0.14423374126E+04  0.10000000000E+02 0.  1.
</event>
<event>
 5    1  0.1658612E-008  0.3845095E+03  0.7957747E-01  0.3431755E+00
         13   -1    0    0    0    0  0.00000000000E+00  0.00000000000E+00  0.14999999963E+04  0.15000000000E+04  0.10566000000E+00 0.  1.
        994   -1    0    0    0    0 -0.00000000000E+00 -0.00000000000E+00  0.11368683772E-12  0.17120000000E+03  0.17120000000E+03 0.  0.
         13    1    1    2    0    0 -0.72980411984E+01 -0.16273850624E+02  0.94865779098E+02  0.96527855189E+02  0.10566000000E+00 0.  1.
        994    1    1    2    0    0  0.18068503960E+01 -0.52917702697E+01  0.19768612865E+01  0.17130270144E+03  0.17120000000E+03 0.  0.
        998    1    1    2    0    0  0.54911908024E+01  0.21565620893E+02  0.14031573559E+04  0.14033694434E+04  0.10000000000E+02 0.  1.
</event>
<event>
 5    1  0.1658612E-008  0.3854937E+03  0.7957747E-01  0.3427581E+00
         13   -1    0    0    0    0  0.00000000000E+00  0.00000000000E+00  0.14999999963E+04  0.15000000000E+04  0.10566000000E+00 0. -1.
        994   -1    0    0    0    0 -0.00000000000E+00 -0.00000000000E+00  0.11368683772E-12  0.17120000000E+03  0.17120000000E+03 0.  0.
         13    1    1    2    0    0 -0.59456608070E+01  0.89486361737E+01  0.41117943847E+02  0.42498534587E+02  0.10566000000E+00 0. -1.
        994    1    1    2    0    0  0.69257168213E+01 -0.77077831989E+01  0.17378724561E+01  0.17152211425E+03  0.17120000000E+03 0.  0.
        998    1    1    2    0    0 -0.98005601425E+00 -0.12408529748E+01  0.14571441800E+04  0.14571793512E+04  0.10000000000E+02 0. -1.
</event>
<event>
 5    1  0.1658612E-008  0.3774933E+03  0.7957747E-01  0.3462146E+00
         13   -1    0    0    0    0  0.00000000000E+00  0.00000000000E+00  0.14999999963E+04  0.15000000000E+04  0.10566000000E+00 0. -1.
        994   -1    0    0    0    0 -0.00000000000E+00 -0.00000000000E+00  0.11368683772E-12  0.17120000000E+03  0.17120000000E+03 0.  0.
         13    1    1    2    0    0  0.61999677423E+01  0.49662191887E+02  0.28915509822E+03  0.29345434891E+03  0.10566000000E+00 0. -1.
        994    1    1    2    0    0  0.19845777664E+01 -0.17305960475E+01  0.54272856200E+01  0.17130624315E+03  0.17120000000E+03 0.  0.
        998    1    1    2    0    0 -0.81845455087E+01 -0.47931595840E+02  0.12054176124E+04  0.12064394079E+04  0.10000000000E+02 0. -1.
</event>
<event>
 5    1  0.1658612E-008  0.3795197E+03  0.7957747E-01  0.3453252E+00
         13   -1    0    0    0    0  0.00000000000E+00  0.00000000000E+00  0.14999999963E+04  0.15000000000E+04  0.10566000000E+00 0. -1.
        994   -1    0    0    0    0 -0.00000000000E+00 -0.00000000000E+00  0.11368683772E-12  0.17120000000E+03  0.17120000000E+03 0.  0.
         13    1    1    2    0    0  0.19169915732E+02 -0.13392802694E+01  0.39251270884E+02  0.43703006428E+02  0.10566000000E+00 0. -1.
        994    1    1    2    0    0 -0.21277582276E+02  0.14048797801E+02  0.65555327023E+01  0.17321235301E+03  0.17120000000E+03 0.  0.
        998    1    1    2    0    0  0.21076665449E+01 -0.12709517532E+02  0.14541931927E+04  0.14542846406E+04  0.10000000000E+02 0. -1.
</event>
<event>
 5    1  0.1658612E-008  0.3845868E+03  0.7957747E-01  0.3431427E+00
         13   -1    0    0    0    0  0.00000000000E+00  0.00000000000E+00  0.14999999963E+04  0.15000000000E+04  0.10566000000E+00 0.  1.
        994   -1    0    0    0    0 -0.00000000000E+00 -0.00000000000E+00  0.11368683772E-12  0.17120000000E+03  0.17120000000E+03 0.  0.
         13    1    1    2    0    0  0.15785336635E+02  0.42552768655E+01  0.70886314488E+02  0.72747267850E+02  0.10566000000E+00 0.  1.
        994    1    1    2    0    0 -0.15366545135E+02  0.96646402993E+00  0.26164989720E+01  0.17191088048E+03  0.17120000000E+03 0.  0.
        998    1    1    2    0    0 -0.41879149941E+00 -0.52217408955E+01  0.14264971828E+04  0.14265418517E+04  0.10000000000E+02 0.  1.
</event>
<event>
 5    1  0.1658612E-008  0.3840828E+03  0.7957747E-01  0.3433571E+00
         13   -1    0    0    0    0  0.00000000000E+00  0.00000000000E+00  0.14999999963E+04  0.15000000000E+04  0.10566000000E+00 0.  1.
        994   -1    0    0    0    0 -0.00000000000E+00 -0.00000000000E+00  0.11368683772E-12  0.17120000000E+03  0.17120000000E+03 0.  0.
         13    1    1    2    0    0  0.32866456261E+01 -0.11806788106E+02  0.35499454962E+02  0.37555622102E+02  0.10566000000E+00 0.  1.
        994    1    1    2    0    0 -0.40861932376E+01  0.73497499781E+01  0.23194680759E+01  0.17142209814E+03  0.17120000000E+03 0.  0.
        998    1    1    2    0    0  0.79954761147E+00  0.44570381276E+01  0.14621810732E+04  0.14622222798E+04  0.10000000000E+02 0.  1.
</event>
<event>
 5    1  0.1658612E-008  0.3732462E+03  0.7957747E-01  0.3481104E+00
         13   -1    0    0    0    0  0.00000000000E+00  0.00000000000E+00  0.14999999963E+04  0.15000000000E+04  0.10566000000E+00 0.  1.
        994   -1    0    0    0    0 -0.00000000000E+00 -0.00000000000E+00  0.11368683772E-12  0.17120000000E+03  0.17120000000E+03 0.  0.
         13    1    1    2    0    0  0.45270023134E+02 -0.15604689960E+02  0.12453353574E+03  0.13342223965E+03  0.10566000000E+00 0.  1.
        994    1    1    2    0    0 -0.59329134933E+02  0.39074076325E+02  0.25040808584E+02  0.18703799557E+03  0.17120000000E+03 0.  0.
        998    1    1    2    0    0  0.14059111799E+02 -0.23469386365E+02  0.13504256519E+04  0.13507397648E+04  0.10000000000E+02 0.  1.
</event>
<event>
 5    1  0.1658612E-008  0.3693471E+03  0.7957747E-01  0.3498897E+00
         13   -1    0    0    0    0  0.00000000000E+00  0.00000000000E+00  0.14999999963E+04  0.15000000000E+04  0.10566000000E+00 0. -1.
        994   -1    0    0    0    0 -0.00000000000E+00 -0.00000000000E+00  0.11368683772E-12  0.17120000000E+03  0.17120000000E+03 0.  0.
         13    1    1    2    0    0 -0.75857847013E+02  0.12221050713E+03  0.69048640146E+03  0.70530936671E+03  0.10566000000E+00 0. -1.
        994    1    1    2    0    0  0.82067287372E+02 -0.88613630088E+02  0.63357614897E+02  0.21888591197E+03  0.17120000000E+03 0.  0.
        998    1    1    2    0    0 -0.62094403587E+01 -0.33596877043E+02  0.74615597992E+03  0.74700472132E+03  0.10000000000E+02 0.  0.
</event>
<event>
 5    1  0.1658612E-008  0.3840797E+03  0.7957747E-01  0.3433585E+00
         13   -1    0    0    0    0  0.00000000000E+00  0.00000000000E+00  0.14999999963E+04  0.15000000000E+04  0.10566000000E+00 0. -1.
        994   -1    0    0    0    0 -0.00000000000E+00 -0.00000000000E+00  0.11368683772E-12  0.17120000000E+03  0.17120000000E+03 0.  0.
         13    1    1    2    0    0  0.11813570814E+01  0.12270002661E+02  0.37930673008E+02  0.39883526534E+02  0.10566000000E+00 0. -1.
        994    1    1    2    0    0  0.68410647938E+01  0.35788648513E+01  0.22844004589E+01  0.17138922640E+03  0.17120000000E+03 0.  0.
        998    1    1    2    0    0 -0.80224218753E+01 -0.15848867512E+02  0.14597849228E+04  0.14599272471E+04  0.10000000000E+02 0. -1.
</event>
<event>
 5    1  0.1658612E-008  0.3852566E+03  0.7957747E-01  0.3428584E+00
         13   -1    0    0    0    0  0.00000000000E+00  0.00000000000E+00  0.14999999963E+04  0.15000000000E+04  0.10566000000E+00 0.  1.
        994   -1    0    0    0    0 -0.00000000000E+00 -0.00000000000E+00  0.11368683772E-12  0.17120000000E+03  0.17120000000E+03 0.  0.
         13    1    1    2    0    0  0.91961218091E+01  0.84707600532E+01  0.51408655567E+02  0.52907310113E+02  0.10566000000E+00 0.  1.
        994    1    1    2    0    0 -0.55819789203E+01 -0.96821229439E+01  0.19132982168E+01  0.17157506434E+03  0.17120000000E+03 0.  0.
        998    1    1    2    0    0 -0.36141428887E+01  0.12113628908E+01  0.14466780425E+04  0.14467176255E+04  0.10000000000E+02 0.  1.
</event>
<event>
 5    1  0.1658612E-008  0.3838486E+03  0.7957747E-01  0.3434570E+00
         13   -1    0    0    0    0  0.00000000000E+00  0.00000000000E+00  0.14999999963E+04  0.15000000000E+04  0.10566000000E+00 0.  1.
        994   -1    0    0    0    0 -0.00000000000E+00 -0.00000000000E+00  0.11368683772E-12  0.17120000000E+03  0.17120000000E+03 0.  0.
         13    1    1    2    0    0 -0.15770251488E+02 -0.53889818770E+01  0.61018164031E+02  0.63253217020E+02  0.10566000000E+00 0.  1.
        994    1    1    2    0    0  0.13619531549E+02  0.82030439737E+01  0.30377491664E+01  0.17196351209E+03  0.17120000000E+03 0.  0.
        998    1    1    2    0    0  0.21507199385E+01 -0.28140620968E+01  0.14359440831E+04  0.14359832709E+04  0.10000000000E+02 0.  1.
</event>
<event>
 5    1  0.1658612E-008  0.3790390E+03  0.7957747E-01  0.3455353E+00
         13   -1    0    0    0    0  0.00000000000E+00  0.00000000000E+00  0.14999999963E+04  0.15000000000E+04  0.10566000000E+00 0. -1.
        994   -1    0    0    0    0 -0.00000000000E+00 -0.00000000000E+00  0.11368683772E-12  0.17120000000E+03  0.17120000000E+03 0.  0.
         13    1    1    2    0    0 -0.76604729305E+02 -0.44744213259E+00  0.41986145466E+03  0.42679285026E+03  0.10566000000E+00 0. -1.
        994    1    1    2    0    0  0.83741458875E+02 -0.11770775985E+01  0.28512532048E+02  0.19270812627E+03  0.17120000000E+03 0.  0.
        998    1    1    2    0    0 -0.71367295700E+01  0.16245197311E+01  0.10516260096E+04  0.10516990235E+04  0.10000000000E+02 0.  0.
</event>
<event>
 5    1  0.1658612E-008  0.3848541E+03  0.7957747E-01  0.3430291E+00
         13   -1    0    0    0    0  0.00000000000E+00  0.00000000000E+00  0.14999999963E+04  0.15000000000E+04  0.10566000000E+00 0. -1.
        994   -1    0    0    0    0 -0.00000000000E+00 -0.00000000000E+00  0.11368683772E-12  0.17120000000E+03  0.17120000000E+03 0.  0.
         13    1    1    2    0    0  0.61338629183E+01 -0.11025854452E+02  0.46065532605E+02  0.47762309397E+02  0.10566000000E+00 0. -1.
        994    1    1    2    0    0 -0.71091038147E+01  0.82593487509E+01  0.20934319605E+01  0.17155925698E+03  0.17120000000E+03 0.  0.
        998    1    1    2    0    0  0.97524089633E+00  0.27665057009E+01  0.14518410317E+04  0.14518784336E+04  0.10000000000E+02 0. -1.
</event>
<event>
 5    1  0.1658612E-008  0.3834287E+03  0.7957747E-01  0.3436364E+00
         13   -1    0    0    0    0  0.00000000000E+00  0.00000000000E+00  0.14999999963E+04  0.15000000000E+04  0.10566000000E+00 0. -1.
        994   -1    0    0    0    0 -0.00000000000E+00 -0.00000000000E+00  0.11368683772E-12  0.17120000000E+03  0.17120000000E+03 0.  0.
         13    1    1    2    0    0  0.24660159522E+02 -0.12074154658E+02  0.15056953616E+03  0.15305262187E+03  0.10566000000E+00 0. -1.
        994    1    1    2    0    0 -0.17003912473E+02  0.11995765932E+02  0.38449361093E+01  0.17250291294E+03  0.17120000000E+03 0.  0.
        998    1    1    2    0    0 -0.76562470490E+01  0.78388726585E-01  0.13455855240E+04  0.13456444652E+04  0.10000000000E+02 0. -1.
</event>
<event>
 5    1  0.1658612E-008  0.3714186E+03  0.7957747E-01  0.3489396E+00
         13   -1    0    0    0    0  0.00000000000E+00  0.00000000000E+00  0.14999999963E+04  0.15000000000E+04  0.10566000000E+00 0.  1.
        994   -1    0    0    0    0 -0.00000000000E+00 -0.00000000000E+00  0.11368683772E-12  0.17120000000E+03  0.17120000000E+03 0.  0.
         13    1    1    2    0    0  0.12658194016E+03  0.63435533525E+02  0.55146210734E+03  0.56934833054E+03  0.10566000000E+00 0.  1.
        994    1    1    2    0    0 -0.12282079876E+03 -0.52616858350E+02  0.77354423774E+02  0.23053552713E+03  0.17120000000E+03 0.  0.
        998    1    1    2    0    0 -0.37611413972E+01 -0.10818675175E+02  0.87118346516E+03  0.87131614233E+03  0.10000000000E+02 0. -1.
</event>
<event>
 5    1  0.1658612E-008  0.3807139E+03  0.7957747E-01  0.3448056E+00
         13   -1    0    0    0    0  0.00000000000E+00  0.00000000000E+00  0.14999999963E+04  0.15000000000E+04  0.10566000000E+00 0. -1.
        994   -1    0    0    0    0 -0.00000000000E+00 -0.00000000000E+00  0.11368683772E-12  0.17120000000E+03  0.17120000000E+03 0.  0.
         13    1    1    2    0    0 -0.11644288731E+02  0.16710349199E+02  0.54392346761E+02  0.58080666152E+02  0.10566000000E+00 0. -1.
        994    1    1    2    0    0  0.27750460026E+01 -0.97807375676E+01  0.41179879892E+01  0.17155104643E+03  0.17120000000E+03 0.  0.
        998    1    1    2    0    0  0.88692427286E+01 -0.69296116316E+01  0.14414896615E+04  0.14415682874E+04  0.10000000000E+02 0. -1.
</event>
<event>
 5    1  0.1658612E-008  0.3834837E+03  0.7957747E-01  0.3436128E+00
         13   -1    0    0    0    0  0.00000000000E+00  0.00000000000E+00  0.14999999963E+04  0.15000000000E+04  0.10566000000E+00 0.  1.
        994   -1    0    0    0    0 -0.00000000000E+00 -0.00000000000E+00  0.11368683772E-12  0.17120000000E+03  0.17120000000E+03 0.  0.
         13    1    1    2    0    0  0.15388328707E+02 -0.15521691222E+02  0.10523318904E+03  0.10747910866E+03  0.10566000000E+00 0.  1.
        994    1    1    2    0    0 -0.61773915373E+01  0.15908657472E+01  0.25193096091E+01  0.17133732209E+03  0.17120000000E+03 0.  0.
        998    1    1    2    0    0 -0.92109371694E+01  0.13930825475E+02  0.13922474976E+04  0.13923835692E+04  0.10000000000E+02 0.  1.
</event>
<event>
 5    1  0.1658612E-008  0.3816235E+03  0.7957747E-01  0.3444120E+00
         13   -1    0    0    0    0  0.00000000000E+00  0.00000000000E+00  0.14999999963E+04  0.15000000000E+04  0.10566000000E+00 0. -1.
        994   -1    0    0    0    0 -0.00000000000E+00 -0.00000000000E+00  0.11368683772E-12  0.17120000000E+03  0.17120000000E+03 0.  0.
         13    1    1    2    0    0 -0.41443890156E+02  0.58968936129E+02  0.13521436445E+03  0.15322489020E+03  0.10566000000E+00 0. -1.
        994    1    1    2    0    0  0.37395920239E+02 -0.55699835994E+02  0.33818256893E+02  0.18695999861E+03  0.17120000000E+03 0.  0.
        998    1    1    2    0    0  0.40479699173E+01 -0.32691001349E+01  0.13309673749E+04  0.13310151112E+04  0.10000000000E+02 0. -1.
</event>
<event>
 5    1  0.1658612E-008  0.3846807E+03  0.7957747E-01  0.3431027E+00
         13   -1    0    0    0    0  0.00000000000E+00  0.00000000000E+00  0.14999999963E+04  0.15000000000E+04  0.10566000000E+00 0.  1.
        994   -1    0    0    0    0 -0.00000000000E+00 -0.00000000000E+00  0.11368683772E-12  0.17120000000E+03  0.17120000000E+03 0.  0.
         13    1    1    2    0    0 -0.46676822744E+01 -0.17378135980E+02  0.10210837144E+03  0.10368180916E+03  0.10566000000E+00 0.  1.
        994    1    1    2    0    0  0.10018216782E+02 -0.67938742815E+01  0.22712406748E+01  0.17164241879E+03  0.17120000000E+03 0.  0.
        998    1    1    2    0    0 -0.53505345073E+01  0.24172010261E+02  0.13956203842E+04  0.13958757720E+04  0.10000000000E+02 0.  1.
</event>
<event>
 5    1  0.1658612E-008  0.3811040E+03  0.7957747E-01  0.3446366E+00
         13   -1    0    0    0    0  0.00000000000E+00  0.00000000000E+00  0.14999999963E+04  0.15000000000E+04  0.10566000000E+00 0.  1.
        994   -1    0    0    0    0 -0.00000000000E+00 -0.00000000000E+00  0.11368683772E-12  0.17120000000E+03  0.17120000000E+03 0.  0.
         13    1    1    2    0    0  0.64513883694E+01  0.77011014914E+01  0.12511255203E+02  0.16045873204E+02  0.10566000000E+00 0.  1.
        994    1    1    2    0    0 -0.72745649470E+01 -0.59267490770E+01  0.38702295059E+01  0.17150062486E+03  0.17120000000E+03 0.  0.
        998    1    1    2    0    0  0.82317657761E+00 -0.17743524144E+01  0.14836185116E+04  0.14836535019E+04  0.10000000000E+02 0.  1.
</event>
<event>
 5    1  0.1658612E-008  0.3800589E+03  0.7957747E-01  0.3450902E+00
         13   -1    0    0    0    0  0.00000000000E+00  0.00000000000E+00  0.14999999963E+04  0.15000000000E+04  0.10566000000E+00 0. -1.
        994   -1    0    0    0    0 -0.00000000000E+00 -0.00000000000E+00  0.11368683772E-12  0.17120000000E+03  0.17120000000E+03 0.  0.
         13    1    1    2    0    0  0.16932729183E+02  0.55093950043E+02  0.32884977176E+03  0.33386261276E+03  0.10566000000E+00 0. -1.
        994    1    1    2    0    0 -0.13827772909E+02 -0.52323546627E+02  0.13955613459E+02  0.18009208751E+03  0.17120000000E+03 0.  0.
        998    1    1    2    0    0 -0.31049562736E+01 -0.27704034160E+01  0.11571946111E+04  0.11572452997E+04  0.10000000000E+02 0.  0.
</event>
<event>
 5    1  0.1658612E-008  0.3779142E+03  0.7957747E-01  0.3460291E+00
         13   -1    0    0    0    0  0.00000000000E+00  0.00000000000E+00  0.14999999963E+04  0.15000000000E+04  0.10566000000E+00 0. -1.
        994   -1    0    0    0    0 -0.00000000000E+00 -0.00000000000E+00  0.11368683772E-12  0.17120000000E+03  0.17120000000E+03 0.  0.
         13    1    1    2    0    0  0.30822226019E+02  0.70021157274E+02  0.23681700711E+03  0.24886799333E+03  0.10566000000E+00 0. -1.
        994    1    1    2    0    0  0.19881407675E+02 -0.76280856585E+01  0.16818494315E+02  0.17333712762E+03  0.17120000000E+03 0.  0.
        998    1    1    2    0    0 -0.50703633694E+02 -0.62393071616E+02  0.12463644948E+04  0.12489948790E+04  0.10000000000E+02 0. -1.
</event>
<event>
 5    1  0.1658612E-008  0.3702177E+03  0.7957747E-01  0.3494891E+00
         13   -1    0    0    0    0  0.00000000000E+00  0.00000000000E+00  0.14999999963E+04  0.15000000000E+04  0.10566000000E+00 0.  1.
        994   -1    0    0    0    0 -0.00000000000E+00 -0.00000000000E+00  0.11368683772E-12  0.17120000000E+03  0.17120000000E+03 0.  0.
         13    1    1    2    0    0  0.11430625936E+02  0.22079428707E+02  0.34502839640E+02  0.42527843686E+02  0.10566000000E+00 0.  1.
        994    1    1    2    0    0  0.31072939234E+01  0.41570122841E+02  0.15183278168E+02  0.17685503195E+03  0.17120000000E+03 0.  0.
        998    1    1    2    0    0 -0.14537919859E+02 -0.63649551548E+02  0.14503138785E+04  0.14518171244E+04  0.10000000000E+02 0.  1.
</event>
<event>
 5    1  0.1658612E-008  0.3821682E+03  0.7957747E-01  0.3441772E+00
         13   -1    0    0    0    0  0.00000000000E+00  0.00000000000E+00  0.14999999963E+04  0.15000000000E+04  0.10566000000E+00 0. -1.
        994   -1    0    0    0    0 -0.00000000000E+00 -0.00000000000E+00  0.11368683772E-12  0.17120000000E+03  0.17120000000E+03 0.  0.
         13    1    1    2    0    0  0.81563816203E+01  0.65218829481E+01  0.17610996911E+02  0.20474860062E+02  0.10566000000E+00 0. -1.
        994    1    1    2    0    0  0.86549266371E+01  0.76187603333E+01  0.34840350769E+01  0.17162322618E+03  0.17120000000E+03 0.  0.
        998    1    1    2    0    0 -0.16811308257E+02 -0.14140643281E+02  0.14789049643E+04  0.14791019138E+04  0.10000000000E+02 0. -1.
</event>
<event>
 5    1  0.1658612E-008  0.3830968E+03  0.7957747E-01  0.3437784E+00
         13   -1    0    0    0    0  0.00000000000E+00  0.00000000000E+00  0.14999999963E+04  0.15000000000E+04  0.10566000000E+00 0. -1.
        994   -1    0    0    0    0 -0.00000000000E+00 -0.00000000000E+00  0.11368683772E-12  0.17120000000E+03  0.17120000000E+03 0.  0.
         13    1    1    2    0    0  0.11096987755E+02 -0.17168563628E+02  0.76868087541E+02  0.79540032440E+02  0.10566000000E+00 0. -1.
        994    1    1    2    0    0 -0.18792032961E+02  0.12863365595E+02  0.42959809410E+01  0.17276140231E+03  0.17120000000E+03 0.  0.
        998    1    1    2    0    0  0.76950452061E+01  0.43051980335E+01  0.14188359278E+04  0.14188985652E+04  0.10000000000E+02 0. -1.
</event>
<event>
 5    1  0.1658612E-008  0.3715090E+03  0.7957747E-01  0.3488985E+00
         13   -1    0    0    0    0  0.00000000000E+00  0.00000000000E+00  0.14999999963E+04  0.15000000000E+04  0.10566000000E+00 0.  1.
        994   -1    0    0    0    0 -0.00000000000E+00 -0.00000000000E+00  0.11368683772E-12  0.17120000000E+03  0.17120000000E+03 0.  0.
         13    1    1    2    0    0  0.57194360507E+02  0.15047896663E+02  0.16509845632E+03  0.17537145010E+03  0.10566000000E+00 0.  1.
        994    1    1    2    0    0 -0.72778811403E+02 -0.30202744146E+02  0.30152465182E+02  0.19086008566E+03  0.17120000000E+03 0.  0.
        998    1    1    2    0    0  0.15584450896E+02  0.15154847483E+02  0.13047490748E+04  0.13049684642E+04  0.10000000000E+02 0.  1.
</event>
<event>
 5    1  0.1658612E-008  0.3855133E+03  0.7957747E-01  0.3427498E+00
         13   -1    0    0    0    0  0.00000000000E+00  0.00000000000E+00  0.14999999963E+04  0.15000000000E+04  0.10566000000E+00 0. -1.
        994   -1    0    0    0    0 -0.00000000000E+00 -0.00000000000E+00  0.11368683772E-12  0.17120000000E+03  0.17120000000E+03 0.  0.
         13    1    1    2    0    0  0.13128855867E+01  0.10740051180E+02  0.41799687619E+02  0.43177510546E+02  0.10566000000E+00 0. -1.
        994    1    1    2    0    0  0.16809117792E+01 -0.11501439238E+02  0.18192087760E+01  0.17160378227E+03  0.17120000000E+03 0.  0.
        998    1    1    2    0    0 -0.29937973658E+01  0.76138805864E+00  0.14563810999E+04  0.14564187072E+04  0.10000000000E+02 0. -1.
</event>
<event>
 5    1  0.1658612E-008  0.3835243E+03  0.7957747E-01  0.3435955E+00
         13   -1    0    0    0    0  0.00000000000E+00  0.00000000000E+00  0.14999999963E+04  0.15000000000E+04  0.10566000000E+00 0.  1.
        994   -1    0    0    0    0 -0.00000000000E+00 -0.00000000000E+00  0.11368683772E-12  0.17120000000E+03  0.17120000000E+03 0.  0.
         13    1    1    2    0    0 -0.87215908329E+01 -0.98612927608E+01  0.36466843947E+02  0.38770518607E+02  0.10566000000E+00 0.  1.
        994    1    1    2    0    0  0.25959774577E+01  0.49762577786E+01  0.24686668850E+01  0.17130976784E+03  0.17120000000E+03 0.  0.
        998    1    1    2    0    0  0.61256133752E+01  0.48850349823E+01  0.14610644854E+04  0.14611197136E+04  0.10000000000E+02 0.  1.
</event>
<event>
 5    1  0.1658612E-008  0.4253712E+03  0.7957747E-01  0.3274641E+00
         13   -1    0    0    0    0  0.00000000000E+00  0.00000000000E+00  0.14999999963E+04  0.15000000000E+04  0.10566000000E+00 0.  1.
        994   -1    0    0    0    0 -0.00000000000E+00 -0.00000000000E+00  0.11368683772E-12  0.17120000000E+03  0.17120000000E+03 0.  0.
         13    1    1    2    0    0  0.34994692892E+02 -0.32946887861E+02  0.42831040585E+01  0.48254347937E+02  0.10566000000E+00 0.  1.
        994    1    1    2    0    0 -0.11702388846E+03  0.61284746090E+02  0.12564827209E+03  0.25009465979E+03  0.17120000000E+03 0.  0.
        998    1    1    2    0    0  0.82029195569E+02 -0.28337858228E+02  0.13700686201E+04  0.13728509923E+04  0.10000000000E+02 0.  1.
</event>
<event>
 5    1  0.1658612E-008  0.3694505E+03  0.7957747E-01  0.3498420E+00
         13   -1    0    0    0    0  0.00000000000E+00  0.00000000000E+00  0.14999999963E+04  0.15000000000E+04  0.10566000000E+00 0.  1.
        994   -1    0    0    0    0 -0.00000000000E+00 -0.00000000000E+00  0.11368683772E-12  0.17120000000E+03  0.17120000000E+03 0.  0.
         13    1    1    2    0    0 -0.39803497061E+01  0.21823155772E+02  0.20942288006E+02  0.30507112328E+02  0.10566000000E+00 0.  1.
        994    1    1    2    0    0  0.18068468708E+02 -0.27649789065E+02  0.13345363705E+02  0.17486714708E+03  0.17120000000E+03 0.  0.
        998    1    1    2    0    0 -0.14088119002E+02  0.58266332930E+01  0.14657123446E+04  0.14658257406E+04  0.10000000000E+02 0.  1.
</event>
<event>
 5    1  0.1658612E-008  0.3854846E+03  0.7957747E-01  0.3427619E+00
         13   -1    0    0    0    0  0.00000000000E+00  0.00000000000E+00  0.14999999963E+04  0.15000000000E+04  0.10566000000E+00 0. -1.
        994   -1    0    0    0    0 -0.00000000000E+00 -0.00000000000E+00  0.11368683772E-12  0.17120000000E+03  0.17120000000E+03 0.  0.
         13    1    1    2    0    0 -0.51618646842E+01  0.13883897964E+02  0.85194384409E+02  0.86472549220E+02  0.10566000000E+00 0. -1.
        994    1    1    2    0    0 -0.54839443430E+01 -0.28275809003E+01  0.15147201055E+01  0.17131784273E+03  0.17120000000E+03 0.  0.
        998    1    1    2    0    0  0.10645809027E+02 -0.11056317063E+02  0.14132908918E+04  0.14134096081E+04  0.10000000000E+02 0. -1.
</event>
<event>
 5    1  0.1658612E-008  0.3767675E+03  0.7957747E-01  0.3465355E+00
         13   -1    0    0    0    0  0.00000000000E+00  0.00000000000E+00  0.14999999963E+04  0.15000000000E+04  0.10566000000E+00 0.  1.
        994   -1    0    0    0    0 -0.00000000000E+00 -0.00000000000E+00  0.11368683772E-12  0.17120000000E+03  0.17120000000E+03 0.  0.
         13    1    1    2    0    0 -0.49380178315E+01 -0.11310461502E+02  0.10730360417E+02  0.16354276450E+02  0.10566000000E+00 0.  1.
        994    1    1    2    0    0 -0.65324300144E+01  0.69979275993E+01  0.60835739069E+01  0.17157532895E+03  0.17120000000E+03 0.  0.
        998    1    1    2    0    0  0.11470447846E+02  0.43125339025E+01  0.14831860620E+04  0.14832703946E+04  0.10000000000E+02 0.  1.
</event>
<event>
 5    1  0.2490041E-008  0.3865896E+03  0.7957747E-01  0.3422958E+00
         13   -1    0    0    0    0  0.00000000000E+00  0.00000000000E+00  0.14999999963E+04  0.15000000000E+04  0.10566000000E+00 0.  1.
        994   -1    0    0    0    0 -0.00000000000E+00 -0.00000000000E+00  0.11368683772E-12  0.17120000000E+03  0.17120000000E+03 0.  0.
         13    1    1    2    0    0  0.52175256131E+01 -0.11119251089E+02  0.72432550824E+02  0.73466631209E+02  0.10566000000E+00 0.  1.
        994    1    1    2    0    0 -0.21219118080E+02  0.28529750507E+02  0.49901223577E+01  0.17492438068E+03  0.17120000000E+03 0.  0.
        998    1    1    2    0    0  0.16001592467E+02 -0.17410499417E+02  0.14225773231E+04  0.14228089881E+04  0.10000000000E+02 0.  1.
</event>
<event>
 5    1  0.1658612E-008  0.3851855E+03  0.7957747E-01  0.3428886E+00
         13   -1    0    0    0    0  0.00000000000E+00  0.00000000000E+00  0.14999999963E+04  0.15000000000E+04  0.10566000000E+00 0. -1.
        994   -1    0    0    0    0 -0.00000000000E+00 -0.00000000000E+00  0.11368683772E-12  0.17120000000E+03  0.17120000000E+03 0.  0.
         13    1    1    2    0    0 -0.10047425912E+02  0.11026655439E+01  0.32427642431E+02  0.33966598247E+02  0.10566000000E+00 0. -1.
        994    1    1    2    0    0  0.11087003684E+02 -0.17643745756E+01  0.19523905089E+01  0.17157880550E+03  0.17120000000E+03 0.  0.
        998    1    1    2    0    0 -0.10395777719E+01  0.66170903162E+00  0.14656199633E+04  0.14656545963E+04  0.10000000000E+02 0. -1.
</event>
<event>
 5    1  0.1658612E-008  0.3795167E+03  0.7957747E-01  0.3453266E+00
         13   -1    0    0    0    0  0.00000000000E+00  0.00000000000E+00  0.14999999963E+04  0.15000000000E+04  0.10566000000E+00 0.  1.
        994   -1    0    0    0    0 -0.00000000000E+00 -0.00000000000E+00  0.11368683772E-12  0.17120000000E+03  0.17120000000E+03 0.  0.
         13    1    1    2    0    0  0.30294425859E+02  0.68959544794E+01  0.13078052882E+03  0.13442047578E+03  0.10566000000E+00 0.  1.
        994    1    1    2    0    0  0.13649344209E+02 -0.32725048207E+01  0.50372413043E+01  0.17184826937E+03  0.17120000000E+03 0.  0.
        998    1    1    2    0    0 -0.43943770068E+02 -0.36234496587E+01  0.13641822262E+04  0.13649312549E+04  0.10000000000E+02 0.  1.
</event>
<event>
 5    1  0.1658612E-008  0.3853022E+03  0.7957747E-01  0.3428392E+00
         13   -1    0    0    0    0  0.00000000000E+00  0.00000000000E+00  0.14999999963E+04  0.15000000000E+04  0.10566000000E+00 0.  1.
        994   -1    0    0    0    0 -0.00000000000E+00 -0.00000000000E+00  0.11368683772E-12  0.17120000000E+03  0.17120000000E+03 0.  0.
         13    1    1    2    0    0  0.12082458030E+02  0.60337217922E+01  0.59442958284E+02  0.60957920275E+02  0.10566000000E+00 0.  1.
        994    1    1    2    0    0 -0.13496916628E+02 -0.67827849523E+01  0.22301811452E+01  0.17187957016E+03  0.17120000000E+03 0.  0.
        998    1    1    2    0    0  0.14144585982E+01  0.74906316008E+00  0.14383268568E+04  0.14383625096E+04  0.10000000000E+02 0.  1.
</event>
<event>
 5    1  0.1658612E-008  0.3828485E+03  0.7957747E-01  0.3438848E+00
         13   -1    0    0    0    0  0.00000000000E+00  0.00000000000E+00  0.14999999963E+04  0.15000000000E+04  0.10566000000E+00 0. -1.
        994   -1    0    0    0    0 -0.00000000000E+00 -0.00000000000E+00  0.11368683772E-12  0.17120000000E+03  0.17120000000E+03 0.  0.
         13    1    1    2    0    0  0.11639918228E+02 -0.32248750344E+02  0.19638380562E+03  0.19935415689E+03  0.10566000000E+00 0. -1.
        994    1    1    2    0    0 -0.24818481955E+02  0.24701313930E+02  0.67732876717E+01  0.17487546821E+03  0.17120000000E+03 0.  0.
        998    1    1    2    0    0  0.13178563727E+02  0.75474364140E+01  0.12968429030E+04  0.12969703749E+04  0.10000000000E+02 0. -1.
</event>
<event>
 5    1  0.1658612E-008  0.3828608E+03  0.7957747E-01  0.3438796E+00
         13   -1    0    0    0    0  0.00000000000E+00  0.00000000000E+00  0.14999999963E+04  0.15000000000E+04  0.10566000000E+00 0. -1.
        994   -1    0    0    0    0 -0.00000000000E+00 -0.00000000000E+00  0.11368683772E-12  0.17120000000E+03  0.17120000000E+03 0.  0.
         13    1    1    2    0    0  0.20467144146E+02 -0.14387825805E+02  0.13165861048E+03  0.13401460517E+03  0.10566000000E+00 0. -1.
        994    1    1    2    0    0 -0.18384996619E+01 -0.74888152369E+01  0.28928808602E+01  0.17139799064E+03  0.17120000000E+03 0.  0.
        998    1    1    2    0    0 -0.18628644484E+02  0.21876641041E+02  0.13654485049E+04  0.13657874042E+04  0.10000000000E+02 0. -1.
</event>
<event>
 5    1  0.1658612E-008  0.3699261E+03  0.7957747E-01  0.3496231E+00
         13   -1    0    0    0    0  0.00000000000E+00  0.00000000000E+00  0.14999999963E+04  0.15000000000E+04  0.10566000000E+00 0.  1.
        994   -1    0    0    0    0 -0.00000000000E+00 -0.00000000000E+00  0.11368683772E-12  0.17120000000E+03  0.17120000000E+03 0.  0.
         13    1    1    2    0    0 -0.31414663736E+00 -0.47728851686E+02  0.11030624168E+03  0.12018993339E+03  0.10566000000E+00 0.  1.
        994    1    1    2    0    0  0.10659507378E+02  0.49255436874E+02  0.18143227858E+02  0.17938322072E+03  0.17120000000E+03 0.  0.
        998    1    1    2    0    0 -0.10345360741E+02 -0.15265851884E+01  0.13715505267E+04  0.13716268459E+04  0.10000000000E+02 0.  1.
</event>
<event>
 5    1  0.1658612E-008  0.3726677E+03  0.7957747E-01  0.3483720E+00
         13   -1    0    0    0    0  0.00000000000E+00  0.00000000000E+00  0.14999999963E+04  0.15000000000E+04  0.10566000000E+00 0.  1.
        994   -1    0    0    0    0 -0.00000000000E+00 -0.00000000000E+00  0.11368683772E-12  0.17120000000E+03  0.17120000000E+03 0.  0.
         13    1    1    2    0    0 -0.12744108680E+02  0.39245229752E+02  0.11744265544E+03  0.12448047576E+03  0.10566000000E+00 0.  1.
        994    1    1    2    0    0  0.63716472505E+00  0.44202245567E+00  0.78833998307E+01  0.17138316532E+03  0.17120000000E+03 0.  0.
        998    1    1    2    0    0  0.12106943955E+02 -0.39687252208E+02  0.13746739410E+04  0.13753363589E+04  0.10000000000E+02 0.  1.
</event>
<event>
 5    1  0.1658612E-008  0.3818305E+03  0.7957747E-01  0.3443227E+00
         13   -1    0    0    0    0  0.00000000000E+00  0.00000000000E+00  0.14999999963E+04  0.15000000000E+04  0.10566000000E+00 0.  1.
        994   -1    0    0    0    0 -0.00000000000E+00 -0.00000000000E+00  0.11368683772E-12  0.17120000000E+03  0.17120000000E+03 0.  0.
         13    1    1    2    0    0  0.44685316987E+01  0.14893467388E+02  0.35583952118E+02  0.38833129655E+02  0.10566000000E+00 0.  1.
        994    1    1    2    0    0 -0.64803582429E+01 -0.16182926694E+02  0.42223820002E+01  0.17213701133E+03  0.17120000000E+03 0.  0.
        998    1    1    2    0    0  0.20118265443E+01  0.12894593060E+01  0.14601936622E+04  0.14602298590E+04  0.10000000000E+02 0.  1.
</event>
<event>
 5    1  0.1658612E-008  0.3790033E+03  0.7957747E-01  0.3455510E+00
         13   -1    0    0    0    0  0.00000000000E+00  0.00000000000E+00  0.14999999963E+04  0.15000000000E+04  0.10566000000E+00 0.  1.
        994   -1    0    0    0    0 -0.00000000000E+00 -0.00000000000E+00  0.11368683772E-12  0.17120000000E+03  0.17120000000E+03 0.  0.
         13    1    1    2    0    0  0.19870226509E+02  0.22259381512E+02  0.94093607831E+02  0.98711317312E+02  0.10566000000E+00 0.  1.
        994    1    1    2    0    0  0.78825897954E+01 -0.32966038718E+02  0.85000853784E+01  0.17473003858E+03  0.17120000000E+03 0.  0.
        998    1    1    2    0    0 -0.27752816304E+02  0.10706657206E+02  0.13974063031E+04  0.13977586441E+04  0.10000000000E+02 0.  1.
</event>
<event>
 5    1  0.1658612E-008  0.3739218E+03  0.7957747E-01  0.3478059E+00
         13   -1    0    0    0    0  0.00000000000E+00  0.00000000000E+00  0.14999999963E+04  0.15000000000E+04  0.10566000000E+00 0.  1.
        994   -1    0    0    0    0 -0.00000000000E+00 -0.00000000000E+00  0.11368683772E-12  0.17120000000E+03  0.17120000000E+03 0.  0.
         13    1    1    2    0    0  0.73460248099E+02 -0.11548773486E+03  0.46353979290E+03  0.48332491734E+03  0.10566000000E+00 0.  1.
        994    1    1    2    0    0 -0.68944530934E+02  0.12013678785E+03  0.84550358645E+02  0.23589065112E+03  0.17120000000E+03 0.  0.
        998    1    1    2    0    0 -0.45157171651E+01 -0.46490529863E+01  0.95190984473E+03  0.95198443154E+03  0.10000000000E+02 0.  0.
</event>
<event>
 5    1  0.2123317E-008  0.3851598E+03  0.7957747E-01  0.3428995E+00
         13   -1    0    0    0    0  0.00000000000E+00  0.00000000000E+00  0.14999999963E+04  0.15000000000E+04  0.10566000000E+00 0. -1.
        994   -1    0    0    0    0 -0.00000000000E+00 -0.00000000000E+00  0.11368683772E-12  0.17120000000E+03  0.17120000000E+03 0.  0.
         13    1    1    2    0    0 -0.23141344036E+01  0.10464484529E+02  0.37182159250E+02  0.38696056453E+02  0.10566000000E+00 0. -1.
        994    1    1    2    0    0 -0.99196583016E+00 -0.63405061162E+01  0.16862151968E+01  0.17132854209E+03  0.17120000000E+03 0.  0.
        998    1    1    2    0    0  0.33061002338E+01 -0.41239784131E+01  0.14611316218E+04  0.14611754015E+04  0.10000000000E+02 0. -1.
</event>
<event>
 5    1  0.1658612E-008  0.3858086E+03  0.7957747E-01  0.3426250E+00
         13   -1    0    0    0    0  0.00000000000E+00  0.00000000000E+00  0.14999999963E+04  0.15000000000E+04  0.10566000000E+00 0. -1.
        994   -1    0    0    0    0 -0.00000000000E+00 -0.00000000000E+00  0.11368683772E-12  0.17120000000E+03  0.17120000000E+03 0.  0.
         13    1    1    2    0    0  0.14798896279E+02 -0.55109317971E+01  0.83731953467E+02  0.85208150407E+02  0.10566000000E+00 0. -1.
        994    1    1    2    0    0 -0.41175793290E+02 -0.67790561630E+01  0.69620261341E+01  0.17634996842E+03  0.17120000000E+03 0.  0.
        998    1    1    2    0    0  0.26376897011E+02  0.12289987960E+02  0.14093060167E+04  0.14096418812E+04  0.10000000000E+02 0. -1.
</event>
<event>
 5    1  0.1658612E-008  0.3797677E+03  0.7957747E-01  0.3452171E+00
         13   -1    0    0    0    0  0.00000000000E+00  0.00000000000E+00  0.14999999963E+04  0.15000000000E+04  0.10566000000E+00 0. -1.
        994   -1    0    0    0    0 -0.00000000000E+00 -0.00000000000E+00  0.11368683772E-12  0.17120000000E+03  0.17120000000E+03 0.  0.
         13    1    1    2    0    0  0.87905234842E+01 -0.36100053457E+02  0.17058811757E+03  0.17458752585E+03  0.10566000000E+00 0. -1.
        994    1    1    2    0    0 -0.62061967733E+01  0.11946992148E+02  0.48570642411E+01  0.17179720188E+03  0.17120000000E+03 0.  0.
        998    1    1    2    0    0 -0.25843267110E+01  0.24153061309E+02  0.13245548145E+04  0.13248152723E+04  0.10000000000E+02 0. -1.
</event>
<event>
 5    1  0.1658612E-008  0.3703140E+03  0.7957747E-01  0.3494449E+00
         13   -1    0    0    0    0  0.00000000000E+00  0.00000000000E+00  0.14999999963E+04  0.15000000000E+04  0.10566000000E+00 0. -1.
        994   -1    0    0    0    0 -0.00000000000E+00 -0.00000000000E+00  0.11368683772E-12  0.17120000000E+03  0.17120000000E+03 0.  0.
         13    1    1    2    0    0 -0.13067284624E+02  0.20463600156E+02  0.28480838016E+02  0.37425688463E+02  0.10566000000E+00 0. -1.
        994    1    1    2    0    0  0.16489959120E+02 -0.11803232774E+02  0.10526684026E+02  0.17271793807E+03  0.17120000000E+03 0.  0.
        998    1    1    2    0    0 -0.34226744965E+01 -0.86603673820E+01  0.14609924742E+04  0.14610563735E+04  0.10000000000E+02 0. -1.
</event>
<event>
 5    1  0.1658612E-008  0.3883201E+03  0.7957747E-01  0.3415712E+00
         13   -1    0    0    0    0  0.00000000000E+00  0.00000000000E+00  0.14999999963E+04  0.15000000000E+04  0.10566000000E+00 0.  1.
        994   -1    0    0    0    0 -0.00000000000E+00 -0.00000000000E+00  0.11368683772E-12  0.17120000000E+03  0.17120000000E+03 0.  0.
         13    1    1    2    0    0 -0.11732528115E+03 -0.87251355197E+02  0.35973265221E+03  0.38831123189E+03  0.10566000000E+00 0.  1.
        994    1    1    2    0    0  0.11001421384E+03  0.99978765493E+02  0.10918575749E+03  0.25165422793E+03  0.17120000000E+03 0.  0.
        998    1    1    2    0    0  0.73110673150E+01 -0.12727410296E+02  0.10310815866E+04  0.10312345402E+04  0.10000000000E+02 0.  1.
</event>
<event>
 5    1  0.1658612E-008  0.3829904E+03  0.7957747E-01  0.3438240E+00
         13   -1    0    0    0    0  0.00000000000E+00  0.00000000000E+00  0.14999999963E+04  0.15000000000E+04  0.10566000000E+00 0.  1.
        994   -1    0    0    0    0 -0.00000000000E+00 -0.00000000000E+00  0.11368683772E-12  0.17120000000E+03  0.17120000000E+03 0.  0.
         13    1    1    2    0    0  0.26961792133E+02  0.48459398271E+02  0.75697897934E+02  0.93837276343E+02  0.10566000000E+00 0.  1.
        994    1    1    2    0    0 -0.33646717423E+02 -0.43986330909E+02  0.29303128009E+02  0.18230472350E+03  0.17120000000E+03 0.  0.
        998    1    1    2    0    0  0.66849252901E+01 -0.44730673617E+01  0.13949989703E+04  0.13950580002E+04  0.10000000000E+02 0.  1.
</event>
<event>
 5    1  0.1658612E-008  0.3811360E+03  0.7957747E-01  0.3446227E+00
         13   -1    0    0    0    0  0.00000000000E+00  0.00000000000E+00  0.14999999963E+04  0.15000000000E+04  0.10566000000E+00 0. -1.
        994   -1    0    0    0    0 -0.00000000000E+00 -0.00000000000E+00  0.11368683772E-12  0.17120000000E+03  0.17120000000E+03 0.  0.
         13    1    1    2    0    0  0.37557169751E+02 -0.13378208442E+03  0.44200312965E+03  0.46333029784E+03  0.10566000000E+00 0. -1.
        994    1    1    2    0    0 -0.31160735456E+02  0.11466903585E+03  0.70327401527E+02  0.21994399883E+03  0.17120000000E+03 0.  0.
        998    1    1    2    0    0 -0.63964342954E+01  0.19113048568E+02  0.98766946510E+03  0.98792570333E+03  0.10000000000E+02 0. -1.
</event>
<event>
 5    1  0.1658612E-008  0.3769881E+03  0.7957747E-01  0.3464379E+00
         13   -1    0    0    0    0  0.00000000000E+00  0.00000000000E+00  0.14999999963E+04  0.15000000000E+04  0.10566000000E+00 0.  1.
        994   -1    0    0    0    0 -0.00000000000E+00 -0.00000000000E+00  0.11368683772E-12  0.17120000000E+03  0.17120000000E+03 0.  0.
         13    1    1    2    0    0  0.16265158767E+02 -0.30155732170E+02  0.10882974408E+03  0.11409578403E+03  0.10566000000E+00 0.  1.
        994    1    1    2    0    0  0.18283462477E+01  0.82963862182E+01  0.59050639470E+01  0.17151233966E+03  0.17120000000E+03 0.  0.
        998    1    1    2    0    0 -0.18093505015E+02  0.21859345952E+02  0.13852651882E+04  0.13855918763E+04  0.10000000000E+02 0.  1.
</event>
<event>
 5    1  0.1658612E-008  0.3814623E+03  0.7957747E-01  0.3444816E+00
         13   -1    0    0    0    0  0.00000000000E+00  0.00000000000E+00  0.14999999963E+04  0.15000000000E+04  0.10566000000E+00 0. -1.
        994   -1    0    0    0    0 -0.00000000000E+00 -0.00000000000E+00  0.11368683772E-12  0.17120000000E+03  0.17120000000E+03 0.  0.
         13    1    1    2    0    0 -0.15752922145E+02  0.15505617122E+02  0.73187962410E+02  0.76453042609E+02  0.10566000000E+00 0. -1.
        994    1    1    2    0    0  0.55168350197E+01 -0.44245547009E+01  0.35631953496E+01  0.17138304617E+03  0.17120000000E+03 0.  0.
        998    1    1    2    0    0  0.10236087125E+02 -0.11081062421E+02  0.14232488385E+04  0.14233639112E+04  0.10000000000E+02 0. -1.
</event>
<event>
 5    1  0.1658612E-008  0.3710772E+03  0.7957747E-01  0.3490955E+00
         13   -1    0    0    0    0  0.00000000000E+00  0.00000000000E+00  0.14999999963E+04  0.15000000000E+04  0.10566000000E+00 0. -1.
        994   -1    0    0    0    0 -0.00000000000E+00 -0.00000000000E+00  0.11368683772E-12  0.17120000000E+03  0.17120000000E+03 0.  0.
         13    1    1    2    0    0  0.25779156439E+02 -0.24668770418E+01  0.24075983032E+02  0.35359786651E+02  0.10566000000E+00 0. -1.
        994    1    1    2    0    0 -0.23577502856E+02 -0.88133800460E+00  0.13465433154E+02  0.17334195478E+03  0.17120000000E+03 0.  0.
        998    1    1    2    0    0 -0.22016535831E+01  0.33482150464E+01  0.14624585801E+04  0.14624982586E+04  0.10000000000E+02 0. -1.
</event>
<event>
 5    1  0.1658612E-008  0.3827821E+03  0.7957747E-01  0.3439134E+00
         13   -1    0    0    0    0  0.00000000000E+00  0.00000000000E+00  0.14999999963E+04  0.15000000000E+04  0.10566000000E+00 0. -1.
        994   -1    0    0    0    0 -0.00000000000E+00 -0.00000000000E+00  0.11368683772E-12  0.17120000000E+03  0.17120000000E+03 0.  0.
         13    1    1    2    0    0 -0.37699659743E+02  0.83663008609E+01  0.23031690693E+03  0.23353189957E+03  0.10566000000E+00 0. -1.
        994    1    1    2    0    0  0.36349212476E+02 -0.22150328581E+02  0.87605089935E+01  0.17662980729E+03  0.17120000000E+03 0.  0.
        998    1    1    2    0    0  0.13504472663E+01  0.13784027720E+02  0.12609225804E+04  0.12610382931E+04  0.10000000000E+02 0. -1.
</event>
<event>
 5    1  0.1658612E-008  0.3917548E+03  0.7957747E-01  0.3401520E+00
         13   -1    0    0    0    0  0.00000000000E+00  0.00000000000E+00  0.14999999963E+04  0.15000000000E+04  0.10566000000E+00 0.  1.
        994   -1    0    0    0    0 -0.00000000000E+00 -0.00000000000E+00  0.11368683772E-12  0.17120000000E+03  0.17120000000E+03 0.  0.
         13    1    1    2    0    0  0.17148975890E+01 -0.41972917666E+02  0.26849488742E+02  0.49855520265E+02  0.10566000000E+00 0.  1.
        994    1    1    2    0    0 -0.48341911739E+02  0.64613208669E+02  0.48053414461E+02  0.19527001256E+03  0.17120000000E+03 0.  0.
        998    1    1    2    0    0  0.46627014150E+02 -0.22640291002E+02  0.14250970931E+04  0.14260744672E+04  0.10000000000E+02 0.  1.
</event>
<event>
 5    1  0.1658612E-008  0.3850823E+03  0.7957747E-01  0.3429323E+00
         13   -1    0    0    0    0  0.00000000000E+00  0.00000000000E+00  0.14999999963E+04  0.15000000000E+04  0.10566000000E+00 0. -1.
        994   -1    0    0    0    0 -0.00000000000E+00 -0.00000000000E+00  0.11368683772E-12  0.17120000000E+03  0.17120000000E+03 0.  0.
         13    1    1    2    0    0 -0.82993942742E+01 -0.16770661940E+02  0.10855279305E+03  0.11015377928E+03  0.10566000000E+00 0. -1.
        994    1    1    2    0    0  0.25521869985E+02  0.36355198176E+01  0.37773161730E+01  0.17317127640E+03  0.17120000000E+03 0.  0.
        998    1    1    2    0    0 -0.17222475711E+02  0.13135142123E+02  0.13876698871E+04  0.13878749443E+04  0.10000000000E+02 0. -1.
</event>
<event>
 5    1  0.1658612E-008  0.3731719E+03  0.7957747E-01  0.3481439E+00
         13   -1    0    0    0    0  0.00000000000E+00  0.00000000000E+00  0.14999999963E+04  0.15000000000E+04  0.10566000000E+00 0.  1.
        994   -1    0    0    0    0 -0.00000000000E+00 -0.00000000000E+00  0.11368683772E-12  0.17120000000E+03  0.17120000000E+03 0.  0.
         13    1    1    2    0    0 -0.23406477913E+02  0.87987011340E+02  0.46358177652E+03  0.47243798753E+03  0.10566000000E+00 0.  1.
        994    1    1    2    0    0 -0.79448353004E+01 -0.11586110073E+02  0.13323931999E+02  0.17229139711E+03  0.17120000000E+03 0.  0.
        998    1    1    2    0    0  0.31351313214E+02 -0.76400901267E+02  0.10230942878E+04  0.10264706154E+04  0.10000000000E+02 0.  1.
</event>
<event>
 5    1  0.1658612E-008  0.3833140E+03  0.7957747E-01  0.3436855E+00
         13   -1    0    0    0    0  0.00000000000E+00  0.00000000000E+00  0.14999999963E+04  0.15000000000E+04  0.10566000000E+00 0.  1.
        994   -1    0    0    0    0 -0.00000000000E+00 -0.00000000000E+00  0.11368683772E-12  0.17120000000E+03  0.17120000000E+03 0.  0.
         13    1    1    2    0    0  0.33340734717E+01 -0.21219294217E+02  0.92632294884E+02  0.95090103126E+02  0.10566000000E+00 0.  1.
        994    1    1    2    0    0  0.14363726069E+02  0.16427622622E+02  0.40457357814E+01  0.17263253283E+03  0.17120000000E+03 0.  0.
        998    1    1    2    0    0 -0.17697799541E+02  0.47916715947E+01  0.14033219656E+04  0.14034773640E+04  0.10000000000E+02 0.  1.
</event>
<event>
 5    1  0.1658612E-008  0.3800509E+03  0.7957747E-01  0.3450937E+00
         13   -1    0    0    0    0  0.00000000000E+00  0.00000000000E+00  0.14999999963E+04  0.15000000000E+04  0.10566000000E+00 0. -1.
        994   -1    0    0    0    0 -0.00000000000E+00 -0.00000000000E+00  0.11368683772E-12  0.17120000000E+03  0.17120000000E+03 0.  0.
         13    1    1    2    0    0 -0.19583318873E+02  0.11679123617E+02  0.62039674358E+02  0.66097206182E+02  0.10566000000E+00 0. -1.
        994    1    1    2    0    0  0.14722174296E+02 -0.19447429609E+01  0.48448510071E+01  0.17191113118E+03  0.17120000000E+03 0.  0.
        998    1    1    2    0    0  0.48611445773E+01 -0.97343806561E+01  0.14331154709E+04  0.14331916626E+04  0.10000000000E+02 0. -1.
</event>
<event>
 5    1  0.1658612E-008  0.3791502E+03  0.7957747E-01  0.3454867E+00
         13   -1    0    0    0    0  0.00000000000E+00  0.00000000000E+00  0.14999999963E+04  0.15000000000E+04  0.10566000000E+00 0. -1.
        994   -1    0    0    0    0 -0.00000000000E+00 -0.00000000000E+00  0.11368683772E-12  0.17120000000E+03  0.17120000000E+03 0.  0.
         13    1    1    2    0    0 -0.13554521280E+02 -0.23062632968E+02  0.84965652466E+02  0.89077400891E+02  0.10566000000E+00 0. -1.
        994    1    1    2    0    0 -0.72418954633E+00 -0.57352963311E+01  0.46747779477E+01  0.17136134810E+03  0.17120000000E+03 0.  0.
        998    1    1    2    0    0  0.14278710826E+02  0.28797929299E+02  0.14103595659E+04  0.14107612510E+04  0.10000000000E+02 0. -1.
</event>
<event>
 5    1  0.1658612E-008  0.2843140E+03  0.7957747E-01  0.4014784E+00
         13   -1    0    0    0    0  0.00000000000E+00  0.00000000000E+00  0.14999999963E+04  0.15000000000E+04  0.10566000000E+00 0. -1.
        994   -1    0    0    0    0 -0.00000000000E+00 -0.00000000000E+00  0.11368683772E-12  0.17120000000E+03  0.17120000000E+03 0.  0.
         13    1    1    2    0    0  0.11153113164E+03 -0.73058162633E+02  0.77959676857E+03  0.79091581169E+03  0.10566000000E+00 0. -1.
        994    1    1    2    0    0  0.69916344203E+01  0.72008758268E+01  0.26913776957E+02  0.17359299224E+03  0.17120000000E+03 0.  0.
        998    1    1    2    0    0 -0.11852276606E+03  0.65857286806E+02  0.69348945076E+03  0.70669119607E+03  0.10000000000E+02 0.  1.
</event>
<event>
 5    1  0.1658612E-008  0.3859403E+03  0.7957747E-01  0.3425694E+00
         13   -1    0    0    0    0  0.00000000000E+00  0.00000000000E+00  0.14999999963E+04  0.15000000000E+04  0.10566000000E+00 0.  1.
        994   -1    0    0    0    0 -0.00000000000E+00 -0.00000000000E+00  0.11368683772E-12  0.17120000000E+03  0.17120000000E+03 0.  0.
         13    1    1    2    0    0  0.17183997482E+01  0.11270109325E+02  0.54492976398E+02  0.55672829124E+02  0.10566000000E+00 0.  1.
        994    1    1    2    0    0 -0.56788837552E+01 -0.12107058778E+02  0.17505690509E+01  0.17173041398E+03  0.17120000000E+03 0.  0.
        998    1    1    2    0    0  0.39604840069E+01  0.83694945218E+00  0.14437564508E+04  0.14437967569E+04  0.10000000000E+02 0.  1.
</event>
<event>
 5    1  0.2192553E-008  0.3861102E+03  0.7957747E-01  0.3424977E+00
         13   -1    0    0    0    0  0.00000000000E+00  0.00000000000E+00  0.14999999963E+04  0.15000000000E+04  0.10566000000E+00 0.  1.
        994   -1    0    0    0    0 -0.00000000000E+00 -0.00000000000E+00  0.11368683772E-12  0.17120000000E+03  0.17120000000E+03 0.  0.
         13    1    1    2    0    0 -0.14065197113E+01 -0.12340626438E+02  0.73510155861E+02  0.74552153137E+02  0.10566000000E+00 0.  1.
        994    1    1    2    0    0  0.96469115687E+00  0.62722985675E+01  0.12119246001E+01  0.17132186410E+03  0.17120000000E+03 0.  0.
        998    1    1    2    0    0  0.44182855444E+00  0.60683278700E+01  0.14252779158E+04  0.14253259828E+04  0.10000000000E+02 0.  1.
</event>
<event>
 5    1  0.1658612E-008  0.3805493E+03  0.7957747E-01  0.3448770E+00
         13   -1    0    0    0    0  0.00000000000E+00  0.00000000000E+00  0.14999999963E+04  0.15000000000E+04  0.10566000000E+00 0.  1.
        994   -1    0    0    0    0 -0.00000000000E+00 -0.00000000000E+00  0.11368683772E-12  0.17120000000E+03  0.17120000000E+03 0.  0.
         13    1    1    2    0    0 -0.11444816826E+02  0.17566929246E+02  0.59383276279E+02  0.62975912069E+02  0.10566000000E+00 0.  1.
        994    1    1    2    0    0  0.97908214529E+00  0.32727364482E+01  0.38950466764E+01  0.17127837223E+03  0.17120000000E+03 0.  0.
        998    1    1    2    0    0  0.10465734680E+02 -0.20839665695E+02  0.14367216733E+04  0.14369457157E+04  0.10000000000E+02 0.  1.
</event>
<event>
 5    1  0.1658612E-008  0.3728810E+03  0.7957747E-01  0.3482754E+00
         13   -1    0    0    0    0  0.00000000000E+00  0.00000000000E+00  0.14999999963E+04  0.15000000000E+04  0.10566000000E+00 0.  1.
        994   -1    0    0    0    0 -0.00000000000E+00 -0.00000000000E+00  0.11368683772E-12  0.17120000000E+03  0.17120000000E+03 0.  0.
         13    1    1    2    0    0  0.55003228309E+02 -0.36653662314E+02  0.18512956445E+03  0.19657520923E+03  0.10566000000E+00 0.  1.
        994    1    1    2    0    0  0.20331840021E+02  0.76497467912E+02  0.34940259303E+02  0.19182155258E+03  0.17120000000E+03 0.  0.
        998    1    1    2    0    0 -0.75335068330E+02 -0.39843805598E+02  0.12799301725E+04  0.12828032382E+04  0.10000000000E+02 0.  1.
</event>
<event>
 5    1  0.1658612E-008  0.3839453E+03  0.7957747E-01  0.3434158E+00
         13   -1    0    0    0    0  0.00000000000E+00  0.00000000000E+00  0.14999999963E+04  0.15000000000E+04  0.10566000000E+00 0. -1.
        994   -1    0    0    0    0 -0.00000000000E+00 -0.00000000000E+00  0.11368683772E-12  0.17120000000E+03  0.17120000000E+03 0.  0.
         13    1    1    2    0    0  0.72964960472E+01 -0.15028515703E+02  0.65682614879E+02  0.67773978783E+02  0.10566000000E+00 0. -1.
        994    1    1    2    0    0 -0.33666565627E+01  0.62886150659E+01  0.23226159292E+01  0.17136427749E+03  0.17120000000E+03 0.  0.
        998    1    1    2    0    0 -0.39298394845E+01  0.87399006371E+01  0.14319947655E+04  0.14320617437E+04  0.10000000000E+02 0. -1.
</event>
<event>
 5    1  0.1658612E-008  0.3750547E+03  0.7957747E-01  0.3472978E+00
         13   -1    0    0    0    0  0.00000000000E+00  0.00000000000E+00  0.14999999963E+04  0.15000000000E+04  0.10566000000E+00 0.  1.
        994   -1    0    0    0    0 -0.00000000000E+00 -0.00000000000E+00  0.11368683772E-12  0.17120000000E+03  0.17120000000E+03 0.  0.
         13    1    1    2    0    0 -0.14949307744E+02 -0.32552105429E+02  0.93597286119E+02  0.10021768558E+03  0.10566000000E+00 0.  1.
        994    1    1    2    0    0  0.56923553728E+01  0.23098001122E+02  0.85763301267E+01  0.17305754535E+03  0.17120000000E+03 0.  0.
        998    1    1    2    0    0  0.92569523709E+01  0.94541043070E+01  0.13978263800E+04  0.13979247691E+04  0.10000000000E+02 0.  1.
</event>
<event>
 5    1  0.1658612E-008  0.3850339E+03  0.7957747E-01  0.3429528E+00
         13   -1    0    0    0    0  0.00000000000E+00  0.00000000000E+00  0.14999999963E+04  0.15000000000E+04  0.10566000000E+00 0. -1.
        994   -1    0    0    0    0 -0.00000000000E+00 -0.00000000000E+00  0.11368683772E-12  0.17120000000E+03  0.17120000000E+03 0.  0.
         13    1    1    2    0    0  0.60122393071E+01  0.94622842899E+01  0.41038220463E+02  0.42542079736E+02  0.10566000000E+00 0. -1.
        994    1    1    2    0    0  0.20364318821E+01  0.24550078206E+01  0.16467447163E+01  0.17123762988E+03  0.17120000000E+03 0.  0.
        998    1    1    2    0    0 -0.80486711891E+01 -0.11917292110E+02  0.14573150311E+04  0.14574202904E+04  0.10000000000E+02 0. -1.
</event>
<event>
 5    1  0.1658612E-008  0.3734925E+03  0.7957747E-01  0.3479992E+00
         13   -1    0    0    0    0  0.00000000000E+00  0.00000000000E+00  0.14999999963E+04  0.15000000000E+04  0.10566000000E+00 0.  1.
        994   -1    0    0    0    0 -0.00000000000E+00 -0.00000000000E+00  0.11368683772E-12  0.17120000000E+03  0.17120000000E+03 0.  0.
         13    1    1    2    0    0 -0.18399529271E+02 -0.85986306202E+02  0.36405132461E+03  0.37452044757E+03  0.10566000000E+00 0.  1.
        994    1    1    2    0    0  0.72946223604E+02  0.12101299874E+02  0.32410670318E+02  0.18928149552E+03  0.17120000000E+03 0.  0.
        998    1    1    2    0    0 -0.54546694333E+02  0.73885006328E+02  0.11035380014E+04  0.11073980569E+04  0.10000000000E+02 0.  1.
</event>
<event>
 5    1  0.1658612E-008  0.3745269E+03  0.7957747E-01  0.3475342E+00
         13   -1    0    0    0    0  0.00000000000E+00  0.00000000000E+00  0.14999999963E+04  0.15000000000E+04  0.10566000000E+00 0. -1.
        994   -1    0    0    0    0 -0.00000000000E+00 -0.00000000000E+00  0.11368683772E-12  0.17120000000E+03  0.17120000000E+03 0.  0.
         13    1    1    2    0    0 -0.35850451696E+02  0.47400305761E+02  0.33942939152E+03  0.34459304529E+03  0.10566000000E+00 0. -1.
        994    1    1    2    0    0  0.70471370617E+01  0.62422123299E+01  0.72236992616E+01  0.17161074904E+03  0.17120000000E+03 0.  0.
        998    1    1    2    0    0  0.28803314634E+02 -0.53642518090E+02  0.11533469055E+04  0.11549962057E+04  0.10000000000E+02 0.  1.
</event>
<event>
 5    1  0.1658612E-008  0.3716758E+03  0.7957747E-01  0.3488224E+00
         13   -1    0    0    0    0  0.00000000000E+00  0.00000000000E+00  0.14999999963E+04  0.15000000000E+04  0.10566000000E+00 0. -1.
        994   -1    0    0    0    0 -0.00000000000E+00 -0.00000000000E+00  0.11368683772E-12  0.17120000000E+03  0.17120000000E+03 0.  0.
         13    1    1    2    0    0  0.24795119662E+02  0.23838438815E+01  0.32778103482E+02  0.41169113455E+02  0.10566000000E+00 0. -1.
        994    1    1    2    0    0 -0.25920614213E+02 -0.44505850209E+00  0.10709661532E+02  0.17348260192E+03  0.17120000000E+03 0.  0.
        998    1    1    2    0    0  0.11254945505E+01 -0.19387853794E+01  0.14565122313E+04  0.14565482846E+04  0.10000000000E+02 0. -1.
</event>
<event>
 5    1  0.1658612E-008  0.4549094E+03  0.7957747E-01  0.3178341E+00
         13   -1    0    0    0    0  0.00000000000E+00  0.00000000000E+00  0.14999999963E+04  0.15000000000E+04  0.10566000000E+00 0.  1.
        994   -1    0    0    0    0 -0.00000000000E+00 -0.00000000000E+00  0.11368683772E-12  0.17120000000E+03  0.17120000000E+03 0.  0.
         13    1    1    2    0    0 -0.31368863478E+02  0.22690394552E+02 -0.13384591250E+02  0.40963618588E+02  0.10566000000E+00 0.  1.
        994    1    1    2    0    0  0.29188199299E+02 -0.23285358348E+02  0.73011761834E+02  0.18982706935E+03  0.17120000000E+03 0.  0.
        998    1    1    2    0    0  0.21806641790E+01  0.59496379543E+00  0.14403728257E+04  0.14404093121E+04  0.10000000000E+02 0.  1.
</event>
<event>
 5    1  0.1658612E-008  0.3843858E+03  0.7957747E-01  0.3432281E+00
         13   -1    0    0    0    0  0.00000000000E+00  0.00000000000E+00  0.14999999963E+04  0.15000000000E+04  0.10566000000E+00 0. -1.
        994   -1    0    0    0    0 -0.00000000000E+00 -0.00000000000E+00  0.11368683772E-12  0.17120000000E+03  0.17120000000E+03 0.  0.
         13    1    1    2    0    0  0.52209653497E+00  0.15591596415E+02  0.65762869493E+02  0.67587991770E+02  0.10566000000E+00 0. -1.
        994    1    1    2    0    0 -0.33115999688E+02 -0.19647770261E+01  0.55703161872E+01  0.17447348855E+03  0.17120000000E+03 0.  0.
        998    1    1    2    0    0  0.32593903153E+02 -0.13626819388E+02  0.14286668106E+04  0.14291385197E+04  0.10000000000E+02 0. -1.
</event>
<event>
 5    1  0.1658612E-008  0.3784608E+03  0.7957747E-01  0.3457888E+00
         13   -1    0    0    0    0  0.00000000000E+00  0.00000000000E+00  0.14999999963E+04  0.15000000000E+04  0.10566000000E+00 0.  1.
        994   -1    0    0    0    0 -0.00000000000E+00 -0.00000000000E+00  0.11368683772E-12  0.17120000000E+03  0.17120000000E+03 0.  0.
         13    1    1    2    0    0  0.50512159935E+01 -0.18884873612E+02  0.35733874730E+02  0.40731734576E+02  0.10566000000E+00 0.  1.
        994    1    1    2    0    0 -0.71507520657E+01  0.22836643194E+02  0.68386047655E+01  0.17299957238E+03  0.17120000000E+03 0.  0.
        998    1    1    2    0    0  0.20995360723E+01 -0.39517695825E+01  0.14574275168E+04  0.14574686930E+04  0.10000000000E+02 0.  1.
</event>
<event>
 5    1  0.1658612E-008  0.3777321E+03  0.7957747E-01  0.3461093E+00
         13   -1    0    0    0    0  0.00000000000E+00  0.00000000000E+00  0.14999999963E+04  0.15000000000E+04  0.10566000000E+00 0.  1.
        994   -1    0    0    0    0 -0.00000000000E+00 -0.00000000000E+00  0.11368683772E-12  0.17120000000E+03  0.17120000000E+03 0.  0.
         13    1    1    2    0    0 -0.67880567152E+02  0.82819496813E+02  0.61181979367E+03  0.62112020700E+03  0.10566000000E+00 0.  1.
        994    1    1    2    0    0  0.77738025405E+02 -0.76854256529E+02  0.46650512447E+02  0.20841182225E+03  0.17120000000E+03 0.  0.
        998    1    1    2    0    0 -0.98574582531E+01 -0.59652402844E+01  0.84152969016E+03  0.84166797076E+03  0.10000000000E+02 0.  1.
</event>
<event>
 5    1  0.1658612E-008  0.3845277E+03  0.7957747E-01  0.3431678E+00
         13   -1    0    0    0    0  0.00000000000E+00  0.00000000000E+00  0.14999999963E+04  0.15000000000E+04  0.10566000000E+00 0.  1.
        994   -1    0    0    0    0 -0.00000000000E+00 -0.00000000000E+00  0.11368683772E-12  0.17120000000E+03  0.17120000000E+03 0.  0.
         13    1    1    2    0    0  0.12278189124E+02 -0.22717177033E+01  0.40679402068E+02  0.42552785410E+02  0.10566000000E+00 0.  1.
        994    1    1    2    0    0 -0.14697750359E+02 -0.99638253020E+01  0.29040048287E+01  0.17214289101E+03  0.17120000000E+03 0.  0.
        998    1    1    2    0    0  0.24195612353E+01  0.12235543005E+02  0.14564165894E+04  0.14565043236E+04  0.10000000000E+02 0.  1.
</event>
<event>
 5    1  0.1658612E-008  0.3842628E+03  0.7957747E-01  0.3432805E+00
         13   -1    0    0    0    0  0.00000000000E+00  0.00000000000E+00  0.14999999963E+04  0.15000000000E+04  0.10566000000E+00 0.  1.
        994   -1    0    0    0    0 -0.00000000000E+00 -0.00000000000E+00  0.11368683772E-12  0.17120000000E+03  0.17120000000E+03 0.  0.
         13    1    1    2    0    0  0.11449162907E+02 -0.85744847842E+01  0.49906833733E+02  0.51916359058E+02  0.10566000000E+00 0.  1.
        994    1    1    2    0    0 -0.17652505965E+02 -0.12591931255E+01  0.30297245712E+01  0.17213894320E+03  0.17120000000E+03 0.  0.
        998    1    1    2    0    0  0.62033430579E+01  0.98336779096E+01  0.14470634380E+04  0.14471446977E+04  0.10000000000E+02 0.  1.
</event>
<event>
 5    1  0.1658612E-008  0.3847396E+03  0.7957747E-01  0.3430777E+00
         13   -1    0    0    0    0  0.00000000000E+00  0.00000000000E+00  0.14999999963E+04  0.15000000000E+04  0.10566000000E+00 0.  1.
        994   -1    0    0    0    0 -0.00000000000E+00 -0.00000000000E+00  0.11368683772E-12  0.17120000000E+03  0.17120000000E+03 0.  0.
         13    1    1    2    0    0 -0.13926474325E+02 -0.68955166636E+01  0.65649374477E+02  0.67463667040E+02  0.10566000000E+00 0.  1.
        994    1    1    2    0    0  0.23244016572E+02 -0.74692930029E+01  0.37238922015E+01  0.17297220013E+03  0.17120000000E+03 0.  0.
        998    1    1    2    0    0 -0.93175422470E+01  0.14364809666E+02  0.14306267296E+04  0.14307641328E+04  0.10000000000E+02 0.  1.
</event>
<event>
 5    1  0.1658612E-008  0.3082589E+03  0.7957747E-01  0.3838767E+00
         13   -1    0    0    0    0  0.00000000000E+00  0.00000000000E+00  0.14999999963E+04  0.15000000000E+04  0.10566000000E+00 0. -1.
        994   -1    0    0    0    0 -0.00000000000E+00 -0.00000000000E+00  0.11368683772E-12  0.17120000000E+03  0.17120000000E+03 0.  0.
         13    1    1    2    0    0 -0.13584062980E+03  0.98175366545E+02  0.80771577810E+03  0.82492173487E+03  0.10566000000E+00 0. -1.
        994    1    1    2    0    0  0.89026421205E+02 -0.67659293120E+02  0.62329346033E+02  0.21377060367E+03  0.17120000000E+03 0.  0.
        998    1    1    2    0    0  0.46814208599E+02 -0.30516073425E+02  0.62995487214E+03  0.63250766145E+03  0.10000000000E+02 0. -1.
</event>
<event>
 5    1  0.1658612E-008  0.3797123E+03  0.7957747E-01  0.3452412E+00
         13   -1    0    0    0    0  0.00000000000E+00  0.00000000000E+00  0.14999999963E+04  0.15000000000E+04  0.10566000000E+00 0.  1.
        994   -1    0    0    0    0 -0.00000000000E+00 -0.00000000000E+00  0.11368683772E-12  0.17120000000E+03  0.17120000000E+03 0.  0.
         13    1    1    2    0    0 -0.38301395835E+01  0.20558854563E+02  0.48604864566E+02  0.52912952040E+02  0.10566000000E+00 0.  1.
        994    1    1    2    0    0  0.55209825995E+01 -0.17950593935E+02  0.54595309132E+01  0.17231352689E+03  0.17120000000E+03 0.  0.
        998    1    1    2    0    0 -0.16908430160E+01 -0.26082606273E+01  0.14459356008E+04  0.14459735211E+04  0.10000000000E+02 0.  1.
</event>
<event>
 5    1  0.1658612E-008  0.3808862E+03  0.7957747E-01  0.3447309E+00
         13   -1    0    0    0    0  0.00000000000E+00  0.00000000000E+00  0.14999999963E+04  0.15000000000E+04  0.10566000000E+00 0. -1.
        994   -1    0    0    0    0 -0.00000000000E+00 -0.00000000000E+00  0.11368683772E-12  0.17120000000E+03  0.17120000000E+03 0.  0.
         13    1    1    2    0    0 -0.46206775839E+02 -0.75813192687E+01  0.28281847206E+03  0.28666852258E+03  0.10566000000E+00 0. -1.
        994    1    1    2    0    0  0.33439692925E+02 -0.69574806297E+01  0.75847466397E+01  0.17473862762E+03  0.17120000000E+03 0.  0.
        998    1    1    2    0    0  0.12767082914E+02  0.14538799898E+02  0.12095967776E+04  0.12097928498E+04  0.10000000000E+02 0. -1.
</event>
<event>
 5    1  0.1658612E-008  0.3209942E+03  0.7957747E-01  0.3756675E+00
         13   -1    0    0    0    0  0.00000000000E+00  0.00000000000E+00  0.14999999963E+04  0.15000000000E+04  0.10566000000E+00 0. -1.
        994   -1    0    0    0    0 -0.00000000000E+00 -0.00000000000E+00  0.11368683772E-12  0.17120000000E+03  0.17120000000E+03 0.  0.
         13    1    1    2    0    0 -0.15480124568E+03  0.12668572382E+03  0.10597764577E+04  0.10784891514E+04  0.10566000000E+00 0. -1.
        994    1    1    2    0    0  0.43075804228E+02 -0.77748809953E+02  0.74043343399E+02  0.20662105183E+03  0.17120000000E+03 0.  0.
        998    1    1    2    0    0  0.11172544145E+03 -0.48936913870E+02  0.36618019520E+03  0.38608979676E+03  0.10000000000E+02 0. -1.
</event>
<event>
 5    1  0.1658612E-008  0.3822899E+03  0.7957747E-01  0.3441248E+00
         13   -1    0    0    0    0  0.00000000000E+00  0.00000000000E+00  0.14999999963E+04  0.15000000000E+04  0.10566000000E+00 0.  1.
        994   -1    0    0    0    0 -0.00000000000E+00 -0.00000000000E+00  0.11368683772E-12  0.17120000000E+03  0.17120000000E+03 0.  0.
         13    1    1    2    0    0 -0.10079190055E+02  0.18425216207E+02  0.70114014477E+02  0.73191972610E+02  0.10566000000E+00 0.  1.
        994    1    1    2    0    0  0.20543822651E+02 -0.13390112026E+02  0.49793750305E+01  0.17301901030E+03  0.17120000000E+03 0.  0.
        998    1    1    2    0    0 -0.10464632597E+02 -0.50351041807E+01  0.14249066068E+04  0.14249890171E+04  0.10000000000E+02 0.  1.
</event>
<event>
 5    1  0.1658612E-008  0.3848224E+03  0.7957747E-01  0.3430426E+00
         13   -1    0    0    0    0  0.00000000000E+00  0.00000000000E+00  0.14999999963E+04  0.15000000000E+04  0.10566000000E+00 0.  1.
        994   -1    0    0    0    0 -0.00000000000E+00 -0.00000000000E+00  0.11368683772E-12  0.17120000000E+03  0.17120000000E+03 0.  0.
         13    1    1    2    0    0 -0.17977956563E+02 -0.13829780736E+02  0.12818171441E+03  0.13017308797E+03  0.10566000000E+00 0.  1.
        994    1    1    2    0    0  0.24704849286E+02  0.20822523605E+02  0.51609426665E+01  0.17429854387E+03  0.17120000000E+03 0.  0.
        998    1    1    2    0    0 -0.67268927226E+01 -0.69927428687E+01  0.13666573392E+04  0.13667283682E+04  0.10000000000E+02 0.  0.
</event>
<event>
 5    1  0.1658612E-008  0.3860748E+03  0.7957747E-01  0.3425127E+00
         13   -1    0    0    0    0  0.00000000000E+00  0.00000000000E+00  0.14999999963E+04  0.15000000000E+04  0.10566000000E+00 0. -1.
        994   -1    0    0    0    0 -0.00000000000E+00 -0.00000000000E+00  0.11368683772E-12  0.17120000000E+03  0.17120000000E+03 0.  0.
         13    1    1    2    0    0  0.26073416854E+01 -0.10017041570E+02  0.46026918383E+02  0.47176559141E+02  0.10566000000E+00 0. -1.
        994    1    1    2    0    0  0.15743143422E+02  0.23481802331E+02  0.37211310493E+01  0.17355842942E+03  0.17120000000E+03 0.  0.
        998    1    1    2    0    0 -0.18350485107E+02 -0.13464760761E+02  0.14502519468E+04  0.14504650114E+04  0.10000000000E+02 0. -1.
</event>
<event>
 5    1  0.1658612E-008  0.3855586E+03  0.7957747E-01  0.3427306E+00
         13   -1    0    0    0    0  0.00000000000E+00  0.00000000000E+00  0.14999999963E+04  0.15000000000E+04  0.10566000000E+00 0. -1.
        994   -1    0    0    0    0 -0.00000000000E+00 -0.00000000000E+00  0.11368683772E-12  0.17120000000E+03  0.17120000000E+03 0.  0.
         13    1    1    2    0    0 -0.96167122026E+01  0.81368609064E+01  0.60381262662E+02  0.61681421058E+02  0.10566000000E+00 0. -1.
        994    1    1    2    0    0  0.61322324293E+00 -0.68653173323E+01  0.15090076270E+01  0.17134534055E+03  0.17120000000E+03 0.  0.
        998    1    1    2    0    0  0.90034889597E+01 -0.12715435741E+01  0.14381097260E+04  0.14381732384E+04  0.10000000000E+02 0. -1.
</event>
<event>
 5    1  0.1658612E-008  0.3818427E+03  0.7957747E-01  0.3443174E+00
         13   -1    0    0    0    0  0.00000000000E+00  0.00000000000E+00  0.14999999963E+04  0.15000000000E+04  0.10566000000E+00 0. -1.
        994   -1    0    0    0    0 -0.00000000000E+00 -0.00000000000E+00  0.11368683772E-12  0.17120000000E+03  0.17120000000E+03 0.  0.
         13    1    1    2    0    0 -0.24481784789E+02 -0.18650263473E+01  0.86637107854E+02  0.90049074016E+02  0.10566000000E+00 0. -1.
        994    1    1    2    0    0  0.28893237184E+02 -0.35433809888E+01  0.60265107477E+01  0.17376171482E+03  0.17120000000E+03 0.  0.
        998    1    1    2    0    0 -0.44114523953E+01  0.54084073361E+01  0.14073363777E+04  0.14073892112E+04  0.10000000000E+02 0. -1.
</event>
<event>
 5    1  0.1658612E-008  0.3827650E+03  0.7957747E-01  0.3439207E+00
         13   -1    0    0    0    0  0.00000000000E+00  0.00000000000E+00  0.14999999963E+04  0.15000000000E+04  0.10566000000E+00 0.  1.
        994   -1    0    0    0    0 -0.00000000000E+00 -0.00000000000E+00  0.11368683772E-12  0.17120000000E+03  0.17120000000E+03 0.  0.
         13    1    1    2    0    0  0.17816988228E+02  0.98512334551E+01  0.72237004439E+02  0.75051234797E+02  0.10566000000E+00 0.  1.
        994    1    1    2    0    0 -0.14205098981E+02 -0.14455770756E+02  0.41057165719E+01  0.17244434190E+03  0.17120000000E+03 0.  0.
        998    1    1    2    0    0 -0.36118892475E+01  0.46045373009E+01  0.14236572753E+04  0.14237044233E+04  0.10000000000E+02 0.  1.
</event>
<event>
 5    1  0.1658612E-008  0.3783784E+03  0.7957747E-01  0.3458250E+00
         13   -1    0    0    0    0  0.00000000000E+00  0.00000000000E+00  0.14999999963E+04  0.15000000000E+04  0.10566000000E+00 0.  1.
        994   -1    0    0    0    0 -0.00000000000E+00 -0.00000000000E+00  0.11368683772E-12  0.17120000000E+03  0.17120000000E+03 0.  0.
         13    1    1    2    0    0  0.95572272616E+02  0.43746232427E+02  0.49028816547E+03  0.50142824862E+03  0.10566000000E+00 0.  1.
        994    1    1    2    0    0 -0.14706946389E+03 -0.21316190760E+02  0.83170992945E+02  0.24147600557E+03  0.17120000000E+03 0.  0.
        998    1    1    2    0    0  0.51497191271E+02 -0.22430041666E+02  0.92654083786E+03  0.92829574582E+03  0.10000000000E+02 0.  1.
</event>
<event>
 5    1  0.1658612E-008  0.3824675E+03  0.7957747E-01  0.3440484E+00
         13   -1    0    0    0    0  0.00000000000E+00  0.00000000000E+00  0.14999999963E+04  0.15000000000E+04  0.10566000000E+00 0.  1.
        994   -1    0    0    0    0 -0.00000000000E+00 -0.00000000000E+00  0.11368683772E-12  0.17120000000E+03  0.17120000000E+03 0.  0.
         13    1    1    2    0    0  0.16408926186E+01 -0.14979248510E+02  0.38478552117E+02  0.41324091661E+02  0.10566000000E+00 0.  1.
        994    1    1    2    0    0 -0.48624490970E+01  0.81964855422E+01  0.31939545819E+01  0.17149480206E+03  0.17120000000E+03 0.  0.
        998    1    1    2    0    0  0.32215564784E+01  0.67827629681E+01  0.14583274896E+04  0.14583811063E+04  0.10000000000E+02 0.  1.
</event>
<event>
 5    1  0.1658612E-008  0.3723610E+03  0.7957747E-01  0.3485110E+00
         13   -1    0    0    0    0  0.00000000000E+00  0.00000000000E+00  0.14999999963E+04  0.15000000000E+04  0.10566000000E+00 0.  1.
        994   -1    0    0    0    0 -0.00000000000E+00 -0.00000000000E+00  0.11368683772E-12  0.17120000000E+03  0.17120000000E+03 0.  0.
         13    1    1    2    0    0 -0.89061020891E+01  0.83461639549E+01  0.54725816412E+01  0.13376749270E+02  0.10566000000E+00 0.  1.
        994    1    1    2    0    0  0.10915526866E+02 -0.11940858153E+02  0.89383813506E+01  0.17219485324E+03  0.17120000000E+03 0.  0.
        998    1    1    2    0    0 -0.20094247765E+01  0.35946941983E+01  0.14855890333E+04  0.14856283975E+04  0.10000000000E+02 0.  1.
</event>
<event>
 5    1  0.1658612E-008  0.3810373E+03  0.7957747E-01  0.3446654E+00
         13   -1    0    0    0    0  0.00000000000E+00  0.00000000000E+00  0.14999999963E+04  0.15000000000E+04  0.10566000000E+00 0. -1.
        994   -1    0    0    0    0 -0.00000000000E+00 -0.00000000000E+00  0.11368683772E-12  0.17120000000E+03  0.17120000000E+03 0.  0.
         13    1    1    2    0    0  0.19434615271E+02 -0.21058099885E+02  0.16844974444E+02  0.33240219156E+02  0.10566000000E+00 0. -1.
        994    1    1    2    0    0 -0.20089926613E+02  0.24012263337E+02  0.20471590989E+02  0.17523903669E+03  0.17120000000E+03 0.  0.
        998    1    1    2    0    0  0.65531134225E+00 -0.29541634522E+01  0.14626834308E+04  0.14627207442E+04  0.10000000000E+02 0. -1.
</event>
<event>
 5    1  0.1658612E-008  0.3841038E+03  0.7957747E-01  0.3433482E+00
         13   -1    0    0    0    0  0.00000000000E+00  0.00000000000E+00  0.14999999963E+04  0.15000000000E+04  0.10566000000E+00 0. -1.
        994   -1    0    0    0    0 -0.00000000000E+00 -0.00000000000E+00  0.11368683772E-12  0.17120000000E+03  0.17120000000E+03 0.  0.
         13    1    1    2    0    0  0.24039020277E+02  0.64663921791E+01  0.12910869705E+03  0.13148671241E+03  0.10566000000E+00 0. -1.
        994    1    1    2    0    0 -0.29693487542E+02 -0.18936686525E+02  0.61773030739E+01  0.17489396894E+03  0.17120000000E+03 0.  0.
        998    1    1    2    0    0  0.56544672643E+01  0.12470294346E+02  0.13647139962E+04  0.13648193186E+04  0.10000000000E+02 0. -1.
</event>
<event>
 5    1  0.1658612E-008  0.3840743E+03  0.7957747E-01  0.3433608E+00
         13   -1    0    0    0    0  0.00000000000E+00  0.00000000000E+00  0.14999999963E+04  0.15000000000E+04  0.10566000000E+00 0.  1.
        994   -1    0    0    0    0 -0.00000000000E+00 -0.00000000000E+00  0.11368683772E-12  0.17120000000E+03  0.17120000000E+03 0.  0.
         13    1    1    2    0    0 -0.13038877339E+02 -0.16101096843E+02  0.93316858861E+02  0.95589251244E+02  0.10566000000E+00 0.  1.
        994    1    1    2    0    0  0.23011111351E+02  0.15997434653E+02  0.46855122901E+01  0.17354199257E+03  0.17120000000E+03 0.  0.
        998    1    1    2    0    0 -0.99722340128E+01  0.10366218997E+00  0.14019976251E+04  0.14020687562E+04  0.10000000000E+02 0.  1.
</event>
<event>
 5    1  0.1658612E-008  0.3811367E+03  0.7957747E-01  0.3446224E+00
         13   -1    0    0    0    0  0.00000000000E+00  0.00000000000E+00  0.14999999963E+04  0.15000000000E+04  0.10566000000E+00 0. -1.
        994   -1    0    0    0    0 -0.00000000000E+00 -0.00000000000E+00  0.11368683772E-12  0.17120000000E+03  0.17120000000E+03 0.  0.
         13    1    1    2    0    0 -0.11219738832E+02 -0.36903465659E+02  0.17550342292E+03  0.17969198908E+03  0.10566000000E+00 0. -1.
        994    1    1    2    0    0  0.13555591306E+02  0.43916693929E+02  0.10627876591E+02  0.17758046577E+03  0.17120000000E+03 0.  0.
        998    1    1    2    0    0 -0.23358524740E+01 -0.70132282697E+01  0.13138686968E+04  0.13139275452E+04  0.10000000000E+02 0. -1.
</event>
<event>
 5    1  0.1658612E-008  0.4247352E+03  0.7957747E-01  0.3276857E+00
         13   -1    0    0    0    0  0.00000000000E+00  0.00000000000E+00  0.14999999963E+04  0.15000000000E+04  0.10566000000E+00 0.  1.
        994   -1    0    0    0    0 -0.00000000000E+00 -0.00000000000E+00  0.11368683772E-12  0.17120000000E+03  0.17120000000E+03 0.  0.
         13    1    1    2    0    0  0.77032947292E+02 -0.13532274762E+02  0.55831120033E+02  0.96095382600E+02  0.10566000000E+00 0.  1.
        994    1    1    2    0    0 -0.68900842252E+02  0.15938344738E+02  0.65647242490E+02  0.19652062829E+03  0.17120000000E+03 0.  0.
        998    1    1    2    0    0 -0.81321050402E+01 -0.24060699757E+01  0.13785216338E+04  0.13785839891E+04  0.10000000000E+02 0.  1.
</event>
<event>
 5    1  0.1658612E-008  0.3772215E+03  0.7957747E-01  0.3463346E+00
         13   -1    0    0    0    0  0.00000000000E+00  0.00000000000E+00  0.14999999963E+04  0.15000000000E+04  0.10566000000E+00 0.  1.
        994   -1    0    0    0    0 -0.00000000000E+00 -0.00000000000E+00  0.11368683772E-12  0.17120000000E+03  0.17120000000E+03 0.  0.
         13    1    1    2    0    0 -0.84429241964E+01  0.37388965798E+02  0.13875350690E+03  0.14395056295E+03  0.10566000000E+00 0.  1.
        994    1    1    2    0    0  0.66011500435E+01 -0.10356336533E+02  0.60513597022E+01  0.17174658029E+03  0.17120000000E+03 0.  0.
        998    1    1    2    0    0  0.18417741529E+01 -0.27032629265E+02  0.13551951297E+04  0.13555028568E+04  0.10000000000E+02 0.  1.
</event>
<event>
 5    1  0.1658612E-008  0.3767259E+03  0.7957747E-01  0.3465540E+00
         13   -1    0    0    0    0  0.00000000000E+00  0.00000000000E+00  0.14999999963E+04  0.15000000000E+04  0.10566000000E+00 0.  1.
        994   -1    0    0    0    0 -0.00000000000E+00 -0.00000000000E+00  0.11368683772E-12  0.17120000000E+03  0.17120000000E+03 0.  0.
         13    1    1    2    0    0  0.78675967871E+02  0.12181547737E+03  0.44265413366E+03  0.46580211642E+03  0.10566000000E+00 0.  1.
        994    1    1    2    0    0 -0.95313867076E+02 -0.12232870084E+03  0.10651658461E+03  0.25437033456E+03  0.17120000000E+03 0.  0.
        998    1    1    2    0    0  0.16637899205E+02  0.51322347447E+00  0.95082927801E+03  0.95102754902E+03  0.10000000000E+02 0.  1.
</event>
<event>
 5    1  0.1658612E-008  0.3835509E+03  0.7957747E-01  0.3435841E+00
         13   -1    0    0    0    0  0.00000000000E+00  0.00000000000E+00  0.14999999963E+04  0.15000000000E+04  0.10566000000E+00 0.  1.
        994   -1    0    0    0    0 -0.00000000000E+00 -0.00000000000E+00  0.11368683772E-12  0.17120000000E+03  0.17120000000E+03 0.  0.
         13    1    1    2    0    0  0.71820057607E+01  0.21296686122E+02  0.11709334187E+03  0.11923083460E+03  0.10566000000E+00 0.  1.
        994    1    1    2    0    0 -0.73658904651E+01  0.10040013097E+01  0.25339066231E+01  0.17138006023E+03  0.17120000000E+03 0.  0.
        998    1    1    2    0    0  0.18388470435E+00 -0.22300687432E+02  0.13803727478E+04  0.13805891052E+04  0.10000000000E+02 0.  1.
</event>
<event>
 5    1  0.1658612E-008  0.3836486E+03  0.7957747E-01  0.3435424E+00
         13   -1    0    0    0    0  0.00000000000E+00  0.00000000000E+00  0.14999999963E+04  0.15000000000E+04  0.10566000000E+00 0. -1.
        994   -1    0    0    0    0 -0.00000000000E+00 -0.00000000000E+00  0.11368683772E-12  0.17120000000E+03  0.17120000000E+03 0.  0.
         13    1    1    2    0    0  0.21009860497E+02 -0.11294801757E+02  0.11856927964E+03  0.12094491318E+03  0.10566000000E+00 0. -1.
        994    1    1    2    0    0 -0.12460632405E+02  0.18729835473E+02  0.39759871939E+01  0.17271746458E+03  0.17120000000E+03 0.  0.
        998    1    1    2    0    0 -0.85492280915E+01 -0.74350337164E+01  0.13774547294E+04  0.13775376222E+04  0.10000000000E+02 0. -1.
</event>
<event>
 5    1  0.1658612E-008  0.3818212E+03  0.7957747E-01  0.3443267E+00
         13   -1    0    0    0    0  0.00000000000E+00  0.00000000000E+00  0.14999999963E+04  0.15000000000E+04  0.10566000000E+00 0.  1.
        994   -1    0    0    0    0 -0.00000000000E+00 -0.00000000000E+00  0.11368683772E-12  0.17120000000E+03  0.17120000000E+03 0.  0.
         13    1    1    2    0    0  0.31495240694E+01 -0.43815588376E+02  0.24711848858E+03  0.25099259720E+03  0.10566000000E+00 0.  1.
        994    1    1    2    0    0 -0.63068613699E+02  0.48938649079E+02  0.24689925531E+02  0.19050373705E+03  0.17120000000E+03 0.  0.
        998    1    1    2    0    0  0.59919089629E+02 -0.51230607030E+01  0.12281915822E+04  0.12297036657E+04  0.10000000000E+02 0.  1.
</event>
<event>
 5    1  0.2041123E-008  0.3857898E+03  0.7957747E-01  0.3426329E+00
         13   -1    0    0    0    0  0.00000000000E+00  0.00000000000E+00  0.14999999963E+04  0.15000000000E+04  0.10566000000E+00 0. -1.
        994   -1    0    0    0    0 -0.00000000000E+00 -0.00000000000E+00  0.11368683772E-12  0.17120000000E+03  0.17120000000E+03 0.  0.
         13    1    1    2    0    0  0.11607306570E+02  0.29302892727E+01  0.58847923040E+02  0.60053354371E+02  0.10566000000E+00 0. -1.
        994    1    1    2    0    0 -0.52086009900E+01 -0.72793394547E+01  0.15013508346E+01  0.17144040469E+03  0.17120000000E+03 0.  0.
        998    1    1    2    0    0 -0.63987055796E+01  0.43490501820E+01  0.14396507224E+04  0.14397062409E+04  0.10000000000E+02 0. -1.
</event>
<event>
 5    1  0.1658612E-008  0.3727066E+03  0.7957747E-01  0.3483544E+00
         13   -1    0    0    0    0  0.00000000000E+00  0.00000000000E+00  0.14999999963E+04  0.15000000000E+04  0.10566000000E+00 0. -1.
        994   -1    0    0    0    0 -0.00000000000E+00 -0.00000000000E+00  0.11368683772E-12  0.17120000000E+03  0.17120000000E+03 0.  0.
         13    1    1    2    0    0 -0.21502425600E+02 -0.75122546369E+02  0.22311018083E+03  0.23639779025E+03  0.10566000000E+00 0. -1.
        994    1    1    2    0    0 -0.16362266133E+02  0.71629678242E+02  0.31683998863E+02  0.18897579301E+03  0.17120000000E+03 0.  0.
        998    1    1    2    0    0  0.37864691733E+02  0.34928681268E+01  0.12452058166E+04  0.12458264167E+04  0.10000000000E+02 0. -1.
</event>
<event>
 5    1  0.1658612E-008  0.3840912E+03  0.7957747E-01  0.3433536E+00
         13   -1    0    0    0    0  0.00000000000E+00  0.00000000000E+00  0.14999999963E+04  0.15000000000E+04  0.10566000000E+00 0.  1.
        994   -1    0    0    0    0 -0.00000000000E+00 -0.00000000000E+00  0.11368683772E-12  0.17120000000E+03  0.17120000000E+03 0.  0.
         13    1    1    2    0    0 -0.18309679990E+02  0.25740254597E+01  0.87451479313E+02  0.89384799527E+02  0.10566000000E+00 0.  1.
        994    1    1    2    0    0  0.10775771930E+01 -0.37680980199E+01  0.21326668086E+01  0.17125813266E+03  0.17120000000E+03 0.  0.
        998    1    1    2    0    0  0.17232102797E+02  0.11940725602E+01  0.14104158502E+04  0.14105570678E+04  0.10000000000E+02 0.  1.
</event>
<event>
 5    1  0.1658612E-008  0.3847518E+03  0.7957747E-01  0.3430725E+00
         13   -1    0    0    0    0  0.00000000000E+00  0.00000000000E+00  0.14999999963E+04  0.15000000000E+04  0.10566000000E+00 0. -1.
        994   -1    0    0    0    0 -0.00000000000E+00 -0.00000000000E+00  0.11368683772E-12  0.17120000000E+03  0.17120000000E+03 0.  0.
         13    1    1    2    0    0  0.11799131998E+02  0.62595671015E+01  0.53202756476E+02  0.54853861823E+02  0.10566000000E+00 0. -1.
        994    1    1    2    0    0 -0.23318136921E+01  0.36634476035E+01  0.18154771086E+01  0.17126469035E+03  0.17120000000E+03 0.  0.
        998    1    1    2    0    0 -0.94673183057E+01 -0.99230147050E+01  0.14449817627E+04  0.14450814478E+04  0.10000000000E+02 0. -1.
</event>
<event>
 5    1  0.1658612E-008  0.3820755E+03  0.7957747E-01  0.3442171E+00
         13   -1    0    0    0    0  0.00000000000E+00  0.00000000000E+00  0.14999999963E+04  0.15000000000E+04  0.10566000000E+00 0. -1.
        994   -1    0    0    0    0 -0.00000000000E+00 -0.00000000000E+00  0.11368683772E-12  0.17120000000E+03  0.17120000000E+03 0.  0.
         13    1    1    2    0    0 -0.18471551315E+02 -0.37124182871E+02  0.21980027539E+03  0.22367739132E+03  0.10566000000E+00 0. -1.
        994    1    1    2    0    0  0.21089416471E+02  0.46537842452E+02  0.11805389970E+02  0.17905122591E+03  0.17120000000E+03 0.  0.
        998    1    1    2    0    0 -0.26178651565E+01 -0.94136595808E+01  0.12683943309E+04  0.12684713828E+04  0.10000000000E+02 0. -1.
</event>
<event>
 5    1  0.1658612E-008  0.3773398E+03  0.7957747E-01  0.3462824E+00
         13   -1    0    0    0    0  0.00000000000E+00  0.00000000000E+00  0.14999999963E+04  0.15000000000E+04  0.10566000000E+00 0. -1.
        994   -1    0    0    0    0 -0.00000000000E+00 -0.00000000000E+00  0.11368683772E-12  0.17120000000E+03  0.17120000000E+03 0.  0.
         13    1    1    2    0    0  0.95481153281E+01  0.13212998899E+02  0.21620762466E+02  0.27078005463E+02  0.10566000000E+00 0. -1.
        994    1    1    2    0    0 -0.88635049783E+01 -0.14258132153E+02  0.64331972602E+01  0.17214145950E+03  0.17120000000E+03 0.  0.
        998    1    1    2    0    0 -0.68461034982E+00  0.10451332545E+01  0.14719460366E+04  0.14719805350E+04  0.10000000000E+02 0. -1.
</event>
<event>
 5    1  0.1658612E-008  0.3828678E+03  0.7957747E-01  0.3438766E+00
         13   -1    0    0    0    0  0.00000000000E+00  0.00000000000E+00  0.14999999963E+04  0.15000000000E+04  0.10566000000E+00 0.  1.
        994   -1    0    0    0    0 -0.00000000000E+00 -0.00000000000E+00  0.11368683772E-12  0.17120000000E+03  0.17120000000E+03 0.  0.
         13    1    1    2    0    0  0.13110228182E+02 -0.12128179802E+02  0.59307537009E+02  0.61938404390E+02  0.10566000000E+00 0.  1.
        994    1    1    2    0    0 -0.60774218859E+00  0.11972154277E+02  0.31684421578E+01  0.17164842223E+03  0.17120000000E+03 0.  0.
        998    1    1    2    0    0 -0.12502485993E+02  0.15602552504E+00  0.14375240171E+04  0.14376131734E+04  0.10000000000E+02 0.  1.
</event>
<event>
 5    1  0.1658612E-008  0.2751131E+03  0.7957747E-01  0.4091446E+00
         13   -1    0    0    0    0  0.00000000000E+00  0.00000000000E+00  0.14999999963E+04  0.15000000000E+04  0.10566000000E+00 0.  1.
        994   -1    0    0    0    0 -0.00000000000E+00 -0.00000000000E+00  0.11368683772E-12  0.17120000000E+03  0.17120000000E+03 0.  0.
         13    1    1    2    0    0 -0.17749740353E+03  0.25908495555E+02  0.40846867578E+03  0.44612021772E+03  0.10566000000E+00 0.  1.
        994    1    1    2    0    0  0.21020375405E+03 -0.36819019834E+02  0.21538249069E+03  0.34819580085E+03  0.17120000000E+03 0.  0.
        998    1    1    2    0    0 -0.32706350515E+02  0.10910524279E+02  0.87614882981E+03  0.87688398143E+03  0.10000000000E+02 0.  1.
</event>
<event>
 5    1  0.1658612E-008  0.3791584E+03  0.7957747E-01  0.3454831E+00
         13   -1    0    0    0    0  0.00000000000E+00  0.00000000000E+00  0.14999999963E+04  0.15000000000E+04  0.10566000000E+00 0.  1.
        994   -1    0    0    0    0 -0.00000000000E+00 -0.00000000000E+00  0.11368683772E-12  0.17120000000E+03  0.17120000000E+03 0.  0.
         13    1    1    2    0    0 -0.26106100974E+01  0.12235347009E+02  0.15006702976E+02  0.19537945126E+02  0.10566000000E+00 0.  1.
        994    1    1    2    0    0 -0.86003123239E-01 -0.14393194213E+02  0.52533479755E+01  0.17188428986E+03  0.17120000000E+03 0.  0.
        998    1    1    2    0    0  0.26966132206E+01  0.21578472038E+01  0.14797399453E+04  0.14797777650E+04  0.10000000000E+02 0.  1.
</event>
<event>
 5    1  0.1658612E-008  0.3802914E+03  0.7957747E-01  0.3449891E+00
         13   -1    0    0    0    0  0.00000000000E+00  0.00000000000E+00  0.14999999963E+04  0.15000000000E+04  0.10566000000E+00 0.  1.
        994   -1    0    0    0    0 -0.00000000000E+00 -0.00000000000E+00  0.11368683772E-12  0.17120000000E+03  0.17120000000E+03 0.  0.
         13    1    1    2    0    0  0.51439488740E+02 -0.15080783344E+02  0.29922490533E+03  0.30398849676E+03  0.10566000000E+00 0.  1.
        994    1    1    2    0    0 -0.48065997615E+02  0.14859434754E+02  0.12486087348E+02  0.17887561406E+03  0.17120000000E+03 0.  0.
        998    1    1    2    0    0 -0.33734911247E+01  0.22134858947E+00  0.11882890036E+04  0.11883358892E+04  0.10000000000E+02 0.  1.
</event>
<event>
 5    1  0.1658612E-008  0.3791938E+03  0.7957747E-01  0.3454676E+00
         13   -1    0    0    0    0  0.00000000000E+00  0.00000000000E+00  0.14999999963E+04  0.15000000000E+04  0.10566000000E+00 0. -1.
        994   -1    0    0    0    0 -0.00000000000E+00 -0.00000000000E+00  0.11368683772E-12  0.17120000000E+03  0.17120000000E+03 0.  0.
         13    1    1    2    0    0  0.77373372208E+01  0.71250600324E+02  0.42040798780E+03  0.42647321346E+03  0.10566000000E+00 0. -1.
        994    1    1    2    0    0  0.83536522941E+01 -0.70592469008E+02  0.21668495064E+02  0.18663344787E+03  0.17120000000E+03 0.  0.
        998    1    1    2    0    0 -0.16090989515E+02 -0.65813131608E+00  0.10579235134E+04  0.10580933387E+04  0.10000000000E+02 0. -1.
</event>
<event>
 5    1  0.1658612E-008  0.3861028E+03  0.7957747E-01  0.3425009E+00
         13   -1    0    0    0    0  0.00000000000E+00  0.00000000000E+00  0.14999999963E+04  0.15000000000E+04  0.10566000000E+00 0. -1.
        994   -1    0    0    0    0 -0.00000000000E+00 -0.00000000000E+00  0.11368683772E-12  0.17120000000E+03  0.17120000000E+03 0.  0.
         13    1    1    2    0    0 -0.12908329189E+02  0.80708131697E+00  0.74762202733E+02  0.75872751790E+02  0.10566000000E+00 0. -1.
        994    1    1    2    0    0  0.13913502586E+02 -0.19846981102E+01  0.17311482419E+01  0.17178463684E+03  0.17120000000E+03 0.  0.
        998    1    1    2    0    0 -0.10051733970E+01  0.11776167932E+01  0.14235066453E+04  0.14235426114E+04  0.10000000000E+02 0. -1.
</event>
<event>
 5    1  0.1658612E-008  0.3840536E+03  0.7957747E-01  0.3433696E+00
         13   -1    0    0    0    0  0.00000000000E+00  0.00000000000E+00  0.14999999963E+04  0.15000000000E+04  0.10566000000E+00 0. -1.
        994   -1    0    0    0    0 -0.00000000000E+00 -0.00000000000E+00  0.11368683772E-12  0.17120000000E+03  0.17120000000E+03 0.  0.
         13    1    1    2    0    0 -0.11283820305E+01  0.22068080527E+02  0.10218934953E+03  0.10455117286E+03  0.10566000000E+00 0. -1.
        994    1    1    2    0    0  0.11361027281E+02 -0.31472863490E+02  0.58028635924E+01  0.17453574792E+03  0.17120000000E+03 0.  0.
        998    1    1    2    0    0 -0.10232645250E+02  0.94047829629E+01  0.13920077832E+04  0.13921130792E+04  0.10000000000E+02 0. -1.
</event>
<event>
 5    1  0.1658612E-008  0.3837590E+03  0.7957747E-01  0.3434952E+00
         13   -1    0    0    0    0  0.00000000000E+00  0.00000000000E+00  0.14999999963E+04  0.15000000000E+04  0.10566000000E+00 0.  1.
        994   -1    0    0    0    0 -0.00000000000E+00 -0.00000000000E+00  0.11368683772E-12  0.17120000000E+03  0.17120000000E+03 0.  0.
         13    1    1    2    0    0  0.95244340392E+01 -0.15385582907E+02  0.79432901476E+02  0.81467956929E+02  0.10566000000E+00 0.  1.
        994    1    1    2    0    0  0.10694936772E+02  0.24477014512E+01  0.26450698935E+01  0.17157158655E+03  0.17120000000E+03 0.  0.
        998    1    1    2    0    0 -0.20219370811E+02  0.12937881455E+02  0.14179220249E+04  0.14181604565E+04  0.10000000000E+02 0.  1.
</event>
<event>
 5    1  0.1658612E-008  0.3812990E+03  0.7957747E-01  0.3445522E+00
         13   -1    0    0    0    0  0.00000000000E+00  0.00000000000E+00  0.14999999963E+04  0.15000000000E+04  0.10566000000E+00 0. -1.
        994   -1    0    0    0    0 -0.00000000000E+00 -0.00000000000E+00  0.11368683772E-12  0.17120000000E+03  0.17120000000E+03 0.  0.
         13    1    1    2    0    0 -0.13991757612E+02  0.82336744274E+01  0.36397979661E+02  0.39854570165E+02  0.10566000000E+00 0. -1.
        994    1    1    2    0    0  0.72629334291E+01 -0.12105557383E+02  0.41424997388E+01  0.17183100717E+03  0.17120000000E+03 0.  0.
        998    1    1    2    0    0  0.67288241824E+01  0.38718829558E+01  0.14594595169E+04  0.14595144227E+04  0.10000000000E+02 0. -1.
</event>
<event>
 5    1  0.1658612E-008  0.3703641E+03  0.7957747E-01  0.3494219E+00
         13   -1    0    0    0    0  0.00000000000E+00  0.00000000000E+00  0.14999999963E+04  0.15000000000E+04  0.10566000000E+00 0. -1.
        994   -1    0    0    0    0 -0.00000000000E+00 -0.00000000000E+00  0.11368683772E-12  0.17120000000E+03  0.17120000000E+03 0.  0.
         13    1    1    2    0    0  0.22033783242E+02 -0.55466229286E+02  0.17085797220E+03  0.18098189972E+03  0.10566000000E+00 0. -1.
        994    1    1    2    0    0 -0.12645163232E+02  0.12804237186E+02  0.12265848132E+02  0.17257966182E+03  0.17120000000E+03 0.  0.
        998    1    1    2    0    0 -0.93886200103E+01  0.42661992100E+02  0.13168761759E+04  0.13176384385E+04  0.10000000000E+02 0. -1.
</event>
<event>
 5    1  0.1658612E-008  0.3850473E+03  0.7957747E-01  0.3429472E+00
         13   -1    0    0    0    0  0.00000000000E+00  0.00000000000E+00  0.14999999963E+04  0.15000000000E+04  0.10566000000E+00 0.  1.
        994   -1    0    0    0    0 -0.00000000000E+00 -0.00000000000E+00  0.11368683772E-12  0.17120000000E+03  0.17120000000E+03 0.  0.
         13    1    1    2    0    0  0.14057658563E+02  0.58057115717E+01  0.74763850313E+02  0.76295271994E+02  0.10566000000E+00 0.  1.
        994    1    1    2    0    0 -0.94852918178E+01  0.10336064542E+02  0.22540560583E+01  0.17178860777E+03  0.17120000000E+03 0.  0.
        998    1    1    2    0    0 -0.45723667449E+01 -0.16141776114E+02  0.14229820899E+04  0.14231161202E+04  0.10000000000E+02 0.  1.
</event>
<event>
 5    1  0.1658612E-008  0.3846668E+03  0.7957747E-01  0.3431087E+00
         13   -1    0    0    0    0  0.00000000000E+00  0.00000000000E+00  0.14999999963E+04  0.15000000000E+04  0.10566000000E+00 0.  1.
        994   -1    0    0    0    0 -0.00000000000E+00 -0.00000000000E+00  0.11368683772E-12  0.17120000000E+03  0.17120000000E+03 0.  0.
         13    1    1    2    0    0 -0.12398008768E+02 -0.15328727302E+02  0.11274872670E+03  0.11445945587E+03  0.10566000000E+00 0.  1.
        994    1    1    2    0    0  0.53709194939E+01  0.48823389559E+01  0.19691388626E+01  0.17136511173E+03  0.17120000000E+03 0.  0.
        998    1    1    2    0    0  0.70270892744E+01  0.10446388346E+02  0.13852821307E+04  0.13853754324E+04  0.10000000000E+02 0.  1.
</event>
<event>
 5    1  0.1658612E-008  0.2367988E+03  0.7957747E-01  0.4484941E+00
         13   -1    0    0    0    0  0.00000000000E+00  0.00000000000E+00  0.14999999963E+04  0.15000000000E+04  0.10566000000E+00 0.  1.
        994   -1    0    0    0    0 -0.00000000000E+00 -0.00000000000E+00  0.11368683772E-12  0.17120000000E+03  0.17120000000E+03 0.  0.
         13    1    1    2    0    0  0.16515711163E+03 -0.64844069788E+02  0.38862495536E+03  0.42721305224E+03  0.10566000000E+00 0.  1.
        994    1    1    2    0    0 -0.26151644776E+02  0.81082765845E+02  0.87069121158E+02  0.21011614717E+03  0.17120000000E+03 0.  0.
        998    1    1    2    0    0 -0.13900546686E+03 -0.16238696057E+02  0.10243059198E+04  0.10338708006E+04  0.10000000000E+02 0.  1.
</event>
<event>
 5    1  0.1658612E-008  0.3795338E+03  0.7957747E-01  0.3453191E+00
         13   -1    0    0    0    0  0.00000000000E+00  0.00000000000E+00  0.14999999963E+04  0.15000000000E+04  0.10566000000E+00 0.  1.
        994   -1    0    0    0    0 -0.00000000000E+00 -0.00000000000E+00  0.11368683772E-12  0.17120000000E+03  0.17120000000E+03 0.  0.
         13    1    1    2    0    0 -0.27643439300E+02  0.91190724429E+01  0.92698941319E+02  0.97161834607E+02  0.10566000000E+00 0.  1.
        994    1    1    2    0    0  0.21764109508E+02 -0.10202461829E+02  0.63054525567E+01  0.17299411962E+03  0.17120000000E+03 0.  0.
        998    1    1    2    0    0  0.58793297918E+01  0.10833893859E+01  0.14009956024E+04  0.14010440458E+04  0.10000000000E+02 0.  0.
</event>
<event>
 5    1  0.2042389E-008  0.3852461E+03  0.7957747E-01  0.3428629E+00
         13   -1    0    0    0    0  0.00000000000E+00  0.00000000000E+00  0.14999999963E+04  0.15000000000E+04  0.10566000000E+00 0.  1.
        994   -1    0    0    0    0 -0.00000000000E+00 -0.00000000000E+00  0.11368683772E-12  0.17120000000E+03  0.17120000000E+03 0.  0.
         13    1    1    2    0    0  0.45402674028E+01  0.10083182289E+02  0.40599552945E+02  0.42078729264E+02  0.10566000000E+00 0.  1.
        994    1    1    2    0    0 -0.15774909025E+01 -0.71503760590E+01  0.16842284896E+01  0.17136479505E+03  0.17120000000E+03 0.  0.
        998    1    1    2    0    0 -0.29627765004E+01 -0.29328062296E+01  0.14577162148E+04  0.14577564757E+04  0.10000000000E+02 0.  1.
</event>
<event>
 5    1  0.1658612E-008  0.3801042E+03  0.7957747E-01  0.3450705E+00
         13   -1    0    0    0    0  0.00000000000E+00  0.00000000000E+00  0.14999999963E+04  0.15000000000E+04  0.10566000000E+00 0.  1.
        994   -1    0    0    0    0 -0.00000000000E+00 -0.00000000000E+00  0.11368683772E-12  0.17120000000E+03  0.17120000000E+03 0.  0.
         13    1    1    2    0    0  0.14516159124E+02  0.45199964900E+02  0.22919423840E+03  0.23405932107E+03  0.10566000000E+00 0.  1.
        994    1    1    2    0    0 -0.14895330186E+02 -0.48212494262E+02  0.12637104495E+02  0.17892862229E+03  0.17120000000E+03 0.  0.
        998    1    1    2    0    0  0.37917106230E+00  0.30125293627E+01  0.12581686534E+04  0.12582120566E+04  0.10000000000E+02 0.  0.
</event>
<event>
 5    1  0.1658612E-008  0.3761238E+03  0.7957747E-01  0.3468212E+00
         13   -1    0    0    0    0  0.00000000000E+00  0.00000000000E+00  0.14999999963E+04  0.15000000000E+04  0.10566000000E+00 0. -1.
        994   -1    0    0    0    0 -0.00000000000E+00 -0.00000000000E+00  0.11368683772E-12  0.17120000000E+03  0.17120000000E+03 0.  0.
         13    1    1    2    0    0  0.33538741198E+02 -0.15572852379E+01  0.85881248681E+02  0.92211020694E+02  0.10566000000E+00 0. -1.
        994    1    1    2    0    0 -0.32858108404E+02 -0.27320062633E+01  0.97929965453E+01  0.17462090919E+03  0.17120000000E+03 0.  0.
        998    1    1    2    0    0 -0.68063279410E+00  0.42892915012E+01  0.14043257511E+04  0.14043680701E+04  0.10000000000E+02 0. -1.
</event>
<event>
 5    1  0.1658612E-008  0.3814438E+03  0.7957747E-01  0.3444896E+00
         13   -1    0    0    0    0  0.00000000000E+00  0.00000000000E+00  0.14999999963E+04  0.15000000000E+04  0.10566000000E+00 0.  1.
        994   -1    0    0    0    0 -0.00000000000E+00 -0.00000000000E+00  0.11368683772E-12  0.17120000000E+03  0.17120000000E+03 0.  0.
         13    1    1    2    0    0 -0.21328987301E+00 -0.20834068349E+02  0.61710978725E+02  0.65133401230E+02  0.10566000000E+00 0.  1.
        994    1    1    2    0    0  0.33604869449E+01  0.16387530160E+02  0.43376768836E+01  0.17207004230E+03  0.17120000000E+03 0.  0.
        998    1    1    2    0    0 -0.31471970719E+01  0.44465381898E+01  0.14339513407E+04  0.14339965565E+04  0.10000000000E+02 0.  1.
</event>
<event>
 5    1  0.1658612E-008  0.3733686E+03  0.7957747E-01  0.3480551E+00
         13   -1    0    0    0    0  0.00000000000E+00  0.00000000000E+00  0.14999999963E+04  0.15000000000E+04  0.10566000000E+00 0.  1.
        994   -1    0    0    0    0 -0.00000000000E+00 -0.00000000000E+00  0.11368683772E-12  0.17120000000E+03  0.17120000000E+03 0.  0.
         13    1    1    2    0    0 -0.83984594070E+02 -0.44500043401E+02  0.43241414591E+03  0.44273657027E+03  0.10566000000E+00 0.  1.
        994    1    1    2    0    0  0.41139690199E+02 -0.15542940157E+02  0.19604876473E+02  0.17784220050E+03  0.17120000000E+03 0.  0.
        998    1    1    2    0    0  0.42844903871E+02  0.60042983558E+02  0.10479809739E+04  0.10506212292E+04  0.10000000000E+02 0.  1.
</event>
<event>
 5    1  0.1658612E-008  0.3840010E+03  0.7957747E-01  0.3433920E+00
         13   -1    0    0    0    0  0.00000000000E+00  0.00000000000E+00  0.14999999963E+04  0.15000000000E+04  0.10566000000E+00 0. -1.
        994   -1    0    0    0    0 -0.00000000000E+00 -0.00000000000E+00  0.11368683772E-12  0.17120000000E+03  0.17120000000E+03 0.  0.
         13    1    1    2    0    0  0.16373492375E+02 -0.30992317649E+00  0.61702338762E+02  0.63838680106E+02  0.10566000000E+00 0. -1.
        994    1    1    2    0    0 -0.13282497678E+02  0.94943305152E+01  0.30069345203E+01  0.17200304855E+03  0.17120000000E+03 0.  0.
        998    1    1    2    0    0 -0.30909946969E+01 -0.91844073387E+01  0.14352907230E+04  0.14353582713E+04  0.10000000000E+02 0. -1.
</event>
<event>
 5    1  0.1658612E-008  0.3716700E+03  0.7957747E-01  0.3488251E+00
         13   -1    0    0    0    0  0.00000000000E+00  0.00000000000E+00  0.14999999963E+04  0.15000000000E+04  0.10566000000E+00 0.  1.
        994   -1    0    0    0    0 -0.00000000000E+00 -0.00000000000E+00  0.11368683772E-12  0.17120000000E+03  0.17120000000E+03 0.  0.
         13    1    1    2    0    0 -0.39235053755E+01 -0.11565054323E+02  0.85813402427E+00  0.12243036141E+02  0.10566000000E+00 0.  1.
        994    1    1    2    0    0 -0.23878089360E+02  0.12530192865E+02  0.14385912944E+02  0.17390676633E+03  0.17120000000E+03 0.  0.
        998    1    1    2    0    0  0.27801594735E+02 -0.96513854229E+00  0.14847559493E+04  0.14850501975E+04  0.10000000000E+02 0.  1.
</event>
<event>
 5    1  0.1658612E-008  0.3823621E+03  0.7957747E-01  0.3440938E+00
         13   -1    0    0    0    0  0.00000000000E+00  0.00000000000E+00  0.14999999963E+04  0.15000000000E+04  0.10566000000E+00 0. -1.
        994   -1    0    0    0    0 -0.00000000000E+00 -0.00000000000E+00  0.11368683772E-12  0.17120000000E+03  0.17120000000E+03 0.  0.
         13    1    1    2    0    0  0.26418946743E+02 -0.12096455773E+02  0.13855019921E+03  0.14156430996E+03  0.10566000000E+00 0. -1.
        994    1    1    2    0    0 -0.16900480938E+02  0.14206624116E+02  0.45640778833E+01  0.17267809714E+03  0.17120000000E+03 0.  0.
        998    1    1    2    0    0 -0.95184658046E+01 -0.21101683432E+01  0.13568857192E+04  0.13569575929E+04  0.10000000000E+02 0. -1.
</event>
<event>
 5    1  0.1658612E-008  0.3697941E+03  0.7957747E-01  0.3496838E+00
         13   -1    0    0    0    0  0.00000000000E+00  0.00000000000E+00  0.14999999963E+04  0.15000000000E+04  0.10566000000E+00 0.  1.
        994   -1    0    0    0    0 -0.00000000000E+00 -0.00000000000E+00  0.11368683772E-12  0.17120000000E+03  0.17120000000E+03 0.  0.
         13    1    1    2    0    0 -0.11393076486E+02 -0.28035409250E+02  0.46310870600E+02  0.55321734096E+02  0.10566000000E+00 0.  1.
        994    1    1    2    0    0  0.25988358584E+02  0.16440477798E+01  0.11726563680E+02  0.17356569353E+03  0.17120000000E+03 0.  0.
        998    1    1    2    0    0 -0.14595282098E+02  0.26391361471E+02  0.14419625620E+04  0.14423125724E+04  0.10000000000E+02 0.  1.
</event>
<event>
 5    1  0.1658612E-008  0.3859243E+03  0.7957747E-01  0.3425762E+00
         13   -1    0    0    0    0  0.00000000000E+00  0.00000000000E+00  0.14999999963E+04  0.15000000000E+04  0.10566000000E+00 0. -1.
        994   -1    0    0    0    0 -0.00000000000E+00 -0.00000000000E+00  0.11368683772E-12  0.17120000000E+03  0.17120000000E+03 0.  0.
         13    1    1    2    0    0 -0.60209741440E+01  0.12936586417E+02  0.83526547787E+02  0.84736667075E+02  0.10566000000E+00 0. -1.
        994    1    1    2    0    0  0.43857428921E+01 -0.14758778031E+02  0.19495801448E+01  0.17190199863E+03  0.17120000000E+03 0.  0.
        998    1    1    2    0    0  0.16352312519E+01  0.18221916137E+01  0.14145238683E+04  0.14145613343E+04  0.10000000000E+02 0. -1.
</event>
<event>
 5    1  0.1658612E-008  0.3817682E+03  0.7957747E-01  0.3443495E+00
         13   -1    0    0    0    0  0.00000000000E+00  0.00000000000E+00  0.14999999963E+04  0.15000000000E+04  0.10566000000E+00 0.  1.
        994   -1    0    0    0    0 -0.00000000000E+00 -0.00000000000E+00  0.11368683772E-12  0.17120000000E+03  0.17120000000E+03 0.  0.
         13    1    1    2    0    0 -0.11741499800E+02  0.48631219119E+00  0.19953495805E+02  0.23157125815E+02  0.10566000000E+00 0.  1.
        994    1    1    2    0    0  0.89306328856E+01 -0.17823190490E+01  0.35188818036E+01  0.17147814844E+03  0.17120000000E+03 0.  0.
        998    1    1    2    0    0  0.28108669146E+01  0.12960068578E+01  0.14765276187E+04  0.14765647257E+04  0.10000000000E+02 0.  1.
</event>
<event>
 5    1  0.1658612E-008  0.3833776E+03  0.7957747E-01  0.3436582E+00
         13   -1    0    0    0    0  0.00000000000E+00  0.00000000000E+00  0.14999999963E+04  0.15000000000E+04  0.10566000000E+00 0. -1.
        994   -1    0    0    0    0 -0.00000000000E+00 -0.00000000000E+00  0.11368683772E-12  0.17120000000E+03  0.17120000000E+03 0.  0.
         13    1    1    2    0    0 -0.21659349250E+02 -0.16152917601E+02  0.14597116485E+03  0.14845078743E+03  0.10566000000E+00 0. -1.
        994    1    1    2    0    0  0.73490986856E+01  0.22220899543E+02  0.42508449179E+01  0.17284469130E+03  0.17120000000E+03 0.  0.
        998    1    1    2    0    0  0.14310250565E+02 -0.60679819426E+01  0.13497779865E+04  0.13499045213E+04  0.10000000000E+02 0. -1.
</event>
<event>
 5    1  0.1658612E-008  0.3857066E+03  0.7957747E-01  0.3426681E+00
         13   -1    0    0    0    0  0.00000000000E+00  0.00000000000E+00  0.14999999963E+04  0.15000000000E+04  0.10566000000E+00 0.  1.
        994   -1    0    0    0    0 -0.00000000000E+00 -0.00000000000E+00  0.11368683772E-12  0.17120000000E+03  0.17120000000E+03 0.  0.
         13    1    1    2    0    0  0.12099587819E+02  0.86058316394E+00  0.61310763718E+02  0.62499292320E+02  0.10566000000E+00 0.  1.
        994    1    1    2    0    0 -0.36149453583E+00  0.53164057593E+01  0.13729234568E+01  0.17128841107E+03  0.17120000000E+03 0.  0.
        998    1    1    2    0    0 -0.11738093283E+02 -0.61769889232E+01  0.14373163091E+04  0.14374122966E+04  0.10000000000E+02 0.  1.
</event>
<event>
 5    1  0.1658612E-008  0.3706659E+03  0.7957747E-01  0.3492836E+00
         13   -1    0    0    0    0  0.00000000000E+00  0.00000000000E+00  0.14999999963E+04  0.15000000000E+04  0.10566000000E+00 0.  1.
        994   -1    0    0    0    0 -0.00000000000E+00 -0.00000000000E+00  0.11368683772E-12  0.17120000000E+03  0.17120000000E+03 0.  0.
         13    1    1    2    0    0  0.36774278829E+02 -0.29312394848E+01  0.72316276469E+02  0.81182478126E+02  0.10566000000E+00 0.  1.
        994    1    1    2    0    0 -0.26097170176E+02  0.70049801054E+01  0.11444308853E+02  0.17369670188E+03  0.17120000000E+03 0.  0.
        998    1    1    2    0    0 -0.10677108653E+02 -0.40737406206E+01  0.14162394110E+04  0.14163208200E+04  0.10000000000E+02 0.  1.
</event>
<event>
 5    1  0.1658612E-008  0.3856806E+03  0.7957747E-01  0.3426791E+00
         13   -1    0    0    0    0  0.00000000000E+00  0.00000000000E+00  0.14999999963E+04  0.15000000000E+04  0.10566000000E+00 0. -1.
        994   -1    0    0    0    0 -0.00000000000E+00 -0.00000000000E+00  0.11368683772E-12  0.17120000000E+03  0.17120000000E+03 0.  0.
         13    1    1    2    0    0  0.62530129340E+01 -0.10384479341E+02  0.57033769409E+02  0.58307800499E+02  0.10566000000E+00 0. -1.
        994    1    1    2    0    0 -0.13510263013E+02  0.21324303890E+01  0.19067000925E+01  0.17175607696E+03  0.17120000000E+03 0.  0.
        998    1    1    2    0    0  0.72572500793E+01  0.82520489517E+01  0.14410595268E+04  0.14411361225E+04  0.10000000000E+02 0. -1.
</event>
<event>
 5    1  0.1658612E-008  0.3764491E+03  0.7957747E-01  0.3466767E+00
         13   -1    0    0    0    0  0.00000000000E+00  0.00000000000E+00  0.14999999963E+04  0.15000000000E+04  0.10566000000E+00 0. -1.
        994   -1    0    0    0    0 -0.00000000000E+00 -0.00000000000E+00  0.11368683772E-12  0.17120000000E+03  0.17120000000E+03 0.  0.
         13    1    1    2    0    0 -0.58246051035E+02 -0.36236118434E+02  0.32187124493E+03  0.32909993652E+03  0.10566000000E+00 0. -1.
        994    1    1    2    0    0  0.49261115619E+02  0.42877870969E+02  0.20503089788E+02  0.18437729259E+03  0.17120000000E+03 0.  0.
        998    1    1    2    0    0  0.89849354161E+01 -0.66417525344E+01  0.11576256616E+04  0.11577227709E+04  0.10000000000E+02 0. -1.
</event>
<event>
 5    1  0.1658612E-008  0.3847176E+03  0.7957747E-01  0.3430871E+00
         13   -1    0    0    0    0  0.00000000000E+00  0.00000000000E+00  0.14999999963E+04  0.15000000000E+04  0.10566000000E+00 0. -1.
        994   -1    0    0    0    0 -0.00000000000E+00 -0.00000000000E+00  0.11368683772E-12  0.17120000000E+03  0.17120000000E+03 0.  0.
         13    1    1    2    0    0 -0.13308035818E+01 -0.11129887833E+02  0.34894382439E+02  0.36650709832E+02  0.10566000000E+00 0. -1.
        994    1    1    2    0    0  0.14514228564E+01  0.93668114940E+01  0.20662084202E+01  0.17147464245E+03  0.17120000000E+03 0.  0.
        998    1    1    2    0    0 -0.12061927459E+00  0.17630763392E+01  0.14630394054E+04  0.14630746477E+04  0.10000000000E+02 0. -1.
</event>
<event>
 5    1  0.1658612E-008  0.3794089E+03  0.7957747E-01  0.3453737E+00
         13   -1    0    0    0    0  0.00000000000E+00  0.00000000000E+00  0.14999999963E+04  0.15000000000E+04  0.10566000000E+00 0. -1.
        994   -1    0    0    0    0 -0.00000000000E+00 -0.00000000000E+00  0.11368683772E-12  0.17120000000E+03  0.17120000000E+03 0.  0.
         13    1    1    2    0    0 -0.23732448595E+02  0.23400219531E+02  0.27434515971E+02  0.43167849390E+02  0.10566000000E+00 0. -1.
        994    1    1    2    0    0  0.26046336166E+02 -0.26672644189E+02  0.21044729248E+02  0.17647142036E+03  0.17120000000E+03 0.  0.
        998    1    1    2    0    0 -0.23138875718E+01  0.32724246578E+01  0.14515207511E+04  0.14515607302E+04  0.10000000000E+02 0. -1.
</event>
<event>
 5    1  0.1658612E-008  0.3846676E+03  0.7957747E-01  0.3431083E+00
         13   -1    0    0    0    0  0.00000000000E+00  0.00000000000E+00  0.14999999963E+04  0.15000000000E+04  0.10566000000E+00 0.  1.
        994   -1    0    0    0    0 -0.00000000000E+00 -0.00000000000E+00  0.11368683772E-12  0.17120000000E+03  0.17120000000E+03 0.  0.
         13    1    1    2    0    0 -0.10287551968E+02 -0.25515799291E+01  0.33145526305E+02  0.34799157514E+02  0.10566000000E+00 0.  1.
        994    1    1    2    0    0 -0.72743250832E+01 -0.48030537469E+01  0.20454716554E+01  0.17143397879E+03  0.17120000000E+03 0.  0.
        998    1    1    2    0    0  0.17561877051E+02  0.73546336759E+01  0.14648089983E+04  0.14649668637E+04  0.10000000000E+02 0.  1.
</event>
<event>
 5    1  0.1658612E-008  0.3806339E+03  0.7957747E-01  0.3448403E+00
         13   -1    0    0    0    0  0.00000000000E+00  0.00000000000E+00  0.14999999963E+04  0.15000000000E+04  0.10566000000E+00 0.  1.
        994   -1    0    0    0    0 -0.00000000000E+00 -0.00000000000E+00  0.11368683772E-12  0.17120000000E+03  0.17120000000E+03 0.  0.
         13    1    1    2    0    0  0.11695957115E+02  0.20606663896E+02  0.69334555282E+02  0.73271561536E+02  0.10566000000E+00 0.  1.
        994    1    1    2    0    0 -0.71677874953E+01 -0.23831602747E+02  0.58822269150E+01  0.17309928671E+03  0.17120000000E+03 0.  0.
        998    1    1    2    0    0 -0.45281696194E+01  0.32249388513E+01  0.14247832141E+04  0.14248291518E+04  0.10000000000E+02 0.  1.
</event>
<event>
 5    1  0.1658612E-008  0.3814903E+03  0.7957747E-01  0.3444695E+00
         13   -1    0    0    0    0  0.00000000000E+00  0.00000000000E+00  0.14999999963E+04  0.15000000000E+04  0.10566000000E+00 0.  1.
        994   -1    0    0    0    0 -0.00000000000E+00 -0.00000000000E+00  0.11368683772E-12  0.17120000000E+03  0.17120000000E+03 0.  0.
         13    1    1    2    0    0  0.17511557385E+02  0.27816615240E+02  0.16982450577E+03  0.17297627770E+03  0.10566000000E+00 0.  1.
        994    1    1    2    0    0 -0.12754065632E+02 -0.40783744867E+01  0.39793871578E+01  0.17176895776E+03  0.17120000000E+03 0.  0.
        998    1    1    2    0    0 -0.47574917526E+01 -0.23738240753E+02  0.13261961034E+04  0.13264547645E+04  0.10000000000E+02 0.  1.
</event>
<event>
 5    1  0.1658612E-008  0.3809262E+03  0.7957747E-01  0.3447135E+00
         13   -1    0    0    0    0  0.00000000000E+00  0.00000000000E+00  0.14999999963E+04  0.15000000000E+04  0.10566000000E+00 0. -1.
        994   -1    0    0    0    0 -0.00000000000E+00 -0.00000000000E+00  0.11368683772E-12  0.17120000000E+03  0.17120000000E+03 0.  0.
         13    1    1    2    0    0  0.25455965018E+02 -0.23746166227E+02  0.17719883070E+03  0.18058605519E+03  0.10566000000E+00 0. -1.
        994    1    1    2    0    0 -0.27447148988E+01  0.11660072649E+02  0.41446744958E+01  0.17166860249E+03  0.17120000000E+03 0.  0.
        998    1    1    2    0    0 -0.22711250119E+02  0.12086093579E+02  0.13186564911E+04  0.13189453423E+04  0.10000000000E+02 0. -1.
</event>
<event>
 5    1  0.1658612E-008  0.3845516E+03  0.7957747E-01  0.3431576E+00
         13   -1    0    0    0    0  0.00000000000E+00  0.00000000000E+00  0.14999999963E+04  0.15000000000E+04  0.10566000000E+00 0. -1.
        994   -1    0    0    0    0 -0.00000000000E+00 -0.00000000000E+00  0.11368683772E-12  0.17120000000E+03  0.17120000000E+03 0.  0.
         13    1    1    2    0    0 -0.16724823448E+02  0.84733983578E+01  0.89100751889E+02  0.91052036498E+02  0.10566000000E+00 0. -1.
        994    1    1    2    0    0  0.18893624975E+02 -0.86112871178E+01  0.32740808745E+01  0.17248560211E+03  0.17120000000E+03 0.  0.
        998    1    1    2    0    0 -0.21688015273E+01  0.13788875998E+00  0.14076251635E+04  0.14076623614E+04  0.10000000000E+02 0. -1.
</event>
<event>
 5    1  0.1658612E-008  0.3799645E+03  0.7957747E-01  0.3451313E+00
         13   -1    0    0    0    0  0.00000000000E+00  0.00000000000E+00  0.14999999963E+04  0.15000000000E+04  0.10566000000E+00 0. -1.
        994   -1    0    0    0    0 -0.00000000000E+00 -0.00000000000E+00  0.11368683772E-12  0.17120000000E+03  0.17120000000E+03 0.  0.
         13    1    1    2    0    0 -0.19196323606E+02  0.11983147413E+02  0.59144407715E+02  0.63325877727E+02  0.10566000000E+00 0. -1.
        994    1    1    2    0    0  0.12919796056E+02 -0.14765370903E+02  0.54391009083E+01  0.17240638366E+03  0.17120000000E+03 0.  0.
        998    1    1    2    0    0  0.62765275496E+01  0.27822234897E+01  0.14354164877E+04  0.14354677386E+04  0.10000000000E+02 0. -1.
</event>
<event>
 5    1  0.1658612E-008  0.3813592E+03  0.7957747E-01  0.3445261E+00
         13   -1    0    0    0    0  0.00000000000E+00  0.00000000000E+00  0.14999999963E+04  0.15000000000E+04  0.10566000000E+00 0.  1.
        994   -1    0    0    0    0 -0.00000000000E+00 -0.00000000000E+00  0.11368683772E-12  0.17120000000E+03  0.17120000000E+03 0.  0.
         13    1    1    2    0    0  0.10838596731E+02  0.51570226455E+01  0.20362830584E+02  0.23637387654E+02  0.10566000000E+00 0.  1.
        994    1    1    2    0    0  0.70623088149E+01  0.14011394726E+01  0.36211304324E+01  0.17138959123E+03  0.17120000000E+03 0.  0.
        998    1    1    2    0    0 -0.17900905546E+02 -0.65581621181E+01  0.14760160353E+04  0.14761730211E+04  0.10000000000E+02 0.  1.
</event>
<event>
 5    1  0.1658612E-008  0.3853703E+03  0.7957747E-01  0.3428103E+00
         13   -1    0    0    0    0  0.00000000000E+00  0.00000000000E+00  0.14999999963E+04  0.15000000000E+04  0.10566000000E+00 0.  1.
        994   -1    0    0    0    0 -0.00000000000E+00 -0.00000000000E+00  0.11368683772E-12  0.17120000000E+03  0.17120000000E+03 0.  0.
         13    1    1    2    0    0 -0.82638465243E+01 -0.97572812791E+01  0.55045541350E+02  0.56511224407E+02  0.10566000000E+00 0.  1.
        994    1    1    2    0    0  0.60928742249E+01  0.12375648473E+02  0.20716587257E+01  0.17176731808E+03  0.17120000000E+03 0.  0.
        998    1    1    2    0    0  0.21709722994E+01 -0.26183671941E+01  0.14428827962E+04  0.14429214575E+04  0.10000000000E+02 0.  1.
</event>
<event>
 5    1  0.1658612E-008  0.3827065E+03  0.7957747E-01  0.3439458E+00
         13   -1    0    0    0    0  0.00000000000E+00  0.00000000000E+00  0.14999999963E+04  0.15000000000E+04  0.10566000000E+00 0.  1.
        994   -1    0    0    0    0 -0.00000000000E+00 -0.00000000000E+00  0.11368683772E-12  0.17120000000E+03  0.17120000000E+03 0.  0.
         13    1    1    2    0    0  0.99834499751E+00  0.11235703245E+02  0.22040925974E+02  0.24759872818E+02  0.10566000000E+00 0.  1.
        994    1    1    2    0    0 -0.54853016242E+01 -0.54598708676E+01  0.29715839648E+01  0.17140060979E+03  0.17120000000E+03 0.  0.
        998    1    1    2    0    0  0.44869566267E+01 -0.57758323776E+01  0.14749874863E+04  0.14750395174E+04  0.10000000000E+02 0.  1.
</event>
<event>
 5    1  0.1658612E-008  0.3741411E+03  0.7957747E-01  0.3477073E+00
         13   -1    0    0    0    0  0.00000000000E+00  0.00000000000E+00  0.14999999963E+04  0.15000000000E+04  0.10566000000E+00 0.  1.
        994   -1    0    0    0    0 -0.00000000000E+00 -0.00000000000E+00  0.11368683772E-12  0.17120000000E+03  0.17120000000E+03 0.  0.
         13    1    1    2    0    0 -0.14475711571E+02 -0.20530220654E+02  0.40548636157E+02  0.47699467961E+02  0.10566000000E+00 0.  1.
        994    1    1    2    0    0  0.10510848373E+02  0.22775356110E+02  0.92683633513E+01  0.17327589947E+03  0.17120000000E+03 0.  0.
        998    1    1    2    0    0  0.39648631972E+01 -0.22451354558E+01  0.14501829968E+04  0.14502246326E+04  0.10000000000E+02 0.  1.
</event>
<event>
 5    1  0.1658612E-008  0.3777494E+03  0.7957747E-01  0.3461017E+00
         13   -1    0    0    0    0  0.00000000000E+00  0.00000000000E+00  0.14999999963E+04  0.15000000000E+04  0.10566000000E+00 0.  1.
        994   -1    0    0    0    0 -0.00000000000E+00 -0.00000000000E+00  0.11368683772E-12  0.17120000000E+03  0.17120000000E+03 0.  0.
         13    1    1    2    0    0  0.24669674279E+01 -0.10134510717E+02  0.76210495485E+01  0.12918428543E+02  0.10566000000E+00 0.  1.
        994    1    1    2    0    0 -0.10975436189E+02  0.22223549787E+02  0.73454360705E+01  0.17314081493E+03  0.17120000000E+03 0.  0.
        998    1    1    2    0    0  0.85084687609E+01 -0.12089039070E+02  0.14850335107E+04  0.14851407565E+04  0.10000000000E+02 0.  1.
</event>
<event>
 5    1  0.1658612E-008  0.3825895E+03  0.7957747E-01  0.3439960E+00
         13   -1    0    0    0    0  0.00000000000E+00  0.00000000000E+00  0.14999999963E+04  0.15000000000E+04  0.10566000000E+00 0. -1.
        994   -1    0    0    0    0 -0.00000000000E+00 -0.00000000000E+00  0.11368683772E-12  0.17120000000E+03  0.17120000000E+03 0.  0.
         13    1    1    2    0    0 -0.13229617618E+02  0.18945494458E+01  0.28871829827E+02  0.31815182249E+02  0.10566000000E+00 0. -1.
        994    1    1    2    0    0  0.23976742377E+02 -0.11202620314E+02  0.51565606264E+01  0.17331016414E+03  0.17120000000E+03 0.  0.
        998    1    1    2    0    0 -0.10747124759E+02  0.93080708686E+01  0.14659716058E+04  0.14660746536E+04  0.10000000000E+02 0. -1.
</event>
<event>
 5    1  0.1658612E-008  0.3860670E+03  0.7957747E-01  0.3425160E+00
         13   -1    0    0    0    0  0.00000000000E+00  0.00000000000E+00  0.14999999963E+04  0.15000000000E+04  0.10566000000E+00 0.  1.
        994   -1    0    0    0    0 -0.00000000000E+00 -0.00000000000E+00  0.11368683772E-12  0.17120000000E+03  0.17120000000E+03 0.  0.
         13    1    1    2    0    0  0.13129699041E+02 -0.17825748616E+01  0.80123264597E+02  0.81211546369E+02  0.10566000000E+00 0.  1.
        994    1    1    2    0    0 -0.10254010557E+02 -0.41688459414E+01  0.15029790057E+01  0.17156404913E+03  0.17120000000E+03 0.  0.
        998    1    1    2    0    0 -0.28756884835E+01  0.59514208030E+01  0.14183737527E+04  0.14184244045E+04  0.10000000000E+02 0.  1.
</event>
<event>
 5    1  0.1658612E-008  0.3858937E+03  0.7957747E-01  0.3425891E+00
         13   -1    0    0    0    0  0.00000000000E+00  0.00000000000E+00  0.14999999963E+04  0.15000000000E+04  0.10566000000E+00 0.  1.
        994   -1    0    0    0    0 -0.00000000000E+00 -0.00000000000E+00  0.11368683772E-12  0.17120000000E+03  0.17120000000E+03 0.  0.
         13    1    1    2    0    0 -0.78638255504E+01 -0.66063203006E+01  0.45713121888E+02  0.46852789639E+02  0.10566000000E+00 0.  1.
        994    1    1    2    0    0  0.27820492260E+01  0.27386098901E+01  0.12370786351E+01  0.17124897122E+03  0.17120000000E+03 0.  0.
        998    1    1    2    0    0  0.50817763244E+01  0.38677104106E+01  0.14530497958E+04  0.14530982391E+04  0.10000000000E+02 0.  1.
</event>
<event>
 5    1  0.1658612E-008  0.3860743E+03  0.7957747E-01  0.3425129E+00
         13   -1    0    0    0    0  0.00000000000E+00  0.00000000000E+00  0.14999999963E+04  0.15000000000E+04  0.10566000000E+00 0. -1.
        994   -1    0    0    0    0 -0.00000000000E+00 -0.00000000000E+00  0.11368683772E-12  0.17120000000E+03  0.17120000000E+03 0.  0.
         13    1    1    2    0    0 -0.11373237325E+01  0.11598496770E+02  0.64714483730E+02  0.65755564031E+02  0.10566000000E+00 0. -1.
        994    1    1    2    0    0  0.67669475586E+01 -0.30213311473E+01  0.12777293428E+01  0.17136508575E+03  0.17120000000E+03 0.  0.
        998    1    1    2    0    0 -0.56296238261E+01 -0.85771656225E+01  0.14340077832E+04  0.14340793502E+04  0.10000000000E+02 0. -1.
</event>
<event>
 5    1  0.1658612E-008  0.3853904E+03  0.7957747E-01  0.3428018E+00
         13   -1    0    0    0    0  0.00000000000E+00  0.00000000000E+00  0.14999999963E+04  0.15000000000E+04  0.10566000000E+00 0.  1.
        994   -1    0    0    0    0 -0.00000000000E+00 -0.00000000000E+00  0.11368683772E-12  0.17120000000E+03  0.17120000000E+03 0.  0.
         13    1    1    2    0    0 -0.23465180172E+01 -0.14049887569E+02  0.64910986387E+02  0.66455645398E+02  0.10566000000E+00 0.  1.
        994    1    1    2    0    0  0.83081120698E+01  0.21712905670E+02  0.32136534879E+01  0.17280116483E+03  0.17120000000E+03 0.  0.
        998    1    1    2    0    0 -0.59615940525E+01 -0.76630181012E+01  0.14318753564E+04  0.14319431898E+04  0.10000000000E+02 0.  1.
</event>
<event>
 5    1  0.1658612E-008  0.3700773E+03  0.7957747E-01  0.3495536E+00
         13   -1    0    0    0    0  0.00000000000E+00  0.00000000000E+00  0.14999999963E+04  0.15000000000E+04  0.10566000000E+00 0.  1.
        994   -1    0    0    0    0 -0.00000000000E+00 -0.00000000000E+00  0.11368683772E-12  0.17120000000E+03  0.17120000000E+03 0.  0.
         13    1    1    2    0    0  0.84278135507E+00 -0.11758236651E+02  0.31830200445E+01  0.12211027401E+02  0.10566000000E+00 0.  1.
        994    1    1    2    0    0  0.40051306666E+01  0.15892608865E+02  0.10157717440E+02  0.17228242891E+03  0.17120000000E+03 0.  0.
        998    1    1    2    0    0 -0.48479120217E+01 -0.41343722140E+01  0.14866592588E+04  0.14867065437E+04  0.10000000000E+02 0.  1.
</event>
<event>
 5    1  0.1658612E-008  0.3749021E+03  0.7957747E-01  0.3473661E+00
         13   -1    0    0    0    0  0.00000000000E+00  0.00000000000E+00  0.14999999963E+04  0.15000000000E+04  0.10566000000E+00 0. -1.
        994   -1    0    0    0    0 -0.00000000000E+00 -0.00000000000E+00  0.11368683772E-12  0.17120000000E+03  0.17120000000E+03 0.  0.
         13    1    1    2    0    0  0.20184084645E+02 -0.36259826533E+02  0.17997111995E+03  0.18469376674E+03  0.10566000000E+00 0. -1.
        994    1    1    2    0    0  0.61354090131E+02 -0.35789069640E+01  0.19682823902E+02  0.18295897493E+03  0.17120000000E+03 0.  0.
        998    1    1    2    0    0 -0.81538174776E+02  0.39838733497E+02  0.13003460524E+04  0.13035472583E+04  0.10000000000E+02 0. -1.
</event>
<event>
 5    1  0.1658612E-008  0.3826325E+03  0.7957747E-01  0.3439776E+00
         13   -1    0    0    0    0  0.00000000000E+00  0.00000000000E+00  0.14999999963E+04  0.15000000000E+04  0.10566000000E+00 0.  1.
        994   -1    0    0    0    0 -0.00000000000E+00 -0.00000000000E+00  0.11368683772E-12  0.17120000000E+03  0.17120000000E+03 0.  0.
         13    1    1    2    0    0 -0.10931536665E+02 -0.11916336650E+02  0.47331790079E+02  0.50018067627E+02  0.10566000000E+00 0.  1.
        994    1    1    2    0    0  0.22181423673E+00  0.27036431925E+01  0.28345343146E+01  0.17124495167E+03  0.17120000000E+03 0.  0.
        998    1    1    2    0    0  0.10709722428E+02  0.92126934578E+01  0.14498336719E+04  0.14499369807E+04  0.10000000000E+02 0.  1.
</event>
<event>
 5    1  0.1658612E-008  0.3838699E+03  0.7957747E-01  0.3434479E+00
         13   -1    0    0    0    0  0.00000000000E+00  0.00000000000E+00  0.14999999963E+04  0.15000000000E+04  0.10566000000E+00 0. -1.
        994   -1    0    0    0    0 -0.00000000000E+00 -0.00000000000E+00  0.11368683772E-12  0.17120000000E+03  0.17120000000E+03 0.  0.
         13    1    1    2    0    0  0.20886257512E+02 -0.12043152607E+02  0.12362507808E+03  0.12595413598E+03  0.10566000000E+00 0. -1.
        994    1    1    2    0    0 -0.27260600053E+02  0.37182352336E+00  0.46495031438E+01  0.17341953883E+03  0.17120000000E+03 0.  0.
        998    1    1    2    0    0  0.63743425409E+01  0.11671329084E+02  0.13717254151E+04  0.13718263252E+04  0.10000000000E+02 0. -1.
</event>
<event>
 5    1  0.1658612E-008  0.3859130E+03  0.7957747E-01  0.3425809E+00
         13   -1    0    0    0    0  0.00000000000E+00  0.00000000000E+00  0.14999999963E+04  0.15000000000E+04  0.10566000000E+00 0. -1.
        994   -1    0    0    0    0 -0.00000000000E+00 -0.00000000000E+00  0.11368683772E-12  0.17120000000E+03  0.17120000000E+03 0.  0.
         13    1    1    2    0    0  0.82079304323E+01  0.10556841859E+02  0.80615321327E+02  0.81716939668E+02  0.10566000000E+00 0. -1.
        994    1    1    2    0    0 -0.31221853031E+00 -0.33334208078E+01  0.12142846900E+01  0.17123703940E+03  0.17120000000E+03 0.  0.
        998    1    1    2    0    0 -0.78957119020E+01 -0.72234210517E+01  0.14181703903E+04  0.14182460209E+04  0.10000000000E+02 0. -1.
</event>
<event>
 5    1  0.1658612E-008  0.3816342E+03  0.7957747E-01  0.3444073E+00
         13   -1    0    0    0    0  0.00000000000E+00  0.00000000000E+00  0.14999999963E+04  0.15000000000E+04  0.10566000000E+00 0.  1.
        994   -1    0    0    0    0 -0.00000000000E+00 -0.00000000000E+00  0.11368683772E-12  0.17120000000E+03  0.17120000000E+03 0.  0.
         13    1    1    2    0    0 -0.44427852957E+02 -0.18359413694E+02  0.57041500618E+02  0.74596555861E+02  0.10566000000E+00 0.  1.
        994    1    1    2    0    0  0.49645320923E+02  0.31190226158E+02  0.29867716472E+02  0.18340940157E+03  0.17120000000E+03 0.  0.
        998    1    1    2    0    0 -0.52174679662E+01 -0.12830812464E+02  0.14130907792E+04  0.14131940426E+04  0.10000000000E+02 0.  1.
</event>
<event>
 5    1  0.1658612E-008  0.3761632E+03  0.7957747E-01  0.3468037E+00
         13   -1    0    0    0    0  0.00000000000E+00  0.00000000000E+00  0.14999999963E+04  0.15000000000E+04  0.10566000000E+00 0.  1.
        994   -1    0    0    0    0 -0.00000000000E+00 -0.00000000000E+00  0.11368683772E-12  0.17120000000E+03  0.17120000000E+03 0.  0.
         13    1    1    2    0    0 -0.77389878185E+01 -0.84169137053E+01  0.79294066583E+01  0.13914849003E+02  0.10566000000E+00 0.  1.
        994    1    1    2    0    0  0.74017880270E+01  0.85763871898E+01  0.65172964142E+01  0.17169815385E+03  0.17120000000E+03 0.  0.
        998    1    1    2    0    0  0.33719979147E+00 -0.15947348448E+00  0.14855532932E+04  0.14855869971E+04  0.10000000000E+02 0.  1.
</event>
<event>
 5    1  0.1658612E-008  0.3768430E+03  0.7957747E-01  0.3465021E+00
         13   -1    0    0    0    0  0.00000000000E+00  0.00000000000E+00  0.14999999963E+04  0.15000000000E+04  0.10566000000E+00 0. -1.
        994   -1    0    0    0    0 -0.00000000000E+00 -0.00000000000E+00  0.11368683772E-12  0.17120000000E+03  0.17120000000E+03 0.  0.
         13    1    1    2    0    0  0.18789929864E+02 -0.41418934261E+02  0.18786001730E+03  0.19328731682E+03  0.10566000000E+00 0. -1.
        994    1    1    2    0    0 -0.58337690180E+02 -0.29429706734E+01  0.17349749789E+02  0.18172066748E+03  0.17120000000E+03 0.  0.
        998    1    1    2    0    0  0.39547760316E+02  0.44361904935E+02  0.12947902292E+04  0.12961920157E+04  0.10000000000E+02 0. -1.
</event>
<event>
 5    1  0.1658612E-008  0.3909425E+03  0.7957747E-01  0.3404854E+00
         13   -1    0    0    0    0  0.00000000000E+00  0.00000000000E+00  0.14999999963E+04  0.15000000000E+04  0.10566000000E+00 0.  1.
        994   -1    0    0    0    0 -0.00000000000E+00 -0.00000000000E+00  0.11368683772E-12  0.17120000000E+03  0.17120000000E+03 0.  0.
         13    1    1    2    0    0 -0.11787623291E+02 -0.10934417105E+03  0.26952649580E+03  0.29110073670E+03  0.10566000000E+00 0.  1.
        994    1    1    2    0    0 -0.26328732613E+02  0.66364039510E+02  0.41987331433E+02  0.19018350060E+03  0.17120000000E+03 0.  0.
        998    1    1    2    0    0  0.38116355903E+02  0.42980131543E+02  0.11884861690E+04  0.11899157627E+04  0.10000000000E+02 0.  1.
</event>
<event>
 5    1  0.1658612E-008  0.3829290E+03  0.7957747E-01  0.3438503E+00
         13   -1    0    0    0    0  0.00000000000E+00  0.00000000000E+00  0.14999999963E+04  0.15000000000E+04  0.10566000000E+00 0. -1.
        994   -1    0    0    0    0 -0.00000000000E+00 -0.00000000000E+00  0.11368683772E-12  0.17120000000E+03  0.17120000000E+03 0.  0.
         13    1    1    2    0    0  0.20852972744E+02 -0.13365674181E+02  0.10776816201E+03  0.11057791654E+03  0.10566000000E+00 0. -1.
        994    1    1    2    0    0 -0.21578688863E+02  0.11828882919E+02  0.46693830933E+01  0.17302255755E+03  0.17120000000E+03 0.  0.
        998    1    1    2    0    0  0.72571611956E+00  0.15367912612E+01  0.13875624512E+04  0.13875995259E+04  0.10000000000E+02 0. -1.
</event>
<event>
 5    1  0.1658612E-008  0.3857061E+03  0.7957747E-01  0.3426683E+00
         13   -1    0    0    0    0  0.00000000000E+00  0.00000000000E+00  0.14999999963E+04  0.15000000000E+04  0.10566000000E+00 0.  1.
        994   -1    0    0    0    0 -0.00000000000E+00 -0.00000000000E+00  0.11368683772E-12  0.17120000000E+03  0.17120000000E+03 0.  0.
         13    1    1    2    0    0  0.12439606817E+02  0.34064795419E+01  0.63972961486E+02  0.65260239702E+02  0.10566000000E+00 0.  1.
        994    1    1    2    0    0 -0.10365716038E+02 -0.71518357218E+01  0.18005348730E+01  0.17167200922E+03  0.17120000000E+03 0.  0.
        998    1    1    2    0    0 -0.20738907792E+01  0.37453561799E+01  0.14342264999E+04  0.14342677511E+04  0.10000000000E+02 0.  1.
</event>
<event>
 5    1  0.1658612E-008  0.3814007E+03  0.7957747E-01  0.3445082E+00
         13   -1    0    0    0    0  0.00000000000E+00  0.00000000000E+00  0.14999999963E+04  0.15000000000E+04  0.10566000000E+00 0.  1.
        994   -1    0    0    0    0 -0.00000000000E+00 -0.00000000000E+00  0.11368683772E-12  0.17120000000E+03  0.17120000000E+03 0.  0.
         13    1    1    2    0    0  0.12652593599E+02  0.91384246211E+01  0.33772781412E+02  0.37204984312E+02  0.10566000000E+00 0.  1.
        994    1    1    2    0    0 -0.10850320551E+02 -0.10006664526E+02  0.41530486183E+01  0.17188528327E+03  0.17120000000E+03 0.  0.
        998    1    1    2    0    0 -0.18022730474E+01  0.86823990453E+00  0.14620741662E+04  0.14621097324E+04  0.10000000000E+02 0.  1.
</event>
<event>
 5    1  0.1658612E-008  0.3852907E+03  0.7957747E-01  0.3428440E+00
         13   -1    0    0    0    0  0.00000000000E+00  0.00000000000E+00  0.14999999963E+04  0.15000000000E+04  0.10566000000E+00 0.  1.
        994   -1    0    0    0    0 -0.00000000000E+00 -0.00000000000E+00  0.11368683772E-12  0.17120000000E+03  0.17120000000E+03 0.  0.
         13    1    1    2    0    0  0.12053324285E+02  0.47929197744E+01  0.58456383256E+02  0.59878331754E+02  0.10566000000E+00 0.  1.
        994    1    1    2    0    0 -0.63451198803E+01  0.50309542222E+01  0.17013384650E+01  0.17139984130E+03  0.17120000000E+03 0.  0.
        998    1    1    2    0    0 -0.57082044046E+01 -0.98238739965E+01  0.14398422746E+04  0.14399218269E+04  0.10000000000E+02 0.  1.
</event>
<event>
 5    1  0.1658612E-008  0.3736991E+03  0.7957747E-01  0.3479061E+00
         13   -1    0    0    0    0  0.00000000000E+00  0.00000000000E+00  0.14999999963E+04  0.15000000000E+04  0.10566000000E+00 0.  1.
        994   -1    0    0    0    0 -0.00000000000E+00 -0.00000000000E+00  0.11368683772E-12  0.17120000000E+03  0.17120000000E+03 0.  0.
         13    1    1    2    0    0 -0.23241951312E+02  0.22870682376E+02  0.66300312749E+02  0.73885039404E+02  0.10566000000E+00 0.  1.
        994    1    1    2    0    0  0.24440452490E+02 -0.25163548121E+02  0.11561150638E+02  0.17513891651E+03  0.17120000000E+03 0.  0.
        998    1    1    2    0    0 -0.11985011776E+01  0.22928657445E+01  0.14221385329E+04  0.14221760441E+04  0.10000000000E+02 0.  1.
</event>
<event>
 5    1  0.1658612E-008  0.3846563E+03  0.7957747E-01  0.3431131E+00
         13   -1    0    0    0    0  0.00000000000E+00  0.00000000000E+00  0.14999999963E+04  0.15000000000E+04  0.10566000000E+00 0.  1.
        994   -1    0    0    0    0 -0.00000000000E+00 -0.00000000000E+00  0.11368683772E-12  0.17120000000E+03  0.17120000000E+03 0.  0.
         13    1    1    2    0    0 -0.36006135482E+01  0.24330258467E+02  0.14211891686E+03  0.14423149305E+03  0.10566000000E+00 0.  1.
        994    1    1    2    0    0  0.16093773078E+02 -0.32232308300E+02  0.60858256519E+01  0.17505544409E+03  0.17120000000E+03 0.  0.
        998    1    1    2    0    0 -0.12493159529E+02  0.79020498325E+01  0.13517952538E+04  0.13519130629E+04  0.10000000000E+02 0.  1.
</event>
<event>
 5    1  0.1658612E-008  0.3771256E+03  0.7957747E-01  0.3463770E+00
         13   -1    0    0    0    0  0.00000000000E+00  0.00000000000E+00  0.14999999963E+04  0.15000000000E+04  0.10566000000E+00 0. -1.
        994   -1    0    0    0    0 -0.00000000000E+00 -0.00000000000E+00  0.11368683772E-12  0.17120000000E+03  0.17120000000E+03 0.  0.
         13    1    1    2    0    0 -0.63618253947E+01 -0.25203162306E+02  0.55984295436E+02  0.61724587581E+02  0.10566000000E+00 0. -1.
        994    1    1    2    0    0  0.64955073277E+01  0.27528472523E+02  0.82959458989E+01  0.17371894293E+03  0.17120000000E+03 0.  0.
        998    1    1    2    0    0 -0.13368193293E+00 -0.23253102169E+01  0.14357197549E+04  0.14357564695E+04  0.10000000000E+02 0. -1.
</event>
<event>
 5    1  0.1658612E-008  0.3851642E+03  0.7957747E-01  0.3428976E+00
         13   -1    0    0    0    0  0.00000000000E+00  0.00000000000E+00  0.14999999963E+04  0.15000000000E+04  0.10566000000E+00 0.  1.
        994   -1    0    0    0    0 -0.00000000000E+00 -0.00000000000E+00  0.11368683772E-12  0.17120000000E+03  0.17120000000E+03 0.  0.
         13    1    1    2    0    0 -0.67929862073E+01 -0.89261983461E+01  0.41353316673E+02  0.42847749561E+02  0.10566000000E+00 0.  1.
        994    1    1    2    0    0 -0.18457643726E+01  0.63987252995E+01  0.16944072390E+01  0.17133785789E+03  0.17120000000E+03 0.  0.
        998    1    1    2    0    0  0.86387505799E+01  0.25274730466E+01  0.14569522724E+04  0.14570143925E+04  0.10000000000E+02 0.  1.
</event>
<event>
 5    1  0.1658612E-008  0.3840139E+03  0.7957747E-01  0.3433865E+00
         13   -1    0    0    0    0  0.00000000000E+00  0.00000000000E+00  0.14999999963E+04  0.15000000000E+04  0.10566000000E+00 0. -1.
        994   -1    0    0    0    0 -0.00000000000E+00 -0.00000000000E+00  0.11368683772E-12  0.17120000000E+03  0.17120000000E+03 0.  0.
         13    1    1    2    0    0 -0.87289320007E+01 -0.12184888345E+02  0.51696850625E+02  0.53826027964E+02  0.10566000000E+00 0. -1.
        994    1    1    2    0    0  0.71981100558E+01  0.10910043260E+02  0.26843444039E+01  0.17171921132E+03  0.17120000000E+03 0.  0.
        998    1    1    2    0    0  0.15308219449E+01  0.12748450847E+01  0.14456188012E+04  0.14456547607E+04  0.10000000000E+02 0. -1.
</event>
<event>
 5    1  0.1658612E-008  0.3832574E+03  0.7957747E-01  0.3437097E+00
         13   -1    0    0    0    0  0.00000000000E+00  0.00000000000E+00  0.14999999963E+04  0.15000000000E+04  0.10566000000E+00 0. -1.
        994   -1    0    0    0    0 -0.00000000000E+00 -0.00000000000E+00  0.11368683772E-12  0.17120000000E+03  0.17120000000E+03 0.  0.
         13    1    1    2    0    0 -0.19524954140E+02 -0.13102729131E+01  0.68581586778E+02  0.71318902532E+02  0.10566000000E+00 0. -1.
        994    1    1    2    0    0  0.32340833591E+02 -0.42705521791E+01  0.60253045232E+01  0.17438437839E+03  0.17120000000E+03 0.  0.
        998    1    1    2    0    0 -0.12815879451E+02  0.55808250922E+01  0.14253931050E+04  0.14254967191E+04  0.10000000000E+02 0. -1.
</event>
<event>
 5    1  0.1658612E-008  0.3801135E+03  0.7957747E-01  0.3450664E+00
         13   -1    0    0    0    0  0.00000000000E+00  0.00000000000E+00  0.14999999963E+04  0.15000000000E+04  0.10566000000E+00 0. -1.
        994   -1    0    0    0    0 -0.00000000000E+00 -0.00000000000E+00  0.11368683772E-12  0.17120000000E+03  0.17120000000E+03 0.  0.
         13    1    1    2    0    0 -0.13430887038E+02 -0.94374297430E+01  0.32293700624E+02  0.36226344983E+02  0.10566000000E+00 0. -1.
        994    1    1    2    0    0 -0.17012691135E+01  0.73030969469E+01  0.42637717864E+01  0.17141717910E+03  0.17120000000E+03 0.  0.
        998    1    1    2    0    0  0.15132156151E+02  0.21343327961E+01  0.14634425239E+04  0.14635564759E+04  0.10000000000E+02 0. -1.
</event>
<event>
 5    1  0.1658612E-008  0.3863418E+03  0.7957747E-01  0.3424002E+00
         13   -1    0    0    0    0  0.00000000000E+00  0.00000000000E+00  0.14999999963E+04  0.15000000000E+04  0.10566000000E+00 0.  1.
        994   -1    0    0    0    0 -0.00000000000E+00 -0.00000000000E+00  0.11368683772E-12  0.17120000000E+03  0.17120000000E+03 0.  0.
         13    1    1    2    0    0 -0.70743433795E+01 -0.85873662309E+01  0.57491430768E+02  0.58558218627E+02  0.10566000000E+00 0.  1.
        994    1    1    2    0    0  0.77623067036E+01  0.25437193013E+02  0.32848665732E+01  0.17328454790E+03  0.17120000000E+03 0.  0.
        998    1    1    2    0    0 -0.68796332404E+00 -0.16849826782E+02  0.14392236989E+04  0.14393572335E+04  0.10000000000E+02 0.  1.
</event>
<event>
 5    1  0.1658612E-008  0.3839495E+03  0.7957747E-01  0.3434140E+00
         13   -1    0    0    0    0  0.00000000000E+00  0.00000000000E+00  0.14999999963E+04  0.15000000000E+04  0.10566000000E+00 0.  1.
        994   -1    0    0    0    0 -0.00000000000E+00 -0.00000000000E+00  0.11368683772E-12  0.17120000000E+03  0.17120000000E+03 0.  0.
         13    1    1    2    0    0  0.11566579553E+02 -0.21581965297E+02  0.14666592779E+03  0.14869590622E+03  0.10566000000E+00 0.  1.
        994    1    1    2    0    0 -0.32107892381E+01  0.77989071015E+01  0.23873757698E+01  0.17142424473E+03  0.17120000000E+03 0.  0.
        998    1    1    2    0    0 -0.83557903154E+01  0.13783058196E+02  0.13509466927E+04  0.13510798490E+04  0.10000000000E+02 0.  1.
</event>
<event>
 5    1  0.1658612E-008  0.3852737E+03  0.7957747E-01  0.3428512E+00
         13   -1    0    0    0    0  0.00000000000E+00  0.00000000000E+00  0.14999999963E+04  0.15000000000E+04  0.10566000000E+00 0. -1.
        994   -1    0    0    0    0 -0.00000000000E+00 -0.00000000000E+00  0.11368683772E-12  0.17120000000E+03  0.17120000000E+03 0.  0.
         13    1    1    2    0    0 -0.12721609874E+02  0.73040937051E+01  0.75383225578E+02  0.76797337227E+02  0.10566000000E+00 0. -1.
        994    1    1    2    0    0  0.17401025090E+01 -0.42535781997E+01  0.15636945439E+01  0.17126881218E+03  0.17120000000E+03 0.  0.
        998    1    1    2    0    0  0.10981507365E+02 -0.30505155054E+01  0.14230530762E+04  0.14231338506E+04  0.10000000000E+02 0. -1.
</event>
<event>
 5    1  0.1658612E-008  0.3804977E+03  0.7957747E-01  0.3448994E+00
         13   -1    0    0    0    0  0.00000000000E+00  0.00000000000E+00  0.14999999963E+04  0.15000000000E+04  0.10566000000E+00 0. -1.
        994   -1    0    0    0    0 -0.00000000000E+00 -0.00000000000E+00  0.11368683772E-12  0.17120000000E+03  0.17120000000E+03 0.  0.
         13    1    1    2    0    0 -0.84910815310E+01 -0.22356298457E+02  0.69281454476E+02  0.73292793948E+02  0.10566000000E+00 0. -1.
        994    1    1    2    0    0  0.70085192553E+01  0.23739621337E+02  0.59296126534E+01  0.17308174158E+03  0.17120000000E+03 0.  0.
        998    1    1    2    0    0  0.14825622757E+01 -0.13833228805E+01  0.14247889291E+04  0.14248254645E+04  0.10000000000E+02 0. -1.
</event>
<event>
 5    1  0.1658612E-008  0.3856050E+03  0.7957747E-01  0.3427110E+00
         13   -1    0    0    0    0  0.00000000000E+00  0.00000000000E+00  0.14999999963E+04  0.15000000000E+04  0.10566000000E+00 0. -1.
        994   -1    0    0    0    0 -0.00000000000E+00 -0.00000000000E+00  0.11368683772E-12  0.17120000000E+03  0.17120000000E+03 0.  0.
         13    1    1    2    0    0  0.96545280029E+01  0.92717507358E+01  0.69773076872E+02  0.71045539571E+02  0.10566000000E+00 0. -1.
        994    1    1    2    0    0 -0.20039467485E+01 -0.49496094468E+01  0.14236460902E+01  0.17128917422E+03  0.17120000000E+03 0.  0.
        998    1    1    2    0    0 -0.76505812544E+01 -0.43221412890E+01  0.14288032733E+04  0.14288652862E+04  0.10000000000E+02 0. -1.
</event>
<event>
 5    1  0.1658612E-008  0.3853217E+03  0.7957747E-01  0.3428309E+00
         13   -1    0    0    0    0  0.00000000000E+00  0.00000000000E+00  0.14999999963E+04  0.15000000000E+04  0.10566000000E+00 0. -1.
        994   -1    0    0    0    0 -0.00000000000E+00 -0.00000000000E+00  0.11368683772E-12  0.17120000000E+03  0.17120000000E+03 0.  0.
         13    1    1    2    0    0  0.13307888426E+02  0.50778487727E+01  0.71809962276E+02  0.73209058788E+02  0.10566000000E+00 0. -1.
        994    1    1    2    0    0 -0.32609384792E+01 -0.30657822308E+01  0.15363214893E+01  0.17126538770E+03  0.17120000000E+03 0.  0.
        998    1    1    2    0    0 -0.10046949946E+02 -0.20120665419E+01  0.14266537125E+04  0.14267255535E+04  0.10000000000E+02 0. -1.
</event>
<event>
 5    1  0.1658612E-008  0.3811306E+03  0.7957747E-01  0.3446250E+00
         13   -1    0    0    0    0  0.00000000000E+00  0.00000000000E+00  0.14999999963E+04  0.15000000000E+04  0.10566000000E+00 0. -1.
        994   -1    0    0    0    0 -0.00000000000E+00 -0.00000000000E+00  0.11368683772E-12  0.17120000000E+03  0.17120000000E+03 0.  0.
         13    1    1    2    0    0  0.10981448973E+03 -0.34321337847E+02  0.27196777231E+03  0.29530265276E+03  0.10566000000E+00 0. -1.
        994    1    1    2    0    0 -0.10665444931E+03  0.12951765062E+03  0.12807161527E+03  0.27177522333E+03  0.17120000000E+03 0.  0.
        998    1    1    2    0    0 -0.31600404193E+01 -0.95196312770E+02  0.10999606087E+04  0.11041221239E+04  0.10000000000E+02 0. -1.
</event>
<event>
 5    1  0.1658612E-008  0.3845714E+03  0.7957747E-01  0.3431492E+00
         13   -1    0    0    0    0  0.00000000000E+00  0.00000000000E+00  0.14999999963E+04  0.15000000000E+04  0.10566000000E+00 0.  1.
        994   -1    0    0    0    0 -0.00000000000E+00 -0.00000000000E+00  0.11368683772E-12  0.17120000000E+03  0.17120000000E+03 0.  0.
         13    1    1    2    0    0 -0.17265448328E+02 -0.14563532522E+02  0.12948806741E+03  0.13144338306E+03  0.10566000000E+00 0.  1.
        994    1    1    2    0    0  0.18091991246E+02  0.12223248399E+02  0.34146106748E+01  0.17262047247E+03  0.17120000000E+03 0.  0.
        998    1    1    2    0    0 -0.82654291767E+00  0.23402841236E+01  0.13670973182E+04  0.13671361445E+04  0.10000000000E+02 0.  1.
</event>
<event>
 5    1  0.1658612E-008  0.3821899E+03  0.7957747E-01  0.3441678E+00
         13   -1    0    0    0    0  0.00000000000E+00  0.00000000000E+00  0.14999999963E+04  0.15000000000E+04  0.10566000000E+00 0.  1.
        994   -1    0    0    0    0 -0.00000000000E+00 -0.00000000000E+00  0.11368683772E-12  0.17120000000E+03  0.17120000000E+03 0.  0.
         13    1    1    2    0    0  0.14048431397E+01  0.47297116434E+02  0.27962474980E+03  0.28360007523E+03  0.10566000000E+00 0.  1.
        994    1    1    2    0    0 -0.97332370320E+01 -0.54913793218E+02  0.13423944222E+02  0.18055443187E+03  0.17120000000E+03 0.  0.
        998    1    1    2    0    0  0.83283938923E+01  0.76166767837E+01  0.12069513023E+04  0.12070454929E+04  0.10000000000E+02 0.  1.
</event>
<event>
 5    1  0.1658612E-008  0.3852672E+03  0.7957747E-01  0.3428540E+00
         13   -1    0    0    0    0  0.00000000000E+00  0.00000000000E+00  0.14999999963E+04  0.15000000000E+04  0.10566000000E+00 0. -1.
        994   -1    0    0    0    0 -0.00000000000E+00 -0.00000000000E+00  0.11368683772E-12  0.17120000000E+03  0.17120000000E+03 0.  0.
         13    1    1    2    0    0 -0.92631470523E+01 -0.83225946992E+01  0.52927085453E+02  0.54372410416E+02  0.10566000000E+00 0. -1.
        994    1    1    2    0    0  0.26985702765E+01  0.44317294429E+01  0.15860071671E+01  0.17128595367E+03  0.17120000000E+03 0.  0.
        998    1    1    2    0    0  0.65645767758E+01  0.38908652562E+01  0.14454869037E+04  0.14455416359E+04  0.10000000000E+02 0. -1.
</event>
<event>
 5    1  0.1658612E-008  0.3805536E+03  0.7957747E-01  0.3448752E+00
         13   -1    0    0    0    0  0.00000000000E+00  0.00000000000E+00  0.14999999963E+04  0.15000000000E+04  0.10566000000E+00 0.  1.
        994   -1    0    0    0    0 -0.00000000000E+00 -0.00000000000E+00  0.11368683772E-12  0.17120000000E+03  0.17120000000E+03 0.  0.
         13    1    1    2    0    0 -0.10710844934E+02  0.23563019473E+02  0.86826886611E+02  0.90602745480E+02  0.10566000000E+00 0.  1.
        994    1    1    2    0    0  0.96100363263E+01 -0.10041441801E+02  0.44988558678E+01  0.17182218441E+03  0.17120000000E+03 0.  0.
        998    1    1    2    0    0  0.11008086078E+01 -0.13521577672E+02  0.14086742538E+04  0.14087750701E+04  0.10000000000E+02 0.  1.
</event>
<event>
 5    1  0.1658612E-008  0.3745412E+03  0.7957747E-01  0.3475277E+00
         13   -1    0    0    0    0  0.00000000000E+00  0.00000000000E+00  0.14999999963E+04  0.15000000000E+04  0.10566000000E+00 0. -1.
        994   -1    0    0    0    0 -0.00000000000E+00 -0.00000000000E+00  0.11368683772E-12  0.17120000000E+03  0.17120000000E+03 0.  0.
         13    1    1    2    0    0 -0.34167398221E+02  0.14438943278E+02  0.98633334509E+02  0.10537760685E+03  0.10566000000E+00 0. -1.
        994    1    1    2    0    0  0.19452546855E+02 -0.24827505850E+01  0.82248271024E+01  0.17251566135E+03  0.17120000000E+03 0.  0.
        998    1    1    2    0    0  0.14714851366E+02 -0.11956192693E+02  0.13931418347E+04  0.13933067318E+04  0.10000000000E+02 0. -1.
</event>
<event>
 5    1  0.1658612E-008  0.3849163E+03  0.7957747E-01  0.3430027E+00
         13   -1    0    0    0    0  0.00000000000E+00  0.00000000000E+00  0.14999999963E+04  0.15000000000E+04  0.10566000000E+00 0.  1.
        994   -1    0    0    0    0 -0.00000000000E+00 -0.00000000000E+00  0.11368683772E-12  0.17120000000E+03  0.17120000000E+03 0.  0.
         13    1    1    2    0    0  0.15299045835E+02  0.75424866255E+01  0.91011146036E+02  0.92595841023E+02  0.10566000000E+00 0.  1.
        994    1    1    2    0    0  0.21257049164E+00 -0.12145156849E+02  0.21572146074E+01  0.17164394424E+03  0.17120000000E+03 0.  0.
        998    1    1    2    0    0 -0.15511616327E+02  0.46026702235E+01  0.14068316356E+04  0.14069602147E+04  0.10000000000E+02 0.  1.
</event>
<event>
 5    1  0.1658612E-008  0.3822999E+03  0.7957747E-01  0.3441205E+00
         13   -1    0    0    0    0  0.00000000000E+00  0.00000000000E+00  0.14999999963E+04  0.15000000000E+04  0.10566000000E+00 0. -1.
        994   -1    0    0    0    0 -0.00000000000E+00 -0.00000000000E+00  0.11368683772E-12  0.17120000000E+03  0.17120000000E+03 0.  0.
         13    1    1    2    0    0  0.17888255260E+02  0.19503084398E+02  0.12454690872E+03  0.12732754460E+03  0.10566000000E+00 0. -1.
        994    1    1    2    0    0 -0.26466462590E+01 -0.61974603545E+01  0.31273171209E+01  0.17136111975E+03  0.17120000000E+03 0.  0.
        998    1    1    2    0    0 -0.15241609001E+02 -0.13305624043E+02  0.13723257704E+04  0.13725113356E+04  0.10000000000E+02 0. -1.
</event>
<event>
 5    1  0.1658612E-008  0.3839846E+03  0.7957747E-01  0.3433990E+00
         13   -1    0    0    0    0  0.00000000000E+00  0.00000000000E+00  0.14999999963E+04  0.15000000000E+04  0.10566000000E+00 0. -1.
        994   -1    0    0    0    0 -0.00000000000E+00 -0.00000000000E+00  0.11368683772E-12  0.17120000000E+03  0.17120000000E+03 0.  0.
         13    1    1    2    0    0 -0.12921269990E+02  0.66269839789E+01  0.52022649554E+02  0.54011511416E+02  0.10566000000E+00 0. -1.
        994    1    1    2    0    0 -0.38843184222E+01 -0.20573606304E+01  0.21988631955E+01  0.17127053355E+03  0.17120000000E+03 0.  0.
        998    1    1    2    0    0  0.16805588412E+02 -0.45696233485E+01  0.14457784835E+04  0.14459179550E+04  0.10000000000E+02 0. -1.
</event>
<event>
 5    1  0.1658612E-008  0.2472447E+03  0.7957747E-01  0.4363557E+00
         13   -1    0    0    0    0  0.00000000000E+00  0.00000000000E+00  0.14999999963E+04  0.15000000000E+04  0.10566000000E+00 0. -1.
        994   -1    0    0    0    0 -0.00000000000E+00 -0.00000000000E+00  0.11368683772E-12  0.17120000000E+03  0.17120000000E+03 0.  0.
         13    1    1    2    0    0  0.13050926234E+03  0.13832911443E+03  0.51948162184E+03  0.55319867864E+03  0.10566000000E+00 0. -1.
        994    1    1    2    0    0  0.59502501210E+02 -0.10885282184E+03  0.13502245770E+03  0.25085850305E+03  0.17120000000E+03 0.  0.
        998    1    1    2    0    0 -0.19001176355E+03 -0.29476292589E+02  0.84549591675E+03  0.86714281831E+03  0.10000000000E+02 0.  1.
</event>
<event>
 5    1  0.1658612E-008  0.3862466E+03  0.7957747E-01  0.3424402E+00
         13   -1    0    0    0    0  0.00000000000E+00  0.00000000000E+00  0.14999999963E+04  0.15000000000E+04  0.10566000000E+00 0.  1.
        994   -1    0    0    0    0 -0.00000000000E+00 -0.00000000000E+00  0.11368683772E-12  0.17120000000E+03  0.17120000000E+03 0.  0.
         13    1    1    2    0    0  0.19692575003E+01  0.12423764302E+02  0.75460550684E+02  0.76501854671E+02  0.10566000000E+00 0.  1.
        994    1    1    2    0    0 -0.63939559296E+01 -0.13421254583E+02  0.17367158379E+01  0.17185304457E+03  0.17120000000E+03 0.  0.
        998    1    1    2    0    0  0.44246984293E+01  0.99749028105E+00  0.14228027298E+04  0.14228451008E+04  0.10000000000E+02 0.  1.
</event>
<event>
 5    1  0.1658612E-008  0.3791774E+03  0.7957747E-01  0.3454748E+00
         13   -1    0    0    0    0  0.00000000000E+00  0.00000000000E+00  0.14999999963E+04  0.15000000000E+04  0.10566000000E+00 0.  1.
        994   -1    0    0    0    0 -0.00000000000E+00 -0.00000000000E+00  0.11368683772E-12  0.17120000000E+03  0.17120000000E+03 0.  0.
         13    1    1    2    0    0 -0.63044225905E+02 -0.13407597265E+02  0.36801153973E+03  0.37361322598E+03  0.10566000000E+00 0.  1.
        994    1    1    2    0    0  0.54730485152E+02  0.24440200012E+02  0.16687674110E+02  0.18215561438E+03  0.17120000000E+03 0.  0.
        998    1    1    2    0    0  0.83137407530E+01 -0.11032602747E+02  0.11153007824E+04  0.11154311596E+04  0.10000000000E+02 0.  1.
</event>
<event>
 5    1  0.1658612E-008  0.3771513E+03  0.7957747E-01  0.3463657E+00
         13   -1    0    0    0    0  0.00000000000E+00  0.00000000000E+00  0.14999999963E+04  0.15000000000E+04  0.10566000000E+00 0.  1.
        994   -1    0    0    0    0 -0.00000000000E+00 -0.00000000000E+00  0.11368683772E-12  0.17120000000E+03  0.17120000000E+03 0.  0.
         13    1    1    2    0    0 -0.17662406235E+02 -0.93275439736E+01  0.32517880151E+02  0.38162643569E+02  0.10566000000E+00 0.  1.
        994    1    1    2    0    0  0.21784489369E+02  0.98159485811E+01  0.75072031598E+01  0.17302229603E+03  0.17120000000E+03 0.  0.
        998    1    1    2    0    0 -0.41220831332E+01 -0.48840460750E+00  0.14599749130E+04  0.14600150604E+04  0.10000000000E+02 0.  1.
</event>
<event>
 5    1  0.1658612E-008  0.3766872E+03  0.7957747E-01  0.3465711E+00
         13   -1    0    0    0    0  0.00000000000E+00  0.00000000000E+00  0.14999999963E+04  0.15000000000E+04  0.10566000000E+00 0. -1.
        994   -1    0    0    0    0 -0.00000000000E+00 -0.00000000000E+00  0.11368683772E-12  0.17120000000E+03  0.17120000000E+03 0.  0.
         13    1    1    2    0    0 -0.11130292668E+02 -0.11457462520E+02  0.19930487138E+02  0.25541972200E+02  0.10566000000E+00 0. -1.
        994    1    1    2    0    0  0.46995282862E+01 -0.25561424169E+01  0.59115773491E+01  0.17138554833E+03  0.17120000000E+03 0.  0.
        998    1    1    2    0    0  0.64307643814E+01  0.14013604937E+02  0.14741579318E+04  0.14742724795E+04  0.10000000000E+02 0. -1.
</event>
<event>
 5    1  0.1658612E-008  0.3696539E+03  0.7957747E-01  0.3497483E+00
         13   -1    0    0    0    0  0.00000000000E+00  0.00000000000E+00  0.14999999963E+04  0.15000000000E+04  0.10566000000E+00 0. -1.
        994   -1    0    0    0    0 -0.00000000000E+00 -0.00000000000E+00  0.11368683772E-12  0.17120000000E+03  0.17120000000E+03 0.  0.
         13    1    1    2    0    0  0.74368578021E+02  0.10421146849E+03  0.52719105778E+03  0.54251372161E+03  0.10566000000E+00 0. -1.
        994    1    1    2    0    0 -0.69442280435E+02 -0.93701196448E+02  0.59884574802E+02  0.21563336205E+03  0.17120000000E+03 0.  0.
        998    1    1    2    0    0 -0.49262975860E+01 -0.10510272039E+02  0.91292436369E+03  0.91305291635E+03  0.10000000000E+02 0. -1.
</event>
<event>
 5    1  0.1658612E-008  0.3836182E+03  0.7957747E-01  0.3435554E+00
         13   -1    0    0    0    0  0.00000000000E+00  0.00000000000E+00  0.14999999963E+04  0.15000000000E+04  0.10566000000E+00 0. -1.
        994   -1    0    0    0    0 -0.00000000000E+00 -0.00000000000E+00  0.11368683772E-12  0.17120000000E+03  0.17120000000E+03 0.  0.
         13    1    1    2    0    0  0.36269094898E+01  0.19573399513E+02  0.84947535941E+02  0.87248882327E+02  0.10566000000E+00 0. -1.
        994    1    1    2    0    0 -0.45456427350E+01 -0.11966659040E+02  0.28592485490E+01  0.17170171548E+03  0.17120000000E+03 0.  0.
        998    1    1    2    0    0  0.91873324522E+00 -0.76067404729E+01  0.14121932118E+04  0.14122494022E+04  0.10000000000E+02 0. -1.
</event>
<event>
 5    1  0.1658612E-008  0.3833161E+03  0.7957747E-01  0.3436845E+00
         13   -1    0    0    0    0  0.00000000000E+00  0.00000000000E+00  0.14999999963E+04  0.15000000000E+04  0.10566000000E+00 0. -1.
        994   -1    0    0    0    0 -0.00000000000E+00 -0.00000000000E+00  0.11368683772E-12  0.17120000000E+03  0.17120000000E+03 0.  0.
         13    1    1    2    0    0  0.88021496545E+01 -0.59637271376E+01  0.22356169956E+02  0.24755875647E+02  0.10566000000E+00 0. -1.
        994    1    1    2    0    0 -0.30217035051E+01  0.79402002812E+00  0.25007463360E+01  0.17124676608E+03  0.17120000000E+03 0.  0.
        998    1    1    2    0    0 -0.57804461494E+01  0.51697071095E+01  0.14751430800E+04  0.14751973583E+04  0.10000000000E+02 0. -1.
</event>
<event>
 5    1  0.1658612E-008  0.3816820E+03  0.7957747E-01  0.3443867E+00
         13   -1    0    0    0    0  0.00000000000E+00  0.00000000000E+00  0.14999999963E+04  0.15000000000E+04  0.10566000000E+00 0.  1.
        994   -1    0    0    0    0 -0.00000000000E+00 -0.00000000000E+00  0.11368683772E-12  0.17120000000E+03  0.17120000000E+03 0.  0.
         13    1    1    2    0    0 -0.70931366310E+01 -0.12053192201E+02  0.28088569094E+02  0.31377872894E+02  0.10566000000E+00 0.  1.
        994    1    1    2    0    0  0.32708910155E+01  0.14518377992E+02  0.40231296500E+01  0.17189272119E+03  0.17120000000E+03 0.  0.
        998    1    1    2    0    0  0.38222456155E+01 -0.24651857906E+01  0.14678882975E+04  0.14679294059E+04  0.10000000000E+02 0.  1.
</event>
<event>
 5    1  0.1658612E-008  0.3812364E+03  0.7957747E-01  0.3445793E+00
         13   -1    0    0    0    0  0.00000000000E+00  0.00000000000E+00  0.14999999963E+04  0.15000000000E+04  0.10566000000E+00 0. -1.
        994   -1    0    0    0    0 -0.00000000000E+00 -0.00000000000E+00  0.11368683772E-12  0.17120000000E+03  0.17120000000E+03 0.  0.
         13    1    1    2    0    0  0.75846309263E+02 -0.39436839154E+02  0.22164257423E+03  0.23755708532E+03  0.10566000000E+00 0. -1.
        994    1    1    2    0    0 -0.29929349554E+02  0.29718075235E+02  0.23511347150E+02  0.17787960368E+03  0.17120000000E+03 0.  0.
        998    1    1    2    0    0 -0.45916959710E+02  0.97187639194E+01  0.12548460749E+04  0.12557633110E+04  0.10000000000E+02 0. -1.
</event>
<event>
 5    1  0.1658612E-008  0.3772690E+03  0.7957747E-01  0.3463137E+00
         13   -1    0    0    0    0  0.00000000000E+00  0.00000000000E+00  0.14999999963E+04  0.15000000000E+04  0.10566000000E+00 0.  1.
        994   -1    0    0    0    0 -0.00000000000E+00 -0.00000000000E+00  0.11368683772E-12  0.17120000000E+03  0.17120000000E+03 0.  0.
         13    1    1    2    0    0  0.18125116902E+02 -0.41558842004E+01  0.28742509812E+02  0.34233525535E+02  0.10566000000E+00 0.  1.
        994    1    1    2    0    0 -0.16351875595E+02  0.36572827492E+01  0.64658004336E+01  0.17213949613E+03  0.17120000000E+03 0.  0.
        998    1    1    2    0    0 -0.17732413073E+01  0.49860145121E+00  0.14647916860E+04  0.14648269783E+04  0.10000000000E+02 0.  1.
</event>
<event>
 5    1  0.1658612E-008  0.3844526E+03  0.7957747E-01  0.3431997E+00
         13   -1    0    0    0    0  0.00000000000E+00  0.00000000000E+00  0.14999999963E+04  0.15000000000E+04  0.10566000000E+00 0.  1.
        994   -1    0    0    0    0 -0.00000000000E+00 -0.00000000000E+00  0.11368683772E-12  0.17120000000E+03  0.17120000000E+03 0.  0.
         13    1    1    2    0    0  0.23107372327E+01 -0.15990460037E+02  0.64972480684E+02  0.66951241430E+02  0.10566000000E+00 0.  1.
        994    1    1    2    0    0 -0.96416998002E+00  0.19339149377E+02  0.31383376674E+01  0.17232011341E+03  0.17120000000E+03 0.  0.
        998    1    1    2    0    0 -0.13465672527E+01 -0.33486893400E+01  0.14318891779E+04  0.14319286452E+04  0.10000000000E+02 0.  1.
</event>
<event>
 5    1  0.1658612E-008  0.3775822E+03  0.7957747E-01  0.3461754E+00
         13   -1    0    0    0    0  0.00000000000E+00  0.00000000000E+00  0.14999999963E+04  0.15000000000E+04  0.10566000000E+00 0. -1.
        994   -1    0    0    0    0 -0.00000000000E+00 -0.00000000000E+00  0.11368683772E-12  0.17120000000E+03  0.17120000000E+03 0.  0.
         13    1    1    2    0    0 -0.16770664189E+02 -0.69834780092E+01  0.27944064218E+02  0.33330256997E+02  0.10566000000E+00 0. -1.
        994    1    1    2    0    0  0.17486005968E+02  0.11764985413E+02  0.68568861288E+01  0.17262859605E+03  0.17120000000E+03 0.  0.
        998    1    1    2    0    0 -0.71534177940E+00 -0.47815074036E+01  0.14651990459E+04  0.14652411470E+04  0.10000000000E+02 0. -1.
</event>
<event>
 5    1  0.1658612E-008  0.3809680E+03  0.7957747E-01  0.3446954E+00
         13   -1    0    0    0    0  0.00000000000E+00  0.00000000000E+00  0.14999999963E+04  0.15000000000E+04  0.10566000000E+00 0.  1.
        994   -1    0    0    0    0 -0.00000000000E+00 -0.00000000000E+00  0.11368683772E-12  0.17120000000E+03  0.17120000000E+03 0.  0.
         13    1    1    2    0    0  0.27726321869E+02 -0.91794717369E+01  0.10553445501E+03  0.10950134239E+03  0.10566000000E+00 0.  1.
        994    1    1    2    0    0 -0.33410282288E+02  0.87409104512E+01  0.76297067759E+01  0.17481505342E+03  0.17120000000E+03 0.  0.
        998    1    1    2    0    0  0.56839604191E+01  0.43856128567E+00  0.13868358345E+04  0.13868836042E+04  0.10000000000E+02 0.  1.
</event>
<event>
 5    1  0.1658612E-008  0.3852602E+03  0.7957747E-01  0.3428570E+00
         13   -1    0    0    0    0  0.00000000000E+00  0.00000000000E+00  0.14999999963E+04  0.15000000000E+04  0.10566000000E+00 0.  1.
        994   -1    0    0    0    0 -0.00000000000E+00 -0.00000000000E+00  0.11368683772E-12  0.17120000000E+03  0.17120000000E+03 0.  0.
         13    1    1    2    0    0  0.12359212992E+02  0.15222407395E+01  0.53738515946E+02  0.55162547283E+02  0.10566000000E+00 0.  1.
        994    1    1    2    0    0 -0.25875957238E+01  0.38733109618E+01  0.15723339348E+01  0.17127057664E+03  0.17120000000E+03 0.  0.
        998    1    1    2    0    0 -0.97716172677E+01 -0.53955517013E+01  0.14446891464E+04  0.14447668761E+04  0.10000000000E+02 0.  1.
</event>
<event>
 5    1  0.1658612E-008  0.3745037E+03  0.7957747E-01  0.3475445E+00
         13   -1    0    0    0    0  0.00000000000E+00  0.00000000000E+00  0.14999999963E+04  0.15000000000E+04  0.10566000000E+00 0.  1.
        994   -1    0    0    0    0 -0.00000000000E+00 -0.00000000000E+00  0.11368683772E-12  0.17120000000E+03  0.17120000000E+03 0.  0.
         13    1    1    2    0    0  0.54298535245E+02  0.93446128971E+01  0.24260017651E+03  0.24877803265E+03  0.10566000000E+00 0.  1.
        994    1    1    2    0    0 -0.14119537261E+02 -0.49108139272E+01  0.76950642785E+01  0.17202363628E+03  0.17120000000E+03 0.  0.
        998    1    1    2    0    0 -0.40178997984E+02 -0.44337989699E+01  0.12497047555E+04  0.12503983311E+04  0.10000000000E+02 0.  1.
</event>
<event>
 5    1  0.1658612E-008  0.3702998E+03  0.7957747E-01  0.3494514E+00
         13   -1    0    0    0    0  0.00000000000E+00  0.00000000000E+00  0.14999999963E+04  0.15000000000E+04  0.10566000000E+00 0. -1.
        994   -1    0    0    0    0 -0.00000000000E+00 -0.00000000000E+00  0.11368683772E-12  0.17120000000E+03  0.17120000000E+03 0.  0.
         13    1    1    2    0    0  0.97607638034E+02 -0.12588576494E+03  0.77456215284E+03  0.79077241770E+03  0.10566000000E+00 0. -1.
        994    1    1    2    0    0 -0.88382518165E+02  0.95374086065E+02  0.72856407343E+02  0.22699158993E+03  0.17120000000E+03 0.  0.
        998    1    1    2    0    0 -0.92251198691E+01  0.30511678876E+02  0.65258143609E+03  0.65343599236E+03  0.10000000000E+02 0. -1.
</event>
<event>
 5    1  0.1658612E-008  0.3829580E+03  0.7957747E-01  0.3438379E+00
         13   -1    0    0    0    0  0.00000000000E+00  0.00000000000E+00  0.14999999963E+04  0.15000000000E+04  0.10566000000E+00 0. -1.
        994   -1    0    0    0    0 -0.00000000000E+00 -0.00000000000E+00  0.11368683772E-12  0.17120000000E+03  0.17120000000E+03 0.  0.
         13    1    1    2    0    0  0.12767246202E+02  0.20073251267E+01  0.30447984335E+02  0.33077527777E+02  0.10566000000E+00 0. -1.
        994    1    1    2    0    0 -0.10633166017E+02 -0.95794407451E+00  0.30247970898E+01  0.17155923547E+03  0.17120000000E+03 0.  0.
        998    1    1    2    0    0 -0.21340801849E+01 -0.10493810522E+01  0.14665272149E+04  0.14665632368E+04  0.10000000000E+02 0. -1.
</event>
<event>
 5    1  0.1658612E-008  0.3861646E+03  0.7957747E-01  0.3424748E+00
         13   -1    0    0    0    0  0.00000000000E+00  0.00000000000E+00  0.14999999963E+04  0.15000000000E+04  0.10566000000E+00 0. -1.
        994   -1    0    0    0    0 -0.00000000000E+00 -0.00000000000E+00  0.11368683772E-12  0.17120000000E+03  0.17120000000E+03 0.  0.
         13    1    1    2    0    0  0.11650526355E+02  0.62348641342E-01  0.69513729110E+02  0.70483390600E+02  0.10566000000E+00 0. -1.
        994    1    1    2    0    0 -0.29163462467E+00 -0.37025855866E+01  0.10982068572E+01  0.17124380353E+03  0.17120000000E+03 0.  0.
        998    1    1    2    0    0 -0.11358891730E+02  0.36402369452E+01  0.14293880603E+04  0.14294728059E+04  0.10000000000E+02 0. -1.
</event>
<event>
 5    1  0.1658612E-008  0.3811929E+03  0.7957747E-01  0.3445981E+00
         13   -1    0    0    0    0  0.00000000000E+00  0.00000000000E+00  0.14999999963E+04  0.15000000000E+04  0.10566000000E+00 0. -1.
        994   -1    0    0    0    0 -0.00000000000E+00 -0.00000000000E+00  0.11368683772E-12  0.17120000000E+03  0.17120000000E+03 0.  0.
         13    1    1    2    0    0  0.18626559498E+02 -0.38465777682E+02  0.15994864507E+03  0.16556009481E+03  0.10566000000E+00 0. -1.
        994    1    1    2    0    0 -0.11949857668E+02  0.10367103224E+03  0.40688087978E+02  0.20458602721E+03  0.17120000000E+03 0.  0.
        998    1    1    2    0    0 -0.66767018300E+01 -0.65205254561E+02  0.12993632632E+04  0.13010538780E+04  0.10000000000E+02 0. -1.
</event>
<event>
 5    1  0.1658612E-008  0.3848929E+03  0.7957747E-01  0.3430126E+00
         13   -1    0    0    0    0  0.00000000000E+00  0.00000000000E+00  0.14999999963E+04  0.15000000000E+04  0.10566000000E+00 0.  1.
        994   -1    0    0    0    0 -0.00000000000E+00 -0.00000000000E+00  0.11368683772E-12  0.17120000000E+03  0.17120000000E+03 0.  0.
         13    1    1    2    0    0  0.11161447488E+02  0.10822174067E+02  0.68658610583E+02  0.70396827576E+02  0.10566000000E+00 0.  1.
        994    1    1    2    0    0 -0.10921990108E+02 -0.13365970678E+02  0.26640659606E+01  0.17208857105E+03  0.17120000000E+03 0.  0.
        998    1    1    2    0    0 -0.23945737960E+00  0.25437966110E+01  0.14286773197E+04  0.14287146014E+04  0.10000000000E+02 0.  1.
</event>
<event>
 5    1  0.1658612E-008  0.3787395E+03  0.7957747E-01  0.3456665E+00
         13   -1    0    0    0    0  0.00000000000E+00  0.00000000000E+00  0.14999999963E+04  0.15000000000E+04  0.10566000000E+00 0.  1.
        994   -1    0    0    0    0 -0.00000000000E+00 -0.00000000000E+00  0.11368683772E-12  0.17120000000E+03  0.17120000000E+03 0.  0.
         13    1    1    2    0    0 -0.28230392390E+02  0.19421460890E+02  0.13146256572E+03  0.13585494304E+03  0.10566000000E+00 0.  1.
        994    1    1    2    0    0  0.72860230154E+01 -0.39185498954E+00  0.49495225400E+01  0.17142688662E+03  0.17120000000E+03 0.  0.
        998    1    1    2    0    0  0.20944369375E+02 -0.19029605900E+02  0.13635879080E+04  0.13639181703E+04  0.10000000000E+02 0.  1.
</event>
<event>
 5    1  0.1658612E-008  0.3848832E+03  0.7957747E-01  0.3430168E+00
         13   -1    0    0    0    0  0.00000000000E+00  0.00000000000E+00  0.14999999963E+04  0.15000000000E+04  0.10566000000E+00 0. -1.
        994   -1    0    0    0    0 -0.00000000000E+00 -0.00000000000E+00  0.11368683772E-12  0.17120000000E+03  0.17120000000E+03 0.  0.
         13    1    1    2    0    0 -0.10396268263E+02 -0.12241410748E+02  0.74878366066E+02  0.76581429862E+02  0.10566000000E+00 0. -1.
        994    1    1    2    0    0  0.11172307434E+02  0.81475722429E+01  0.23174493817E+01  0.17177314679E+03  0.17120000000E+03 0.  0.
        998    1    1    2    0    0 -0.77603917132E+00  0.40938385048E+01  0.14228041808E+04  0.14228454233E+04  0.10000000000E+02 0. -1.
</event>
<event>
 5    1  0.1658612E-008  0.3824554E+03  0.7957747E-01  0.3440537E+00
         13   -1    0    0    0    0  0.00000000000E+00  0.00000000000E+00  0.14999999963E+04  0.15000000000E+04  0.10566000000E+00 0.  1.
        994   -1    0    0    0    0 -0.00000000000E+00 -0.00000000000E+00  0.11368683772E-12  0.17120000000E+03  0.17120000000E+03 0.  0.
         13    1    1    2    0    0 -0.15176860011E+02  0.30247700229E+01  0.40923812048E+02  0.43752209887E+02  0.10566000000E+00 0.  1.
        994    1    1    2    0    0  0.67068785594E+01 -0.46346319752E+00  0.30486933506E+01  0.17135907198E+03  0.17120000000E+03 0.  0.
        998    1    1    2    0    0  0.84699814514E+01 -0.25613068254E+01  0.14560274909E+04  0.14560887181E+04  0.10000000000E+02 0.  1.
</event>
<event>
 5    1  0.1658612E-008  0.3734254E+03  0.7957747E-01  0.3480295E+00
         13   -1    0    0    0    0  0.00000000000E+00  0.00000000000E+00  0.14999999963E+04  0.15000000000E+04  0.10566000000E+00 0. -1.
        994   -1    0    0    0    0 -0.00000000000E+00 -0.00000000000E+00  0.11368683772E-12  0.17120000000E+03  0.17120000000E+03 0.  0.
         13    1    1    2    0    0 -0.54892146632E+02 -0.48097965074E+02  0.38957895003E+03  0.39635631883E+03  0.10566000000E+00 0. -1.
        994    1    1    2    0    0  0.66920885140E+01  0.40201900982E+02  0.13186957728E+02  0.17647751343E+03  0.17120000000E+03 0.  0.
        998    1    1    2    0    0  0.48200058118E+02  0.78960640923E+01  0.10972340885E+04  0.10983661677E+04  0.10000000000E+02 0. -1.
</event>
<event>
 5    1  0.1658612E-008  0.3789433E+03  0.7957747E-01  0.3455773E+00
         13   -1    0    0    0    0  0.00000000000E+00  0.00000000000E+00  0.14999999963E+04  0.15000000000E+04  0.10566000000E+00 0. -1.
        994   -1    0    0    0    0 -0.00000000000E+00 -0.00000000000E+00  0.11368683772E-12  0.17120000000E+03  0.17120000000E+03 0.  0.
         13    1    1    2    0    0 -0.17956422889E+02 -0.29728459625E+02  0.32176334497E+02  0.47344926870E+02  0.10566000000E+00 0. -1.
        994    1    1    2    0    0 -0.45767975687E+00  0.28235063564E+02  0.18631599519E+02  0.17451075837E+03  0.17120000000E+03 0.  0.
        998    1    1    2    0    0  0.18414102646E+02  0.14933960611E+01  0.14491920623E+04  0.14493443148E+04  0.10000000000E+02 0. -1.
</event>
<event>
 5    1  0.1658612E-008  0.3826247E+03  0.7957747E-01  0.3439809E+00
         13   -1    0    0    0    0  0.00000000000E+00  0.00000000000E+00  0.14999999963E+04  0.15000000000E+04  0.10566000000E+00 0. -1.
        994   -1    0    0    0    0 -0.00000000000E+00 -0.00000000000E+00  0.11368683772E-12  0.17120000000E+03  0.17120000000E+03 0.  0.
         13    1    1    2    0    0  0.23887748295E+02 -0.17486993127E+01  0.10600056485E+03  0.10867296527E+03  0.10566000000E+00 0. -1.
        994    1    1    2    0    0 -0.71860126651E+01  0.99471458019E+00  0.29885010957E+01  0.17137969359E+03  0.17120000000E+03 0.  0.
        998    1    1    2    0    0 -0.16701735629E+02  0.75398473251E+00  0.13910109303E+04  0.13911473411E+04  0.10000000000E+02 0. -1.
</event>
<event>
 5    1  0.1658612E-008  0.3857944E+03  0.7957747E-01  0.3426310E+00
         13   -1    0    0    0    0  0.00000000000E+00  0.00000000000E+00  0.14999999963E+04  0.15000000000E+04  0.10566000000E+00 0.  1.
        994   -1    0    0    0    0 -0.00000000000E+00 -0.00000000000E+00  0.11368683772E-12  0.17120000000E+03  0.17120000000E+03 0.  0.
         13    1    1    2    0    0 -0.12057981346E+02  0.38885691394E+01  0.61330025143E+02  0.62625067123E+02  0.10566000000E+00 0.  1.
        994    1    1    2    0    0  0.18862229403E+02  0.63606388692E-01  0.24041482572E+01  0.17225274359E+03  0.17120000000E+03 0.  0.
        998    1    1    2    0    0 -0.68042480575E+01 -0.39521755281E+01  0.14362658229E+04  0.14363221893E+04  0.10000000000E+02 0.  1.
</event>
<event>
 5    1  0.1658612E-008  0.3760312E+03  0.7957747E-01  0.3468624E+00
         13   -1    0    0    0    0  0.00000000000E+00  0.00000000000E+00  0.14999999963E+04  0.15000000000E+04  0.10566000000E+00 0. -1.
        994   -1    0    0    0    0 -0.00000000000E+00 -0.00000000000E+00  0.11368683772E-12  0.17120000000E+03  0.17120000000E+03 0.  0.
         13    1    1    2    0    0  0.19069410705E+02 -0.84661904283E+01  0.33412094324E+02  0.39391598294E+02  0.10566000000E+00 0. -1.
        994    1    1    2    0    0 -0.62714318077E+01  0.70341551842E+01  0.64510235673E+01  0.17158049394E+03  0.17120000000E+03 0.  0.
        998    1    1    2    0    0 -0.12797978897E+02  0.14320352441E+01  0.14601368784E+04  0.14602279078E+04  0.10000000000E+02 0. -1.
</event>
<event>
 5    1  0.1658612E-008  0.3876374E+03  0.7957747E-01  0.3418563E+00
         13   -1    0    0    0    0  0.00000000000E+00  0.00000000000E+00  0.14999999963E+04  0.15000000000E+04  0.10566000000E+00 0.  1.
        994   -1    0    0    0    0 -0.00000000000E+00 -0.00000000000E+00  0.11368683772E-12  0.17120000000E+03  0.17120000000E+03 0.  0.
         13    1    1    2    0    0  0.17453313830E+01 -0.15842312679E+02 -0.31655752981E+01  0.16249833342E+02  0.10566000000E+00 0.  1.
        994    1    1    2    0    0  0.48902142980E+01  0.16218919661E+02  0.21658061215E+02  0.17339399980E+03  0.17120000000E+03 0.  0.
        998    1    1    2    0    0 -0.66355456809E+01 -0.37660698251E+00  0.14815075104E+04  0.14815561669E+04  0.10000000000E+02 0.  1.
</event>
<event>
 5    1  0.1658612E-008  0.3774603E+03  0.7957747E-01  0.3462292E+00
         13   -1    0    0    0    0  0.00000000000E+00  0.00000000000E+00  0.14999999963E+04  0.15000000000E+04  0.10566000000E+00 0. -1.
        994   -1    0    0    0    0 -0.00000000000E+00 -0.00000000000E+00  0.11368683772E-12  0.17120000000E+03  0.17120000000E+03 0.  0.
         13    1    1    2    0    0  0.18808251112E+02  0.27184782709E+02  0.92138207995E+02  0.97888831117E+02  0.10566000000E+00 0. -1.
        994    1    1    2    0    0 -0.14662265187E+02 -0.33964481292E+02  0.10048362864E+02  0.17543938442E+03  0.17120000000E+03 0.  0.
        998    1    1    2    0    0 -0.41459859256E+01  0.67796985832E+01  0.13978134254E+04  0.13978717845E+04  0.10000000000E+02 0. -1.
</event>
<event>
 5    1  0.1658612E-008  0.3054417E+03  0.7957747E-01  0.3857920E+00
         13   -1    0    0    0    0  0.00000000000E+00  0.00000000000E+00  0.14999999963E+04  0.15000000000E+04  0.10566000000E+00 0. -1.
        994   -1    0    0    0    0 -0.00000000000E+00 -0.00000000000E+00  0.11368683772E-12  0.17120000000E+03  0.17120000000E+03 0.  0.
         13    1    1    2    0    0  0.19103144647E+03 -0.54970417163E+02  0.70797814786E+03  0.73535558019E+03  0.10566000000E+00 0. -1.
        994    1    1    2    0    0 -0.15539136194E+03  0.56165782731E+02  0.12683050969E+03  0.26962286384E+03  0.17120000000E+03 0.  0.
        998    1    1    2    0    0 -0.35640084530E+02 -0.11953655681E+01  0.66519133872E+03  0.66622155597E+03  0.10000000000E+02 0. -1.
</event>
<event>
 5    1  0.1658612E-008  0.3786404E+03  0.7957747E-01  0.3457100E+00
         13   -1    0    0    0    0  0.00000000000E+00  0.00000000000E+00  0.14999999963E+04  0.15000000000E+04  0.10566000000E+00 0. -1.
        994   -1    0    0    0    0 -0.00000000000E+00 -0.00000000000E+00  0.11368683772E-12  0.17120000000E+03  0.17120000000E+03 0.  0.
         13    1    1    2    0    0 -0.18173557754E+02 -0.10494410686E+02  0.43336877257E+02  0.48150876954E+02  0.10566000000E+00 0. -1.
        994    1    1    2    0    0  0.19559156257E+02  0.30462265417E+00  0.61070413367E+01  0.17242212544E+03  0.17120000000E+03 0.  0.
        998    1    1    2    0    0 -0.13855985035E+01  0.10189788032E+02  0.14505560777E+04  0.14506269976E+04  0.10000000000E+02 0. -1.
</event>
<event>
 5    1  0.1658612E-008  0.3789804E+03  0.7957747E-01  0.3455610E+00
         13   -1    0    0    0    0  0.00000000000E+00  0.00000000000E+00  0.14999999963E+04  0.15000000000E+04  0.10566000000E+00 0. -1.
        994   -1    0    0    0    0 -0.00000000000E+00 -0.00000000000E+00  0.11368683772E-12  0.17120000000E+03  0.17120000000E+03 0.  0.
         13    1    1    2    0    0 -0.66081354982E+00  0.15883450999E+03  0.86042654986E+03  0.87496439762E+03  0.10566000000E+00 0. -1.
        994    1    1    2    0    0  0.75986935212E+01 -0.16596070718E+03  0.10361038167E+03  0.26008700018E+03  0.17120000000E+03 0.  0.
        998    1    1    2    0    0 -0.69378799714E+01  0.71261971909E+01  0.53596306475E+03  0.53614860220E+03  0.10000000000E+02 0.  1.
</event>
<event>
 5    1  0.1658612E-008  0.3798607E+03  0.7957747E-01  0.3451765E+00
         13   -1    0    0    0    0  0.00000000000E+00  0.00000000000E+00  0.14999999963E+04  0.15000000000E+04  0.10566000000E+00 0.  1.
        994   -1    0    0    0    0 -0.00000000000E+00 -0.00000000000E+00  0.11368683772E-12  0.17120000000E+03  0.17120000000E+03 0.  0.
         13    1    1    2    0    0 -0.15608164209E+02 -0.43124239092E+01  0.30915345341E+02  0.34899592140E+02  0.10566000000E+00 0.  1.
        994    1    1    2    0    0 -0.20945005249E+01 -0.73917135207E+01  0.44009083288E+01  0.17142879675E+03  0.17120000000E+03 0.  0.
        998    1    1    2    0    0  0.17702664734E+02  0.11704137430E+02  0.14646837426E+04  0.14648716111E+04  0.10000000000E+02 0.  1.
</event>
<event>
 5    1  0.1658612E-008  0.3737996E+03  0.7957747E-01  0.3478609E+00
         13   -1    0    0    0    0  0.00000000000E+00  0.00000000000E+00  0.14999999963E+04  0.15000000000E+04  0.10566000000E+00 0.  1.
        994   -1    0    0    0    0 -0.00000000000E+00 -0.00000000000E+00  0.11368683772E-12  0.17120000000E+03  0.17120000000E+03 0.  0.
         13    1    1    2    0    0 -0.30488606324E+02  0.51565549349E+01  0.60422346558E+02  0.67875004987E+02  0.10566000000E+00 0.  1.
        994    1    1    2    0    0  0.31184201562E+02 -0.42410934780E+01  0.10684312569E+02  0.17439620362E+03  0.17120000000E+03 0.  0.
        998    1    1    2    0    0 -0.69559523788E+00 -0.91546145684E+00  0.14288933372E+04  0.14289287914E+04  0.10000000000E+02 0.  1.
</event>
<event>
 5    1  0.1658612E-008  0.3811485E+03  0.7957747E-01  0.3446173E+00
         13   -1    0    0    0    0  0.00000000000E+00  0.00000000000E+00  0.14999999963E+04  0.15000000000E+04  0.10566000000E+00 0.  1.
        994   -1    0    0    0    0 -0.00000000000E+00 -0.00000000000E+00  0.11368683772E-12  0.17120000000E+03  0.17120000000E+03 0.  0.
         13    1    1    2    0    0 -0.35570091249E+02  0.28107844456E+01  0.14677552945E+03  0.15105031979E+03  0.10566000000E+00 0.  1.
        994    1    1    2    0    0  0.51286467231E+02  0.57531572243E+01  0.12475739057E+02  0.17924420382E+03  0.17120000000E+03 0.  0.
        998    1    1    2    0    0 -0.15716375981E+02 -0.85639416699E+01  0.13407487278E+04  0.13409054764E+04  0.10000000000E+02 0.  1.
</event>
<event>
 5    1  0.1658612E-008  0.3855339E+03  0.7957747E-01  0.3427411E+00
         13   -1    0    0    0    0  0.00000000000E+00  0.00000000000E+00  0.14999999963E+04  0.15000000000E+04  0.10566000000E+00 0. -1.
        994   -1    0    0    0    0 -0.00000000000E+00 -0.00000000000E+00  0.11368683772E-12  0.17120000000E+03  0.17120000000E+03 0.  0.
         13    1    1    2    0    0 -0.17195981298E+02  0.38969677900E+00  0.10189995785E+03  0.10334150285E+03  0.10566000000E+00 0. -1.
        994    1    1    2    0    0  0.19131829063E+02  0.90703169207E+01  0.28384505085E+01  0.17252766252E+03  0.17120000000E+03 0.  0.
        998    1    1    2    0    0 -0.19358477650E+01 -0.94600136997E+01  0.13952615879E+04  0.13953308346E+04  0.10000000000E+02 0. -1.
</event>
<event>
 5    1  0.1658612E-008  0.4139398E+03  0.7957747E-01  0.3315502E+00
         13   -1    0    0    0    0  0.00000000000E+00  0.00000000000E+00  0.14999999963E+04  0.15000000000E+04  0.10566000000E+00 0.  1.
        994   -1    0    0    0    0 -0.00000000000E+00 -0.00000000000E+00  0.11368683772E-12  0.17120000000E+03  0.17120000000E+03 0.  0.
         13    1    1    2    0    0 -0.13094499957E+03  0.69561014627E+02  0.23769537823E+03  0.28015073026E+03  0.10566000000E+00 0.  1.
        994    1    1    2    0    0  0.12300782852E+03 -0.81354442271E+02  0.13419630759E+03  0.26280707777E+03  0.17120000000E+03 0.  0.
        998    1    1    2    0    0  0.79371710525E+01  0.11793427643E+02  0.11281083105E+04  0.11282421920E+04  0.10000000000E+02 0.  1.
</event>
<event>
 5    1  0.1658612E-008  0.3828592E+03  0.7957747E-01  0.3438803E+00
         13   -1    0    0    0    0  0.00000000000E+00  0.00000000000E+00  0.14999999963E+04  0.15000000000E+04  0.10566000000E+00 0. -1.
        994   -1    0    0    0    0 -0.00000000000E+00 -0.00000000000E+00  0.11368683772E-12  0.17120000000E+03  0.17120000000E+03 0.  0.
         13    1    1    2    0    0 -0.22845943643E+02  0.15248517465E+01  0.92201292934E+02  0.95001852068E+02  0.10566000000E+00 0. -1.
        994    1    1    2    0    0  0.22730009639E+02  0.11019943929E+02  0.48127439706E+01  0.17312046386E+03  0.17120000000E+03 0.  0.
        998    1    1    2    0    0  0.11593400416E+00 -0.12544795675E+02  0.14029859594E+04  0.14030776841E+04  0.10000000000E+02 0. -1.
</event>
<event>
 5    1  0.1658612E-008  0.3831533E+03  0.7957747E-01  0.3437542E+00
         13   -1    0    0    0    0  0.00000000000E+00  0.00000000000E+00  0.14999999963E+04  0.15000000000E+04  0.10566000000E+00 0.  1.
        994   -1    0    0    0    0 -0.00000000000E+00 -0.00000000000E+00  0.11368683772E-12  0.17120000000E+03  0.17120000000E+03 0.  0.
         13    1    1    2    0    0  0.18848770087E+02 -0.12578590740E+03  0.33008483862E+03  0.35374197162E+03  0.10566000000E+00 0.  1.
        994    1    1    2    0    0 -0.23407724784E+02  0.12732908767E+03  0.82441134034E+02  0.22992737707E+03  0.17120000000E+03 0.  0.
        998    1    1    2    0    0  0.45589546969E+01 -0.15431802734E+01  0.10874740236E+04  0.10875306513E+04  0.10000000000E+02 0.  1.
</event>
<event>
 5    1  0.1658612E-008  0.3842079E+03  0.7957747E-01  0.3433038E+00
         13   -1    0    0    0    0  0.00000000000E+00  0.00000000000E+00  0.14999999963E+04  0.15000000000E+04  0.10566000000E+00 0.  1.
        994   -1    0    0    0    0 -0.00000000000E+00 -0.00000000000E+00  0.11368683772E-12  0.17120000000E+03  0.17120000000E+03 0.  0.
         13    1    1    2    0    0  0.21242894199E+02 -0.45125639789E+01  0.10900937730E+03  0.11115160499E+03  0.10566000000E+00 0.  1.
        994    1    1    2    0    0 -0.23220105583E+02 -0.21913359081E+01  0.38194963929E+01  0.17282362052E+03  0.17120000000E+03 0.  0.
        998    1    1    2    0    0  0.19772113839E+01  0.67038998870E+01  0.13871711226E+04  0.13872247745E+04  0.10000000000E+02 0.  1.
</event>
<event>
 5    1  0.1658612E-008  0.3809746E+03  0.7957747E-01  0.3446926E+00
         13   -1    0    0    0    0  0.00000000000E+00  0.00000000000E+00  0.14999999963E+04  0.15000000000E+04  0.10566000000E+00 0. -1.
        994   -1    0    0    0    0 -0.00000000000E+00 -0.00000000000E+00  0.11368683772E-12  0.17120000000E+03  0.17120000000E+03 0.  0.
         13    1    1    2    0    0  0.31601619689E+01 -0.16545748945E+02  0.39198905806E+02  0.42665135794E+02  0.10566000000E+00 0. -1.
        994    1    1    2    0    0 -0.14605085862E+02 -0.32220345157E+01  0.43877267850E+01  0.17190806318E+03  0.17120000000E+03 0.  0.
        998    1    1    2    0    0  0.11444923893E+02  0.19767783461E+02  0.14564133637E+04  0.14566268010E+04  0.10000000000E+02 0. -1.
</event>
<event>
 5    1  0.1658612E-008  0.3768707E+03  0.7957747E-01  0.3464898E+00
         13   -1    0    0    0    0  0.00000000000E+00  0.00000000000E+00  0.14999999963E+04  0.15000000000E+04  0.10566000000E+00 0. -1.
        994   -1    0    0    0    0 -0.00000000000E+00 -0.00000000000E+00  0.11368683772E-12  0.17120000000E+03  0.17120000000E+03 0.  0.
         13    1    1    2    0    0 -0.17427705316E+02 -0.35701608457E+01  0.24907346524E+02  0.30608136760E+02  0.10566000000E+00 0. -1.
        994    1    1    2    0    0  0.17266152743E+02  0.41979024955E+01  0.67884749594E+01  0.17225349288E+03  0.17120000000E+03 0.  0.
        998    1    1    2    0    0  0.16155257260E+00 -0.62774164979E+00  0.14683041748E+04  0.14683383704E+04  0.10000000000E+02 0. -1.
</event>
<event>
 5    1  0.1658612E-008  0.3853629E+03  0.7957747E-01  0.3428135E+00
         13   -1    0    0    0    0  0.00000000000E+00  0.00000000000E+00  0.14999999963E+04  0.15000000000E+04  0.10566000000E+00 0.  1.
        994   -1    0    0    0    0 -0.00000000000E+00 -0.00000000000E+00  0.11368683772E-12  0.17120000000E+03  0.17120000000E+03 0.  0.
         13    1    1    2    0    0 -0.63077354091E+01  0.12948864697E+02  0.66479696530E+02  0.68022215766E+02  0.10566000000E+00 0.  1.
        994    1    1    2    0    0  0.13738681683E+02 -0.16726614463E+02  0.29906152553E+01  0.17258886055E+03  0.17120000000E+03 0.  0.
        998    1    1    2    0    0 -0.74309462735E+01  0.37777497663E+01  0.14305296845E+04  0.14305889237E+04  0.10000000000E+02 0.  1.
</event>
<event>
 5    1  0.1658612E-008  0.3831833E+03  0.7957747E-01  0.3437414E+00
         13   -1    0    0    0    0  0.00000000000E+00  0.00000000000E+00  0.14999999963E+04  0.15000000000E+04  0.10566000000E+00 0. -1.
        994   -1    0    0    0    0 -0.00000000000E+00 -0.00000000000E+00  0.11368683772E-12  0.17120000000E+03  0.17120000000E+03 0.  0.
         13    1    1    2    0    0 -0.13739657565E+02 -0.25023414275E+01  0.39734682524E+02  0.42117645493E+02  0.10566000000E+00 0. -1.
        994    1    1    2    0    0 -0.42570045212E+01  0.49028141681E+01  0.26742893860E+01  0.17134395670E+03  0.17120000000E+03 0.  0.
        998    1    1    2    0    0  0.17996662086E+02 -0.24004727407E+01  0.14575910244E+04  0.14577383978E+04  0.10000000000E+02 0. -1.
</event>
<event>
 5    1  0.1658612E-008  0.3847057E+03  0.7957747E-01  0.3430921E+00
         13   -1    0    0    0    0  0.00000000000E+00  0.00000000000E+00  0.14999999963E+04  0.15000000000E+04  0.10566000000E+00 0.  1.
        994   -1    0    0    0    0 -0.00000000000E+00 -0.00000000000E+00  0.11368683772E-12  0.17120000000E+03  0.17120000000E+03 0.  0.
         13    1    1    2    0    0  0.11414857976E+02  0.84817182116E+01  0.58877064192E+02  0.60570276360E+02  0.10566000000E+00 0.  1.
        994    1    1    2    0    0 -0.24249734433E+01 -0.20299800887E+01  0.18092454705E+01  0.17123876513E+03  0.17120000000E+03 0.  0.
        998    1    1    2    0    0 -0.89898845324E+01 -0.64517381229E+01  0.14393136866E+04  0.14393909585E+04  0.10000000000E+02 0.  1.
</event>
<event>
 5    1  0.1658612E-008  0.3750142E+03  0.7957747E-01  0.3473159E+00
         13   -1    0    0    0    0  0.00000000000E+00  0.00000000000E+00  0.14999999963E+04  0.15000000000E+04  0.10566000000E+00 0.  1.
        994   -1    0    0    0    0 -0.00000000000E+00 -0.00000000000E+00  0.11368683772E-12  0.17120000000E+03  0.17120000000E+03 0.  0.
         13    1    1    2    0    0  0.27700502518E+02 -0.40126586925E+01  0.54629315780E+02  0.61382347431E+02  0.10566000000E+00 0.  1.
        994    1    1    2    0    0 -0.26032747604E+02  0.59248021652E+01  0.90980694647E+01  0.17350798857E+03  0.17120000000E+03 0.  0.
        998    1    1    2    0    0 -0.16677549137E+01 -0.19121434727E+01  0.14362726110E+04  0.14363096640E+04  0.10000000000E+02 0.  1.
</event>
<event>
 5    1  0.1658612E-008  0.3754652E+03  0.7957747E-01  0.3471145E+00
         13   -1    0    0    0    0  0.00000000000E+00  0.00000000000E+00  0.14999999963E+04  0.15000000000E+04  0.10566000000E+00 0. -1.
        994   -1    0    0    0    0 -0.00000000000E+00 -0.00000000000E+00  0.11368683772E-12  0.17120000000E+03  0.17120000000E+03 0.  0.
         13    1    1    2    0    0  0.46117325595E+02 -0.22857195685E+02  0.21851702511E+03  0.22449712814E+03  0.10566000000E+00 0. -1.
        994    1    1    2    0    0 -0.13871512847E+02  0.14248315542E+02  0.77832068907E+01  0.17252666946E+03  0.17120000000E+03 0.  0.
        998    1    1    2    0    0 -0.32245812748E+02  0.86088801425E+01  0.12736997643E+04  0.12741762024E+04  0.10000000000E+02 0. -1.
</event>
<event>
 5    1  0.1658612E-008  0.3789776E+03  0.7957747E-01  0.3455622E+00
         13   -1    0    0    0    0  0.00000000000E+00  0.00000000000E+00  0.14999999963E+04  0.15000000000E+04  0.10566000000E+00 0.  1.
        994   -1    0    0    0    0 -0.00000000000E+00 -0.00000000000E+00  0.11368683772E-12  0.17120000000E+03  0.17120000000E+03 0.  0.
         13    1    1    2    0    0  0.20850693665E+02 -0.16437117685E+02  0.80308672597E+02  0.84583830148E+02  0.10566000000E+00 0.  1.
        994    1    1    2    0    0  0.11233897438E+02  0.12131155396E+02  0.55676038941E+01  0.17208661655E+03  0.17120000000E+03 0.  0.
        998    1    1    2    0    0 -0.32084591103E+02  0.43059622896E+01  0.14141237198E+04  0.14145295533E+04  0.10000000000E+02 0.  1.
</event>
<event>
 5    1  0.1658612E-008  0.3824559E+03  0.7957747E-01  0.3440534E+00
         13   -1    0    0    0    0  0.00000000000E+00  0.00000000000E+00  0.14999999963E+04  0.15000000000E+04  0.10566000000E+00 0.  1.
        994   -1    0    0    0    0 -0.00000000000E+00 -0.00000000000E+00  0.11368683772E-12  0.17120000000E+03  0.17120000000E+03 0.  0.
         13    1    1    2    0    0 -0.17787579645E+02 -0.17591820819E+02  0.96654396175E+02  0.99839639489E+02  0.10566000000E+00 0.  1.
        994    1    1    2    0    0  0.31036769434E+02  0.15631885176E+02  0.69133912972E+01  0.17482812094E+03  0.17120000000E+03 0.  0.
        998    1    1    2    0    0 -0.13249189789E+02  0.19599356429E+01  0.13964322088E+04  0.13965322396E+04  0.10000000000E+02 0.  1.
</event>
<event>
 5    1  0.1658612E-008  0.3843923E+03  0.7957747E-01  0.3432254E+00
         13   -1    0    0    0    0  0.00000000000E+00  0.00000000000E+00  0.14999999963E+04  0.15000000000E+04  0.10566000000E+00 0.  1.
        994   -1    0    0    0    0 -0.00000000000E+00 -0.00000000000E+00  0.11368683772E-12  0.17120000000E+03  0.17120000000E+03 0.  0.
         13    1    1    2    0    0  0.10727238028E+02  0.21254104626E+02  0.14337885656E+03  0.14534207330E+03  0.10566000000E+00 0.  1.
        994    1    1    2    0    0 -0.91704510231E+01 -0.14311553953E+02  0.28847604656E+01  0.17206591641E+03  0.17120000000E+03 0.  0.
        998    1    1    2    0    0 -0.15567870051E+01 -0.69425506726E+01  0.13537363793E+04  0.13537920103E+04  0.10000000000E+02 0.  1.
</event>
<event>
 5    1  0.1658612E-008  0.3821591E+03  0.7957747E-01  0.3441811E+00
         13   -1    0    0    0    0  0.00000000000E+00  0.00000000000E+00  0.14999999963E+04  0.15000000000E+04  0.10566000000E+00 0.  1.
        994   -1    0    0    0    0 -0.00000000000E+00 -0.00000000000E+00  0.11368683772E-12  0.17120000000E+03  0.17120000000E+03 0.  0.
         13    1    1    2    0    0  0.16352407604E+02 -0.18077676527E+02  0.94705328378E+02  0.97792198105E+02  0.10566000000E+00 0.  1.
        994    1    1    2    0    0 -0.44293464084E+02 -0.12961109253E+02  0.10149269759E+02  0.17760165819E+03  0.17120000000E+03 0.  0.
        998    1    1    2    0    0  0.27941056480E+02  0.31038785780E+02  0.13951453981E+04  0.13958061437E+04  0.10000000000E+02 0.  1.
</event>
<event>
 5    1  0.1658612E-008  0.3830924E+03  0.7957747E-01  0.3437803E+00
         13   -1    0    0    0    0  0.00000000000E+00  0.00000000000E+00  0.14999999963E+04  0.15000000000E+04  0.10566000000E+00 0.  1.
        994   -1    0    0    0    0 -0.00000000000E+00 -0.00000000000E+00  0.11368683772E-12  0.17120000000E+03  0.17120000000E+03 0.  0.
         13    1    1    2    0    0 -0.15082017262E+02  0.19613533232E+02  0.12832024568E+03  0.13068379604E+03  0.10566000000E+00 0.  1.
        994    1    1    2    0    0 -0.30984002811E+01 -0.68759717043E+01  0.27684411751E+01  0.17138839908E+03  0.17120000000E+03 0.  0.
        998    1    1    2    0    0  0.18180417543E+02 -0.12737561527E+02  0.13689113094E+04  0.13691278049E+04  0.10000000000E+02 0.  1.
</event>
<event>
 5    1  0.1658612E-008  0.3727675E+03  0.7957747E-01  0.3483268E+00
         13   -1    0    0    0    0  0.00000000000E+00  0.00000000000E+00  0.14999999963E+04  0.15000000000E+04  0.10566000000E+00 0. -1.
        994   -1    0    0    0    0 -0.00000000000E+00 -0.00000000000E+00  0.11368683772E-12  0.17120000000E+03  0.17120000000E+03 0.  0.
         13    1    1    2    0    0  0.92145977650E+01  0.65874138033E+02  0.28206086424E+03  0.28979760726E+03  0.10566000000E+00 0. -1.
        994    1    1    2    0    0  0.75766123121E+01 -0.38768040556E+02  0.13192767435E+02  0.17619266482E+03  0.17120000000E+03 0.  0.
        998    1    1    2    0    0 -0.16791210077E+02 -0.27106097477E+02  0.12047463646E+04  0.12052097279E+04  0.10000000000E+02 0. -1.
</event>
<event>
 5    1  0.1658612E-008  0.3837158E+03  0.7957747E-01  0.3435137E+00
         13   -1    0    0    0    0  0.00000000000E+00  0.00000000000E+00  0.14999999963E+04  0.15000000000E+04  0.10566000000E+00 0. -1.
        994   -1    0    0    0    0 -0.00000000000E+00 -0.00000000000E+00  0.11368683772E-12  0.17120000000E+03  0.17120000000E+03 0.  0.
         13    1    1    2    0    0  0.90874406317E+01 -0.46270337795E+01  0.22865045906E+02  0.25036223899E+02  0.10566000000E+00 0. -1.
        994    1    1    2    0    0  0.20878035051E+01 -0.25863576430E+00  0.22836589403E+01  0.17122815456E+03  0.17120000000E+03 0.  0.
        998    1    1    2    0    0 -0.11175244137E+02  0.48856695438E+01  0.14748512914E+04  0.14749356215E+04  0.10000000000E+02 0. -1.
</event>
<event>
 5    1  0.1658612E-008  0.3704004E+03  0.7957747E-01  0.3494053E+00
         13   -1    0    0    0    0  0.00000000000E+00  0.00000000000E+00  0.14999999963E+04  0.15000000000E+04  0.10566000000E+00 0. -1.
        994   -1    0    0    0    0 -0.00000000000E+00 -0.00000000000E+00  0.11368683772E-12  0.17120000000E+03  0.17120000000E+03 0.  0.
         13    1    1    2    0    0  0.74458666367E+02 -0.58678864308E+02  0.39369201148E+03  0.40494532123E+03  0.10566000000E+00 0. -1.
        994    1    1    2    0    0 -0.58539945015E+02  0.61678433285E+02  0.34459437943E+02  0.19423709007E+03  0.17120000000E+03 0.  0.
        998    1    1    2    0    0 -0.15918721351E+02 -0.29995689767E+01  0.10718485469E+04  0.10720175887E+04  0.10000000000E+02 0. -1.
</event>
<event>
 5    1  0.1658612E-008  0.3825232E+03  0.7957747E-01  0.3440245E+00
         13   -1    0    0    0    0  0.00000000000E+00  0.00000000000E+00  0.14999999963E+04  0.15000000000E+04  0.10566000000E+00 0.  1.
        994   -1    0    0    0    0 -0.00000000000E+00 -0.00000000000E+00  0.11368683772E-12  0.17120000000E+03  0.17120000000E+03 0.  0.
         13    1    1    2    0    0  0.19831313720E+02 -0.16415378888E+02  0.12631048875E+03  0.12890731709E+03  0.10566000000E+00 0.  1.
        994    1    1    2    0    0 -0.32071066088E+01 -0.10013730682E+01  0.29022872887E+01  0.17125755911E+03  0.17120000000E+03 0.  0.
        998    1    1    2    0    0 -0.16624207112E+02  0.17416751956E+02  0.13707872202E+04  0.13710351238E+04  0.10000000000E+02 0.  1.
</event>
<event>
 5    1  0.1658612E-008  0.3763597E+03  0.7957747E-01  0.3467164E+00
         13   -1    0    0    0    0  0.00000000000E+00  0.00000000000E+00  0.14999999963E+04  0.15000000000E+04  0.10566000000E+00 0.  1.
        994   -1    0    0    0    0 -0.00000000000E+00 -0.00000000000E+00  0.11368683772E-12  0.17120000000E+03  0.17120000000E+03 0.  0.
         13    1    1    2    0    0  0.62689371834E+02  0.31933304845E+02  0.33409443662E+03  0.34142172901E+03  0.10566000000E+00 0.  1.
        994    1    1    2    0    0 -0.55116877133E+02 -0.36391570336E+02  0.20888103209E+02  0.18468343020E+03  0.17120000000E+03 0.  0.
        998    1    1    2    0    0 -0.75724947009E+01  0.44582654908E+01  0.11450174565E+04  0.11450948408E+04  0.10000000000E+02 0.  0.
</event>
<event>
 5    1  0.1658612E-008  0.3850875E+03  0.7957747E-01  0.3429301E+00
         13   -1    0    0    0    0  0.00000000000E+00  0.00000000000E+00  0.14999999963E+04  0.15000000000E+04  0.10566000000E+00 0.  1.
        994   -1    0    0    0    0 -0.00000000000E+00 -0.00000000000E+00  0.11368683772E-12  0.17120000000E+03  0.17120000000E+03 0.  0.
         13    1    1    2    0    0  0.32819841529E+01 -0.15052105393E+02  0.75852049578E+02  0.77400787373E+02  0.10566000000E+00 0.  1.
        994    1    1    2    0    0  0.23333466734E+01  0.89389619415E+01  0.18673665700E+01  0.17145925640E+03  0.17120000000E+03 0.  0.
        998    1    1    2    0    0 -0.56153308263E+01  0.61131434517E+01  0.14222805801E+04  0.14223399562E+04  0.10000000000E+02 0.  1.
</event>
<event>
 5    1  0.1658612E-008  0.3925506E+03  0.7957747E-01  0.3398267E+00
         13   -1    0    0    0    0  0.00000000000E+00  0.00000000000E+00  0.14999999963E+04  0.15000000000E+04  0.10566000000E+00 0. -1.
        994   -1    0    0    0    0 -0.00000000000E+00 -0.00000000000E+00  0.11368683772E-12  0.17120000000E+03  0.17120000000E+03 0.  0.
         13    1    1    2    0    0 -0.24939263389E+02  0.34944060460E+02  0.29684625306E+02  0.52194275198E+02  0.10566000000E+00 0. -1.
        994    1    1    2    0    0  0.28054335740E+02 -0.33244961274E+02  0.30623753086E+02  0.17927500511E+03  0.17120000000E+03 0.  0.
        998    1    1    2    0    0 -0.31150723513E+01 -0.16990991858E+01  0.14396916179E+04  0.14397307197E+04  0.10000000000E+02 0. -1.
</event>
<event>
 5    1  0.1658612E-008  0.3723010E+03  0.7957747E-01  0.3485382E+00
         13   -1    0    0    0    0  0.00000000000E+00  0.00000000000E+00  0.14999999963E+04  0.15000000000E+04  0.10566000000E+00 0. -1.
        994   -1    0    0    0    0 -0.00000000000E+00 -0.00000000000E+00  0.11368683772E-12  0.17120000000E+03  0.17120000000E+03 0.  0.
         13    1    1    2    0    0 -0.46179946627E+02  0.10271093388E+02  0.13040843757E+03  0.13872438353E+03  0.10566000000E+00 0. -1.
        994    1    1    2    0    0  0.38345982786E+02 -0.19498858425E+01  0.13145421876E+02  0.17594447581E+03  0.17120000000E+03 0.  0.
        998    1    1    2    0    0  0.78339638401E+01 -0.83212075454E+01  0.13564461368E+04  0.13565311407E+04  0.10000000000E+02 0. -1.
</event>
<event>
 5    1  0.1658612E-008  0.3846856E+03  0.7957747E-01  0.3431007E+00
         13   -1    0    0    0    0  0.00000000000E+00  0.00000000000E+00  0.14999999963E+04  0.15000000000E+04  0.10566000000E+00 0.  1.
        994   -1    0    0    0    0 -0.00000000000E+00 -0.00000000000E+00  0.11368683772E-12  0.17120000000E+03  0.17120000000E+03 0.  0.
         13    1    1    2    0    0 -0.11703199544E+02  0.86653803998E+01  0.62849607825E+02  0.64514634501E+02  0.10566000000E+00 0.  1.
        994    1    1    2    0    0  0.22276930853E+01  0.35198235855E+01  0.18434461932E+01  0.17126059111E+03  0.17120000000E+03 0.  0.
        998    1    1    2    0    0  0.94755064587E+01 -0.12185203985E+02  0.14353069423E+04  0.14354247744E+04  0.10000000000E+02 0.  1.
</event>
<event>
 5    1  0.1658612E-008  0.3804071E+03  0.7957747E-01  0.3449388E+00
         13   -1    0    0    0    0  0.00000000000E+00  0.00000000000E+00  0.14999999963E+04  0.15000000000E+04  0.10566000000E+00 0.  1.
        994   -1    0    0    0    0 -0.00000000000E+00 -0.00000000000E+00  0.11368683772E-12  0.17120000000E+03  0.17120000000E+03 0.  0.
         13    1    1    2    0    0 -0.39782104456E+01  0.11440721340E+02  0.16801206064E+02  0.20712507148E+02  0.10566000000E+00 0.  1.
        994    1    1    2    0    0  0.44197763008E+01 -0.12839809968E+02  0.45436264959E+01  0.17179778719E+03  0.17120000000E+03 0.  0.
        998    1    1    2    0    0 -0.44156585523E+00  0.13990886274E+01  0.14786551637E+04  0.14786897057E+04  0.10000000000E+02 0.  1.
</event>
<event>
 5    1  0.1658612E-008  0.3757991E+03  0.7957747E-01  0.3469657E+00
         13   -1    0    0    0    0  0.00000000000E+00  0.00000000000E+00  0.14999999963E+04  0.15000000000E+04  0.10566000000E+00 0.  1.
        994   -1    0    0    0    0 -0.00000000000E+00 -0.00000000000E+00  0.11368683772E-12  0.17120000000E+03  0.17120000000E+03 0.  0.
         13    1    1    2    0    0  0.26183111556E+02  0.32813686225E+02  0.14469219875E+03  0.15065900861E+03  0.10566000000E+00 0.  1.
        994    1    1    2    0    0 -0.12941844206E+02 -0.10619369552E+02  0.72196079024E+01  0.17216801410E+03  0.17120000000E+03 0.  0.
        998    1    1    2    0    0 -0.13241267350E+02 -0.22194316673E+02  0.13480881896E+04  0.13483729773E+04  0.10000000000E+02 0.  1.
</event>
<event>
 5    1  0.1658612E-008  0.3848827E+03  0.7957747E-01  0.3430170E+00
         13   -1    0    0    0    0  0.00000000000E+00  0.00000000000E+00  0.14999999963E+04  0.15000000000E+04  0.10566000000E+00 0.  1.
        994   -1    0    0    0    0 -0.00000000000E+00 -0.00000000000E+00  0.11368683772E-12  0.17120000000E+03  0.17120000000E+03 0.  0.
         13    1    1    2    0    0 -0.52281819571E-01  0.10914741171E+02  0.37202832865E+02  0.38771074855E+02  0.10566000000E+00 0.  1.
        994    1    1    2    0    0  0.47952473176E+01  0.49211369504E+01  0.18437314223E+01  0.17134774971E+03  0.17120000000E+03 0.  0.
        998    1    1    2    0    0 -0.47429654981E+01 -0.15835878121E+02  0.14609534320E+04  0.14610811754E+04  0.10000000000E+02 0.  1.
</event>
<event>
 5    1  0.1658612E-008  0.3764807E+03  0.7957747E-01  0.3466627E+00
         13   -1    0    0    0    0  0.00000000000E+00  0.00000000000E+00  0.14999999963E+04  0.15000000000E+04  0.10566000000E+00 0. -1.
        994   -1    0    0    0    0 -0.00000000000E+00 -0.00000000000E+00  0.11368683772E-12  0.17120000000E+03  0.17120000000E+03 0.  0.
         13    1    1    2    0    0 -0.40797380772E+02 -0.46076393015E+00  0.12917690518E+03  0.13546705347E+03  0.10566000000E+00 0. -1.
        994    1    1    2    0    0  0.39774559712E+02 -0.38153955649E+02  0.16264886689E+02  0.18058717139E+03  0.17120000000E+03 0.  0.
        998    1    1    2    0    0  0.10228210597E+01  0.38614719579E+02  0.13545582044E+04  0.13551457751E+04  0.10000000000E+02 0. -1.
</event>
<event>
 5    1  0.1658612E-008  0.3796546E+03  0.7957747E-01  0.3452664E+00
         13   -1    0    0    0    0  0.00000000000E+00  0.00000000000E+00  0.14999999963E+04  0.15000000000E+04  0.10566000000E+00 0.  1.
        994   -1    0    0    0    0 -0.00000000000E+00 -0.00000000000E+00  0.11368683772E-12  0.17120000000E+03  0.17120000000E+03 0.  0.
         13    1    1    2    0    0 -0.99698573056E+01  0.10302280384E+02  0.21849403369E+02  0.26133171017E+02  0.10566000000E+00 0.  1.
        994    1    1    2    0    0  0.39530899010E+01 -0.15215401015E+02  0.51351213601E+01  0.17199693259E+03  0.17120000000E+03 0.  0.
        998    1    1    2    0    0  0.60167674046E+01  0.49131206313E+01  0.14730154715E+04  0.14730698964E+04  0.10000000000E+02 0.  1.
</event>
<event>
 5    1  0.2192224E-008  0.3855638E+03  0.7957747E-01  0.3427285E+00
         13   -1    0    0    0    0  0.00000000000E+00  0.00000000000E+00  0.14999999963E+04  0.15000000000E+04  0.10566000000E+00 0. -1.
        994   -1    0    0    0    0 -0.00000000000E+00 -0.00000000000E+00  0.11368683772E-12  0.17120000000E+03  0.17120000000E+03 0.  0.
         13    1    1    2    0    0  0.10367252295E+02  0.15557862695E+01  0.41470259072E+02  0.42774921889E+02  0.10566000000E+00 0. -1.
        994    1    1    2    0    0 -0.49384012305E+01  0.31518575568E+01  0.14631510713E+01  0.17130645879E+03  0.17120000000E+03 0.  0.
        998    1    1    2    0    0 -0.54288510650E+01 -0.47076438263E+01  0.14570665861E+04  0.14571186193E+04  0.10000000000E+02 0. -1.
</event>
<event>
 5    1  0.1658612E-008  0.3823685E+03  0.7957747E-01  0.3440910E+00
         13   -1    0    0    0    0  0.00000000000E+00  0.00000000000E+00  0.14999999963E+04  0.15000000000E+04  0.10566000000E+00 0.  1.
        994   -1    0    0    0    0 -0.00000000000E+00 -0.00000000000E+00  0.11368683772E-12  0.17120000000E+03  0.17120000000E+03 0.  0.
         13    1    1    2    0    0  0.13987679042E+01 -0.14543120267E+02  0.36459975734E+02  0.39278491485E+02  0.10566000000E+00 0.  1.
        994    1    1    2    0    0 -0.14883417017E+01  0.73935705397E+00  0.29514770159E+01  0.17123350439E+03  0.17120000000E+03 0.  0.
        998    1    1    2    0    0  0.89573797550E-01  0.13803763213E+02  0.14605885435E+04  0.14606880041E+04  0.10000000000E+02 0.  1.
</event>
<event>
 5    1  0.1658612E-008  0.3720881E+03  0.7957747E-01  0.3486349E+00
         13   -1    0    0    0    0  0.00000000000E+00  0.00000000000E+00  0.14999999963E+04  0.15000000000E+04  0.10566000000E+00 0. -1.
        994   -1    0    0    0    0 -0.00000000000E+00 -0.00000000000E+00  0.11368683772E-12  0.17120000000E+03  0.17120000000E+03 0.  0.
         13    1    1    2    0    0  0.45445268715E+02  0.28085766680E+01  0.13025356936E+03  0.13798247731E+03  0.10566000000E+00 0. -1.
        994    1    1    2    0    0 -0.15031981653E+02 -0.25864435819E+02  0.11260111241E+02  0.17415843252E+03  0.17120000000E+03 0.  0.
        998    1    1    2    0    0 -0.30413287061E+02  0.23055859151E+02  0.13584863157E+04  0.13590590902E+04  0.10000000000E+02 0. -1.
</event>
<event>
 5    1  0.1658612E-008  0.3763296E+03  0.7957747E-01  0.3467298E+00
         13   -1    0    0    0    0  0.00000000000E+00  0.00000000000E+00  0.14999999963E+04  0.15000000000E+04  0.10566000000E+00 0.  1.
        994   -1    0    0    0    0 -0.00000000000E+00 -0.00000000000E+00  0.11368683772E-12  0.17120000000E+03  0.17120000000E+03 0.  0.
         13    1    1    2    0    0  0.15122332766E+03  0.19119097192E+02  0.52470334452E+03  0.54639513689E+03  0.10566000000E+00 0.  1.
        994    1    1    2    0    0 -0.14320690499E+03 -0.17245906482E+02  0.92999828095E+02  0.24241296779E+03  0.17120000000E+03 0.  0.
        998    1    1    2    0    0 -0.80164226773E+01 -0.18731907103E+01  0.88229682367E+03  0.88239189532E+03  0.10000000000E+02 0.  1.
</event>
<event>
 5    1  0.1658612E-008  0.3934009E+03  0.7957747E-01  0.3394806E+00
         13   -1    0    0    0    0  0.00000000000E+00  0.00000000000E+00  0.14999999963E+04  0.15000000000E+04  0.10566000000E+00 0.  1.
        994   -1    0    0    0    0 -0.00000000000E+00 -0.00000000000E+00  0.11368683772E-12  0.17120000000E+03  0.17120000000E+03 0.  0.
         13    1    1    2    0    0 -0.23013801840E+02 -0.33635210782E+02  0.26714829978E+02  0.48730440017E+02  0.10566000000E+00 0.  1.
        994    1    1    2    0    0  0.15666667676E+02  0.55075500177E+01  0.24944790109E+02  0.17380293478E+03  0.17120000000E+03 0.  0.
        998    1    1    2    0    0  0.73471341642E+01  0.28127660764E+02  0.14483403762E+04  0.14486666252E+04  0.10000000000E+02 0.  1.
</event>
<event>
 5    1  0.1658612E-008  0.3814783E+03  0.7957747E-01  0.3444747E+00
         13   -1    0    0    0    0  0.00000000000E+00  0.00000000000E+00  0.14999999963E+04  0.15000000000E+04  0.10566000000E+00 0.  1.
        994   -1    0    0    0    0 -0.00000000000E+00 -0.00000000000E+00  0.11368683772E-12  0.17120000000E+03  0.17120000000E+03 0.  0.
         13    1    1    2    0    0  0.11971266335E+02  0.47105245632E+01  0.22498022930E+02  0.25916644441E+02  0.10566000000E+00 0.  1.
        994    1    1    2    0    0 -0.14414969715E+02 -0.11198745495E+02  0.44980140031E+01  0.17222913628E+03  0.17120000000E+03 0.  0.
        998    1    1    2    0    0  0.24437033809E+01  0.64882209316E+01  0.14730039593E+04  0.14730542193E+04  0.10000000000E+02 0.  1.
</event>
<event>
 5    1  0.1658612E-008  0.3802136E+03  0.7957747E-01  0.3450229E+00
         13   -1    0    0    0    0  0.00000000000E+00  0.00000000000E+00  0.14999999963E+04  0.15000000000E+04  0.10566000000E+00 0.  1.
        994   -1    0    0    0    0 -0.00000000000E+00 -0.00000000000E+00  0.11368683772E-12  0.17120000000E+03  0.17120000000E+03 0.  0.
         13    1    1    2    0    0 -0.41819634630E+01 -0.34706672565E+02  0.14713715096E+03  0.15123291406E+03  0.10566000000E+00 0.  1.
        994    1    1    2    0    0 -0.10749245856E+02  0.25773282746E+02  0.66346993128E+01  0.17358936495E+03  0.17120000000E+03 0.  0.
        998    1    1    2    0    0  0.14931209319E+02  0.89333898189E+01  0.13462281460E+04  0.13463777210E+04  0.10000000000E+02 0.  1.
</event>
<event>
 5    1  0.1658612E-008  0.3828747E+03  0.7957747E-01  0.3438736E+00
         13   -1    0    0    0    0  0.00000000000E+00  0.00000000000E+00  0.14999999963E+04  0.15000000000E+04  0.10566000000E+00 0. -1.
        994   -1    0    0    0    0 -0.00000000000E+00 -0.00000000000E+00  0.11368683772E-12  0.17120000000E+03  0.17120000000E+03 0.  0.
         13    1    1    2    0    0 -0.13981111704E+02  0.30210030705E+01  0.38466732565E+02  0.41040207386E+02  0.10566000000E+00 0. -1.
        994    1    1    2    0    0 -0.20437205219E+01 -0.14664928412E+02  0.34153397728E+01  0.17187303880E+03  0.17120000000E+03 0.  0.
        998    1    1    2    0    0  0.16024832226E+02  0.11643925342E+02  0.14581179239E+04  0.14582867538E+04  0.10000000000E+02 0. -1.
</event>
<event>
 5    1  0.1658612E-008  0.3779340E+03  0.7957747E-01  0.3460204E+00
         13   -1    0    0    0    0  0.00000000000E+00  0.00000000000E+00  0.14999999963E+04  0.15000000000E+04  0.10566000000E+00 0.  1.
        994   -1    0    0    0    0 -0.00000000000E+00 -0.00000000000E+00  0.11368683772E-12  0.17120000000E+03  0.17120000000E+03 0.  0.
         13    1    1    2    0    0  0.23644463525E+02 -0.20072699249E+02  0.87010697039E+02  0.92373407828E+02  0.10566000000E+00 0.  1.
        994    1    1    2    0    0 -0.11095014938E+02  0.32524073924E+02  0.91648522088E+01  0.17485522371E+03  0.17120000000E+03 0.  0.
        998    1    1    2    0    0 -0.12549448587E+02 -0.12451374675E+02  0.14038244470E+04  0.14039713685E+04  0.10000000000E+02 0.  1.
</event>
<event>
 5    1  0.1658612E-008  0.3840085E+03  0.7957747E-01  0.3433888E+00
         13   -1    0    0    0    0  0.00000000000E+00  0.00000000000E+00  0.14999999963E+04  0.15000000000E+04  0.10566000000E+00 0.  1.
        994   -1    0    0    0    0 -0.00000000000E+00 -0.00000000000E+00  0.11368683772E-12  0.17120000000E+03  0.17120000000E+03 0.  0.
         13    1    1    2    0    0 -0.37814883946E+01  0.10349883734E+02  0.29801069651E+02  0.31773175229E+02  0.10566000000E+00 0.  1.
        994    1    1    2    0    0 -0.79648045360E+01  0.59180514886E+01  0.24481083281E+01  0.17150479492E+03  0.17120000000E+03 0.  0.
        998    1    1    2    0    0  0.11746292931E+02 -0.16267935222E+02  0.14677508183E+04  0.14679220299E+04  0.10000000000E+02 0.  1.
</event>
<event>
 5    1  0.1658612E-008  0.3720823E+03  0.7957747E-01  0.3486376E+00
         13   -1    0    0    0    0  0.00000000000E+00  0.00000000000E+00  0.14999999963E+04  0.15000000000E+04  0.10566000000E+00 0. -1.
        994   -1    0    0    0    0 -0.00000000000E+00 -0.00000000000E+00  0.11368683772E-12  0.17120000000E+03  0.17120000000E+03 0.  0.
         13    1    1    2    0    0  0.15446979977E+03 -0.16502189084E+03  0.58300870461E+03  0.62529377441E+03  0.10566000000E+00 0. -1.
        994    1    1    2    0    0 -0.21219179416E+03  0.19086344228E+03  0.38010829755E+03  0.50521873379E+03  0.17120000000E+03 0.  0.
        998    1    1    2    0    0  0.57721994392E+02 -0.25841551436E+02  0.53688299412E+03  0.54068749180E+03  0.10000000000E+02 0. -1.
</event>
<event>
 5    1  0.1658612E-008  0.3834262E+03  0.7957747E-01  0.3436374E+00
         13   -1    0    0    0    0  0.00000000000E+00  0.00000000000E+00  0.14999999963E+04  0.15000000000E+04  0.10566000000E+00 0. -1.
        994   -1    0    0    0    0 -0.00000000000E+00 -0.00000000000E+00  0.11368683772E-12  0.17120000000E+03  0.17120000000E+03 0.  0.
         13    1    1    2    0    0 -0.29775881855E+02  0.32467879308E+01  0.18099348324E+03  0.18345516322E+03  0.10566000000E+00 0. -1.
        994    1    1    2    0    0  0.20025827091E+02 -0.31765139803E+01  0.37736594897E+01  0.17243782792E+03  0.17120000000E+03 0.  0.
        998    1    1    2    0    0  0.97500547644E+01 -0.70273950520E-01  0.13152328536E+04  0.13153070089E+04  0.10000000000E+02 0. -1.
</event>
<event>
 5    1  0.1658612E-008  0.3804633E+03  0.7957747E-01  0.3449144E+00
         13   -1    0    0    0    0  0.00000000000E+00  0.00000000000E+00  0.14999999963E+04  0.15000000000E+04  0.10566000000E+00 0. -1.
        994   -1    0    0    0    0 -0.00000000000E+00 -0.00000000000E+00  0.11368683772E-12  0.17120000000E+03  0.17120000000E+03 0.  0.
         13    1    1    2    0    0 -0.17799962785E+02 -0.17554786230E+01  0.40383623541E+02  0.44167506095E+02  0.10566000000E+00 0. -1.
        994    1    1    2    0    0  0.59170060408E+01  0.62032631194E+00  0.40176242137E+01  0.17135045103E+03  0.17120000000E+03 0.  0.
        998    1    1    2    0    0  0.11882956744E+02  0.11351523111E+01  0.14555987485E+04  0.14556820429E+04  0.10000000000E+02 0. -1.
</event>
<event>
 5    1  0.1658612E-008  0.3716144E+03  0.7957747E-01  0.3488504E+00
         13   -1    0    0    0    0  0.00000000000E+00  0.00000000000E+00  0.14999999963E+04  0.15000000000E+04  0.10566000000E+00 0. -1.
        994   -1    0    0    0    0 -0.00000000000E+00 -0.00000000000E+00  0.11368683772E-12  0.17120000000E+03  0.17120000000E+03 0.  0.
         13    1    1    2    0    0 -0.91042474767E+02 -0.95918191873E+02  0.75183026223E+03  0.76337263909E+03  0.10566000000E+00 0. -1.
        994    1    1    2    0    0  0.24568459634E+02  0.92380082823E+02  0.44655630165E+02  0.20110010994E+03  0.17120000000E+03 0.  0.
        998    1    1    2    0    0  0.66474015133E+02  0.35381090501E+01  0.70351410388E+03  0.70672725097E+03  0.10000000000E+02 0.  1.
</event>
<event>
 5    1  0.1658612E-008  0.3704431E+03  0.7957747E-01  0.3493857E+00
         13   -1    0    0    0    0  0.00000000000E+00  0.00000000000E+00  0.14999999963E+04  0.15000000000E+04  0.10566000000E+00 0.  1.
        994   -1    0    0    0    0 -0.00000000000E+00 -0.00000000000E+00  0.11368683772E-12  0.17120000000E+03  0.17120000000E+03 0.  0.
         13    1    1    2    0    0  0.10264656109E+02 -0.61072408990E+02  0.19907326096E+03  0.20848351661E+03  0.10566000000E+00 0.  1.
        994    1    1    2    0    0  0.55713970944E+02  0.14308343198E+02  0.22850196252E+02  0.18204490301E+03  0.17120000000E+03 0.  0.
        998    1    1    2    0    0 -0.65978627053E+02  0.46764065792E+02  0.12780765391E+04  0.12806715804E+04  0.10000000000E+02 0.  1.
</event>
<event>
 5    1  0.1658612E-008  0.3821985E+03  0.7957747E-01  0.3441641E+00
         13   -1    0    0    0    0  0.00000000000E+00  0.00000000000E+00  0.14999999963E+04  0.15000000000E+04  0.10566000000E+00 0. -1.
        994   -1    0    0    0    0 -0.00000000000E+00 -0.00000000000E+00  0.11368683772E-12  0.17120000000E+03  0.17120000000E+03 0.  0.
         13    1    1    2    0    0  0.22043611228E+02  0.23442488003E+01  0.89555439756E+02  0.92258356002E+02  0.10566000000E+00 0. -1.
        994    1    1    2    0    0  0.38031761356E+01  0.14696985289E+02  0.37927085746E+01  0.17191361250E+03  0.17120000000E+03 0.  0.
        998    1    1    2    0    0 -0.25846787363E+02 -0.17041234090E+02  0.14066518479E+04  0.14070280315E+04  0.10000000000E+02 0. -1.
</event>
<event>
 5    1  0.1658612E-008  0.3700802E+03  0.7957747E-01  0.3495522E+00
         13   -1    0    0    0    0  0.00000000000E+00  0.00000000000E+00  0.14999999963E+04  0.15000000000E+04  0.10566000000E+00 0.  1.
        994   -1    0    0    0    0 -0.00000000000E+00 -0.00000000000E+00  0.11368683772E-12  0.17120000000E+03  0.17120000000E+03 0.  0.
         13    1    1    2    0    0  0.21039688257E+02  0.15535316228E+02  0.34499156784E+02  0.43292233889E+02  0.10566000000E+00 0.  1.
        994    1    1    2    0    0 -0.24502657543E+01 -0.44895020541E+01  0.93175836181E+01  0.17152963824E+03  0.17120000000E+03 0.  0.
        998    1    1    2    0    0 -0.18589422502E+02 -0.11045814174E+02  0.14561832559E+04  0.14563781279E+04  0.10000000000E+02 0.  1.
</event>
<event>
 5    1  0.1658612E-008  0.3830132E+03  0.7957747E-01  0.3438142E+00
         13   -1    0    0    0    0  0.00000000000E+00  0.00000000000E+00  0.14999999963E+04  0.15000000000E+04  0.10566000000E+00 0.  1.
        994   -1    0    0    0    0 -0.00000000000E+00 -0.00000000000E+00  0.11368683772E-12  0.17120000000E+03  0.17120000000E+03 0.  0.
         13    1    1    2    0    0 -0.16326923100E+02  0.21993936710E+02  0.13779830668E+03  0.14049443462E+03  0.10566000000E+00 0.  1.
        994    1    1    2    0    0  0.18456378978E+02 -0.12463364829E+02  0.42631285248E+01  0.17269507130E+03  0.17120000000E+03 0.  0.
        998    1    1    2    0    0 -0.21294558777E+01 -0.95305718811E+01  0.13579385611E+04  0.13580104941E+04  0.10000000000E+02 0.  1.
</event>
<event>
 5    1  0.1658612E-008  0.3843577E+03  0.7957747E-01  0.3432401E+00
         13   -1    0    0    0    0  0.00000000000E+00  0.00000000000E+00  0.14999999963E+04  0.15000000000E+04  0.10566000000E+00 0. -1.
        994   -1    0    0    0    0 -0.00000000000E+00 -0.00000000000E+00  0.11368683772E-12  0.17120000000E+03  0.17120000000E+03 0.  0.
         13    1    1    2    0    0  0.12035341797E+02  0.62870672575E+00  0.37855269603E+02  0.39727538624E+02  0.10566000000E+00 0. -1.
        994    1    1    2    0    0 -0.24250720471E+01  0.43620568072E+01  0.20314417319E+01  0.17128477828E+03  0.17120000000E+03 0.  0.
        998    1    1    2    0    0 -0.96102697503E+01 -0.49907635330E+01  0.14601132849E+04  0.14601876831E+04  0.10000000000E+02 0. -1.
</event>
<event>
 5    1  0.1658612E-008  0.3810790E+03  0.7957747E-01  0.3446474E+00
         13   -1    0    0    0    0  0.00000000000E+00  0.00000000000E+00  0.14999999963E+04  0.15000000000E+04  0.10566000000E+00 0. -1.
        994   -1    0    0    0    0 -0.00000000000E+00 -0.00000000000E+00  0.11368683772E-12  0.17120000000E+03  0.17120000000E+03 0.  0.
         13    1    1    2    0    0 -0.11956938808E+02 -0.10212987722E+02  0.33513337916E+02  0.37019298834E+02  0.10566000000E+00 0. -1.
        994    1    1    2    0    0 -0.23560714309E+01  0.13203510114E+02  0.41888922360E+01  0.17177564021E+03  0.17120000000E+03 0.  0.
        998    1    1    2    0    0  0.14313010239E+02 -0.29905223922E+01  0.14622977661E+04  0.14624050610E+04  0.10000000000E+02 0. -1.
</event>
<event>
 5    1  0.1658612E-008  0.3857257E+03  0.7957747E-01  0.3426600E+00
         13   -1    0    0    0    0  0.00000000000E+00  0.00000000000E+00  0.14999999963E+04  0.15000000000E+04  0.10566000000E+00 0.  1.
        994   -1    0    0    0    0 -0.00000000000E+00 -0.00000000000E+00  0.11368683772E-12  0.17120000000E+03  0.17120000000E+03 0.  0.
         13    1    1    2    0    0  0.69263547410E+01  0.12296467453E+02  0.75870285358E+02  0.77171813936E+02  0.10566000000E+00 0.  1.
        994    1    1    2    0    0 -0.99351288613E+01 -0.11125098168E+02  0.20005140764E+01  0.17186016598E+03  0.17120000000E+03 0.  0.
        998    1    1    2    0    0  0.30087741203E+01 -0.11713692851E+01  0.14221291968E+04  0.14221680201E+04  0.10000000000E+02 0.  1.
</event>
<event>
 5    1  0.1658612E-008  0.3789283E+03  0.7957747E-01  0.3455838E+00
         13   -1    0    0    0    0  0.00000000000E+00  0.00000000000E+00  0.14999999963E+04  0.15000000000E+04  0.10566000000E+00 0. -1.
        994   -1    0    0    0    0 -0.00000000000E+00 -0.00000000000E+00  0.11368683772E-12  0.17120000000E+03  0.17120000000E+03 0.  0.
         13    1    1    2    0    0  0.26148071636E+02  0.28408242118E+02  0.40755504917E+02  0.56140646733E+02  0.10566000000E+00 0. -1.
        994    1    1    2    0    0 -0.21960227545E+02 -0.25074685332E+02  0.19760148516E+02  0.17553032475E+03  0.17120000000E+03 0.  0.
        998    1    1    2    0    0 -0.41878440911E+01 -0.33335567863E+01  0.14394843428E+04  0.14395290285E+04  0.10000000000E+02 0. -1.
</event>
<event>
 5    1  0.1658612E-008  0.3737662E+03  0.7957747E-01  0.3478759E+00
         13   -1    0    0    0    0  0.00000000000E+00  0.00000000000E+00  0.14999999963E+04  0.15000000000E+04  0.10566000000E+00 0. -1.
        994   -1    0    0    0    0 -0.00000000000E+00 -0.00000000000E+00  0.11368683772E-12  0.17120000000E+03  0.17120000000E+03 0.  0.
         13    1    1    2    0    0  0.19904593175E+02  0.32118869827E+02  0.85915068482E+02  0.93857470586E+02  0.10566000000E+00 0. -1.
        994    1    1    2    0    0 -0.25617860507E+02 -0.42718639965E+02  0.15830573579E+02  0.17900056994E+03  0.17120000000E+03 0.  0.
        998    1    1    2    0    0  0.57132673318E+01  0.10599770138E+02  0.13982543542E+04  0.13983419595E+04  0.10000000000E+02 0. -1.
</event>
<event>
 5    1  0.1658612E-008  0.3854558E+03  0.7957747E-01  0.3427741E+00
         13   -1    0    0    0    0  0.00000000000E+00  0.00000000000E+00  0.14999999963E+04  0.15000000000E+04  0.10566000000E+00 0. -1.
        994   -1    0    0    0    0 -0.00000000000E+00 -0.00000000000E+00  0.11368683772E-12  0.17120000000E+03  0.17120000000E+03 0.  0.
         13    1    1    2    0    0 -0.14283368395E+02 -0.63326171146E+01  0.83709239189E+02  0.85154944318E+02  0.10566000000E+00 0. -1.
        994    1    1    2    0    0  0.16441521836E+02  0.17198874531E+01  0.23019195590E+01  0.17201168706E+03  0.17120000000E+03 0.  0.
        998    1    1    2    0    0 -0.21581534411E+01  0.46127296615E+01  0.14139888375E+04  0.14140333686E+04  0.10000000000E+02 0. -1.
</event>
<event>
 5    1  0.1658612E-008  0.3774496E+03  0.7957747E-01  0.3462339E+00
         13   -1    0    0    0    0  0.00000000000E+00  0.00000000000E+00  0.14999999963E+04  0.15000000000E+04  0.10566000000E+00 0. -1.
        994   -1    0    0    0    0 -0.00000000000E+00 -0.00000000000E+00  0.11368683772E-12  0.17120000000E+03  0.17120000000E+03 0.  0.
         13    1    1    2    0    0  0.33674888144E+02  0.13148313260E+02  0.12012617656E+03  0.12544794017E+03  0.10566000000E+00 0. -1.
        994    1    1    2    0    0 -0.16316068368E+02 -0.10511799373E+02  0.66972244368E+01  0.17242681006E+03  0.17120000000E+03 0.  0.
        998    1    1    2    0    0 -0.17358819776E+02 -0.26365138872E+01  0.13731765953E+04  0.13733252498E+04  0.10000000000E+02 0. -1.
</event>
<event>
 5    1  0.1658612E-008  0.3747527E+03  0.7957747E-01  0.3474329E+00
         13   -1    0    0    0    0  0.00000000000E+00  0.00000000000E+00  0.14999999963E+04  0.15000000000E+04  0.10566000000E+00 0.  1.
        994   -1    0    0    0    0 -0.00000000000E+00 -0.00000000000E+00  0.11368683772E-12  0.17120000000E+03  0.17120000000E+03 0.  0.
         13    1    1    2    0    0  0.18688044195E+02  0.25497784196E+02  0.67108194334E+02  0.74181540194E+02  0.10566000000E+00 0.  1.
        994    1    1    2    0    0 -0.24238880058E+02 -0.26407960861E+02  0.11189573478E+02  0.17526993541E+03  0.17120000000E+03 0.  0.
        998    1    1    2    0    0  0.55508358630E+01  0.91017666445E+00  0.14217022285E+04  0.14217485244E+04  0.10000000000E+02 0.  1.
</event>
<event>
 5    1  0.1658612E-008  0.3791950E+03  0.7957747E-01  0.3454671E+00
         13   -1    0    0    0    0  0.00000000000E+00  0.00000000000E+00  0.14999999963E+04  0.15000000000E+04  0.10566000000E+00 0.  1.
        994   -1    0    0    0    0 -0.00000000000E+00 -0.00000000000E+00  0.11368683772E-12  0.17120000000E+03  0.17120000000E+03 0.  0.
         13    1    1    2    0    0 -0.65403979953E+01 -0.12409946057E+02  0.20449882267E+02  0.24799040624E+02  0.10566000000E+00 0.  1.
        994    1    1    2    0    0 -0.69154038311E+00 -0.32223510904E+01  0.45764812341E+01  0.17129286604E+03  0.17120000000E+03 0.  0.
        998    1    1    2    0    0  0.72319383784E+01  0.15632297148E+02  0.14749736328E+04  0.14751080933E+04  0.10000000000E+02 0.  1.
</event>
<event>
 5    1  0.1658612E-008  0.3844926E+03  0.7957747E-01  0.3431827E+00
         13   -1    0    0    0    0  0.00000000000E+00  0.00000000000E+00  0.14999999963E+04  0.15000000000E+04  0.10566000000E+00 0. -1.
        994   -1    0    0    0    0 -0.00000000000E+00 -0.00000000000E+00  0.11368683772E-12  0.17120000000E+03  0.17120000000E+03 0.  0.
         13    1    1    2    0    0 -0.99551173304E+00 -0.10286554981E+02  0.29826192016E+02  0.31566075955E+02  0.10566000000E+00 0. -1.
        994    1    1    2    0    0 -0.34608830941E+01 -0.84206551231E+01  0.21553375650E+01  0.17145544793E+03  0.17120000000E+03 0.  0.
        998    1    1    2    0    0  0.44563948271E+01  0.18707210104E+02  0.14680184667E+04  0.14681784761E+04  0.10000000000E+02 0. -1.
</event>
<event>
 5    1  0.1658612E-008  0.3767987E+03  0.7957747E-01  0.3465217E+00
         13   -1    0    0    0    0  0.00000000000E+00  0.00000000000E+00  0.14999999963E+04  0.15000000000E+04  0.10566000000E+00 0.  1.
        994   -1    0    0    0    0 -0.00000000000E+00 -0.00000000000E+00  0.11368683772E-12  0.17120000000E+03  0.17120000000E+03 0.  0.
         13    1    1    2    0    0 -0.28351122093E+02  0.25898855551E+02  0.12581304702E+03  0.13154265775E+03  0.10566000000E+00 0.  1.
        994    1    1    2    0    0  0.19188741147E+02 -0.13567293403E+02  0.76261772205E+01  0.17297363330E+03  0.17120000000E+03 0.  0.
        998    1    1    2    0    0  0.91623809466E+01 -0.12331562148E+02  0.13665607720E+04  0.13666837090E+04  0.10000000000E+02 0.  1.
</event>
<event>
 5    1  0.2408994E-008  0.3864303E+03  0.7957747E-01  0.3423629E+00
         13   -1    0    0    0    0  0.00000000000E+00  0.00000000000E+00  0.14999999963E+04  0.15000000000E+04  0.10566000000E+00 0. -1.
        994   -1    0    0    0    0 -0.00000000000E+00 -0.00000000000E+00  0.11368683772E-12  0.17120000000E+03  0.17120000000E+03 0.  0.
         13    1    1    2    0    0 -0.72773811107E+01 -0.73939226269E+01  0.61875498219E+02  0.62739292405E+02  0.10566000000E+00 0. -1.
        994    1    1    2    0    0  0.85357822522E+00  0.24446824333E+01  0.94363959181E+00  0.17122218175E+03  0.17120000000E+03 0.  0.
        998    1    1    2    0    0  0.64238028854E+01  0.49492401936E+01  0.14371808585E+04  0.14372385258E+04  0.10000000000E+02 0. -1.
</event>
<event>
 5    1  0.1658612E-008  0.3781654E+03  0.7957747E-01  0.3459186E+00
         13   -1    0    0    0    0  0.00000000000E+00  0.00000000000E+00  0.14999999963E+04  0.15000000000E+04  0.10566000000E+00 0.  1.
        994   -1    0    0    0    0 -0.00000000000E+00 -0.00000000000E+00  0.11368683772E-12  0.17120000000E+03  0.17120000000E+03 0.  0.
         13    1    1    2    0    0  0.20862892214E+02  0.27396158457E+02  0.12470632919E+03  0.12937344965E+03  0.10566000000E+00 0.  1.
        994    1    1    2    0    0  0.45387319560E+01 -0.11057773025E+02  0.55427969765E+01  0.17170625216E+03  0.17120000000E+03 0.  0.
        998    1    1    2    0    0 -0.25401624170E+02 -0.16338385432E+02  0.13697508701E+04  0.13701202982E+04  0.10000000000E+02 0.  1.
</event>
<event>
 5    1  0.1658612E-008  0.3851635E+03  0.7957747E-01  0.3428979E+00
         13   -1    0    0    0    0  0.00000000000E+00  0.00000000000E+00  0.14999999963E+04  0.15000000000E+04  0.10566000000E+00 0.  1.
        994   -1    0    0    0    0 -0.00000000000E+00 -0.00000000000E+00  0.11368683772E-12  0.17120000000E+03  0.17120000000E+03 0.  0.
         13    1    1    2    0    0  0.12371102953E+02  0.39651081569E+01  0.49824163290E+02  0.51490044499E+02  0.10566000000E+00 0.  1.
        994    1    1    2    0    0 -0.26237029298E+02  0.64014957073E+00  0.38162530224E+01  0.17324201363E+03  0.17120000000E+03 0.  0.
        998    1    1    2    0    0  0.13865926345E+02 -0.46052577276E+01  0.14463595800E+04  0.14464679419E+04  0.10000000000E+02 0.  1.
</event>
<event>
 5    1  0.1658612E-008  0.3811788E+03  0.7957747E-01  0.3446042E+00
         13   -1    0    0    0    0  0.00000000000E+00  0.00000000000E+00  0.14999999963E+04  0.15000000000E+04  0.10566000000E+00 0. -1.
        994   -1    0    0    0    0 -0.00000000000E+00 -0.00000000000E+00  0.11368683772E-12  0.17120000000E+03  0.17120000000E+03 0.  0.
         13    1    1    2    0    0 -0.24959377885E+01  0.49169783996E+02  0.26340542878E+03  0.26796702864E+03  0.10566000000E+00 0. -1.
        994    1    1    2    0    0 -0.42930915074E+01 -0.57642508803E+02  0.14746021141E+02  0.18129526909E+03  0.17120000000E+03 0.  0.
        998    1    1    2    0    0  0.67890292959E+01  0.84727248068E+01  0.12218485464E+04  0.12219377023E+04  0.10000000000E+02 0. -1.
</event>
<event>
 5    1  0.1658612E-008  0.3790202E+03  0.7957747E-01  0.3455436E+00
         13   -1    0    0    0    0  0.00000000000E+00  0.00000000000E+00  0.14999999963E+04  0.15000000000E+04  0.10566000000E+00 0.  1.
        994   -1    0    0    0    0 -0.00000000000E+00 -0.00000000000E+00  0.11368683772E-12  0.17120000000E+03  0.17120000000E+03 0.  0.
         13    1    1    2    0    0  0.12665018675E+01  0.14082023508E+02 -0.94708667885E+00  0.14170940345E+02  0.10566000000E+00 0.  1.
        994    1    1    2    0    0 -0.15892695952E+01 -0.15396816333E+02  0.16655651399E+02  0.17270332497E+03  0.17120000000E+03 0.  0.
        998    1    1    2    0    0  0.32276772772E+00  0.13147928251E+01  0.14842914316E+04  0.14843257347E+04  0.10000000000E+02 0.  1.
</event>
<event>
 5    1  0.1658612E-008  0.3722889E+03  0.7957747E-01  0.3485437E+00
         13   -1    0    0    0    0  0.00000000000E+00  0.00000000000E+00  0.14999999963E+04  0.15000000000E+04  0.10566000000E+00 0. -1.
        994   -1    0    0    0    0 -0.00000000000E+00 -0.00000000000E+00  0.11368683772E-12  0.17120000000E+03  0.17120000000E+03 0.  0.
         13    1    1    2    0    0 -0.25511637038E+02  0.52624846975E+02  0.21382588941E+03  0.22167936370E+03  0.10566000000E+00 0. -1.
        994    1    1    2    0    0 -0.19491891943E+02 -0.44364357609E+02  0.16176360026E+02  0.17865957769E+03  0.17120000000E+03 0.  0.
        998    1    1    2    0    0  0.45003528981E+02 -0.82604893658E+01  0.12699977468E+04  0.12708610586E+04  0.10000000000E+02 0. -1.
</event>
<event>
 5    1  0.1658612E-008  0.4015558E+03  0.7957747E-01  0.3362355E+00
         13   -1    0    0    0    0  0.00000000000E+00  0.00000000000E+00  0.14999999963E+04  0.15000000000E+04  0.10566000000E+00 0. -1.
        994   -1    0    0    0    0 -0.00000000000E+00 -0.00000000000E+00  0.11368683772E-12  0.17120000000E+03  0.17120000000E+03 0.  0.
         13    1    1    2    0    0  0.45785452987E+02  0.11355288762E+03  0.23313464063E+03  0.26332933338E+03  0.10566000000E+00 0. -1.
        994    1    1    2    0    0 -0.27906166635E+02 -0.96184752726E+02  0.69443731525E+02  0.21014788279E+03  0.17120000000E+03 0.  0.
        998    1    1    2    0    0 -0.17879286352E+02 -0.17368134892E+02  0.11974216241E+04  0.11977227838E+04  0.10000000000E+02 0. -1.
</event>
<event>
 5    1  0.1658612E-008  0.3843153E+03  0.7957747E-01  0.3432581E+00
         13   -1    0    0    0    0  0.00000000000E+00  0.00000000000E+00  0.14999999963E+04  0.15000000000E+04  0.10566000000E+00 0.  1.
        994   -1    0    0    0    0 -0.00000000000E+00 -0.00000000000E+00  0.11368683772E-12  0.17120000000E+03  0.17120000000E+03 0.  0.
         13    1    1    2    0    0  0.19362015340E+02  0.10240233549E+02  0.11289323441E+03  0.11499845025E+03  0.10566000000E+00 0.  1.
        994    1    1    2    0    0 -0.19467139002E+02 -0.12965513686E+02  0.37756671458E+01  0.17283162242E+03  0.17120000000E+03 0.  0.
        998    1    1    2    0    0  0.10512366255E+00  0.27252801372E+01  0.13833310947E+04  0.13833699273E+04  0.10000000000E+02 0.  0.
</event>
<event>
 5    1  0.1658612E-008  0.3856026E+03  0.7957747E-01  0.3427120E+00
         13   -1    0    0    0    0  0.00000000000E+00  0.00000000000E+00  0.14999999963E+04  0.15000000000E+04  0.10566000000E+00 0.  1.
        994   -1    0    0    0    0 -0.00000000000E+00 -0.00000000000E+00  0.11368683772E-12  0.17120000000E+03  0.17120000000E+03 0.  0.
         13    1    1    2    0    0  0.10520016171E+02 -0.37174124496E+01  0.50197652565E+02  0.51422809945E+02  0.10566000000E+00 0.  1.
        994    1    1    2    0    0  0.39747048422E+01  0.21943323521E+01  0.13989035524E+01  0.17126590526E+03  0.17120000000E+03 0.  0.
        998    1    1    2    0    0 -0.14494721014E+02  0.15230800976E+01  0.14484034402E+04  0.14485112848E+04  0.10000000000E+02 0.  1.
</event>
<event>
 5    1  0.1658612E-008  0.3700045E+03  0.7957747E-01  0.3495870E+00
         13   -1    0    0    0    0  0.00000000000E+00  0.00000000000E+00  0.14999999963E+04  0.15000000000E+04  0.10566000000E+00 0. -1.
        994   -1    0    0    0    0 -0.00000000000E+00 -0.00000000000E+00  0.11368683772E-12  0.17120000000E+03  0.17120000000E+03 0.  0.
         13    1    1    2    0    0  0.44092617942E+02  0.21771367672E+01  0.10007256761E+03  0.10937746035E+03  0.10566000000E+00 0. -1.
        994    1    1    2    0    0 -0.32557383563E+02  0.11759193338E+01  0.12945316529E+02  0.17475235973E+03  0.17120000000E+03 0.  0.
        998    1    1    2    0    0 -0.11535234379E+02 -0.33530561010E+01  0.13869821121E+04  0.13870701799E+04  0.10000000000E+02 0. -1.
</event>
<event>
 5    1  0.1658612E-008  0.3707345E+03  0.7957747E-01  0.3492522E+00
         13   -1    0    0    0    0  0.00000000000E+00  0.00000000000E+00  0.14999999963E+04  0.15000000000E+04  0.10566000000E+00 0. -1.
        994   -1    0    0    0    0 -0.00000000000E+00 -0.00000000000E+00  0.11368683772E-12  0.17120000000E+03  0.17120000000E+03 0.  0.
         13    1    1    2    0    0 -0.18125797162E+02  0.97283757250E+00  0.98857118673E+01  0.20669528269E+02  0.10566000000E+00 0. -1.
        994    1    1    2    0    0 -0.44548815422E+01 -0.25309158215E+02  0.13645825888E+02  0.17365496832E+03  0.17120000000E+03 0.  0.
        998    1    1    2    0    0  0.22580678704E+02  0.24336320642E+02  0.14764684585E+04  0.14768755034E+04  0.10000000000E+02 0. -1.
</event>
<event>
 5    1  0.1658612E-008  0.3790998E+03  0.7957747E-01  0.3455088E+00
         13   -1    0    0    0    0  0.00000000000E+00  0.00000000000E+00  0.14999999963E+04  0.15000000000E+04  0.10566000000E+00 0. -1.
        994   -1    0    0    0    0 -0.00000000000E+00 -0.00000000000E+00  0.11368683772E-12  0.17120000000E+03  0.17120000000E+03 0.  0.
         13    1    1    2    0    0  0.12957395112E+02 -0.58802655519E+00  0.15518043552E+02  0.20225249147E+02  0.10566000000E+00 0. -1.
        994    1    1    2    0    0 -0.30402520574E+02 -0.17722884207E+01  0.77041532909E+01  0.17405817488E+03  0.17120000000E+03 0.  0.
        998    1    1    2    0    0  0.17445125462E+02  0.23603149759E+01  0.14767777994E+04  0.14769165760E+04  0.10000000000E+02 0. -1.
</event>
<event>
 5    1  0.1658612E-008  0.4139783E+03  0.7957747E-01  0.3315361E+00
         13   -1    0    0    0    0  0.00000000000E+00  0.00000000000E+00  0.14999999963E+04  0.15000000000E+04  0.10566000000E+00 0.  1.
        994   -1    0    0    0    0 -0.00000000000E+00 -0.00000000000E+00  0.11368683772E-12  0.17120000000E+03  0.17120000000E+03 0.  0.
         13    1    1    2    0    0  0.13414763446E+02  0.23318810371E+02 -0.54017792125E+01  0.27439263440E+02  0.10566000000E+00 0.  1.
        994    1    1    2    0    0 -0.11686853515E+02 -0.23153442865E+02  0.39214580127E+02  0.17753841206E+03  0.17120000000E+03 0.  0.
        998    1    1    2    0    0 -0.17279099309E+01 -0.16536750582E+00  0.14661871954E+04  0.14662223245E+04  0.10000000000E+02 0.  1.
</event>
<event>
 5    1  0.1658612E-008  0.3855091E+03  0.7957747E-01  0.3427516E+00
         13   -1    0    0    0    0  0.00000000000E+00  0.00000000000E+00  0.14999999963E+04  0.15000000000E+04  0.10566000000E+00 0.  1.
        994   -1    0    0    0    0 -0.00000000000E+00 -0.00000000000E+00  0.11368683772E-12  0.17120000000E+03  0.17120000000E+03 0.  0.
         13    1    1    2    0    0  0.15373837995E+02 -0.42362019000E+00  0.72091916209E+02  0.73714244862E+02  0.10566000000E+00 0.  1.
        994    1    1    2    0    0 -0.35656760867E+02  0.63461843121E+01  0.56960235064E+01  0.17508159051E+03  0.17120000000E+03 0.  0.
        998    1    1    2    0    0  0.20282922871E+02 -0.59225641221E+01  0.14222120566E+04  0.14224041646E+04  0.10000000000E+02 0.  1.
</event>
<event>
 5    1  0.1658612E-008  0.3822304E+03  0.7957747E-01  0.3441504E+00
         13   -1    0    0    0    0  0.00000000000E+00  0.00000000000E+00  0.14999999963E+04  0.15000000000E+04  0.10566000000E+00 0.  1.
        994   -1    0    0    0    0 -0.00000000000E+00 -0.00000000000E+00  0.11368683772E-12  0.17120000000E+03  0.17120000000E+03 0.  0.
         13    1    1    2    0    0  0.63812745704E+01  0.17718744317E+02  0.61453923953E+02  0.64274960121E+02  0.10566000000E+00 0.  1.
        994    1    1    2    0    0 -0.13362604972E+02  0.51213961447E+01  0.36913367738E+01  0.17183670701E+03  0.17120000000E+03 0.  0.
        998    1    1    2    0    0  0.69813304020E+01 -0.22840140461E+02  0.14348547356E+04  0.14350883329E+04  0.10000000000E+02 0.  1.
</event>
<event>
 5    1  0.1658612E-008  0.3708419E+03  0.7957747E-01  0.3492031E+00
         13   -1    0    0    0    0  0.00000000000E+00  0.00000000000E+00  0.14999999963E+04  0.15000000000E+04  0.10566000000E+00 0. -1.
        994   -1    0    0    0    0 -0.00000000000E+00 -0.00000000000E+00  0.11368683772E-12  0.17120000000E+03  0.17120000000E+03 0.  0.
         13    1    1    2    0    0  0.36317884027E+01  0.24927067432E+03  0.78767505421E+03  0.82618464107E+03  0.10566000000E+00 0. -1.
        994    1    1    2    0    0 -0.48258941084E+01 -0.26200877239E+03  0.30392650145E+03  0.43629421764E+03  0.17120000000E+03 0.  0.
        998    1    1    2    0    0  0.11941057057E+01  0.12738098070E+02  0.40839844062E+03  0.40872114128E+03  0.10000000000E+02 0.  1.
</event>
<event>
 5    1  0.1658612E-008  0.3849172E+03  0.7957747E-01  0.3430023E+00
         13   -1    0    0    0    0  0.00000000000E+00  0.00000000000E+00  0.14999999963E+04  0.15000000000E+04  0.10566000000E+00 0.  1.
        994   -1    0    0    0    0 -0.00000000000E+00 -0.00000000000E+00  0.11368683772E-12  0.17120000000E+03  0.17120000000E+03 0.  0.
         13    1    1    2    0    0  0.34030833345E+01 -0.10996489142E+02  0.39358054703E+02  0.41006967502E+02  0.10566000000E+00 0.  1.
        994    1    1    2    0    0 -0.51768557250E+01  0.71490117487E+01  0.19275589289E+01  0.17143822120E+03  0.17120000000E+03 0.  0.
        998    1    1    2    0    0  0.17737723905E+01  0.38474773938E+01  0.14587143826E+04  0.14587548113E+04  0.10000000000E+02 0.  1.
</event>
<event>
 5    1  0.1658612E-008  0.3825953E+03  0.7957747E-01  0.3439935E+00
         13   -1    0    0    0    0  0.00000000000E+00  0.00000000000E+00  0.14999999963E+04  0.15000000000E+04  0.10566000000E+00 0. -1.
        994   -1    0    0    0    0 -0.00000000000E+00 -0.00000000000E+00  0.11368683772E-12  0.17120000000E+03  0.17120000000E+03 0.  0.
         13    1    1    2    0    0 -0.55454888963E+01  0.11876523216E+02  0.28868066722E+02  0.31704584702E+02  0.10566000000E+00 0. -1.
        994    1    1    2    0    0  0.68057776521E+01 -0.12137021658E+02  0.34707738693E+01  0.17179962798E+03  0.17120000000E+03 0.  0.
        998    1    1    2    0    0 -0.12602887558E+01  0.26049844177E+00  0.14676611557E+04  0.14676957873E+04  0.10000000000E+02 0. -1.
</event>
<event>
 5    1  0.1658612E-008  0.3724591E+03  0.7957747E-01  0.3484665E+00
         13   -1    0    0    0    0  0.00000000000E+00  0.00000000000E+00  0.14999999963E+04  0.15000000000E+04  0.10566000000E+00 0. -1.
        994   -1    0    0    0    0 -0.00000000000E+00 -0.00000000000E+00  0.11368683772E-12  0.17120000000E+03  0.17120000000E+03 0.  0.
         13    1    1    2    0    0 -0.49319536256E+02  0.26193407421E+02  0.32647707881E+03  0.33121866705E+03  0.10566000000E+00 0. -1.
        994    1    1    2    0    0 -0.55981413724E+02 -0.53795776970E+02  0.28948269700E+02  0.19019817723E+03  0.17120000000E+03 0.  0.
        998    1    1    2    0    0  0.10530094998E+03  0.27602369549E+02  0.11445746478E+04  0.11497831557E+04  0.10000000000E+02 0. -1.
</event>
<event>
 5    1  0.1658612E-008  0.3839827E+03  0.7957747E-01  0.3433998E+00
         13   -1    0    0    0    0  0.00000000000E+00  0.00000000000E+00  0.14999999963E+04  0.15000000000E+04  0.10566000000E+00 0. -1.
        994   -1    0    0    0    0 -0.00000000000E+00 -0.00000000000E+00  0.11368683772E-12  0.17120000000E+03  0.17120000000E+03 0.  0.
         13    1    1    2    0    0 -0.87844912137E+01 -0.99818033489E+01  0.41591545378E+02  0.43665449671E+02  0.10566000000E+00 0. -1.
        994    1    1    2    0    0 -0.25362252098E+00  0.70021242547E+01  0.22980682040E+01  0.17135873245E+03  0.17120000000E+03 0.  0.
        998    1    1    2    0    0  0.90381137346E+01  0.29796790942E+01  0.14561103827E+04  0.14561758179E+04  0.10000000000E+02 0. -1.
</event>
<event>
 5    1  0.1658612E-008  0.3769392E+03  0.7957747E-01  0.3464595E+00
         13   -1    0    0    0    0  0.00000000000E+00  0.00000000000E+00  0.14999999963E+04  0.15000000000E+04  0.10566000000E+00 0. -1.
        994   -1    0    0    0    0 -0.00000000000E+00 -0.00000000000E+00  0.11368683772E-12  0.17120000000E+03  0.17120000000E+03 0.  0.
         13    1    1    2    0    0  0.44663450655E+02  0.17514415288E+02  0.18769209438E+03  0.19372638443E+03  0.10566000000E+00 0. -1.
        994    1    1    2    0    0 -0.35522805503E+02 -0.14942818771E+02  0.10718251951E+02  0.17581091681E+03  0.17120000000E+03 0.  0.
        998    1    1    2    0    0 -0.91406451522E+01 -0.25715965169E+01  0.13015896499E+04  0.13016626988E+04  0.10000000000E+02 0.  1.
</event>
<event>
 5    1  0.1658612E-008  0.3758955E+03  0.7957747E-01  0.3469227E+00
         13   -1    0    0    0    0  0.00000000000E+00  0.00000000000E+00  0.14999999963E+04  0.15000000000E+04  0.10566000000E+00 0.  1.
        994   -1    0    0    0    0 -0.00000000000E+00 -0.00000000000E+00  0.11368683772E-12  0.17120000000E+03  0.17120000000E+03 0.  0.
         13    1    1    2    0    0 -0.59707887830E+02 -0.31570375956E+01  0.32737423772E+03  0.33278957532E+03  0.10566000000E+00 0.  1.
        994    1    1    2    0    0  0.17796599525E+02 -0.28443183442E+00  0.72939409347E+01  0.17227722261E+03  0.17120000000E+03 0.  0.
        998    1    1    2    0    0  0.41911288305E+02  0.34414694300E+01  0.11653318176E+04  0.11661332021E+04  0.10000000000E+02 0.  1.
</event>
<event>
 5    1  0.1658612E-008  0.3714868E+03  0.7957747E-01  0.3489086E+00
         13   -1    0    0    0    0  0.00000000000E+00  0.00000000000E+00  0.14999999963E+04  0.15000000000E+04  0.10566000000E+00 0.  1.
        994   -1    0    0    0    0 -0.00000000000E+00 -0.00000000000E+00  0.11368683772E-12  0.17120000000E+03  0.17120000000E+03 0.  0.
         13    1    1    2    0    0 -0.20623738536E+02 -0.38540451617E+02  0.11556609104E+03  0.12355661684E+03  0.10566000000E+00 0.  1.
        994    1    1    2    0    0  0.65811680505E+01  0.12184867632E+02  0.91540216663E+01  0.17200296185E+03  0.17120000000E+03 0.  0.
        998    1    1    2    0    0  0.14042570485E+02  0.26355583985E+02  0.13752798836E+04  0.13756404213E+04  0.10000000000E+02 0.  1.
</event>
<event>
 5    1  0.1658612E-008  0.3814162E+03  0.7957747E-01  0.3445015E+00
         13   -1    0    0    0    0  0.00000000000E+00  0.00000000000E+00  0.14999999963E+04  0.15000000000E+04  0.10566000000E+00 0. -1.
        994   -1    0    0    0    0 -0.00000000000E+00 -0.00000000000E+00  0.11368683772E-12  0.17120000000E+03  0.17120000000E+03 0.  0.
         13    1    1    2    0    0 -0.20471051419E+02  0.67028792440E+01  0.65598713975E+02  0.69044876534E+02  0.10566000000E+00 0. -1.
        994    1    1    2    0    0  0.15443893783E+02 -0.83412527548E+01  0.44457575337E+01  0.17215485794E+03  0.17120000000E+03 0.  0.
        998    1    1    2    0    0  0.50271576364E+01  0.16383735108E+01  0.14299555248E+04  0.14300002655E+04  0.10000000000E+02 0. -1.
</event>
<event>
 5    1  0.1658612E-008  0.3802839E+03  0.7957747E-01  0.3449923E+00
         13   -1    0    0    0    0  0.00000000000E+00  0.00000000000E+00  0.14999999963E+04  0.15000000000E+04  0.10566000000E+00 0.  1.
        994   -1    0    0    0    0 -0.00000000000E+00 -0.00000000000E+00  0.11368683772E-12  0.17120000000E+03  0.17120000000E+03 0.  0.
         13    1    1    2    0    0  0.89899645476E+00 -0.14115555086E+02  0.22843180298E+02  0.26867808622E+02  0.10566000000E+00 0.  1.
        994    1    1    2    0    0  0.61871181935E+01  0.19371722723E+02  0.53722724478E+01  0.17248723252E+03  0.17120000000E+03 0.  0.
        998    1    1    2    0    0 -0.70861146482E+01 -0.52561676374E+01  0.14717845435E+04  0.14718449589E+04  0.10000000000E+02 0.  1.
</event>
<event>
 5    1  0.1658612E-008  0.3807375E+03  0.7957747E-01  0.3447953E+00
         13   -1    0    0    0    0  0.00000000000E+00  0.00000000000E+00  0.14999999963E+04  0.15000000000E+04  0.10566000000E+00 0. -1.
        994   -1    0    0    0    0 -0.00000000000E+00 -0.00000000000E+00  0.11368683772E-12  0.17120000000E+03  0.17120000000E+03 0.  0.
         13    1    1    2    0    0 -0.19882626900E+02 -0.11413509345E+02  0.69394414513E+02  0.73083397414E+02  0.10566000000E+00 0. -1.
        994    1    1    2    0    0  0.11244356792E+02  0.40990661132E+01  0.42391147631E+01  0.17167017212E+03  0.17120000000E+03 0.  0.
        998    1    1    2    0    0  0.86382701079E+01  0.73144432317E+01  0.14263664670E+04  0.14264464305E+04  0.10000000000E+02 0. -1.
</event>
<event>
 5    1  0.1658612E-008  0.3834656E+03  0.7957747E-01  0.3436206E+00
         13   -1    0    0    0    0  0.00000000000E+00  0.00000000000E+00  0.14999999963E+04  0.15000000000E+04  0.10566000000E+00 0. -1.
        994   -1    0    0    0    0 -0.00000000000E+00 -0.00000000000E+00  0.11368683772E-12  0.17120000000E+03  0.17120000000E+03 0.  0.
         13    1    1    2    0    0  0.49886182386E+01 -0.22420156852E+02  0.91032158792E+02  0.93885115133E+02  0.10566000000E+00 0. -1.
        994    1    1    2    0    0  0.43240937627E+01  0.47038966301E+02  0.98039424519E+01  0.17786770203E+03  0.17120000000E+03 0.  0.
        998    1    1    2    0    0 -0.93127120013E+01 -0.24618809449E+02  0.13991638950E+04  0.13994471828E+04  0.10000000000E+02 0. -1.
</event>
<event>
 5    1  0.1658612E-008  0.3835532E+03  0.7957747E-01  0.3435831E+00
         13   -1    0    0    0    0  0.00000000000E+00  0.00000000000E+00  0.14999999963E+04  0.15000000000E+04  0.10566000000E+00 0.  1.
        994   -1    0    0    0    0 -0.00000000000E+00 -0.00000000000E+00  0.11368683772E-12  0.17120000000E+03  0.17120000000E+03 0.  0.
         13    1    1    2    0    0  0.10226199042E+01 -0.14065928662E+02  0.47093867090E+02  0.49160345626E+02  0.10566000000E+00 0.  1.
        994    1    1    2    0    0  0.14729611258E+02 -0.15576142840E+02  0.38701269699E+01  0.17258040316E+03  0.17120000000E+03 0.  0.
        998    1    1    2    0    0 -0.15752231162E+02  0.29642071503E+02  0.14490360022E+04  0.14494592512E+04  0.10000000000E+02 0.  1.
</event>
<event>
 5    1  0.1658612E-008  0.3788526E+03  0.7957747E-01  0.3456170E+00
         13   -1    0    0    0    0  0.00000000000E+00  0.00000000000E+00  0.14999999963E+04  0.15000000000E+04  0.10566000000E+00 0.  1.
        994   -1    0    0    0    0 -0.00000000000E+00 -0.00000000000E+00  0.11368683772E-12  0.17120000000E+03  0.17120000000E+03 0.  0.
         13    1    1    2    0    0 -0.60032425660E+01 -0.34261506040E+02  0.13599812127E+03  0.14037588778E+03  0.10566000000E+00 0.  1.
        994    1    1    2    0    0 -0.10856746176E+01  0.86336540236E+01  0.49676082994E+01  0.17149296138E+03  0.17120000000E+03 0.  0.
        998    1    1    2    0    0  0.70889171835E+01  0.25627852017E+02  0.13590342667E+04  0.13593311508E+04  0.10000000000E+02 0.  1.
</event>
<event>
 5    1  0.1658612E-008  0.3689944E+03  0.7957747E-01  0.3500525E+00
         13   -1    0    0    0    0  0.00000000000E+00  0.00000000000E+00  0.14999999963E+04  0.15000000000E+04  0.10566000000E+00 0.  1.
        994   -1    0    0    0    0 -0.00000000000E+00 -0.00000000000E+00  0.11368683772E-12  0.17120000000E+03  0.17120000000E+03 0.  0.
         13    1    1    2    0    0 -0.76504965259E+02  0.11346838525E+03  0.73336003728E+03  0.74601946328E+03  0.10566000000E+00 0.  1.
        994    1    1    2    0    0  0.29198308881E+02 -0.10376912368E+03  0.52062137781E+02  0.20890303603E+03  0.17120000000E+03 0.  0.
        998    1    1    2    0    0  0.47306656378E+02 -0.96992615706E+01  0.71457782122E+03  0.71627750069E+03  0.10000000000E+02 0.  1.
</event>
<event>
 5    1  0.1658612E-008  0.3841054E+03  0.7957747E-01  0.3433475E+00
         13   -1    0    0    0    0  0.00000000000E+00  0.00000000000E+00  0.14999999963E+04  0.15000000000E+04  0.10566000000E+00 0.  1.
        994   -1    0    0    0    0 -0.00000000000E+00 -0.00000000000E+00  0.11368683772E-12  0.17120000000E+03  0.17120000000E+03 0.  0.
         13    1    1    2    0    0 -0.12686339060E+02 -0.14853756464E+02  0.93737070605E+02  0.95750858218E+02  0.10566000000E+00 0.  1.
        994    1    1    2    0    0  0.17017185529E+02 -0.24061000890E+01  0.30497633052E+01  0.17208752127E+03  0.17120000000E+03 0.  0.
        998    1    1    2    0    0 -0.43308464691E+01  0.17259856553E+02  0.14032131624E+04  0.14033616205E+04  0.10000000000E+02 0.  1.
</event>
<event>
 5    1  0.1658612E-008  0.3830725E+03  0.7957747E-01  0.3437888E+00
         13   -1    0    0    0    0  0.00000000000E+00  0.00000000000E+00  0.14999999963E+04  0.15000000000E+04  0.10566000000E+00 0.  1.
        994   -1    0    0    0    0 -0.00000000000E+00 -0.00000000000E+00  0.11368683772E-12  0.17120000000E+03  0.17120000000E+03 0.  0.
         13    1    1    2    0    0  0.28858611049E+02  0.84421803398E+01  0.14816868156E+03  0.15118881969E+03  0.10566000000E+00 0.  1.
        994    1    1    2    0    0 -0.32503055829E+02 -0.29721957000E+02  0.90363930782E+01  0.17700547948E+03  0.17120000000E+03 0.  0.
        998    1    1    2    0    0  0.36444447800E+01  0.21279776661E+02  0.13427949216E+04  0.13430057008E+04  0.10000000000E+02 0.  1.
</event>
<event>
 5    1  0.1658612E-008  0.3819358E+03  0.7957747E-01  0.3442773E+00
         13   -1    0    0    0    0  0.00000000000E+00  0.00000000000E+00  0.14999999963E+04  0.15000000000E+04  0.10566000000E+00 0.  1.
        994   -1    0    0    0    0 -0.00000000000E+00 -0.00000000000E+00  0.11368683772E-12  0.17120000000E+03  0.17120000000E+03 0.  0.
         13    1    1    2    0    0 -0.22120840138E+02  0.75250516775E+01  0.95842960512E+02  0.98650099923E+02  0.10566000000E+00 0.  1.
        994    1    1    2    0    0 -0.34181349203E+00  0.15426009168E+02  0.39503645358E+01  0.17193930317E+03  0.17120000000E+03 0.  0.
        998    1    1    2    0    0  0.22462653630E+02 -0.22951060845E+02  0.14002066712E+04  0.14006105969E+04  0.10000000000E+02 0.  1.
</event>
<event>
 5    1  0.1658612E-008  0.3838970E+03  0.7957747E-01  0.3434364E+00
         13   -1    0    0    0    0  0.00000000000E+00  0.00000000000E+00  0.14999999963E+04  0.15000000000E+04  0.10566000000E+00 0.  1.
        994   -1    0    0    0    0 -0.00000000000E+00 -0.00000000000E+00  0.11368683772E-12  0.17120000000E+03  0.17120000000E+03 0.  0.
         13    1    1    2    0    0  0.87026894195E+01  0.18648390473E+02  0.93158649998E+02  0.95404635651E+02  0.10566000000E+00 0.  1.
        994    1    1    2    0    0 -0.95638989851E+01 -0.16150058379E+02  0.33423419014E+01  0.17225824740E+03  0.17120000000E+03 0.  0.
        998    1    1    2    0    0  0.86120956555E+00 -0.24983320935E+01  0.14034990044E+04  0.14035371169E+04  0.10000000000E+02 0.  1.
</event>
<event>
 5    1  0.1658612E-008  0.3690150E+03  0.7957747E-01  0.3500430E+00
         13   -1    0    0    0    0  0.00000000000E+00  0.00000000000E+00  0.14999999963E+04  0.15000000000E+04  0.10566000000E+00 0. -1.
        994   -1    0    0    0    0 -0.00000000000E+00 -0.00000000000E+00  0.11368683772E-12  0.17120000000E+03  0.17120000000E+03 0.  0.
         13    1    1    2    0    0 -0.50744620495E+02 -0.18396206367E+03  0.75038051854E+03  0.77426609841E+03  0.10566000000E+00 0. -1.
        994    1    1    2    0    0  0.35308685850E+02  0.18575680386E+03  0.14773664242E+03  0.29476744900E+03  0.17120000000E+03 0.  0.
        998    1    1    2    0    0  0.15435934645E+02 -0.17947401917E+01  0.60188283533E+03  0.60216645260E+03  0.10000000000E+02 0. -1.
</event>
<event>
 5    1  0.1658612E-008  0.3805251E+03  0.7957747E-01  0.3448875E+00
         13   -1    0    0    0    0  0.00000000000E+00  0.00000000000E+00  0.14999999963E+04  0.15000000000E+04  0.10566000000E+00 0.  1.
        994   -1    0    0    0    0 -0.00000000000E+00 -0.00000000000E+00  0.11368683772E-12  0.17120000000E+03  0.17120000000E+03 0.  0.
         13    1    1    2    0    0  0.25726121997E+01  0.15702172069E+02  0.31489854357E+02  0.35281703936E+02  0.10566000000E+00 0.  1.
        994    1    1    2    0    0 -0.19283561178E+02 -0.50141034902E+01  0.51942624618E+01  0.17243380564E+03  0.17120000000E+03 0.  0.
        998    1    1    2    0    0  0.16710948978E+02 -0.10688068579E+02  0.14633158795E+04  0.14634844904E+04  0.10000000000E+02 0.  1.
</event>
<event>
 5    1  0.1658612E-008  0.3847764E+03  0.7957747E-01  0.3430621E+00
         13   -1    0    0    0    0  0.00000000000E+00  0.00000000000E+00  0.14999999963E+04  0.15000000000E+04  0.10566000000E+00 0. -1.
        994   -1    0    0    0    0 -0.00000000000E+00 -0.00000000000E+00  0.11368683772E-12  0.17120000000E+03  0.17120000000E+03 0.  0.
         13    1    1    2    0    0 -0.73674534451E+01  0.15102210545E+02  0.76377577188E+02  0.78204230031E+02  0.10566000000E+00 0. -1.
        994    1    1    2    0    0  0.11780668169E+02 -0.16339748009E+02  0.30777202747E+01  0.17240847969E+03  0.17120000000E+03 0.  0.
        998    1    1    2    0    0 -0.44132147240E+01  0.12375374637E+01  0.14205446988E+04  0.14205872903E+04  0.10000000000E+02 0. -1.
</event>
<event>
 5    1  0.1658612E-008  0.3756205E+03  0.7957747E-01  0.3470452E+00
         13   -1    0    0    0    0  0.00000000000E+00  0.00000000000E+00  0.14999999963E+04  0.15000000000E+04  0.10566000000E+00 0. -1.
        994   -1    0    0    0    0 -0.00000000000E+00 -0.00000000000E+00  0.11368683772E-12  0.17120000000E+03  0.17120000000E+03 0.  0.
         13    1    1    2    0    0  0.36053285790E+02  0.13638568012E+02  0.12001337389E+03  0.12605185849E+03  0.10566000000E+00 0. -1.
        994    1    1    2    0    0 -0.96325091859E+01 -0.12570299593E+02  0.72116274018E+01  0.17208208865E+03  0.17120000000E+03 0.  0.
        998    1    1    2    0    0 -0.26420776604E+02 -0.10682684195E+01  0.13727749950E+04  0.13730660529E+04  0.10000000000E+02 0. -1.
</event>
<event>
 5    1  0.1658612E-008  0.3814551E+03  0.7957747E-01  0.3444847E+00
         13   -1    0    0    0    0  0.00000000000E+00  0.00000000000E+00  0.14999999963E+04  0.15000000000E+04  0.10566000000E+00 0.  1.
        994   -1    0    0    0    0 -0.00000000000E+00 -0.00000000000E+00  0.11368683772E-12  0.17120000000E+03  0.17120000000E+03 0.  0.
         13    1    1    2    0    0  0.13214171615E+02 -0.36000368914E+01  0.25693798846E+02  0.29116267966E+02  0.10566000000E+00 0.  1.
        994    1    1    2    0    0 -0.10957195675E+02  0.22273230649E+02  0.54530136153E+01  0.17307608818E+03  0.17120000000E+03 0.  0.
        998    1    1    2    0    0 -0.22569759399E+01 -0.18673193757E+02  0.14688531838E+04  0.14690076439E+04  0.10000000000E+02 0.  1.
</event>
<event>
 5    1  0.1658612E-008  0.3835750E+03  0.7957747E-01  0.3435739E+00
         13   -1    0    0    0    0  0.00000000000E+00  0.00000000000E+00  0.14999999963E+04  0.15000000000E+04  0.10566000000E+00 0. -1.
        994   -1    0    0    0    0 -0.00000000000E+00 -0.00000000000E+00  0.11368683772E-12  0.17120000000E+03  0.17120000000E+03 0.  0.
         13    1    1    2    0    0  0.11620622314E+02  0.10739011333E+03  0.33353202785E+03  0.35058707915E+03  0.10566000000E+00 0. -1.
        994    1    1    2    0    0  0.79261315408E+02 -0.67641019030E+02  0.59357437156E+02  0.20902250817E+03  0.17120000000E+03 0.  0.
        998    1    1    2    0    0 -0.90881937722E+02 -0.39749094295E+02  0.11071105313E+04  0.11115904127E+04  0.10000000000E+02 0. -1.
</event>
<event>
 5    1  0.1941061E-008  0.3860274E+03  0.7957747E-01  0.3425327E+00
         13   -1    0    0    0    0  0.00000000000E+00  0.00000000000E+00  0.14999999963E+04  0.15000000000E+04  0.10566000000E+00 0. -1.
        994   -1    0    0    0    0 -0.00000000000E+00 -0.00000000000E+00  0.11368683772E-12  0.17120000000E+03  0.17120000000E+03 0.  0.
         13    1    1    2    0    0  0.85197892837E+01  0.53527598071E+01  0.44354839122E+02  0.45481883916E+02  0.10566000000E+00 0. -1.
        994    1    1    2    0    0 -0.10166201706E+02 -0.55644828802E+01  0.15613041190E+01  0.17159893006E+03  0.17120000000E+03 0.  0.
        998    1    1    2    0    0  0.16464124221E+01  0.21172307311E+00  0.14540838530E+04  0.14541191860E+04  0.10000000000E+02 0. -1.
</event>
<event>
 5    1  0.1658612E-008  0.3775472E+03  0.7957747E-01  0.3461909E+00
         13   -1    0    0    0    0  0.00000000000E+00  0.00000000000E+00  0.14999999963E+04  0.15000000000E+04  0.10566000000E+00 0. -1.
        994   -1    0    0    0    0 -0.00000000000E+00 -0.00000000000E+00  0.11368683772E-12  0.17120000000E+03  0.17120000000E+03 0.  0.
         13    1    1    2    0    0 -0.94881289660E+01 -0.48639543086E+01  0.81298305757E+01  0.13408502975E+02  0.10566000000E+00 0. -1.
        994    1    1    2    0    0  0.80862579563E+01  0.19108660393E+01  0.56091750816E+01  0.17149327049E+03  0.17120000000E+03 0.  0.
        998    1    1    2    0    0  0.14018710098E+01  0.29530882694E+01  0.14862609906E+04  0.14862982265E+04  0.10000000000E+02 0. -1.
</event>
<event>
 5    1  0.1658612E-008  0.3751096E+03  0.7957747E-01  0.3472733E+00
         13   -1    0    0    0    0  0.00000000000E+00  0.00000000000E+00  0.14999999963E+04  0.15000000000E+04  0.10566000000E+00 0.  1.
        994   -1    0    0    0    0 -0.00000000000E+00 -0.00000000000E+00  0.11368683772E-12  0.17120000000E+03  0.17120000000E+03 0.  0.
         13    1    1    2    0    0 -0.25439426207E+01  0.20581828427E+02  0.29024272917E+02  0.35672158441E+02  0.10566000000E+00 0.  1.
        994    1    1    2    0    0  0.39873789955E+01 -0.23031077328E+02  0.84810704278E+01  0.17299623773E+03  0.17120000000E+03 0.  0.
        998    1    1    2    0    0 -0.14434363748E+01  0.24492489002E+01  0.14624946529E+04  0.14625316038E+04  0.10000000000E+02 0.  1.
</event>
<event>
 5    1  0.1658612E-008  0.3753424E+03  0.7957747E-01  0.3471693E+00
         13   -1    0    0    0    0  0.00000000000E+00  0.00000000000E+00  0.14999999963E+04  0.15000000000E+04  0.10566000000E+00 0. -1.
        994   -1    0    0    0    0 -0.00000000000E+00 -0.00000000000E+00  0.11368683772E-12  0.17120000000E+03  0.17120000000E+03 0.  0.
         13    1    1    2    0    0 -0.21659006150E+02  0.32900640842E+02  0.74064580911E+02  0.83887651206E+02  0.10566000000E+00 0. -1.
        994    1    1    2    0    0 -0.11105893874E+03  0.50578902358E+02  0.68945957696E+02  0.22125844237E+03  0.17120000000E+03 0.  0.
        998    1    1    2    0    0  0.13271794489E+03 -0.83479543200E+02  0.13569894577E+04  0.13660539064E+04  0.10000000000E+02 0. -1.
</event>
<event>
 5    1  0.1658612E-008  0.3857846E+03  0.7957747E-01  0.3426352E+00
         13   -1    0    0    0    0  0.00000000000E+00  0.00000000000E+00  0.14999999963E+04  0.15000000000E+04  0.10566000000E+00 0.  1.
        994   -1    0    0    0    0 -0.00000000000E+00 -0.00000000000E+00  0.11368683772E-12  0.17120000000E+03  0.17120000000E+03 0.  0.
         13    1    1    2    0    0 -0.30884403282E+01  0.14315497804E+02  0.85448710296E+02  0.86694666481E+02  0.10566000000E+00 0.  1.
        994    1    1    2    0    0 -0.48589175603E+01 -0.13304431084E+02  0.18994788931E+01  0.17179541608E+03  0.17120000000E+03 0.  0.
        998    1    1    2    0    0  0.79473578886E+01 -0.10110667207E+01  0.14126518071E+04  0.14127099174E+04  0.10000000000E+02 0.  1.
</event>
<event>
 5    1  0.1658612E-008  0.3855567E+03  0.7957747E-01  0.3427315E+00
         13   -1    0    0    0    0  0.00000000000E+00  0.00000000000E+00  0.14999999963E+04  0.15000000000E+04  0.10566000000E+00 0.  1.
        994   -1    0    0    0    0 -0.00000000000E+00 -0.00000000000E+00  0.11368683772E-12  0.17120000000E+03  0.17120000000E+03 0.  0.
         13    1    1    2    0    0  0.13060708861E+02  0.24728956958E+01  0.78808035323E+02  0.79921304573E+02  0.10566000000E+00 0.  1.
        994    1    1    2    0    0  0.15382734728E+02 -0.44388470358E+01  0.21959227687E+01  0.17196102456E+03  0.17120000000E+03 0.  0.
        998    1    1    2    0    0 -0.28443443589E+02  0.19659513400E+01  0.14189960382E+04  0.14193176709E+04  0.10000000000E+02 0.  1.
</event>
<event>
 5    1  0.1658612E-008  0.3723059E+03  0.7957747E-01  0.3485360E+00
         13   -1    0    0    0    0  0.00000000000E+00  0.00000000000E+00  0.14999999963E+04  0.15000000000E+04  0.10566000000E+00 0.  1.
        994   -1    0    0    0    0 -0.00000000000E+00 -0.00000000000E+00  0.11368683772E-12  0.17120000000E+03  0.17120000000E+03 0.  0.
         13    1    1    2    0    0 -0.72285484672E+02 -0.33195259847E+02  0.44665584854E+03  0.45368334196E+03  0.10566000000E+00 0.  1.
        994    1    1    2    0    0  0.29211820398E+02  0.10300465784E+02  0.11367075408E+02  0.17435045297E+03  0.17120000000E+03 0.  0.
        998    1    1    2    0    0  0.43073664273E+02  0.22894794063E+02  0.10419770723E+04  0.10431662051E+04  0.10000000000E+02 0.  1.
</event>
<event>
 5    1  0.1658612E-008  0.3705664E+03  0.7957747E-01  0.3493292E+00
         13   -1    0    0    0    0  0.00000000000E+00  0.00000000000E+00  0.14999999963E+04  0.15000000000E+04  0.10566000000E+00 0. -1.
        994   -1    0    0    0    0 -0.00000000000E+00 -0.00000000000E+00  0.11368683772E-12  0.17120000000E+03  0.17120000000E+03 0.  0.
         13    1    1    2    0    0  0.18329658229E+02  0.10872176993E+02  0.21226364437E+02  0.30079067715E+02  0.10566000000E+00 0. -1.
        994    1    1    2    0    0 -0.16832855683E+02 -0.11796475484E+02  0.10432651772E+02  0.17274484677E+03  0.17120000000E+03 0.  0.
        998    1    1    2    0    0 -0.14968025458E+01  0.92429849066E+00  0.14683409801E+04  0.14683760855E+04  0.10000000000E+02 0. -1.
</event>
<event>
 5    1  0.1658612E-008  0.3833400E+03  0.7957747E-01  0.3436743E+00
         13   -1    0    0    0    0  0.00000000000E+00  0.00000000000E+00  0.14999999963E+04  0.15000000000E+04  0.10566000000E+00 0. -1.
        994   -1    0    0    0    0 -0.00000000000E+00 -0.00000000000E+00  0.11368683772E-12  0.17120000000E+03  0.17120000000E+03 0.  0.
         13    1    1    2    0    0 -0.16649717128E+02  0.50377536648E+01  0.62551709250E+02  0.64925492194E+02  0.10566000000E+00 0. -1.
        994    1    1    2    0    0  0.45108840346E+01 -0.66786338862E+01  0.26713220096E+01  0.17141040863E+03  0.17120000000E+03 0.  0.
        998    1    1    2    0    0  0.12138833094E+02  0.16408802214E+01  0.14347769650E+04  0.14348640992E+04  0.10000000000E+02 0. -1.
</event>
<event>
 5    1  0.1658612E-008  0.3775618E+03  0.7957747E-01  0.3461844E+00
         13   -1    0    0    0    0  0.00000000000E+00  0.00000000000E+00  0.14999999963E+04  0.15000000000E+04  0.10566000000E+00 0. -1.
        994   -1    0    0    0    0 -0.00000000000E+00 -0.00000000000E+00  0.11368683772E-12  0.17120000000E+03  0.17120000000E+03 0.  0.
         13    1    1    2    0    0  0.36905791574E+01  0.10452851086E+03  0.28922038826E+03  0.30755206731E+03  0.10566000000E+00 0. -1.
        994    1    1    2    0    0 -0.30767339111E+01 -0.10326297960E+03  0.54398779727E+02  0.20722301147E+03  0.17120000000E+03 0.  0.
        998    1    1    2    0    0 -0.61384524630E+00 -0.12655312533E+01  0.11563808283E+04  0.11564249212E+04  0.10000000000E+02 0.  0.
</event>
<event>
 5    1  0.1658612E-008  0.3856949E+03  0.7957747E-01  0.3426730E+00
         13   -1    0    0    0    0  0.00000000000E+00  0.00000000000E+00  0.14999999963E+04  0.15000000000E+04  0.10566000000E+00 0. -1.
        994   -1    0    0    0    0 -0.00000000000E+00 -0.00000000000E+00  0.11368683772E-12  0.17120000000E+03  0.17120000000E+03 0.  0.
         13    1    1    2    0    0  0.13525935891E+02 -0.10313808658E+01  0.76540923513E+02  0.77733768882E+02  0.10566000000E+00 0. -1.
        994    1    1    2    0    0 -0.10577684006E+01  0.28998289939E+01  0.13167671461E+01  0.17123288749E+03  0.17120000000E+03 0.  0.
        998    1    1    2    0    0 -0.12468167490E+02 -0.18684481281E+01  0.14221423056E+04  0.14222333436E+04  0.10000000000E+02 0. -1.
</event>
<event>
 5    1  0.1658612E-008  0.3810395E+03  0.7957747E-01  0.3446645E+00
         13   -1    0    0    0    0  0.00000000000E+00  0.00000000000E+00  0.14999999963E+04  0.15000000000E+04  0.10566000000E+00 0.  1.
        994   -1    0    0    0    0 -0.00000000000E+00 -0.00000000000E+00  0.11368683772E-12  0.17120000000E+03  0.17120000000E+03 0.  0.
         13    1    1    2    0    0 -0.15625769989E+02  0.20114414855E+02  0.93390634820E+02  0.96801736601E+02  0.10566000000E+00 0.  1.
        994    1    1    2    0    0  0.40059708720E+01 -0.43631734198E+01  0.37262361666E+01  0.17134295994E+03  0.17120000000E+03 0.  0.
        998    1    1    2    0    0  0.11619799117E+02 -0.15751241435E+02  0.14028831253E+04  0.14030553035E+04  0.10000000000E+02 0.  1.
</event>
<event>
 5    1  0.1658612E-008  0.3835530E+03  0.7957747E-01  0.3435832E+00
         13   -1    0    0    0    0  0.00000000000E+00  0.00000000000E+00  0.14999999963E+04  0.15000000000E+04  0.10566000000E+00 0.  1.
        994   -1    0    0    0    0 -0.00000000000E+00 -0.00000000000E+00  0.11368683772E-12  0.17120000000E+03  0.17120000000E+03 0.  0.
         13    1    1    2    0    0  0.69795596509E+01  0.20165678371E+02  0.98262340958E+02  0.10055281026E+03  0.10566000000E+00 0.  1.
        994    1    1    2    0    0  0.30754171052E+01 -0.12007761974E+02  0.28580640665E+01  0.17167193442E+03  0.17120000000E+03 0.  0.
        998    1    1    2    0    0 -0.10054976756E+02 -0.81579163973E+01  0.13988795913E+04  0.13989752553E+04  0.10000000000E+02 0.  1.
</event>
<event>
 5    1  0.1658612E-008  0.3794866E+03  0.7957747E-01  0.3453397E+00
         13   -1    0    0    0    0  0.00000000000E+00  0.00000000000E+00  0.14999999963E+04  0.15000000000E+04  0.10566000000E+00 0.  1.
        994   -1    0    0    0    0 -0.00000000000E+00 -0.00000000000E+00  0.11368683772E-12  0.17120000000E+03  0.17120000000E+03 0.  0.
         13    1    1    2    0    0 -0.54984647645E+02  0.16099568549E+02  0.33624785100E+03  0.34109402816E+03  0.10566000000E+00 0.  1.
        994    1    1    2    0    0  0.54906543581E+02  0.23307963250E+02  0.16400350318E+02  0.18203406596E+03  0.17120000000E+03 0.  0.
        998    1    1    2    0    0  0.78104064503E-01 -0.39407531799E+02  0.11473517950E+04  0.11480719059E+04  0.10000000000E+02 0.  1.
</event>
<event>
 5    1  0.1658612E-008  0.3799000E+03  0.7957747E-01  0.3451594E+00
         13   -1    0    0    0    0  0.00000000000E+00  0.00000000000E+00  0.14999999963E+04  0.15000000000E+04  0.10566000000E+00 0. -1.
        994   -1    0    0    0    0 -0.00000000000E+00 -0.00000000000E+00  0.11368683772E-12  0.17120000000E+03  0.17120000000E+03 0.  0.
         13    1    1    2    0    0 -0.23936518836E+02 -0.15954378224E+01  0.68057320495E+02  0.72161710018E+02  0.10566000000E+00 0. -1.
        994    1    1    2    0    0  0.12566078308E+02 -0.91599908815E+00  0.47146491404E+01  0.17172773013E+03  0.17120000000E+03 0.  0.
        998    1    1    2    0    0  0.11370440528E+02  0.25114369105E+01  0.14272280266E+04  0.14273105599E+04  0.10000000000E+02 0. -1.
</event>
<event>
 5    1  0.1658612E-008  0.3815818E+03  0.7957747E-01  0.3444300E+00
         13   -1    0    0    0    0  0.00000000000E+00  0.00000000000E+00  0.14999999963E+04  0.15000000000E+04  0.10566000000E+00 0. -1.
        994   -1    0    0    0    0 -0.00000000000E+00 -0.00000000000E+00  0.11368683772E-12  0.17120000000E+03  0.17120000000E+03 0.  0.
         13    1    1    2    0    0  0.37115776118E+02  0.31000542755E+02  0.22032965655E+03  0.22557434075E+03  0.10566000000E+00 0. -1.
        994    1    1    2    0    0 -0.71848125368E+02 -0.47609392276E+02  0.28448755907E+02  0.19377197698E+03  0.17120000000E+03 0.  0.
        998    1    1    2    0    0  0.34732349249E+02  0.16608849521E+02  0.12512215838E+04  0.12518536823E+04  0.10000000000E+02 0. -1.
</event>
<event>
 5    1  0.1658612E-008  0.3803053E+03  0.7957747E-01  0.3449830E+00
         13   -1    0    0    0    0  0.00000000000E+00  0.00000000000E+00  0.14999999963E+04  0.15000000000E+04  0.10566000000E+00 0.  1.
        994   -1    0    0    0    0 -0.00000000000E+00 -0.00000000000E+00  0.11368683772E-12  0.17120000000E+03  0.17120000000E+03 0.  0.
         13    1    1    2    0    0 -0.99148813855E+01  0.10974199993E+02  0.25489214470E+02  0.29469461425E+02  0.10566000000E+00 0.  1.
        994    1    1    2    0    0  0.11026802645E+02 -0.10835413787E+02  0.47776584299E+01  0.17196296865E+03  0.17120000000E+03 0.  0.
        998    1    1    2    0    0 -0.11119212590E+01 -0.13878620575E+00  0.14697331234E+04  0.14697675699E+04  0.10000000000E+02 0.  1.
</event>
<event>
 5    1  0.1658612E-008  0.3696618E+03  0.7957747E-01  0.3497447E+00
         13   -1    0    0    0    0  0.00000000000E+00  0.00000000000E+00  0.14999999963E+04  0.15000000000E+04  0.10566000000E+00 0. -1.
        994   -1    0    0    0    0 -0.00000000000E+00 -0.00000000000E+00  0.11368683772E-12  0.17120000000E+03  0.17120000000E+03 0.  0.
         13    1    1    2    0    0  0.30250355878E+02 -0.62685105892E+02  0.27314210529E+03  0.28187076361E+03  0.10566000000E+00 0. -1.
        994    1    1    2    0    0  0.64202999254E+00  0.69237369629E+01  0.10928933302E+02  0.17168934713E+03  0.17120000000E+03 0.  0.
        998    1    1    2    0    0 -0.30892385870E+02  0.55761368929E+02  0.12159289577E+04  0.12176398893E+04  0.10000000000E+02 0. -1.
</event>
<event>
 5    1  0.1658612E-008  0.3835298E+03  0.7957747E-01  0.3435931E+00
         13   -1    0    0    0    0  0.00000000000E+00  0.00000000000E+00  0.14999999963E+04  0.15000000000E+04  0.10566000000E+00 0.  1.
        994   -1    0    0    0    0 -0.00000000000E+00 -0.00000000000E+00  0.11368683772E-12  0.17120000000E+03  0.17120000000E+03 0.  0.
         13    1    1    2    0    0  0.16239615158E+02 -0.89264927659E+01  0.72401036689E+02  0.74735056374E+02  0.10566000000E+00 0.  1.
        994    1    1    2    0    0 -0.98842803410E+01  0.52633867884E+01  0.27763053710E+01  0.17158831577E+03  0.17120000000E+03 0.  0.
        998    1    1    2    0    0 -0.63553348170E+01  0.36631059774E+01  0.14248226542E+04  0.14248766279E+04  0.10000000000E+02 0.  1.
</event>
<event>
 5    1  0.1658612E-008  0.3830880E+03  0.7957747E-01  0.3437822E+00
         13   -1    0    0    0    0  0.00000000000E+00  0.00000000000E+00  0.14999999963E+04  0.15000000000E+04  0.10566000000E+00 0.  1.
        994   -1    0    0    0    0 -0.00000000000E+00 -0.00000000000E+00  0.11368683772E-12  0.17120000000E+03  0.17120000000E+03 0.  0.
         13    1    1    2    0    0  0.31069789495E+02  0.21590266903E+02  0.32292465618E+02  0.49742194804E+02  0.10566000000E+00 0.  1.
        994    1    1    2    0    0 -0.30739557421E+02 -0.13226250623E+02  0.22149024986E+02  0.17584047715E+03  0.17120000000E+03 0.  0.
        998    1    1    2    0    0 -0.33023207420E+00 -0.83640162799E+01  0.14455585057E+04  0.14456173280E+04  0.10000000000E+02 0.  1.
</event>
<event>
 5    1  0.1658612E-008  0.3802794E+03  0.7957747E-01  0.3449943E+00
         13   -1    0    0    0    0  0.00000000000E+00  0.00000000000E+00  0.14999999963E+04  0.15000000000E+04  0.10566000000E+00 0. -1.
        994   -1    0    0    0    0 -0.00000000000E+00 -0.00000000000E+00  0.11368683772E-12  0.17120000000E+03  0.17120000000E+03 0.  0.
         13    1    1    2    0    0  0.17205622935E+02 -0.15943334001E+02  0.58799901268E+02  0.63306104862E+02  0.10566000000E+00 0. -1.
        994    1    1    2    0    0 -0.47451356775E+02  0.20825638037E+02  0.13013374630E+02  0.17934359866E+03  0.17120000000E+03 0.  0.
        998    1    1    2    0    0  0.30245733840E+02 -0.48823040367E+01  0.14281867204E+04  0.14285502965E+04  0.10000000000E+02 0. -1.
</event>
<event>
 5    1  0.1658612E-008  0.3786764E+03  0.7957747E-01  0.3456942E+00
         13   -1    0    0    0    0  0.00000000000E+00  0.00000000000E+00  0.14999999963E+04  0.15000000000E+04  0.10566000000E+00 0. -1.
        994   -1    0    0    0    0 -0.00000000000E+00 -0.00000000000E+00  0.11368683772E-12  0.17120000000E+03  0.17120000000E+03 0.  0.
         13    1    1    2    0    0 -0.72371714204E+02 -0.26138830965E+02  0.39093760189E+03  0.39843835563E+03  0.10566000000E+00 0. -1.
        994    1    1    2    0    0  0.86988624783E+02  0.27225306966E+02  0.33225065518E+02  0.19677800477E+03  0.17120000000E+03 0.  0.
        998    1    1    2    0    0 -0.14616910578E+02 -0.10864760016E+01  0.10758373289E+04  0.10759836396E+04  0.10000000000E+02 0. -1.
</event>
<event>
 5    1  0.1658612E-008  0.3841671E+03  0.7957747E-01  0.3433212E+00
         13   -1    0    0    0    0  0.00000000000E+00  0.00000000000E+00  0.14999999963E+04  0.15000000000E+04  0.10566000000E+00 0. -1.
        994   -1    0    0    0    0 -0.00000000000E+00 -0.00000000000E+00  0.11368683772E-12  0.17120000000E+03  0.17120000000E+03 0.  0.
         13    1    1    2    0    0  0.62478817500E+01 -0.13271906327E+02  0.51522701646E+02  0.53570322688E+02  0.10566000000E+00 0. -1.
        994    1    1    2    0    0 -0.20028835825E+01  0.12775722876E+02  0.25958498861E+01  0.17170733553E+03  0.17120000000E+03 0.  0.
        998    1    1    2    0    0 -0.42449981675E+01  0.49618345193E+00  0.14458814447E+04  0.14459223418E+04  0.10000000000E+02 0. -1.
</event>
<event>
 5    1  0.1658612E-008  0.3780944E+03  0.7957747E-01  0.3459498E+00
         13   -1    0    0    0    0  0.00000000000E+00  0.00000000000E+00  0.14999999963E+04  0.15000000000E+04  0.10566000000E+00 0.  1.
        994   -1    0    0    0    0 -0.00000000000E+00 -0.00000000000E+00  0.11368683772E-12  0.17120000000E+03  0.17120000000E+03 0.  0.
         13    1    1    2    0    0 -0.47123684029E+01  0.42181363443E+02  0.51571599843E+02  0.66791578154E+02  0.10566000000E+00 0.  1.
        994    1    1    2    0    0  0.76840013874E+00 -0.42114638918E+02  0.21696028308E+02  0.17763555639E+03  0.17120000000E+03 0.  0.
        998    1    1    2    0    0  0.39439682641E+01 -0.66724524845E-01  0.14267323681E+04  0.14267728655E+04  0.10000000000E+02 0.  1.
</event>
<event>
 5    1  0.1658612E-008  0.3849083E+03  0.7957747E-01  0.3430061E+00
         13   -1    0    0    0    0  0.00000000000E+00  0.00000000000E+00  0.14999999963E+04  0.15000000000E+04  0.10566000000E+00 0.  1.
        994   -1    0    0    0    0 -0.00000000000E+00 -0.00000000000E+00  0.11368683772E-12  0.17120000000E+03  0.17120000000E+03 0.  0.
         13    1    1    2    0    0 -0.17379478064E+01  0.13276373175E+02  0.53545297777E+02  0.55194135788E+02  0.10566000000E+00 0.  1.
        994    1    1    2    0    0 -0.35174676007E+01 -0.90413940272E+01  0.19853709710E+01  0.17148615420E+03  0.17120000000E+03 0.  0.
        998    1    1    2    0    0  0.52554154070E+01 -0.42349791474E+01  0.14444693275E+04  0.14445197100E+04  0.10000000000E+02 0.  1.
</event>
<event>
 5    1  0.1658612E-008  0.3819518E+03  0.7957747E-01  0.3442704E+00
         13   -1    0    0    0    0  0.00000000000E+00  0.00000000000E+00  0.14999999963E+04  0.15000000000E+04  0.10566000000E+00 0. -1.
        994   -1    0    0    0    0 -0.00000000000E+00 -0.00000000000E+00  0.11368683772E-12  0.17120000000E+03  0.17120000000E+03 0.  0.
         13    1    1    2    0    0 -0.33185944572E+02  0.94697839394E+01  0.17472036448E+03  0.17809604334E+03  0.10566000000E+00 0. -1.
        994    1    1    2    0    0  0.28538479866E+02 -0.81544110445E+01  0.60826432239E+01  0.17386022490E+03  0.17120000000E+03 0.  0.
        998    1    1    2    0    0  0.46474647056E+01 -0.13153728949E+01  0.13191969886E+04  0.13192437318E+04  0.10000000000E+02 0. -1.
</event>
<event>
 5    1  0.1658612E-008  0.3825826E+03  0.7957747E-01  0.3439990E+00
         13   -1    0    0    0    0  0.00000000000E+00  0.00000000000E+00  0.14999999963E+04  0.15000000000E+04  0.10566000000E+00 0. -1.
        994   -1    0    0    0    0 -0.00000000000E+00 -0.00000000000E+00  0.11368683772E-12  0.17120000000E+03  0.17120000000E+03 0.  0.
         13    1    1    2    0    0  0.10990721390E+02 -0.14053280938E+02  0.82149157637E+00  0.17859918092E+02  0.10566000000E+00 0. -1.
        994    1    1    2    0    0 -0.24261291860E+02  0.14171950408E+02  0.20646321388E+02  0.17471452443E+03  0.17120000000E+03 0.  0.
        998    1    1    2    0    0  0.13270570470E+02 -0.11866946939E+00  0.14785321833E+04  0.14786255575E+04  0.10000000000E+02 0. -1.
</event>
<event>
 5    1  0.1658612E-008  0.3820817E+03  0.7957747E-01  0.3442144E+00
         13   -1    0    0    0    0  0.00000000000E+00  0.00000000000E+00  0.14999999963E+04  0.15000000000E+04  0.10566000000E+00 0. -1.
        994   -1    0    0    0    0 -0.00000000000E+00 -0.00000000000E+00  0.11368683772E-12  0.17120000000E+03  0.17120000000E+03 0.  0.
         13    1    1    2    0    0 -0.13199355670E+02  0.81690016199E+01  0.37082116135E+02  0.40200125356E+02  0.10566000000E+00 0. -1.
        994    1    1    2    0    0  0.24513400725E+02  0.77825477648E+01  0.52852475502E+01  0.17320175723E+03  0.17120000000E+03 0.  0.
        998    1    1    2    0    0 -0.11314045055E+02 -0.15951549385E+02  0.14576326326E+04  0.14577981174E+04  0.10000000000E+02 0. -1.
</event>
<event>
 5    1  0.1658612E-008  0.3756312E+03  0.7957747E-01  0.3470404E+00
         13   -1    0    0    0    0  0.00000000000E+00  0.00000000000E+00  0.14999999963E+04  0.15000000000E+04  0.10566000000E+00 0. -1.
        994   -1    0    0    0    0 -0.00000000000E+00 -0.00000000000E+00  0.11368683772E-12  0.17120000000E+03  0.17120000000E+03 0.  0.
         13    1    1    2    0    0  0.74346382986E+01 -0.12337730768E+02  0.13322147534E+02  0.19621014910E+02  0.10566000000E+00 0. -1.
        994    1    1    2    0    0 -0.74684464992E+01  0.15046192104E+02  0.73126072865E+01  0.17217746605E+03  0.17120000000E+03 0.  0.
        998    1    1    2    0    0  0.33808200509E-01 -0.27084613364E+01  0.14793652415E+04  0.14794015190E+04  0.10000000000E+02 0. -1.
</event>
<event>
 5    1  0.1658612E-008  0.3837926E+03  0.7957747E-01  0.3434809E+00
         13   -1    0    0    0    0  0.00000000000E+00  0.00000000000E+00  0.14999999963E+04  0.15000000000E+04  0.10566000000E+00 0. -1.
        994   -1    0    0    0    0 -0.00000000000E+00 -0.00000000000E+00  0.11368683772E-12  0.17120000000E+03  0.17120000000E+03 0.  0.
         13    1    1    2    0    0  0.10459002192E+02  0.81082285449E+01  0.37501604884E+02  0.39768274163E+02  0.10566000000E+00 0. -1.
        994    1    1    2    0    0 -0.12694689131E+02 -0.98574633375E+01  0.30841403766E+01  0.17198045423E+03  0.17120000000E+03 0.  0.
        998    1    1    2    0    0  0.22356869398E+01  0.17492347925E+01  0.14594142510E+04  0.14594512716E+04  0.10000000000E+02 0. -1.
</event>
<event>
 5    1  0.1658612E-008  0.3831159E+03  0.7957747E-01  0.3437702E+00
         13   -1    0    0    0    0  0.00000000000E+00  0.00000000000E+00  0.14999999963E+04  0.15000000000E+04  0.10566000000E+00 0. -1.
        994   -1    0    0    0    0 -0.00000000000E+00 -0.00000000000E+00  0.11368683772E-12  0.17120000000E+03  0.17120000000E+03 0.  0.
         13    1    1    2    0    0  0.12140694101E+02  0.12906272670E+02  0.57066850043E+02  0.59754538449E+02  0.10566000000E+00 0. -1.
        994    1    1    2    0    0 -0.10378441993E+02 -0.22262111489E+02  0.45672859247E+01  0.17301333407E+03  0.17120000000E+03 0.  0.
        998    1    1    2    0    0 -0.17622521078E+01  0.93558388187E+01  0.14383658603E+04  0.14384321275E+04  0.10000000000E+02 0. -1.
</event>
<event>
 5    1  0.1658612E-008  0.3981255E+03  0.7957747E-01  0.3375844E+00
         13   -1    0    0    0    0  0.00000000000E+00  0.00000000000E+00  0.14999999963E+04  0.15000000000E+04  0.10566000000E+00 0. -1.
        994   -1    0    0    0    0 -0.00000000000E+00 -0.00000000000E+00  0.11368683772E-12  0.17120000000E+03  0.17120000000E+03 0.  0.
         13    1    1    2    0    0  0.52282936878E+01 -0.25916389985E+02  0.12192237592E+01  0.26466809316E+02  0.10566000000E+00 0. -1.
        994    1    1    2    0    0 -0.46258236055E+02  0.32012464984E+02  0.39061609086E+02  0.18439054103E+03  0.17120000000E+03 0.  0.
        998    1    1    2    0    0  0.41029942367E+02 -0.60960749987E+01  0.14597191634E+04  0.14603426497E+04  0.10000000000E+02 0. -1.
</event>
<event>
 5    1  0.1658612E-008  0.3693332E+03  0.7957747E-01  0.3498961E+00
         13   -1    0    0    0    0  0.00000000000E+00  0.00000000000E+00  0.14999999963E+04  0.15000000000E+04  0.10566000000E+00 0. -1.
        994   -1    0    0    0    0 -0.00000000000E+00 -0.00000000000E+00  0.11368683772E-12  0.17120000000E+03  0.17120000000E+03 0.  0.
         13    1    1    2    0    0 -0.10322095386E+03  0.41443449598E+02  0.40761501789E+03  0.42251880290E+03  0.10566000000E+00 0. -1.
        994    1    1    2    0    0  0.12036875415E+03 -0.34052312095E+02  0.65984442082E+02  0.22206211638E+03  0.17120000000E+03 0.  0.
        998    1    1    2    0    0 -0.17147800282E+02 -0.73911375023E+01  0.10264005363E+04  0.10266190807E+04  0.10000000000E+02 0. -1.
</event>
<event>
 5    1  0.1658612E-008  0.3783353E+03  0.7957747E-01  0.3458439E+00
         13   -1    0    0    0    0  0.00000000000E+00  0.00000000000E+00  0.14999999963E+04  0.15000000000E+04  0.10566000000E+00 0.  1.
        994   -1    0    0    0    0 -0.00000000000E+00 -0.00000000000E+00  0.11368683772E-12  0.17120000000E+03  0.17120000000E+03 0.  0.
         13    1    1    2    0    0  0.32984401927E+02  0.94042079199E+01  0.11888485149E+03  0.12373370185E+03  0.10566000000E+00 0.  1.
        994    1    1    2    0    0 -0.18816396613E+02  0.50778872806E+01  0.62537049454E+01  0.17241922905E+03  0.17120000000E+03 0.  0.
        998    1    1    2    0    0 -0.14168005314E+02 -0.14482095200E+02  0.13748614398E+04  0.13750470691E+04  0.10000000000E+02 0.  1.
</event>
<event>
 5    1  0.1658612E-008  0.3747657E+03  0.7957747E-01  0.3474271E+00
         13   -1    0    0    0    0  0.00000000000E+00  0.00000000000E+00  0.14999999963E+04  0.15000000000E+04  0.10566000000E+00 0. -1.
        994   -1    0    0    0    0 -0.00000000000E+00 -0.00000000000E+00  0.11368683772E-12  0.17120000000E+03  0.17120000000E+03 0.  0.
         13    1    1    2    0    0  0.21413445234E+01  0.21916517215E+02  0.32878462772E+02  0.39571752066E+02  0.10566000000E+00 0. -1.
        994    1    1    2    0    0  0.14958578227E+01 -0.15333519757E+02  0.76069694314E+01  0.17206004883E+03  0.17120000000E+03 0.  0.
        998    1    1    2    0    0 -0.36372023461E+01 -0.65829974586E+01  0.14595145641E+04  0.14595681991E+04  0.10000000000E+02 0. -1.
</event>
<event>
 5    1  0.1658612E-008  0.3792623E+03  0.7957747E-01  0.3454377E+00
         13   -1    0    0    0    0  0.00000000000E+00  0.00000000000E+00  0.14999999963E+04  0.15000000000E+04  0.10566000000E+00 0.  1.
        994   -1    0    0    0    0 -0.00000000000E+00 -0.00000000000E+00  0.11368683772E-12  0.17120000000E+03  0.17120000000E+03 0.  0.
         13    1    1    2    0    0  0.13852912978E+02 -0.30100416478E+01  0.20160005683E+02  0.24645497396E+02  0.10566000000E+00 0.  1.
        994    1    1    2    0    0 -0.13965319171E+02  0.42541836263E+01  0.52205411866E+01  0.17190061742E+03  0.17120000000E+03 0.  0.
        998    1    1    2    0    0  0.11240619336E+00 -0.12441419785E+01  0.14746194494E+04  0.14746538852E+04  0.10000000000E+02 0.  0.
</event>
<event>
 5    1  0.1658612E-008  0.3781028E+03  0.7957747E-01  0.3459461E+00
         13   -1    0    0    0    0  0.00000000000E+00  0.00000000000E+00  0.14999999963E+04  0.15000000000E+04  0.10566000000E+00 0. -1.
        994   -1    0    0    0    0 -0.00000000000E+00 -0.00000000000E+00  0.11368683772E-12  0.17120000000E+03  0.17120000000E+03 0.  0.
         13    1    1    2    0    0 -0.14119403438E+02 -0.33179092595E+01  0.18562464862E+02  0.23557214205E+02  0.10566000000E+00 0. -1.
        994    1    1    2    0    0  0.10569340579E+02 -0.91261220208E+01  0.57501397794E+01  0.17186477583E+03  0.17120000000E+03 0.  0.
        998    1    1    2    0    0  0.35500628598E+01  0.12444031280E+02  0.14756873916E+04  0.14757780100E+04  0.10000000000E+02 0. -1.
</event>
<event>
 5    1  0.1658612E-008  0.3742056E+03  0.7957747E-01  0.3476783E+00
         13   -1    0    0    0    0  0.00000000000E+00  0.00000000000E+00  0.14999999963E+04  0.15000000000E+04  0.10566000000E+00 0.  1.
        994   -1    0    0    0    0 -0.00000000000E+00 -0.00000000000E+00  0.11368683772E-12  0.17120000000E+03  0.17120000000E+03 0.  0.
         13    1    1    2    0    0  0.24126672660E+02  0.45014291835E+02  0.87705602053E+02  0.10149219969E+03  0.10566000000E+00 0.  1.
        994    1    1    2    0    0 -0.24413610389E+02 -0.50726541250E+02  0.24512082198E+02  0.18187767464E+03  0.17120000000E+03 0.  0.
        998    1    1    2    0    0  0.28693772923E+00  0.57122494155E+01  0.13877823120E+04  0.13878301257E+04  0.10000000000E+02 0.  1.
</event>
<event>
 5    1  0.1658612E-008  0.3802253E+03  0.7957747E-01  0.3450178E+00
         13   -1    0    0    0    0  0.00000000000E+00  0.00000000000E+00  0.14999999963E+04  0.15000000000E+04  0.10566000000E+00 0.  1.
        994   -1    0    0    0    0 -0.00000000000E+00 -0.00000000000E+00  0.11368683772E-12  0.17120000000E+03  0.17120000000E+03 0.  0.
         13    1    1    2    0    0  0.21563573119E+02 -0.17092955608E+02  0.97405728305E+02  0.10121780420E+03  0.10566000000E+00 0.  1.
        994    1    1    2    0    0 -0.59039850313E+01  0.45878473039E+01  0.42062219349E+01  0.17141481174E+03  0.17120000000E+03 0.  0.
        998    1    1    2    0    0 -0.15659588088E+02  0.12505108304E+02  0.13983880460E+04  0.13985673841E+04  0.10000000000E+02 0.  1.
</event>
<event>
 5    1  0.1658612E-008  0.3838588E+03  0.7957747E-01  0.3434526E+00
         13   -1    0    0    0    0  0.00000000000E+00  0.00000000000E+00  0.14999999963E+04  0.15000000000E+04  0.10566000000E+00 0. -1.
        994   -1    0    0    0    0 -0.00000000000E+00 -0.00000000000E+00  0.11368683772E-12  0.17120000000E+03  0.17120000000E+03 0.  0.
         13    1    1    2    0    0  0.97893614419E+01  0.12779040834E+02  0.55303328586E+02  0.57598652751E+02  0.10566000000E+00 0. -1.
        994    1    1    2    0    0 -0.12997713185E+02 -0.17129909354E+02  0.37254813361E+01  0.17258532253E+03  0.17120000000E+03 0.  0.
        998    1    1    2    0    0  0.32083517433E+01  0.43508685206E+01  0.14409711864E+04  0.14410160247E+04  0.10000000000E+02 0. -1.
</event>
<event>
 5    1  0.1658612E-008  0.3732929E+03  0.7957747E-01  0.3480893E+00
         13   -1    0    0    0    0  0.00000000000E+00  0.00000000000E+00  0.14999999963E+04  0.15000000000E+04  0.10566000000E+00 0. -1.
        994   -1    0    0    0    0 -0.00000000000E+00 -0.00000000000E+00  0.11368683772E-12  0.17120000000E+03  0.17120000000E+03 0.  0.
         13    1    1    2    0    0  0.31851050907E+02  0.42670981142E+02  0.10281110824E+03  0.11578185185E+03  0.10566000000E+00 0. -1.
        994    1    1    2    0    0 -0.33449346451E+02 -0.33538066077E+02  0.20668634318E+02  0.17883034725E+03  0.17120000000E+03 0.  0.
        998    1    1    2    0    0  0.15982955441E+01 -0.91329150650E+01  0.13765202537E+04  0.13765878009E+04  0.10000000000E+02 0. -1.
</event>
<event>
 5    1  0.1658612E-008  0.3714942E+03  0.7957747E-01  0.3489052E+00
         13   -1    0    0    0    0  0.00000000000E+00  0.00000000000E+00  0.14999999963E+04  0.15000000000E+04  0.10566000000E+00 0.  1.
        994   -1    0    0    0    0 -0.00000000000E+00 -0.00000000000E+00  0.11368683772E-12  0.17120000000E+03  0.17120000000E+03 0.  0.
         13    1    1    2    0    0  0.80806408973E+01 -0.87908593939E+01  0.62436945107E+00  0.11957297665E+02  0.10566000000E+00 0.  1.
        994    1    1    2    0    0 -0.82897776828E+01  0.62894017439E+01  0.12111705206E+02  0.17194304403E+03  0.17120000000E+03 0.  0.
        998    1    1    2    0    0  0.20913678556E+00  0.25014576500E+01  0.14872639216E+04  0.14872996583E+04  0.10000000000E+02 0.  1.
</event>
<event>
 5    1  0.1658612E-008  0.3822987E+03  0.7957747E-01  0.3441210E+00
         13   -1    0    0    0    0  0.00000000000E+00  0.00000000000E+00  0.14999999963E+04  0.15000000000E+04  0.10566000000E+00 0.  1.
        994   -1    0    0    0    0 -0.00000000000E+00 -0.00000000000E+00  0.11368683772E-12  0.17120000000E+03  0.17120000000E+03 0.  0.
         13    1    1    2    0    0  0.97415312797E+01 -0.66209039050E+01  0.22466654834E+02  0.25367213952E+02  0.10566000000E+00 0.  1.
        994    1    1    2    0    0 -0.65708652572E+01 -0.29598699619E+01  0.31495657318E+01  0.17138056151E+03  0.17120000000E+03 0.  0.
        998    1    1    2    0    0 -0.31706660225E+01  0.95807738669E+01  0.14743837757E+04  0.14744522245E+04  0.10000000000E+02 0.  1.
</event>
