<event>
 4    1  0.2503484E+000  0.5208631E+02  0.7957747E-01  0.1434403E+00
         13   -1    0    0    0    0  0.00000000000E+00  0.00000000000E+00  0.99999944182E+02  0.10000000000E+03  0.10566000000E+00 0.  1.
         22   -1    0    0    0    0 -0.00000000000E+00 -0.00000000000E+00 -0.13916446757E+02  0.13916446757E+02  0.00000000000E+00 0. -1.
         13    1    1    2    0    0  0.10492897292E+02 -0.10143137675E+02  0.16199114862E+01  0.14683984907E+02  0.10566000000E+00 0. -1.
        996    1    1    2    0    0 -0.10492897292E+02  0.10143137675E+02  0.84463585939E+02  0.99232461852E+02  0.50000000000E+02 0.  0.
<mgrwt>
<rscale>  0 0.52086314E+02</rscale>
<asrwt>0</asrwt>
<pdfrwt beam="1">  1       13 0.10000000E+01 0.52086314E+02</pdfrwt>
<pdfrwt beam="2">  1       22 0.13916471E+00 0.52086314E+02</pdfrwt>
<totfact> 0.85164146E-01</totfact>
</mgrwt>
</event>
<event>
 4    1  0.2503484E+000  0.5168098E+02  0.7957747E-01  0.1436480E+00
         13   -1    0    0    0    0  0.00000000000E+00  0.00000000000E+00  0.99999944184E+02  0.10000000000E+03  0.10566000000E+00 0. -1.
         22   -1    0    0    0    0 -0.00000000000E+00 -0.00000000000E+00 -0.21192727097E+02  0.21192727097E+02  0.00000000000E+00 0.  1.
         13    1    1    2    0    0 -0.88401341932E+01  0.96320407935E+01 -0.11323586069E+02  0.17296211952E+02  0.10566000000E+00 0.  1.
        996    1    1    2    0    0  0.88401341932E+01 -0.96320407935E+01  0.90130803157E+02  0.10389651515E+03  0.50000000000E+02 0.  0.
<mgrwt>
<rscale>  0 0.51680985E+02</rscale>
<asrwt>0</asrwt>
<pdfrwt beam="1">  1       13 0.10000000E+01 0.51680985E+02</pdfrwt>
<pdfrwt beam="2">  1       22 0.21192749E+00 0.51680985E+02</pdfrwt>
<totfact> 0.40601202E-01</totfact>
</mgrwt>
</event>
<event>
 4    1  0.2503484E+000  0.5316618E+02  0.7957747E-01  0.1428976E+00
         13   -1    0    0    0    0  0.00000000000E+00  0.00000000000E+00  0.99999944182E+02  0.10000000000E+03  0.10566000000E+00 0.  1.
         22   -1    0    0    0    0 -0.00000000000E+00 -0.00000000000E+00 -0.43369910623E+02  0.43369910623E+02  0.00000000000E+00 0. -1.
         13    1    1    2    0    0  0.13091448870E+02 -0.12460194041E+02 -0.33880315494E+02  0.38399601705E+02  0.10566000000E+00 0. -1.
        996    1    1    2    0    0 -0.13091448870E+02  0.12460194041E+02  0.90510349054E+02  0.10497030892E+03  0.50000000000E+02 0.  0.
<mgrwt>
<rscale>  0 0.53166178E+02</rscale>
<asrwt>0</asrwt>
<pdfrwt beam="1">  1       13 0.10000000E+01 0.53166178E+02</pdfrwt>
<pdfrwt beam="2">  1       22 0.43369926E+00 0.53166178E+02</pdfrwt>
<totfact> 0.10508134E-01</totfact>
</mgrwt>
</event>
<event>
 4    1  0.2503484E+000  0.5174249E+02  0.7957747E-01  0.1436163E+00
         13   -1    0    0    0    0  0.00000000000E+00  0.00000000000E+00  0.99999944173E+02  0.99999999993E+02  0.10566000000E+00 0.  1.
         22   -1    0    0    0    0 -0.00000000000E+00 -0.00000000000E+00 -0.12531698103E+02  0.12531698103E+02  0.00000000000E+00 0. -1.
         13    1    1    2    0    0  0.13014184453E+02 -0.28135493528E+01  0.32789283119E+01  0.13713044587E+02  0.10566000000E+00 0. -1.
        996    1    1    2    0    0 -0.13014184453E+02  0.28135493528E+01  0.84189317758E+02  0.98818653510E+02  0.50000000000E+02 0.  0.
<mgrwt>
<rscale>  0 0.51742488E+02</rscale>
<asrwt>0</asrwt>
<pdfrwt beam="1">  1       13 0.10000000E+01 0.51742488E+02</pdfrwt>
<pdfrwt beam="2">  1       22 0.12531723E+00 0.51742488E+02</pdfrwt>
<totfact> 0.10047988E+00</totfact>
</mgrwt>
</event>
<event>
 4    1  0.2503484E+000  0.6988383E+02  0.7957747E-01  0.1360489E+00
         13   -1    0    0    0    0  0.00000000000E+00  0.00000000000E+00  0.99999944174E+02  0.99999999994E+02  0.10566000000E+00 0. -1.
         22   -1    0    0    0    0 -0.00000000000E+00 -0.00000000000E+00 -0.39487542053E+02  0.39487542053E+02  0.00000000000E+00 0. -1.
         13    1    1    2    0    0 -0.96259765192E+01  0.47865333795E+02  0.28867515837E+01  0.48909039062E+02  0.10566000000E+00 0.  1.
        996    1    1    2    0    0  0.96259765192E+01 -0.47865333795E+02  0.57625650537E+02  0.90578502985E+02  0.50000000000E+02 0.  0.
<mgrwt>
<rscale>  0 0.69883829E+02</rscale>
<asrwt>0</asrwt>
<pdfrwt beam="1">  1       13 0.10000000E+01 0.69883829E+02</pdfrwt>
<pdfrwt beam="2">  1       22 0.39487559E+00 0.69883829E+02</pdfrwt>
<totfact> 0.12829672E-01</totfact>
</mgrwt>
</event>
<event>
 4    1  0.2503484E+000  0.5617674E+02  0.7957747E-01  0.1414615E+00
         13   -1    0    0    0    0  0.00000000000E+00  0.00000000000E+00  0.99999944174E+02  0.99999999994E+02  0.10566000000E+00 0.  1.
         22   -1    0    0    0    0 -0.00000000000E+00 -0.00000000000E+00 -0.43256511595E+02  0.43256511595E+02  0.00000000000E+00 0. -1.
         13    1    1    2    0    0  0.20426267845E+02  0.15446485356E+02 -0.30291601333E+02  0.39666340936E+02  0.10566000000E+00 0. -1.
        996    1    1    2    0    0 -0.20426267845E+02 -0.15446485356E+02  0.87035033911E+02  0.10359017065E+03  0.50000000000E+02 0.  0.
<mgrwt>
<rscale>  0 0.56176742E+02</rscale>
<asrwt>0</asrwt>
<pdfrwt beam="1">  1       13 0.10000000E+01 0.56176742E+02</pdfrwt>
<pdfrwt beam="2">  1       22 0.43256527E+00 0.56176742E+02</pdfrwt>
<totfact> 0.10587852E-01</totfact>
</mgrwt>
</event>
<event>
 4    1  0.2503484E+000  0.5334343E+02  0.7957747E-01  0.1428099E+00
         13   -1    0    0    0    0  0.00000000000E+00  0.00000000000E+00  0.99999944182E+02  0.10000000000E+03  0.10566000000E+00 0. -1.
         22   -1    0    0    0    0 -0.00000000000E+00 -0.00000000000E+00 -0.13297896020E+02  0.13297896020E+02  0.00000000000E+00 0. -1.
         13    1    1    2    0    0  0.17960449060E+02 -0.47899864767E+01  0.14754448094E+02  0.23732395654E+02  0.10566000000E+00 0.  1.
        996    1    1    2    0    0 -0.17960449060E+02  0.47899864767E+01  0.71947600067E+02  0.89565500369E+02  0.50000000000E+02 0.  0.
<mgrwt>
<rscale>  0 0.53343432E+02</rscale>
<asrwt>0</asrwt>
<pdfrwt beam="1">  1       13 0.10000000E+01 0.53343432E+02</pdfrwt>
<pdfrwt beam="2">  1       22 0.13297920E+00 0.53343432E+02</pdfrwt>
<totfact> 0.91845078E-01</totfact>
</mgrwt>
</event>
<event>
 4    1  0.2503484E+000  0.5250704E+02  0.7957747E-01  0.1432270E+00
         13   -1    0    0    0    0  0.00000000000E+00  0.00000000000E+00  0.99999944183E+02  0.10000000000E+03  0.10566000000E+00 0. -1.
         22   -1    0    0    0    0 -0.00000000000E+00 -0.00000000000E+00 -0.17439144242E+02  0.17439144242E+02  0.00000000000E+00 0. -1.
         13    1    1    2    0    0 -0.15420015247E+02  0.43831500529E+01 -0.37016306717E+01  0.16453027329E+02  0.10566000000E+00 0.  1.
        996    1    1    2    0    0  0.15420015247E+02 -0.43831500529E+01  0.86262430613E+02  0.10098611692E+03  0.50000000000E+02 0.  0.
<mgrwt>
<rscale>  0 0.52507036E+02</rscale>
<asrwt>0</asrwt>
<pdfrwt beam="1">  1       13 0.10000000E+01 0.52507036E+02</pdfrwt>
<pdfrwt beam="2">  1       22 0.17439167E+00 0.52507036E+02</pdfrwt>
<totfact> 0.58184086E-01</totfact>
</mgrwt>
</event>
<event>
 4    1  0.2503484E+000  0.5144162E+02  0.7957747E-01  0.1437717E+00
         13   -1    0    0    0    0  0.00000000000E+00  0.00000000000E+00  0.99999944182E+02  0.10000000000E+03  0.10566000000E+00 0. -1.
         22   -1    0    0    0    0 -0.00000000000E+00 -0.00000000000E+00 -0.18310724749E+02  0.18310724749E+02  0.00000000000E+00 0. -1.
         13    1    1    2    0    0  0.99550515807E+01  0.68656473607E+01 -0.82918496308E+01  0.14663086305E+02  0.10566000000E+00 0.  1.
        996    1    1    2    0    0 -0.99550515807E+01 -0.68656473607E+01  0.89981069064E+02  0.10364763845E+03  0.50000000000E+02 0.  0.
<mgrwt>
<rscale>  0 0.51441619E+02</rscale>
<asrwt>0</asrwt>
<pdfrwt beam="1">  1       13 0.10000000E+01 0.51441619E+02</pdfrwt>
<pdfrwt beam="2">  1       22 0.18310748E+00 0.51441619E+02</pdfrwt>
<totfact> 0.53218579E-01</totfact>
</mgrwt>
</event>
<event>
 4    1  0.2503484E+000  0.5127607E+02  0.7957747E-01  0.1438578E+00
         13   -1    0    0    0    0  0.00000000000E+00  0.00000000000E+00  0.99999944181E+02  0.10000000000E+03  0.10566000000E+00 0.  1.
         22   -1    0    0    0    0 -0.00000000000E+00 -0.00000000000E+00 -0.11764406075E+02  0.11764406075E+02  0.00000000000E+00 0.  1.
         13    1    1    2    0    0  0.96167629368E+01  0.60624816485E+01  0.21579809572E+01  0.11571683498E+02  0.10566000000E+00 0. -1.
        996    1    1    2    0    0 -0.96167629368E+01 -0.60624816485E+01  0.86077557149E+02  0.10019272258E+03  0.50000000000E+02 0.  0.
<mgrwt>
<rscale>  0 0.51276074E+02</rscale>
<asrwt>0</asrwt>
<pdfrwt beam="1">  1       13 0.10000000E+01 0.51276074E+02</pdfrwt>
<pdfrwt beam="2">  1       22 0.11764431E+00 0.51276074E+02</pdfrwt>
<totfact> 0.11061456E+00</totfact>
</mgrwt>
</event>
<event>
 4    1  0.2503484E+000  0.5190766E+02  0.7957747E-01  0.1435316E+00
         13   -1    0    0    0    0  0.00000000000E+00  0.00000000000E+00  0.99999944179E+02  0.99999999999E+02  0.10566000000E+00 0.  1.
         22   -1    0    0    0    0 -0.00000000000E+00 -0.00000000000E+00 -0.12233228634E+02  0.12233228634E+02  0.00000000000E+00 0. -1.
         13    1    1    2    0    0 -0.12001200054E+02 -0.70976404410E+01  0.55620274147E+01  0.15011749251E+02  0.10566000000E+00 0. -1.
        996    1    1    2    0    0  0.12001200054E+02  0.70976404410E+01  0.82204688130E+02  0.97221479382E+02  0.50000000000E+02 0.  0.
<mgrwt>
<rscale>  0 0.51907661E+02</rscale>
<asrwt>0</asrwt>
<pdfrwt beam="1">  1       13 0.10000000E+01 0.51907661E+02</pdfrwt>
<pdfrwt beam="2">  1       22 0.12233253E+00 0.51907661E+02</pdfrwt>
<totfact> 0.10433904E+00</totfact>
</mgrwt>
</event>
<event>
 4    1  0.2503484E+000  0.5264930E+02  0.7957747E-01  0.1431554E+00
         13   -1    0    0    0    0  0.00000000000E+00  0.00000000000E+00  0.99999944175E+02  0.99999999996E+02  0.10566000000E+00 0.  1.
         22   -1    0    0    0    0 -0.00000000000E+00 -0.00000000000E+00 -0.13703538420E+02  0.13703538420E+02  0.00000000000E+00 0.  1.
         13    1    1    2    0    0 -0.98982209495E+00  0.16461127902E+02  0.57274479813E+01  0.17457471295E+02  0.10566000000E+00 0. -1.
        996    1    1    2    0    0  0.98982209495E+00 -0.16461127902E+02  0.80568957774E+02  0.96246067121E+02  0.50000000000E+02 0.  0.
<mgrwt>
<rscale>  0 0.52649297E+02</rscale>
<asrwt>0</asrwt>
<pdfrwt beam="1">  1       13 0.10000000E+01 0.52649297E+02</pdfrwt>
<pdfrwt beam="2">  1       22 0.13703563E+00 0.52649297E+02</pdfrwt>
<totfact> 0.87411025E-01</totfact>
</mgrwt>
</event>
<event>
 4    1  0.2503484E+000  0.5312345E+02  0.7957747E-01  0.1429187E+00
         13   -1    0    0    0    0  0.00000000000E+00  0.00000000000E+00  0.99999944172E+02  0.99999999992E+02  0.10566000000E+00 0. -1.
         22   -1    0    0    0    0 -0.00000000000E+00 -0.00000000000E+00 -0.15736042634E+02  0.15736042634E+02  0.00000000000E+00 0. -1.
         13    1    1    2    0    0  0.11194871282E+02 -0.14027682380E+02  0.23451236155E+01  0.18100049303E+02  0.10566000000E+00 0.  1.
        996    1    1    2    0    0 -0.11194871282E+02  0.14027682380E+02  0.81918777922E+02  0.97635993324E+02  0.50000000000E+02 0.  0.
<mgrwt>
<rscale>  0 0.53123451E+02</rscale>
<asrwt>0</asrwt>
<pdfrwt beam="1">  1       13 0.10000000E+01 0.53123451E+02</pdfrwt>
<pdfrwt beam="2">  1       22 0.15736066E+00 0.53123451E+02</pdfrwt>
<totfact> 0.69620698E-01</totfact>
</mgrwt>
</event>
<event>
 4    1  0.2503484E+000  0.5110566E+02  0.7957747E-01  0.1439468E+00
         13   -1    0    0    0    0  0.00000000000E+00  0.00000000000E+00  0.99999944179E+02  0.99999999999E+02  0.10566000000E+00 0.  1.
         22   -1    0    0    0    0 -0.00000000000E+00 -0.00000000000E+00 -0.10134849905E+02  0.10134849905E+02  0.00000000000E+00 0.  1.
         13    1    1    2    0    0  0.67469488346E+01 -0.81404634559E+01  0.66852814831E+01  0.12509700892E+02  0.10566000000E+00 0. -1.
        996    1    1    2    0    0 -0.67469488346E+01  0.81404634559E+01  0.83179812790E+02  0.97625149012E+02  0.50000000000E+02 0.  0.
<mgrwt>
<rscale>  0 0.51105660E+02</rscale>
<asrwt>0</asrwt>
<pdfrwt beam="1">  1       13 0.10000000E+01 0.51105660E+02</pdfrwt>
<pdfrwt beam="2">  1       22 0.10134875E+00 0.51105660E+02</pdfrwt>
<totfact> 0.13796696E+00</totfact>
</mgrwt>
</event>
<event>
 4    1  0.2503484E+000  0.6045567E+02  0.7957747E-01  0.1395929E+00
         13   -1    0    0    0    0  0.00000000000E+00  0.00000000000E+00  0.99999944178E+02  0.99999999998E+02  0.10566000000E+00 0. -1.
         22   -1    0    0    0    0 -0.00000000000E+00 -0.00000000000E+00 -0.61832815983E+02  0.61832815983E+02  0.00000000000E+00 0.  1.
         13    1    1    2    0    0 -0.20246168138E+02 -0.27294325356E+02 -0.46624865347E+02  0.57695552286E+02  0.10566000000E+00 0.  1.
        996    1    1    2    0    0  0.20246168138E+02  0.27294325356E+02  0.84791993542E+02  0.10413726369E+03  0.50000000000E+02 0.  0.
<mgrwt>
<rscale>  0 0.60455666E+02</rscale>
<asrwt>0</asrwt>
<pdfrwt beam="1">  1       13 0.10000000E+01 0.60455666E+02</pdfrwt>
<pdfrwt beam="2">  1       22 0.61832827E+00 0.60455666E+02</pdfrwt>
<totfact> 0.71972392E-02</totfact>
</mgrwt>
</event>
<event>
 4    1  0.2503484E+000  0.5146899E+02  0.7957747E-01  0.1437575E+00
         13   -1    0    0    0    0  0.00000000000E+00  0.00000000000E+00  0.99999944179E+02  0.99999999999E+02  0.10566000000E+00 0.  1.
         22   -1    0    0    0    0 -0.00000000000E+00 -0.00000000000E+00 -0.71714903465E+02  0.71714903465E+02  0.00000000000E+00 0. -1.
         13    1    1    2    0    0  0.12178975724E+02  0.85435614353E+00 -0.64481265296E+02  0.65626992254E+02  0.10566000000E+00 0. -1.
        996    1    1    2    0    0 -0.12178975724E+02 -0.85435614353E+00  0.92766306010E+02  0.10608791121E+03  0.50000000000E+02 0.  0.
<mgrwt>
<rscale>  0 0.51468994E+02</rscale>
<asrwt>0</asrwt>
<pdfrwt beam="1">  1       13 0.10000000E+01 0.51468994E+02</pdfrwt>
<pdfrwt beam="2">  1       22 0.71714911E+00 0.51468994E+02</pdfrwt>
<totfact> 0.65582640E-02</totfact>
</mgrwt>
</event>
<event>
 4    1  0.2503484E+000  0.5633443E+02  0.7957747E-01  0.1413892E+00
         13   -1    0    0    0    0  0.00000000000E+00  0.00000000000E+00  0.99999944176E+02  0.99999999996E+02  0.10566000000E+00 0.  1.
         22   -1    0    0    0    0 -0.00000000000E+00 -0.00000000000E+00 -0.17396278806E+02  0.17396278806E+02  0.00000000000E+00 0.  1.
         13    1    1    2    0    0 -0.16322169334E+02 -0.20178066416E+02  0.17496088945E+02  0.31300029848E+02  0.10566000000E+00 0. -1.
        996    1    1    2    0    0  0.16322169334E+02  0.20178066416E+02  0.65107576425E+02  0.86096248954E+02  0.50000000000E+02 0.  0.
<mgrwt>
<rscale>  0 0.56334426E+02</rscale>
<asrwt>0</asrwt>
<pdfrwt beam="1">  1       13 0.10000000E+01 0.56334426E+02</pdfrwt>
<pdfrwt beam="2">  1       22 0.17396302E+00 0.56334426E+02</pdfrwt>
<totfact> 0.58847950E-01</totfact>
</mgrwt>
</event>
<event>
 4    1  0.2503484E+000  0.5351649E+02  0.7957747E-01  0.1427248E+00
         13   -1    0    0    0    0  0.00000000000E+00  0.00000000000E+00  0.99999944179E+02  0.10000000000E+03  0.10566000000E+00 0.  1.
         22   -1    0    0    0    0 -0.00000000000E+00 -0.00000000000E+00 -0.17198239781E+02  0.17198239781E+02  0.00000000000E+00 0. -1.
         13    1    1    2    0    0 -0.19054213792E+02  0.97552033180E+00  0.57279809649E+00  0.19088058174E+02  0.10566000000E+00 0. -1.
        996    1    1    2    0    0  0.19054213792E+02 -0.97552033180E+00  0.82228906302E+02  0.98110181606E+02  0.50000000000E+02 0.  0.
<mgrwt>
<rscale>  0 0.53516490E+02</rscale>
<asrwt>0</asrwt>
<pdfrwt beam="1">  1       13 0.10000000E+01 0.53516490E+02</pdfrwt>
<pdfrwt beam="2">  1       22 0.17198263E+00 0.53516490E+02</pdfrwt>
<totfact> 0.59744738E-01</totfact>
</mgrwt>
</event>
<event>
 4    1  0.2503484E+000  0.5258753E+02  0.7957747E-01  0.1431865E+00
         13   -1    0    0    0    0  0.00000000000E+00  0.00000000000E+00  0.99999944178E+02  0.99999999999E+02  0.10566000000E+00 0. -1.
         22   -1    0    0    0    0 -0.00000000000E+00 -0.00000000000E+00 -0.12693034087E+02  0.12693034087E+02  0.00000000000E+00 0.  1.
         13    1    1    2    0    0  0.72039434267E+01  0.14613385528E+02  0.97462133538E+01  0.18985459601E+02  0.10566000000E+00 0.  1.
        996    1    1    2    0    0 -0.72039434267E+01 -0.14613385528E+02  0.77560696737E+02  0.93707574485E+02  0.50000000000E+02 0.  0.
<mgrwt>
<rscale>  0 0.52587525E+02</rscale>
<asrwt>0</asrwt>
<pdfrwt beam="1">  1       13 0.10000000E+01 0.52587525E+02</pdfrwt>
<pdfrwt beam="2">  1       22 0.12693058E+00 0.52587525E+02</pdfrwt>
<totfact> 0.98678363E-01</totfact>
</mgrwt>
</event>
<event>
 4    1  0.2503484E+000  0.8250903E+02  0.7957747E-01  0.1322078E+00
         13   -1    0    0    0    0  0.00000000000E+00  0.00000000000E+00  0.99999944179E+02  0.99999999999E+02  0.10566000000E+00 0.  1.
         22   -1    0    0    0    0 -0.00000000000E+00 -0.00000000000E+00 -0.54866593388E+02  0.54866593388E+02  0.00000000000E+00 0. -1.
         13    1    1    2    0    0 -0.60163101532E+02  0.26232457233E+02  0.19650634620E+02  0.68512036924E+02  0.10566000000E+00 0. -1.
        996    1    1    2    0    0  0.60163101532E+02 -0.26232457233E+02  0.25482716171E+02  0.86354556463E+02  0.50000000000E+02 0.  0.
<mgrwt>
<rscale>  0 0.82509033E+02</rscale>
<asrwt>0</asrwt>
<pdfrwt beam="1">  1       13 0.10000000E+01 0.82509033E+02</pdfrwt>
<pdfrwt beam="2">  1       22 0.54866606E+00 0.82509033E+02</pdfrwt>
<totfact> 0.59796982E-02</totfact>
</mgrwt>
</event>
<event>
 4    1  0.2503484E+000  0.5123517E+02  0.7957747E-01  0.1438791E+00
         13   -1    0    0    0    0  0.00000000000E+00  0.00000000000E+00  0.99999944179E+02  0.99999999999E+02  0.10566000000E+00 0.  1.
         22   -1    0    0    0    0 -0.00000000000E+00 -0.00000000000E+00 -0.12211035688E+02  0.12211035688E+02  0.00000000000E+00 0.  1.
         13    1    1    2    0    0 -0.38906809442E+01  0.10483579184E+02  0.74487114383E+00  0.11207534420E+02  0.10566000000E+00 0. -1.
        996    1    1    2    0    0  0.38906809442E+01 -0.10483579184E+02  0.87044037347E+02  0.10100350127E+03  0.50000000000E+02 0.  0.
<mgrwt>
<rscale>  0 0.51235172E+02</rscale>
<asrwt>0</asrwt>
<pdfrwt beam="1">  1       13 0.10000000E+01 0.51235172E+02</pdfrwt>
<pdfrwt beam="2">  1       22 0.12211060E+00 0.51235172E+02</pdfrwt>
<totfact> 0.10447408E+00</totfact>
</mgrwt>
</event>
<event>
 4    1  0.2503484E+000  0.5591121E+02  0.7957747E-01  0.1415838E+00
         13   -1    0    0    0    0  0.00000000000E+00  0.00000000000E+00  0.99999944177E+02  0.99999999997E+02  0.10566000000E+00 0.  1.
         22   -1    0    0    0    0 -0.00000000000E+00 -0.00000000000E+00 -0.27959642407E+02  0.27959642407E+02  0.00000000000E+00 0. -1.
         13    1    1    2    0    0  0.10102614049E+02 -0.22891066571E+02 -0.11418292799E+02  0.27503678188E+02  0.10566000000E+00 0. -1.
        996    1    1    2    0    0 -0.10102614049E+02  0.22891066571E+02  0.83458594569E+02  0.10045596422E+03  0.50000000000E+02 0.  0.
<mgrwt>
<rscale>  0 0.55911213E+02</rscale>
<asrwt>0</asrwt>
<pdfrwt beam="1">  1       13 0.10000000E+01 0.55911213E+02</pdfrwt>
<pdfrwt beam="2">  1       22 0.27959663E+00 0.55911213E+02</pdfrwt>
<totfact> 0.23804231E-01</totfact>
</mgrwt>
</event>
<event>
 4    1  0.2503484E+000  0.5107900E+02  0.7957747E-01  0.1439607E+00
         13   -1    0    0    0    0  0.00000000000E+00  0.00000000000E+00  0.99999944178E+02  0.99999999998E+02  0.10566000000E+00 0.  1.
         22   -1    0    0    0    0 -0.00000000000E+00 -0.00000000000E+00 -0.10417923638E+02  0.10417923638E+02  0.00000000000E+00 0.  1.
         13    1    1    2    0    0 -0.55383321013E+01 -0.88538812406E+01  0.49296867298E+01  0.11548909506E+02  0.10566000000E+00 0. -1.
        996    1    1    2    0    0  0.55383321013E+01  0.88538812406E+01  0.84652333810E+02  0.98869014130E+02  0.50000000000E+02 0.  0.
<mgrwt>
<rscale>  0 0.51079001E+02</rscale>
<asrwt>0</asrwt>
<pdfrwt beam="1">  1       13 0.10000000E+01 0.51079001E+02</pdfrwt>
<pdfrwt beam="2">  1       22 0.10417949E+00 0.51079001E+02</pdfrwt>
<totfact> 0.13252488E+00</totfact>
</mgrwt>
</event>
<event>
 4    1  0.2503484E+000  0.5326973E+02  0.7957747E-01  0.1428463E+00
         13   -1    0    0    0    0  0.00000000000E+00  0.00000000000E+00  0.99999944178E+02  0.99999999998E+02  0.10566000000E+00 0. -1.
         22   -1    0    0    0    0 -0.00000000000E+00 -0.00000000000E+00 -0.16167135183E+02  0.16167135183E+02  0.00000000000E+00 0.  1.
         13    1    1    2    0    0  0.13108420943E+02 -0.12877615258E+02  0.19465560637E+01  0.18478742352E+02  0.10566000000E+00 0.  1.
        996    1    1    2    0    0 -0.13108420943E+02  0.12877615258E+02  0.81886252931E+02  0.97688392829E+02  0.50000000000E+02 0.  0.
<mgrwt>
<rscale>  0 0.53269726E+02</rscale>
<asrwt>0</asrwt>
<pdfrwt beam="1">  1       13 0.10000000E+01 0.53269726E+02</pdfrwt>
<pdfrwt beam="2">  1       22 0.16167159E+00 0.53269726E+02</pdfrwt>
<totfact> 0.66498101E-01</totfact>
</mgrwt>
</event>
<event>
 4    1  0.2503484E+000  0.5532612E+02  0.7957747E-01  0.1418563E+00
         13   -1    0    0    0    0  0.00000000000E+00  0.00000000000E+00  0.99999944180E+02  0.10000000000E+03  0.10566000000E+00 0.  1.
         22   -1    0    0    0    0 -0.00000000000E+00 -0.00000000000E+00 -0.50185246383E+02  0.50185246383E+02  0.00000000000E+00 0. -1.
         13    1    1    2    0    0  0.28662806382E+01  0.23510925617E+02 -0.38952329327E+02  0.45588093973E+02  0.10566000000E+00 0. -1.
        996    1    1    2    0    0 -0.28662806382E+01 -0.23510925617E+02  0.88767027123E+02  0.10459715241E+03  0.50000000000E+02 0.  0.
<mgrwt>
<rscale>  0 0.55326117E+02</rscale>
<asrwt>0</asrwt>
<pdfrwt beam="1">  1       13 0.10000000E+01 0.55326117E+02</pdfrwt>
<pdfrwt beam="2">  1       22 0.50185260E+00 0.55326117E+02</pdfrwt>
<totfact> 0.72973235E-02</totfact>
</mgrwt>
</event>
<event>
 4    1  0.2503484E+000  0.5107059E+02  0.7957747E-01  0.1439651E+00
         13   -1    0    0    0    0  0.00000000000E+00  0.00000000000E+00  0.99999944178E+02  0.99999999998E+02  0.10566000000E+00 0. -1.
         22   -1    0    0    0    0 -0.00000000000E+00 -0.00000000000E+00 -0.11704761691E+02  0.11704761691E+02  0.00000000000E+00 0. -1.
         13    1    1    2    0    0 -0.10286594635E+02  0.15464037213E+01  0.84863808204E+00  0.10437276670E+02  0.10566000000E+00 0.  1.
        996    1    1    2    0    0  0.10286594635E+02 -0.15464037213E+01  0.87446544406E+02  0.10126748502E+03  0.50000000000E+02 0.  0.
<mgrwt>
<rscale>  0 0.51070592E+02</rscale>
<asrwt>0</asrwt>
<pdfrwt beam="1">  1       13 0.10000000E+01 0.51070592E+02</pdfrwt>
<pdfrwt beam="2">  1       22 0.11704786E+00 0.51070592E+02</pdfrwt>
<totfact> 0.11141862E+00</totfact>
</mgrwt>
</event>
<event>
 4    1  0.2503484E+000  0.5553122E+02  0.7957747E-01  0.1417603E+00
         13   -1    0    0    0    0  0.00000000000E+00  0.00000000000E+00  0.99999944178E+02  0.99999999999E+02  0.10566000000E+00 0.  1.
         22   -1    0    0    0    0 -0.00000000000E+00 -0.00000000000E+00 -0.41676760794E+02  0.41676760794E+02  0.00000000000E+00 0. -1.
         13    1    1    2    0    0 -0.18462181689E+02 -0.15584108299E+02 -0.29276721750E+02  0.37958585125E+02  0.10566000000E+00 0. -1.
        996    1    1    2    0    0  0.18462181689E+02  0.15584108299E+02  0.87599905135E+02  0.10371817567E+03  0.50000000000E+02 0.  0.
<mgrwt>
<rscale>  0 0.55531222E+02</rscale>
<asrwt>0</asrwt>
<pdfrwt beam="1">  1       13 0.10000000E+01 0.55531222E+02</pdfrwt>
<pdfrwt beam="2">  1       22 0.41676777E+00 0.55531222E+02</pdfrwt>
<totfact> 0.11441243E-01</totfact>
</mgrwt>
</event>
<event>
 4    1  0.2503484E+000  0.5683883E+02  0.7957747E-01  0.1411598E+00
         13   -1    0    0    0    0  0.00000000000E+00  0.00000000000E+00  0.99999944176E+02  0.99999999996E+02  0.10566000000E+00 0. -1.
         22   -1    0    0    0    0 -0.00000000000E+00 -0.00000000000E+00 -0.37415690380E+02  0.37415690380E+02  0.00000000000E+00 0.  1.
         13    1    1    2    0    0 -0.12436690420E+01 -0.27001968756E+02 -0.22447621164E+02  0.35136304435E+02  0.10566000000E+00 0.  1.
        996    1    1    2    0    0  0.12436690420E+01  0.27001968756E+02  0.85031874960E+02  0.10227938594E+03  0.50000000000E+02 0.  0.
<mgrwt>
<rscale>  0 0.56838834E+02</rscale>
<asrwt>0</asrwt>
<pdfrwt beam="1">  1       13 0.10000000E+01 0.56838834E+02</pdfrwt>
<pdfrwt beam="2">  1       22 0.37415708E+00 0.56838834E+02</pdfrwt>
<totfact> 0.14035742E-01</totfact>
</mgrwt>
</event>
<event>
 4    1  0.2503484E+000  0.5991294E+02  0.7957747E-01  0.1398197E+00
         13   -1    0    0    0    0  0.00000000000E+00  0.00000000000E+00  0.99999944169E+02  0.99999999989E+02  0.10566000000E+00 0.  1.
         22   -1    0    0    0    0 -0.00000000000E+00 -0.00000000000E+00 -0.21587993463E+02  0.21587993463E+02  0.00000000000E+00 0.  1.
         13    1    1    2    0    0  0.66548754777E+01 -0.32330677820E+02  0.28409828651E+02  0.43551000263E+02  0.10566000000E+00 0. -1.
        996    1    1    2    0    0 -0.66548754777E+01  0.32330677820E+02  0.50002122055E+02  0.78036993189E+02  0.50000000000E+02 0.  0.
<mgrwt>
<rscale>  0 0.59912938E+02</rscale>
<asrwt>0</asrwt>
<pdfrwt beam="1">  1       13 0.10000000E+01 0.59912938E+02</pdfrwt>
<pdfrwt beam="2">  1       22 0.21588015E+00 0.59912938E+02</pdfrwt>
<totfact> 0.39715542E-01</totfact>
</mgrwt>
</event>
<event>
 4    1  0.2503484E+000  0.5346978E+02  0.7957747E-01  0.1427477E+00
         13   -1    0    0    0    0  0.00000000000E+00  0.00000000000E+00  0.99999944177E+02  0.99999999998E+02  0.10566000000E+00 0.  1.
         22   -1    0    0    0    0 -0.00000000000E+00 -0.00000000000E+00 -0.23424983230E+02  0.23424983230E+02  0.00000000000E+00 0. -1.
         13    1    1    2    0    0  0.18031330673E+02 -0.58213822297E+01 -0.10184866505E+02  0.21511858280E+02  0.10566000000E+00 0. -1.
        996    1    1    2    0    0 -0.18031330673E+02  0.58213822297E+01  0.86759827452E+02  0.10191312495E+03  0.50000000000E+02 0.  0.
<mgrwt>
<rscale>  0 0.53469780E+02</rscale>
<asrwt>0</asrwt>
<pdfrwt beam="1">  1       13 0.10000000E+01 0.53469780E+02</pdfrwt>
<pdfrwt beam="2">  1       22 0.23425005E+00 0.53469780E+02</pdfrwt>
<totfact> 0.33570156E-01</totfact>
</mgrwt>
</event>
<event>
 4    1  0.2503484E+000  0.5302945E+02  0.7957747E-01  0.1429654E+00
         13   -1    0    0    0    0  0.00000000000E+00  0.00000000000E+00  0.99999944180E+02  0.10000000000E+03  0.10566000000E+00 0. -1.
         22   -1    0    0    0    0 -0.00000000000E+00 -0.00000000000E+00 -0.13790088456E+02  0.13790088456E+02  0.00000000000E+00 0. -1.
         13    1    1    2    0    0 -0.88364247070E+00  0.17644893675E+02  0.82366651350E+01  0.19492996522E+02  0.10566000000E+00 0.  1.
        996    1    1    2    0    0  0.88364247070E+00 -0.17644893675E+02  0.77973190588E+02  0.94297091935E+02  0.50000000000E+02 0.  0.
<mgrwt>
<rscale>  0 0.53029455E+02</rscale>
<asrwt>0</asrwt>
<pdfrwt beam="1">  1       13 0.10000000E+01 0.53029455E+02</pdfrwt>
<pdfrwt beam="2">  1       22 0.13790113E+00 0.53029455E+02</pdfrwt>
<totfact> 0.86597931E-01</totfact>
</mgrwt>
</event>
<event>
 4    1  0.2503484E+000  0.5253975E+02  0.7957747E-01  0.1432105E+00
         13   -1    0    0    0    0  0.00000000000E+00  0.00000000000E+00  0.99999944177E+02  0.99999999998E+02  0.10566000000E+00 0.  1.
         22   -1    0    0    0    0 -0.00000000000E+00 -0.00000000000E+00 -0.21923796888E+02  0.21923796888E+02  0.00000000000E+00 0. -1.
         13    1    1    2    0    0 -0.14626613452E+02  0.68182099252E+01 -0.10274701771E+02  0.19131295517E+02  0.10566000000E+00 0. -1.
        996    1    1    2    0    0  0.14626613452E+02 -0.68182099252E+01  0.88350849061E+02  0.10279250137E+03  0.50000000000E+02 0.  0.
<mgrwt>
<rscale>  0 0.52539755E+02</rscale>
<asrwt>0</asrwt>
<pdfrwt beam="1">  1       13 0.10000000E+01 0.52539755E+02</pdfrwt>
<pdfrwt beam="2">  1       22 0.21923819E+00 0.52539755E+02</pdfrwt>
<totfact> 0.38109012E-01</totfact>
</mgrwt>
</event>
<event>
 4    1  0.2503484E+000  0.5190434E+02  0.7957747E-01  0.1435333E+00
         13   -1    0    0    0    0  0.00000000000E+00  0.00000000000E+00  0.99999944175E+02  0.99999999996E+02  0.10566000000E+00 0. -1.
         22   -1    0    0    0    0 -0.00000000000E+00 -0.00000000000E+00 -0.14998195895E+02  0.14998195895E+02  0.00000000000E+00 0.  1.
         13    1    1    2    0    0  0.25722090203E+00 -0.13928180769E+02 -0.16110040399E+01  0.14023796924E+02  0.10566000000E+00 0.  1.
        996    1    1    2    0    0 -0.25722090203E+00  0.13928180769E+02  0.86612752320E+02  0.10097439897E+03  0.50000000000E+02 0.  0.
<mgrwt>
<rscale>  0 0.51904339E+02</rscale>
<asrwt>0</asrwt>
<pdfrwt beam="1">  1       13 0.10000000E+01 0.51904339E+02</pdfrwt>
<pdfrwt beam="2">  1       22 0.14998220E+00 0.51904339E+02</pdfrwt>
<totfact> 0.75292777E-01</totfact>
</mgrwt>
</event>
<event>
 4    1  0.2503484E+000  0.5393777E+02  0.7957747E-01  0.1425190E+00
         13   -1    0    0    0    0  0.00000000000E+00  0.00000000000E+00  0.99999944184E+02  0.10000000000E+03  0.10566000000E+00 0.  1.
         22   -1    0    0    0    0 -0.00000000000E+00 -0.00000000000E+00 -0.14745200725E+02  0.14745200725E+02  0.00000000000E+00 0. -1.
         13    1    1    2    0    0  0.14074535601E+02  0.14532377696E+02  0.11183171044E+02  0.23116163879E+02  0.10566000000E+00 0. -1.
        996    1    1    2    0    0 -0.14074535601E+02 -0.14532377696E+02  0.74071572416E+02  0.91629036850E+02  0.50000000000E+02 0.  0.
<mgrwt>
<rscale>  0 0.53937766E+02</rscale>
<asrwt>0</asrwt>
<pdfrwt beam="1">  1       13 0.10000000E+01 0.53937766E+02</pdfrwt>
<pdfrwt beam="2">  1       22 0.14745225E+00 0.53937766E+02</pdfrwt>
<totfact> 0.77767182E-01</totfact>
</mgrwt>
</event>
<event>
 4    1  0.2503484E+000  0.5119817E+02  0.7957747E-01  0.1438984E+00
         13   -1    0    0    0    0  0.00000000000E+00  0.00000000000E+00  0.99999944177E+02  0.99999999997E+02  0.10566000000E+00 0.  1.
         22   -1    0    0    0    0 -0.00000000000E+00 -0.00000000000E+00 -0.98655067646E+01  0.98655067646E+01  0.00000000000E+00 0.  1.
         13    1    1    2    0    0 -0.10405649890E+02 -0.36021055026E+01  0.10652791484E+02  0.15321417824E+02  0.10566000000E+00 0. -1.
        996    1    1    2    0    0  0.10405649890E+02  0.36021055026E+01  0.79481645928E+02  0.94544088938E+02  0.50000000000E+02 0.  0.
<mgrwt>
<rscale>  0 0.51198171E+02</rscale>
<asrwt>0</asrwt>
<pdfrwt beam="1">  1       13 0.10000000E+01 0.51198171E+02</pdfrwt>
<pdfrwt beam="2">  1       22 0.98655319E-01 0.51198171E+02</pdfrwt>
<totfact> 0.14348651E+00</totfact>
</mgrwt>
</event>
<event>
 4    1  0.2503484E+000  0.5231081E+02  0.7957747E-01  0.1433262E+00
         13   -1    0    0    0    0  0.00000000000E+00  0.00000000000E+00  0.99999944184E+02  0.10000000000E+03  0.10566000000E+00 0. -1.
         22   -1    0    0    0    0 -0.00000000000E+00 -0.00000000000E+00 -0.11848579919E+02  0.11848579919E+02  0.00000000000E+00 0. -1.
         13    1    1    2    0    0 -0.12207375436E+02  0.93488643381E+01  0.29440355855E+02  0.33213957855E+02  0.10566000000E+00 0.  1.
        996    1    1    2    0    0  0.12207375436E+02 -0.93488643381E+01  0.58711008409E+02  0.78634622069E+02  0.50000000000E+02 0.  0.
<mgrwt>
<rscale>  0 0.52310814E+02</rscale>
<asrwt>0</asrwt>
<pdfrwt beam="1">  1       13 0.10000000E+01 0.52310814E+02</pdfrwt>
<pdfrwt beam="2">  1       22 0.11848605E+00 0.52310814E+02</pdfrwt>
<totfact> 0.10967714E+00</totfact>
</mgrwt>
</event>
<event>
 4    1  0.2503484E+000  0.5121272E+02  0.7957747E-01  0.1438908E+00
         13   -1    0    0    0    0  0.00000000000E+00  0.00000000000E+00  0.99999944177E+02  0.99999999997E+02  0.10566000000E+00 0. -1.
         22   -1    0    0    0    0 -0.00000000000E+00 -0.00000000000E+00 -0.10316018942E+02  0.10316018942E+02  0.00000000000E+00 0. -1.
         13    1    1    2    0    0  0.10606365994E+02  0.32011244278E+01  0.28192426460E+02  0.30291356373E+02  0.10566000000E+00 0.  1.
        996    1    1    2    0    0 -0.10606365994E+02 -0.32011244278E+01  0.61491498775E+02  0.80024662566E+02  0.50000000000E+02 0.  0.
<mgrwt>
<rscale>  0 0.51212715E+02</rscale>
<asrwt>0</asrwt>
<pdfrwt beam="1">  1       13 0.10000000E+01 0.51212715E+02</pdfrwt>
<pdfrwt beam="2">  1       22 0.10316044E+00 0.51212715E+02</pdfrwt>
<totfact> 0.13448659E+00</totfact>
</mgrwt>
</event>
<event>
 4    1  0.2503484E+000  0.5162312E+02  0.7957747E-01  0.1436778E+00
         13   -1    0    0    0    0  0.00000000000E+00  0.00000000000E+00  0.99999944177E+02  0.99999999997E+02  0.10566000000E+00 0.  1.
         22   -1    0    0    0    0 -0.00000000000E+00 -0.00000000000E+00 -0.10511808537E+02  0.10511808537E+02  0.00000000000E+00 0.  1.
         13    1    1    2    0    0 -0.12124847645E+02  0.42348696728E+01  0.13370833660E+02  0.18540129675E+02  0.10566000000E+00 0. -1.
        996    1    1    2    0    0  0.12124847645E+02 -0.42348696728E+01  0.76117301980E+02  0.91971678860E+02  0.50000000000E+02 0.  0.
<mgrwt>
<rscale>  0 0.51623115E+02</rscale>
<asrwt>0</asrwt>
<pdfrwt beam="1">  1       13 0.10000000E+01 0.51623115E+02</pdfrwt>
<pdfrwt beam="2">  1       22 0.10511834E+00 0.51623115E+02</pdfrwt>
<totfact> 0.13096305E+00</totfact>
</mgrwt>
</event>
<event>
 4    1  0.2503484E+000  0.5135552E+02  0.7957747E-01  0.1438164E+00
         13   -1    0    0    0    0  0.00000000000E+00  0.00000000000E+00  0.99999944177E+02  0.99999999997E+02  0.10566000000E+00 0.  1.
         22   -1    0    0    0    0 -0.00000000000E+00 -0.00000000000E+00 -0.10264372754E+02  0.10264372754E+02  0.00000000000E+00 0.  1.
         13    1    1    2    0    0 -0.90285234521E+01 -0.74749457459E+01  0.99285065259E+01  0.15361492620E+02  0.10566000000E+00 0. -1.
        996    1    1    2    0    0  0.90285234521E+01  0.74749457459E+01  0.79807064898E+02  0.94902880131E+02  0.50000000000E+02 0.  0.
<mgrwt>
<rscale>  0 0.51355516E+02</rscale>
<asrwt>0</asrwt>
<pdfrwt beam="1">  1       13 0.10000000E+01 0.51355516E+02</pdfrwt>
<pdfrwt beam="2">  1       22 0.10264398E+00 0.51355516E+02</pdfrwt>
<totfact> 0.13552172E+00</totfact>
</mgrwt>
</event>
<event>
 4    1  0.2503484E+000  0.5462858E+02  0.7957747E-01  0.1421864E+00
         13   -1    0    0    0    0  0.00000000000E+00  0.00000000000E+00  0.99999944187E+02  0.10000000001E+03  0.10566000000E+00 0.  1.
         22   -1    0    0    0    0 -0.00000000000E+00 -0.00000000000E+00 -0.23272473931E+02  0.23272473931E+02  0.00000000000E+00 0. -1.
         13    1    1    2    0    0  0.21040469960E+02 -0.64483146951E+01 -0.71804185792E+01  0.23148471085E+02  0.10566000000E+00 0. -1.
        996    1    1    2    0    0 -0.21040469960E+02  0.64483146951E+01  0.83907888836E+02  0.10012400285E+03  0.50000000000E+02 0.  0.
<mgrwt>
<rscale>  0 0.54628584E+02</rscale>
<asrwt>0</asrwt>
<pdfrwt beam="1">  1       13 0.10000000E+01 0.54628584E+02</pdfrwt>
<pdfrwt beam="2">  1       22 0.23272495E+00 0.54628584E+02</pdfrwt>
<totfact> 0.34063164E-01</totfact>
</mgrwt>
</event>
<event>
 4    1  0.2503484E+000  0.5172934E+02  0.7957747E-01  0.1436231E+00
         13   -1    0    0    0    0  0.00000000000E+00  0.00000000000E+00  0.99999944179E+02  0.99999999999E+02  0.10566000000E+00 0. -1.
         22   -1    0    0    0    0 -0.00000000000E+00 -0.00000000000E+00 -0.12479474185E+02  0.12479474185E+02  0.00000000000E+00 0.  1.
         13    1    1    2    0    0 -0.81932555032E+01  0.10430480123E+02  0.33447418380E+01  0.13679284094E+02  0.10566000000E+00 0.  1.
        996    1    1    2    0    0  0.81932555032E+01 -0.10430480123E+02  0.84175728156E+02  0.98800190090E+02  0.50000000000E+02 0.  0.
<mgrwt>
<rscale>  0 0.51729337E+02</rscale>
<asrwt>0</asrwt>
<pdfrwt beam="1">  1       13 0.10000000E+01 0.51729337E+02</pdfrwt>
<pdfrwt beam="2">  1       22 0.12479499E+00 0.51729337E+02</pdfrwt>
<totfact> 0.10113097E+00</totfact>
</mgrwt>
</event>
<event>
 4    1  0.2503484E+000  0.5393555E+02  0.7957747E-01  0.1425201E+00
         13   -1    0    0    0    0  0.00000000000E+00  0.00000000000E+00  0.99999944182E+02  0.10000000000E+03  0.10566000000E+00 0. -1.
         22   -1    0    0    0    0 -0.00000000000E+00 -0.00000000000E+00 -0.22355359276E+02  0.22355359276E+02  0.00000000000E+00 0.  1.
         13    1    1    2    0    0 -0.15210520796E+02  0.13329808110E+02 -0.74952474352E+01  0.21569275029E+02  0.10566000000E+00 0.  1.
        996    1    1    2    0    0  0.15210520796E+02 -0.13329808110E+02  0.85139832342E+02  0.10078608425E+03  0.50000000000E+02 0.  0.
<mgrwt>
<rscale>  0 0.53935552E+02</rscale>
<asrwt>0</asrwt>
<pdfrwt beam="1">  1       13 0.10000000E+01 0.53935552E+02</pdfrwt>
<pdfrwt beam="2">  1       22 0.22355381E+00 0.53935552E+02</pdfrwt>
<totfact> 0.36789084E-01</totfact>
</mgrwt>
</event>
<event>
 4    1  0.2503484E+000  0.5110827E+02  0.7957747E-01  0.1439454E+00
         13   -1    0    0    0    0  0.00000000000E+00  0.00000000000E+00  0.99999944181E+02  0.10000000000E+03  0.10566000000E+00 0. -1.
         22   -1    0    0    0    0 -0.00000000000E+00 -0.00000000000E+00 -0.95332678485E+01  0.95332678485E+01  0.00000000000E+00 0. -1.
         13    1    1    2    0    0 -0.10583173474E+02 -0.22702644863E+00  0.17364048627E+02  0.20336579126E+02  0.10566000000E+00 0.  1.
        996    1    1    2    0    0  0.10583173474E+02  0.22702644863E+00  0.73102627706E+02  0.89196688724E+02  0.50000000000E+02 0.  0.
<mgrwt>
<rscale>  0 0.51108268E+02</rscale>
<asrwt>0</asrwt>
<pdfrwt beam="1">  1       13 0.10000000E+01 0.51108268E+02</pdfrwt>
<pdfrwt beam="2">  1       22 0.95332931E-01 0.51108268E+02</pdfrwt>
<totfact> 0.15069008E+00</totfact>
</mgrwt>
</event>
<event>
 4    1  0.2503484E+000  0.5156555E+02  0.7957747E-01  0.1437076E+00
         13   -1    0    0    0    0  0.00000000000E+00  0.00000000000E+00  0.99999944187E+02  0.10000000001E+03  0.10566000000E+00 0. -1.
         22   -1    0    0    0    0 -0.00000000000E+00 -0.00000000000E+00 -0.27809304995E+02  0.27809304995E+02  0.00000000000E+00 0.  1.
         13    1    1    2    0    0  0.10644120005E+02  0.67608153118E+01 -0.19143733964E+02  0.22923778669E+02  0.10566000000E+00 0.  1.
        996    1    1    2    0    0 -0.10644120005E+02 -0.67608153118E+01  0.91334373155E+02  0.10488552633E+03  0.50000000000E+02 0.  0.
<mgrwt>
<rscale>  0 0.51565550E+02</rscale>
<asrwt>0</asrwt>
<pdfrwt beam="1">  1       13 0.10000000E+01 0.51565550E+02</pdfrwt>
<pdfrwt beam="2">  1       22 0.27809325E+00 0.51565550E+02</pdfrwt>
<totfact> 0.23910585E-01</totfact>
</mgrwt>
</event>
<event>
 4    1  0.2503484E+000  0.5229610E+02  0.7957747E-01  0.1433336E+00
         13   -1    0    0    0    0  0.00000000000E+00  0.00000000000E+00  0.99999944179E+02  0.99999999999E+02  0.10566000000E+00 0.  1.
         22   -1    0    0    0    0 -0.00000000000E+00 -0.00000000000E+00 -0.29031933218E+02  0.29031933218E+02  0.00000000000E+00 0. -1.
         13    1    1    2    0    0  0.80890782128E+01  0.13017269188E+02 -0.19338950655E+02  0.24675669391E+02  0.10566000000E+00 0. -1.
        996    1    1    2    0    0 -0.80890782128E+01 -0.13017269188E+02  0.90306961616E+02  0.10435626383E+03  0.50000000000E+02 0.  0.
<mgrwt>
<rscale>  0 0.52296104E+02</rscale>
<asrwt>0</asrwt>
<pdfrwt beam="1">  1       13 0.10000000E+01 0.52296104E+02</pdfrwt>
<pdfrwt beam="2">  1       22 0.29031953E+00 0.52296104E+02</pdfrwt>
<totfact> 0.22034479E-01</totfact>
</mgrwt>
</event>
<event>
 4    1  0.2503484E+000  0.6638426E+02  0.7957747E-01  0.1372839E+00
         13   -1    0    0    0    0  0.00000000000E+00  0.00000000000E+00  0.99999944174E+02  0.99999999994E+02  0.10566000000E+00 0. -1.
         22   -1    0    0    0    0 -0.00000000000E+00 -0.00000000000E+00 -0.59753836645E+02  0.59753836645E+02  0.00000000000E+00 0.  1.
         13    1    1    2    0    0  0.74366229864E+01 -0.43029828486E+02 -0.37473300185E+02  0.57542409506E+02  0.10566000000E+00 0.  1.
        996    1    1    2    0    0 -0.74366229864E+01  0.43029828486E+02  0.77719407715E+02  0.10221142713E+03  0.50000000000E+02 0.  0.
<mgrwt>
<rscale>  0 0.66384256E+02</rscale>
<asrwt>0</asrwt>
<pdfrwt beam="1">  1       13 0.10000000E+01 0.66384256E+02</pdfrwt>
<pdfrwt beam="2">  1       22 0.59753848E+00 0.66384256E+02</pdfrwt>
<totfact> 0.62833361E-02</totfact>
</mgrwt>
</event>
<event>
 4    1  0.2503484E+000  0.5944599E+02  0.7957747E-01  0.1400171E+00
         13   -1    0    0    0    0  0.00000000000E+00  0.00000000000E+00  0.99999944176E+02  0.99999999996E+02  0.10566000000E+00 0. -1.
         22   -1    0    0    0    0 -0.00000000000E+00 -0.00000000000E+00 -0.23431754437E+02  0.23431754437E+02  0.00000000000E+00 0. -1.
         13    1    1    2    0    0 -0.30742822917E+02 -0.94183255971E+01  0.89036029319E+01  0.33363323084E+02  0.10566000000E+00 0.  1.
        996    1    1    2    0    0  0.30742822917E+02  0.94183255971E+01  0.67664586807E+02  0.90068431350E+02  0.50000000000E+02 0.  0.
<mgrwt>
<rscale>  0 0.59445992E+02</rscale>
<asrwt>0</asrwt>
<pdfrwt beam="1">  1       13 0.10000000E+01 0.59445992E+02</pdfrwt>
<pdfrwt beam="2">  1       22 0.23431776E+00 0.59445992E+02</pdfrwt>
<totfact> 0.33854114E-01</totfact>
</mgrwt>
</event>
<event>
 4    1  0.2503484E+000  0.5789155E+02  0.7957747E-01  0.1406899E+00
         13   -1    0    0    0    0  0.00000000000E+00  0.00000000000E+00  0.99999944186E+02  0.10000000001E+03  0.10566000000E+00 0. -1.
         22   -1    0    0    0    0 -0.00000000000E+00 -0.00000000000E+00 -0.19025991229E+02  0.19025991229E+02  0.00000000000E+00 0. -1.
         13    1    1    2    0    0 -0.14063540962E+02  0.25566548536E+02  0.30658552178E+02  0.42324810385E+02  0.10566000000E+00 0.  1.
        996    1    1    2    0    0  0.14063540962E+02 -0.25566548536E+02  0.50315400779E+02  0.76701180851E+02  0.50000000000E+02 0.  0.
<mgrwt>
<rscale>  0 0.57891550E+02</rscale>
<asrwt>0</asrwt>
<pdfrwt beam="1">  1       13 0.10000000E+01 0.57891550E+02</pdfrwt>
<pdfrwt beam="2">  1       22 0.19026014E+00 0.57891550E+02</pdfrwt>
<totfact> 0.50199405E-01</totfact>
</mgrwt>
</event>
<event>
 4    1  0.2503484E+000  0.5995181E+02  0.7957747E-01  0.1398034E+00
         13   -1    0    0    0    0  0.00000000000E+00  0.00000000000E+00  0.99999944178E+02  0.99999999998E+02  0.10566000000E+00 0. -1.
         22   -1    0    0    0    0 -0.00000000000E+00 -0.00000000000E+00 -0.46336141049E+02  0.46336141049E+02  0.00000000000E+00 0.  1.
         13    1    1    2    0    0 -0.14239043275E+02  0.29857485216E+02 -0.29156212082E+02  0.44094394699E+02  0.10566000000E+00 0.  1.
        996    1    1    2    0    0  0.14239043275E+02 -0.29857485216E+02  0.82820015211E+02  0.10224174635E+03  0.50000000000E+02 0.  0.
<mgrwt>
<rscale>  0 0.59951812E+02</rscale>
<asrwt>0</asrwt>
<pdfrwt beam="1">  1       13 0.10000000E+01 0.59951812E+02</pdfrwt>
<pdfrwt beam="2">  1       22 0.46336156E+00 0.59951812E+02</pdfrwt>
<totfact> 0.90410566E-02</totfact>
</mgrwt>
</event>
<event>
 4    1  0.2503484E+000  0.5145610E+02  0.7957747E-01  0.1437642E+00
         13   -1    0    0    0    0  0.00000000000E+00  0.00000000000E+00  0.99999944179E+02  0.10000000000E+03  0.10566000000E+00 0.  1.
         22   -1    0    0    0    0 -0.00000000000E+00 -0.00000000000E+00 -0.10479759560E+02  0.10479759560E+02  0.00000000000E+00 0.  1.
         13    1    1    2    0    0 -0.17507462414E+01  0.12027668921E+02  0.26246059954E+02  0.28923982423E+02  0.10566000000E+00 0. -1.
        996    1    1    2    0    0  0.17507462414E+01 -0.12027668921E+02  0.63274124666E+02  0.81555777136E+02  0.50000000000E+02 0.  0.
<mgrwt>
<rscale>  0 0.51456097E+02</rscale>
<asrwt>0</asrwt>
<pdfrwt beam="1">  1       13 0.10000000E+01 0.51456097E+02</pdfrwt>
<pdfrwt beam="2">  1       22 0.10479785E+00 0.51456097E+02</pdfrwt>
<totfact> 0.13149908E+00</totfact>
</mgrwt>
</event>
<event>
 4    1  0.2503484E+000  0.5189899E+02  0.7957747E-01  0.1435360E+00
         13   -1    0    0    0    0  0.00000000000E+00  0.00000000000E+00  0.99999944173E+02  0.99999999993E+02  0.10566000000E+00 0. -1.
         22   -1    0    0    0    0 -0.00000000000E+00 -0.00000000000E+00 -0.19175520948E+02  0.19175520948E+02  0.00000000000E+00 0.  1.
         13    1    1    2    0    0 -0.13349174730E+02 -0.39121536864E+01 -0.81852273551E+01  0.16140462302E+02  0.10566000000E+00 0.  1.
        996    1    1    2    0    0  0.13349174730E+02  0.39121536864E+01  0.89009650580E+02  0.10303505864E+03  0.50000000000E+02 0.  0.
<mgrwt>
<rscale>  0 0.51898992E+02</rscale>
<asrwt>0</asrwt>
<pdfrwt beam="1">  1       13 0.10000000E+01 0.51898992E+02</pdfrwt>
<pdfrwt beam="2">  1       22 0.19175544E+00 0.51898992E+02</pdfrwt>
<totfact> 0.48971226E-01</totfact>
</mgrwt>
</event>
<event>
 4    1  0.2503484E+000  0.5147969E+02  0.7957747E-01  0.1437520E+00
         13   -1    0    0    0    0  0.00000000000E+00  0.00000000000E+00  0.99999944177E+02  0.99999999997E+02  0.10566000000E+00 0. -1.
         22   -1    0    0    0    0 -0.00000000000E+00 -0.00000000000E+00 -0.10211262063E+02  0.10211262063E+02  0.00000000000E+00 0. -1.
         13    1    1    2    0    0 -0.31479961085E+01 -0.11842666877E+02  0.14188306161E+02  0.18747742104E+02  0.10566000000E+00 0.  1.
        996    1    1    2    0    0  0.31479961085E+01  0.11842666877E+02  0.75600375953E+02  0.91463519955E+02  0.50000000000E+02 0.  0.
<mgrwt>
<rscale>  0 0.51479692E+02</rscale>
<asrwt>0</asrwt>
<pdfrwt beam="1">  1       13 0.10000000E+01 0.51479692E+02</pdfrwt>
<pdfrwt beam="2">  1       22 0.10211287E+00 0.51479692E+02</pdfrwt>
<totfact> 0.13659093E+00</totfact>
</mgrwt>
</event>
<event>
 4    1  0.2503484E+000  0.6507299E+02  0.7957747E-01  0.1377697E+00
         13   -1    0    0    0    0  0.00000000000E+00  0.00000000000E+00  0.99999944184E+02  0.10000000000E+03  0.10566000000E+00 0.  1.
         22   -1    0    0    0    0 -0.00000000000E+00 -0.00000000000E+00 -0.28569609523E+02  0.28569609523E+02  0.00000000000E+00 0. -1.
         13    1    1    2    0    0 -0.26140116839E+02  0.32422027166E+02  0.24256051784E+02  0.48196065878E+02  0.10566000000E+00 0. -1.
        996    1    1    2    0    0  0.26140116839E+02 -0.32422027166E+02  0.47174282877E+02  0.80373543650E+02  0.50000000000E+02 0.  0.
<mgrwt>
<rscale>  0 0.65072986E+02</rscale>
<asrwt>0</asrwt>
<pdfrwt beam="1">  1       13 0.10000000E+01 0.65072986E+02</pdfrwt>
<pdfrwt beam="2">  1       22 0.28569629E+00 0.65072986E+02</pdfrwt>
<totfact> 0.23081526E-01</totfact>
</mgrwt>
</event>
<event>
 4    1  0.2503484E+000  0.6204121E+02  0.7957747E-01  0.1389460E+00
         13   -1    0    0    0    0  0.00000000000E+00  0.00000000000E+00  0.99999944180E+02  0.10000000000E+03  0.10566000000E+00 0. -1.
         22   -1    0    0    0    0 -0.00000000000E+00 -0.00000000000E+00 -0.29665628649E+02  0.29665628649E+02  0.00000000000E+00 0.  1.
         13    1    1    2    0    0  0.15901592210E+02  0.33109677399E+02  0.11648666800E+01  0.36748870060E+02  0.10566000000E+00 0.  1.
        996    1    1    2    0    0 -0.15901592210E+02 -0.33109677399E+02  0.69169448851E+02  0.92916758589E+02  0.50000000000E+02 0.  0.
<mgrwt>
<rscale>  0 0.62041207E+02</rscale>
<asrwt>0</asrwt>
<pdfrwt beam="1">  1       13 0.10000000E+01 0.62041207E+02</pdfrwt>
<pdfrwt beam="2">  1       22 0.29665648E+00 0.62041207E+02</pdfrwt>
<totfact> 0.21402697E-01</totfact>
</mgrwt>
</event>
<event>
 4    1  0.2503484E+000  0.5198393E+02  0.7957747E-01  0.1434925E+00
         13   -1    0    0    0    0  0.00000000000E+00  0.00000000000E+00  0.99999944173E+02  0.99999999993E+02  0.10566000000E+00 0.  1.
         22   -1    0    0    0    0 -0.00000000000E+00 -0.00000000000E+00 -0.11642153567E+02  0.11642153567E+02  0.00000000000E+00 0.  1.
         13    1    1    2    0    0  0.13760352545E+02 -0.36029877313E+01  0.91978068228E+01  0.16939292699E+02  0.10566000000E+00 0. -1.
        996    1    1    2    0    0 -0.13760352545E+02  0.36029877313E+01  0.79159983783E+02  0.94702860861E+02  0.50000000000E+02 0.  0.
<mgrwt>
<rscale>  0 0.51983929E+02</rscale>
<asrwt>0</asrwt>
<pdfrwt beam="1">  1       13 0.10000000E+01 0.51983929E+02</pdfrwt>
<pdfrwt beam="2">  1       22 0.11642178E+00 0.51983929E+02</pdfrwt>
<totfact> 0.11256205E+00</totfact>
</mgrwt>
</event>
<event>
 4    1  0.2503484E+000  0.5141874E+02  0.7957747E-01  0.1437836E+00
         13   -1    0    0    0    0  0.00000000000E+00  0.00000000000E+00  0.99999944181E+02  0.10000000000E+03  0.10566000000E+00 0.  1.
         22   -1    0    0    0    0 -0.00000000000E+00 -0.00000000000E+00 -0.10067360219E+02  0.10067360219E+02  0.00000000000E+00 0. -1.
         13    1    1    2    0    0 -0.44077491433E+01 -0.11156087107E+02  0.18652842067E+02  0.22177155211E+02  0.10566000000E+00 0. -1.
        996    1    1    2    0    0  0.44077491433E+01  0.11156087107E+02  0.71279741895E+02  0.87890205010E+02  0.50000000000E+02 0.  0.
<mgrwt>
<rscale>  0 0.51418737E+02</rscale>
<asrwt>0</asrwt>
<pdfrwt beam="1">  1       13 0.10000000E+01 0.51418737E+02</pdfrwt>
<pdfrwt beam="2">  1       22 0.10067385E+00 0.51418737E+02</pdfrwt>
<totfact> 0.13941758E+00</totfact>
</mgrwt>
</event>
<event>
 4    1  0.2503484E+000  0.5355307E+02  0.7957747E-01  0.1427068E+00
         13   -1    0    0    0    0  0.00000000000E+00  0.00000000000E+00  0.99999944177E+02  0.99999999997E+02  0.10566000000E+00 0.  1.
         22   -1    0    0    0    0 -0.00000000000E+00 -0.00000000000E+00 -0.13243523487E+02  0.13243523487E+02  0.00000000000E+00 0. -1.
         13    1    1    2    0    0  0.13012258541E+02 -0.14093006436E+02  0.21085910376E+02  0.28505411472E+02  0.10566000000E+00 0. -1.
        996    1    1    2    0    0 -0.13012258541E+02  0.14093006436E+02  0.65670510313E+02  0.84738112013E+02  0.50000000000E+02 0.  0.
<mgrwt>
<rscale>  0 0.53553074E+02</rscale>
<asrwt>0</asrwt>
<pdfrwt beam="1">  1       13 0.10000000E+01 0.53553074E+02</pdfrwt>
<pdfrwt beam="2">  1       22 0.13243548E+00 0.53553074E+02</pdfrwt>
<totfact> 0.92485247E-01</totfact>
</mgrwt>
</event>
<event>
 4    1  0.2503484E+000  0.5227223E+02  0.7957747E-01  0.1433457E+00
         13   -1    0    0    0    0  0.00000000000E+00  0.00000000000E+00  0.99999944184E+02  0.10000000000E+03  0.10566000000E+00 0. -1.
         22   -1    0    0    0    0 -0.00000000000E+00 -0.00000000000E+00 -0.21424685756E+02  0.21424685756E+02  0.00000000000E+00 0. -1.
         13    1    1    2    0    0  0.12998813514E+02 -0.79634941870E+01 -0.10242952068E+02  0.18366154294E+02  0.10566000000E+00 0.  1.
        996    1    1    2    0    0 -0.12998813514E+02  0.79634941870E+01  0.88818210496E+02  0.10305853147E+03  0.50000000000E+02 0.  0.
<mgrwt>
<rscale>  0 0.52272233E+02</rscale>
<asrwt>0</asrwt>
<pdfrwt beam="1">  1       13 0.10000000E+01 0.52272233E+02</pdfrwt>
<pdfrwt beam="2">  1       22 0.21424708E+00 0.52272233E+02</pdfrwt>
<totfact> 0.39808887E-01</totfact>
</mgrwt>
</event>
<event>
 4    1  0.2503484E+000  0.5105343E+02  0.7957747E-01  0.1439741E+00
         13   -1    0    0    0    0  0.00000000000E+00  0.00000000000E+00  0.99999944178E+02  0.99999999998E+02  0.10566000000E+00 0.  1.
         22   -1    0    0    0    0 -0.00000000000E+00 -0.00000000000E+00 -0.10618136226E+02  0.10618136226E+02  0.00000000000E+00 0.  1.
         13    1    1    2    0    0  0.68006880050E+01 -0.77590924075E+01  0.38595048037E+01  0.11016343027E+02  0.10566000000E+00 0. -1.
        996    1    1    2    0    0 -0.68006880050E+01  0.77590924075E+01  0.85522303148E+02  0.99601793197E+02  0.50000000000E+02 0.  0.
<mgrwt>
<rscale>  0 0.51053432E+02</rscale>
<asrwt>0</asrwt>
<pdfrwt beam="1">  1       13 0.10000000E+01 0.51053432E+02</pdfrwt>
<pdfrwt beam="2">  1       22 0.10618161E+00 0.51053432E+02</pdfrwt>
<totfact> 0.12886499E+00</totfact>
</mgrwt>
</event>
<event>
 4    1  0.2503484E+000  0.5203906E+02  0.7957747E-01  0.1434644E+00
         13   -1    0    0    0    0  0.00000000000E+00  0.00000000000E+00  0.99999944182E+02  0.10000000000E+03  0.10566000000E+00 0.  1.
         22   -1    0    0    0    0 -0.00000000000E+00 -0.00000000000E+00 -0.11902987335E+02  0.11902987335E+02  0.00000000000E+00 0.  1.
         13    1    1    2    0    0  0.25883841692E+00 -0.14422102768E+02  0.33523732520E+02  0.36495422339E+02  0.10566000000E+00 0. -1.
        996    1    1    2    0    0 -0.25883841692E+00  0.14422102768E+02  0.54573224328E+02  0.75407564999E+02  0.50000000000E+02 0.  0.
<mgrwt>
<rscale>  0 0.52039063E+02</rscale>
<asrwt>0</asrwt>
<pdfrwt beam="1">  1       13 0.10000000E+01 0.52039063E+02</pdfrwt>
<pdfrwt beam="2">  1       22 0.11903012E+00 0.52039063E+02</pdfrwt>
<totfact> 0.10884657E+00</totfact>
</mgrwt>
</event>
<event>
 4    1  0.2503484E+000  0.5209310E+02  0.7957747E-01  0.1434368E+00
         13   -1    0    0    0    0  0.00000000000E+00  0.00000000000E+00  0.99999944172E+02  0.99999999993E+02  0.10566000000E+00 0.  1.
         22   -1    0    0    0    0 -0.00000000000E+00 -0.00000000000E+00 -0.11126177181E+02  0.11126177181E+02  0.00000000000E+00 0. -1.
         13    1    1    2    0    0 -0.12392192645E+02 -0.77540260500E+01  0.19601849836E+02  0.24452710270E+02  0.10566000000E+00 0. -1.
        996    1    1    2    0    0  0.12392192645E+02  0.77540260500E+01  0.69271917156E+02  0.86673466903E+02  0.50000000000E+02 0.  0.
<mgrwt>
<rscale>  0 0.52093103E+02</rscale>
<asrwt>0</asrwt>
<pdfrwt beam="1">  1       13 0.10000000E+01 0.52093103E+02</pdfrwt>
<pdfrwt beam="2">  1       22 0.11126202E+00 0.52093103E+02</pdfrwt>
<totfact> 0.12053215E+00</totfact>
</mgrwt>
</event>
<event>
 4    1  0.2503484E+000  0.5317739E+02  0.7957747E-01  0.1428920E+00
         13   -1    0    0    0    0  0.00000000000E+00  0.00000000000E+00  0.99999944175E+02  0.99999999995E+02  0.10566000000E+00 0.  1.
         22   -1    0    0    0    0 -0.00000000000E+00 -0.00000000000E+00 -0.14784520580E+02  0.14784520580E+02  0.00000000000E+00 0.  1.
         13    1    1    2    0    0 -0.33694083506E+01  0.17789943137E+02  0.43758643314E+02  0.47356784289E+02  0.10566000000E+00 0. -1.
        996    1    1    2    0    0  0.33694083506E+01 -0.17789943137E+02  0.41456780280E+02  0.67427736286E+02  0.50000000000E+02 0.  0.
<mgrwt>
<rscale>  0 0.53177392E+02</rscale>
<asrwt>0</asrwt>
<pdfrwt beam="1">  1       13 0.10000000E+01 0.53177392E+02</pdfrwt>
<pdfrwt beam="2">  1       22 0.14784544E+00 0.53177392E+02</pdfrwt>
<totfact> 0.77307815E-01</totfact>
</mgrwt>
</event>
<event>
 4    1  0.2503484E+000  0.5182503E+02  0.7957747E-01  0.1435739E+00
         13   -1    0    0    0    0  0.00000000000E+00  0.00000000000E+00  0.99999944175E+02  0.99999999995E+02  0.10566000000E+00 0. -1.
         22   -1    0    0    0    0 -0.00000000000E+00 -0.00000000000E+00 -0.10887126054E+02  0.10887126054E+02  0.00000000000E+00 0. -1.
         13    1    1    2    0    0  0.51473082724E+01 -0.12622934631E+02  0.13238340302E+02  0.19002580855E+02  0.10566000000E+00 0.  1.
        996    1    1    2    0    0 -0.51473082724E+01  0.12622934631E+02  0.75874477820E+02  0.91884545194E+02  0.50000000000E+02 0.  0.
<mgrwt>
<rscale>  0 0.51825025E+02</rscale>
<asrwt>0</asrwt>
<pdfrwt beam="1">  1       13 0.10000000E+01 0.51825025E+02</pdfrwt>
<pdfrwt beam="2">  1       22 0.10887151E+00 0.51825025E+02</pdfrwt>
<totfact> 0.12441458E+00</totfact>
</mgrwt>
</event>
<event>
 4    1  0.2503484E+000  0.5183521E+02  0.7957747E-01  0.1435687E+00
         13   -1    0    0    0    0  0.00000000000E+00  0.00000000000E+00  0.99999944177E+02  0.99999999997E+02  0.10566000000E+00 0. -1.
         22   -1    0    0    0    0 -0.00000000000E+00 -0.00000000000E+00 -0.11393916574E+02  0.11393916574E+02  0.00000000000E+00 0. -1.
         13    1    1    2    0    0 -0.10824758210E+02 -0.83494831204E+01  0.88917191054E+01  0.16308374884E+02  0.10566000000E+00 0.  1.
        996    1    1    2    0    0  0.10824758210E+02  0.83494831204E+01  0.79714308497E+02  0.95085541687E+02  0.50000000000E+02 0.  0.
<mgrwt>
<rscale>  0 0.51835213E+02</rscale>
<asrwt>0</asrwt>
<pdfrwt beam="1">  1       13 0.10000000E+01 0.51835213E+02</pdfrwt>
<pdfrwt beam="2">  1       22 0.11393941E+00 0.51835213E+02</pdfrwt>
<totfact> 0.11624411E+00</totfact>
</mgrwt>
</event>
<event>
 4    1  0.2503484E+000  0.5648054E+02  0.7957747E-01  0.1413224E+00
         13   -1    0    0    0    0  0.00000000000E+00  0.00000000000E+00  0.99999944179E+02  0.99999999999E+02  0.10566000000E+00 0.  1.
         22   -1    0    0    0    0 -0.00000000000E+00 -0.00000000000E+00 -0.17201934853E+02  0.17201934853E+02  0.00000000000E+00 0.  1.
         13    1    1    2    0    0 -0.15222730964E+02 -0.21408398246E+02  0.22561336787E+02  0.34627678742E+02  0.10566000000E+00 0. -1.
        996    1    1    2    0    0  0.15222730964E+02  0.21408398246E+02  0.60236672540E+02  0.82574256110E+02  0.50000000000E+02 0.  0.
<mgrwt>
<rscale>  0 0.56480537E+02</rscale>
<asrwt>0</asrwt>
<pdfrwt beam="1">  1       13 0.10000000E+01 0.56480537E+02</pdfrwt>
<pdfrwt beam="2">  1       22 0.17201958E+00 0.56480537E+02</pdfrwt>
<totfact> 0.60044045E-01</totfact>
</mgrwt>
</event>
<event>
 4    1  0.2503484E+000  0.5312477E+02  0.7957747E-01  0.1429181E+00
         13   -1    0    0    0    0  0.00000000000E+00  0.00000000000E+00  0.99999944176E+02  0.99999999997E+02  0.10566000000E+00 0. -1.
         22   -1    0    0    0    0 -0.00000000000E+00 -0.00000000000E+00 -0.15493773627E+02  0.15493773627E+02  0.00000000000E+00 0. -1.
         13    1    1    2    0    0 -0.43337030178E+00  0.17945833113E+02  0.29960431585E+01  0.18199675123E+02  0.10566000000E+00 0.  1.
        996    1    1    2    0    0  0.43337030178E+00 -0.17945833113E+02  0.81510127391E+02  0.97294098501E+02  0.50000000000E+02 0.  0.
<mgrwt>
<rscale>  0 0.53124766E+02</rscale>
<asrwt>0</asrwt>
<pdfrwt beam="1">  1       13 0.10000000E+01 0.53124766E+02</pdfrwt>
<pdfrwt beam="2">  1       22 0.15493797E+00 0.53124766E+02</pdfrwt>
<totfact> 0.71474583E-01</totfact>
</mgrwt>
</event>
<event>
 4    1  0.2503484E+000  0.5210997E+02  0.7957747E-01  0.1434282E+00
         13   -1    0    0    0    0  0.00000000000E+00  0.00000000000E+00  0.99999944185E+02  0.10000000000E+03  0.10566000000E+00 0. -1.
         22   -1    0    0    0    0 -0.00000000000E+00 -0.00000000000E+00 -0.11573466874E+02  0.11573466874E+02  0.00000000000E+00 0. -1.
         13    1    1    2    0    0 -0.14386912144E+02  0.29095782020E+01  0.11444239273E+02  0.18612647929E+02  0.10566000000E+00 0.  1.
        996    1    1    2    0    0  0.14386912144E+02 -0.29095782020E+01  0.76982238038E+02  0.92960818949E+02  0.50000000000E+02 0.  0.
<mgrwt>
<rscale>  0 0.52109969E+02</rscale>
<asrwt>0</asrwt>
<pdfrwt beam="1">  1       13 0.10000000E+01 0.52109969E+02</pdfrwt>
<pdfrwt beam="2">  1       22 0.11573492E+00 0.52109969E+02</pdfrwt>
<totfact> 0.11360675E+00</totfact>
</mgrwt>
</event>
<event>
 4    1  0.2503484E+000  0.5130713E+02  0.7957747E-01  0.1438416E+00
         13   -1    0    0    0    0  0.00000000000E+00  0.00000000000E+00  0.99999944174E+02  0.99999999995E+02  0.10566000000E+00 0.  1.
         22   -1    0    0    0    0 -0.00000000000E+00 -0.00000000000E+00 -0.99456179445E+01  0.99456179445E+01  0.00000000000E+00 0.  1.
         13    1    1    2    0    0 -0.13483583060E+00  0.11506647490E+02  0.12875261484E+02  0.17268602708E+02  0.10566000000E+00 0. -1.
        996    1    1    2    0    0  0.13483583060E+00 -0.11506647490E+02  0.77179064746E+02  0.92677015232E+02  0.50000000000E+02 0.  0.
<mgrwt>
<rscale>  0 0.51307125E+02</rscale>
<asrwt>0</asrwt>
<pdfrwt beam="1">  1       13 0.10000000E+01 0.51307125E+02</pdfrwt>
<pdfrwt beam="2">  1       22 0.99456431E-01 0.51307125E+02</pdfrwt>
<totfact> 0.14185775E+00</totfact>
</mgrwt>
</event>
<event>
 4    1  0.2503484E+000  0.5283094E+02  0.7957747E-01  0.1430644E+00
         13   -1    0    0    0    0  0.00000000000E+00  0.00000000000E+00  0.99999944180E+02  0.10000000000E+03  0.10566000000E+00 0. -1.
         22   -1    0    0    0    0 -0.00000000000E+00 -0.00000000000E+00 -0.12233354842E+02  0.12233354842E+02  0.00000000000E+00 0. -1.
         13    1    1    2    0    0  0.21183939541E+01 -0.16929858373E+02  0.23449780232E+02  0.29000190593E+02  0.10566000000E+00 0.  1.
        996    1    1    2    0    0 -0.21183939541E+01  0.16929858373E+02  0.64316809105E+02  0.83233164249E+02  0.50000000000E+02 0.  0.
<mgrwt>
<rscale>  0 0.52830935E+02</rscale>
<asrwt>0</asrwt>
<pdfrwt beam="1">  1       13 0.10000000E+01 0.52830935E+02</pdfrwt>
<pdfrwt beam="2">  1       22 0.12233379E+00 0.52830935E+02</pdfrwt>
<totfact> 0.10454969E+00</totfact>
</mgrwt>
</event>
<event>
 4    1  0.2503484E+000  0.5218254E+02  0.7957747E-01  0.1433913E+00
         13   -1    0    0    0    0  0.00000000000E+00  0.00000000000E+00  0.99999944180E+02  0.10000000000E+03  0.10566000000E+00 0. -1.
         22   -1    0    0    0    0 -0.00000000000E+00 -0.00000000000E+00 -0.13124534795E+02  0.13124534795E+02  0.00000000000E+00 0.  1.
         13    1    1    2    0    0  0.10223431071E+02  0.10885716020E+02  0.44740549518E+01  0.15589922638E+02  0.10566000000E+00 0.  1.
        996    1    1    2    0    0 -0.10223431071E+02 -0.10885716020E+02  0.82401354434E+02  0.97534612157E+02  0.50000000000E+02 0.  0.
<mgrwt>
<rscale>  0 0.52182539E+02</rscale>
<asrwt>0</asrwt>
<pdfrwt beam="1">  1       13 0.10000000E+01 0.52182539E+02</pdfrwt>
<pdfrwt beam="2">  1       22 0.13124559E+00 0.52182539E+02</pdfrwt>
<totfact> 0.93545587E-01</totfact>
</mgrwt>
</event>
<event>
 4    1  0.2503484E+000  0.5145074E+02  0.7957747E-01  0.1437670E+00
         13   -1    0    0    0    0  0.00000000000E+00  0.00000000000E+00  0.99999944173E+02  0.99999999993E+02  0.10566000000E+00 0. -1.
         22   -1    0    0    0    0 -0.00000000000E+00 -0.00000000000E+00 -0.10719648252E+02  0.10719648252E+02  0.00000000000E+00 0. -1.
         13    1    1    2    0    0 -0.73447293201E+01 -0.96557394531E+01  0.80295675328E+01  0.14548658769E+02  0.10566000000E+00 0.  1.
        996    1    1    2    0    0  0.73447293201E+01  0.96557394531E+01  0.81250728388E+02  0.96170989476E+02  0.50000000000E+02 0.  0.
<mgrwt>
<rscale>  0 0.51450737E+02</rscale>
<asrwt>0</asrwt>
<pdfrwt beam="1">  1       13 0.10000000E+01 0.51450737E+02</pdfrwt>
<pdfrwt beam="2">  1       22 0.10719673E+00 0.51450737E+02</pdfrwt>
<totfact> 0.12719009E+00</totfact>
</mgrwt>
</event>
<event>
 4    1  0.2503484E+000  0.5205651E+02  0.7957747E-01  0.1434555E+00
         13   -1    0    0    0    0  0.00000000000E+00  0.00000000000E+00  0.99999944179E+02  0.99999999999E+02  0.10566000000E+00 0.  1.
         22   -1    0    0    0    0 -0.00000000000E+00 -0.00000000000E+00 -0.11207056665E+02  0.11207056665E+02  0.00000000000E+00 0.  1.
         13    1    1    2    0    0 -0.16969280072E+01  0.14387505735E+02  0.24722054190E+02  0.28654336728E+02  0.10566000000E+00 0. -1.
        996    1    1    2    0    0  0.16969280072E+01 -0.14387505735E+02  0.64070833324E+02  0.82552719935E+02  0.50000000000E+02 0.  0.
<mgrwt>
<rscale>  0 0.52056507E+02</rscale>
<asrwt>0</asrwt>
<pdfrwt beam="1">  1       13 0.10000000E+01 0.52056507E+02</pdfrwt>
<pdfrwt beam="2">  1       22 0.11207081E+00 0.52056507E+02</pdfrwt>
<totfact> 0.11922420E+00</totfact>
</mgrwt>
</event>
<event>
 4    1  0.2503484E+000  0.6180989E+02  0.7957747E-01  0.1390390E+00
         13   -1    0    0    0    0  0.00000000000E+00  0.00000000000E+00  0.99999944178E+02  0.99999999998E+02  0.10566000000E+00 0. -1.
         22   -1    0    0    0    0 -0.00000000000E+00 -0.00000000000E+00 -0.41291445732E+02  0.41291445732E+02  0.00000000000E+00 0.  1.
         13    1    1    2    0    0  0.34899385384E+02  0.10123986687E+02 -0.19791076438E+02  0.41378256092E+02  0.10566000000E+00 0.  1.
        996    1    1    2    0    0 -0.34899385384E+02 -0.10123986687E+02  0.78499574884E+02  0.99913189638E+02  0.50000000000E+02 0.  0.
<mgrwt>
<rscale>  0 0.61809888E+02</rscale>
<asrwt>0</asrwt>
<pdfrwt beam="1">  1       13 0.10000000E+01 0.61809888E+02</pdfrwt>
<pdfrwt beam="2">  1       22 0.41291462E+00 0.61809888E+02</pdfrwt>
<totfact> 0.11704404E-01</totfact>
</mgrwt>
</event>
<event>
 4    1  0.2503484E+000  0.5450544E+02  0.7957747E-01  0.1422452E+00
         13   -1    0    0    0    0  0.00000000000E+00  0.00000000000E+00  0.99999944182E+02  0.10000000000E+03  0.10566000000E+00 0.  1.
         22   -1    0    0    0    0 -0.00000000000E+00 -0.00000000000E+00 -0.27402495846E+02  0.27402495846E+02  0.00000000000E+00 0. -1.
         13    1    1    2    0    0 -0.17119586867E+02  0.13332772547E+02 -0.13461075580E+02  0.25535363677E+02  0.10566000000E+00 0. -1.
        996    1    1    2    0    0  0.17119586867E+02 -0.13332772547E+02  0.86058523915E+02  0.10186713217E+03  0.50000000000E+02 0.  0.
<mgrwt>
<rscale>  0 0.54505441E+02</rscale>
<asrwt>0</asrwt>
<pdfrwt beam="1">  1       13 0.10000000E+01 0.54505441E+02</pdfrwt>
<pdfrwt beam="2">  1       22 0.27402516E+00 0.54505441E+02</pdfrwt>
<totfact> 0.24708635E-01</totfact>
</mgrwt>
</event>
<event>
 4    1  0.2503484E+000  0.5866476E+02  0.7957747E-01  0.1403522E+00
         13   -1    0    0    0    0  0.00000000000E+00  0.00000000000E+00  0.99999944181E+02  0.10000000000E+03  0.10566000000E+00 0. -1.
         22   -1    0    0    0    0 -0.00000000000E+00 -0.00000000000E+00 -0.33016911168E+02  0.33016911168E+02  0.00000000000E+00 0.  1.
         13    1    1    2    0    0  0.29759321456E+02  0.74791252010E+01 -0.13416508664E+02  0.33489825261E+02  0.10566000000E+00 0.  1.
        996    1    1    2    0    0 -0.29759321456E+02 -0.74791252010E+01  0.80399541678E+02  0.99527085907E+02  0.50000000000E+02 0.  0.
<mgrwt>
<rscale>  0 0.58664764E+02</rscale>
<asrwt>0</asrwt>
<pdfrwt beam="1">  1       13 0.10000000E+01 0.58664764E+02</pdfrwt>
<pdfrwt beam="2">  1       22 0.33016930E+00 0.58664764E+02</pdfrwt>
<totfact> 0.17528523E-01</totfact>
</mgrwt>
</event>
<event>
 4    1  0.2503484E+000  0.5365261E+02  0.7957747E-01  0.1426580E+00
         13   -1    0    0    0    0  0.00000000000E+00  0.00000000000E+00  0.99999944180E+02  0.10000000000E+03  0.10566000000E+00 0. -1.
         22   -1    0    0    0    0 -0.00000000000E+00 -0.00000000000E+00 -0.25109745114E+02  0.25109745114E+02  0.00000000000E+00 0.  1.
         13    1    1    2    0    0  0.10846868600E+02 -0.16153884592E+02 -0.12093602189E+02  0.22910017978E+02  0.10566000000E+00 0.  1.
        996    1    1    2    0    0 -0.10846868600E+02  0.16153884592E+02  0.86983801255E+02  0.10219972714E+03  0.50000000000E+02 0.  0.
<mgrwt>
<rscale>  0 0.53652610E+02</rscale>
<asrwt>0</asrwt>
<pdfrwt beam="1">  1       13 0.10000000E+01 0.53652610E+02</pdfrwt>
<pdfrwt beam="2">  1       22 0.25109766E+00 0.53652610E+02</pdfrwt>
<totfact> 0.29300803E-01</totfact>
</mgrwt>
</event>
<event>
 4    1  0.2503484E+000  0.5717161E+02  0.7957747E-01  0.1410100E+00
         13   -1    0    0    0    0  0.00000000000E+00  0.00000000000E+00  0.99999944178E+02  0.99999999998E+02  0.10566000000E+00 0. -1.
         22   -1    0    0    0    0 -0.00000000000E+00 -0.00000000000E+00 -0.20503501414E+02  0.20503501414E+02  0.00000000000E+00 0.  1.
         13    1    1    2    0    0 -0.27541441235E+02 -0.31721519193E+01  0.77941992726E+01  0.28798511063E+02  0.10566000000E+00 0.  1.
        996    1    1    2    0    0  0.27541441235E+02  0.31721519193E+01  0.71702243492E+02  0.91704990349E+02  0.50000000000E+02 0.  0.
<mgrwt>
<rscale>  0 0.57171615E+02</rscale>
<asrwt>0</asrwt>
<pdfrwt beam="1">  1       13 0.10000000E+01 0.57171615E+02</pdfrwt>
<pdfrwt beam="2">  1       22 0.20503524E+00 0.57171615E+02</pdfrwt>
<totfact> 0.43623973E-01</totfact>
</mgrwt>
</event>
<event>
 4    1  0.2503484E+000  0.5241057E+02  0.7957747E-01  0.1432757E+00
         13   -1    0    0    0    0  0.00000000000E+00  0.00000000000E+00  0.99999944175E+02  0.99999999995E+02  0.10566000000E+00 0.  1.
         22   -1    0    0    0    0 -0.00000000000E+00 -0.00000000000E+00 -0.12977062167E+02  0.12977062167E+02  0.00000000000E+00 0.  1.
         13    1    1    2    0    0  0.81850435468E+01  0.13411655829E+02  0.67307737277E+01  0.17093329955E+02  0.10566000000E+00 0. -1.
        996    1    1    2    0    0 -0.81850435468E+01 -0.13411655829E+02  0.80292108281E+02  0.95883732208E+02  0.50000000000E+02 0.  0.
<mgrwt>
<rscale>  0 0.52410566E+02</rscale>
<asrwt>0</asrwt>
<pdfrwt beam="1">  1       13 0.10000000E+01 0.52410566E+02</pdfrwt>
<pdfrwt beam="2">  1       22 0.12977086E+00 0.52410566E+02</pdfrwt>
<totfact> 0.95275258E-01</totfact>
</mgrwt>
</event>
<event>
 4    1  0.2503484E+000  0.5269281E+02  0.7957747E-01  0.1431336E+00
         13   -1    0    0    0    0  0.00000000000E+00  0.00000000000E+00  0.99999944178E+02  0.99999999998E+02  0.10566000000E+00 0. -1.
         22   -1    0    0    0    0 -0.00000000000E+00 -0.00000000000E+00 -0.21887969075E+02  0.21887969075E+02  0.00000000000E+00 0.  1.
         13    1    1    2    0    0 -0.12769902003E+02 -0.10651851684E+02 -0.98668799218E+01  0.19336463609E+02  0.10566000000E+00 0.  1.
        996    1    1    2    0    0  0.12769902003E+02  0.10651851684E+02  0.87978855025E+02  0.10255150546E+03  0.50000000000E+02 0.  0.
<mgrwt>
<rscale>  0 0.52692811E+02</rscale>
<asrwt>0</asrwt>
<pdfrwt beam="1">  1       13 0.10000000E+01 0.52692811E+02</pdfrwt>
<pdfrwt beam="2">  1       22 0.21887991E+00 0.52692811E+02</pdfrwt>
<totfact> 0.38238811E-01</totfact>
</mgrwt>
</event>
<event>
 4    1  0.2503484E+000  0.5334607E+02  0.7957747E-01  0.1428086E+00
         13   -1    0    0    0    0  0.00000000000E+00  0.00000000000E+00  0.99999944180E+02  0.10000000000E+03  0.10566000000E+00 0.  1.
         22   -1    0    0    0    0 -0.00000000000E+00 -0.00000000000E+00 -0.15251838549E+02  0.15251838549E+02  0.00000000000E+00 0. -1.
         13    1    1    2    0    0 -0.18405715723E+02 -0.26520057523E+01  0.49134488306E+01  0.19234257179E+02  0.10566000000E+00 0. -1.
        996    1    1    2    0    0  0.18405715723E+02  0.26520057523E+01  0.79834656801E+02  0.96017581371E+02  0.50000000000E+02 0.  0.
<mgrwt>
<rscale>  0 0.53346073E+02</rscale>
<asrwt>0</asrwt>
<pdfrwt beam="1">  1       13 0.10000000E+01 0.53346073E+02</pdfrwt>
<pdfrwt beam="2">  1       22 0.15251862E+00 0.53346073E+02</pdfrwt>
<totfact> 0.73424585E-01</totfact>
</mgrwt>
</event>
<event>
 4    1  0.2503484E+000  0.5131025E+02  0.7957747E-01  0.1438400E+00
         13   -1    0    0    0    0  0.00000000000E+00  0.00000000000E+00  0.99999944178E+02  0.99999999998E+02  0.10566000000E+00 0. -1.
         22   -1    0    0    0    0 -0.00000000000E+00 -0.00000000000E+00 -0.13395698697E+02  0.13395698697E+02  0.00000000000E+00 0. -1.
         13    1    1    2    0    0  0.68957819833E+01 -0.92298180267E+01 -0.13175940466E+01  0.11596920629E+02  0.10566000000E+00 0.  1.
        996    1    1    2    0    0 -0.68957819833E+01  0.92298180267E+01  0.87921839528E+02  0.10179877807E+03  0.50000000000E+02 0.  0.
<mgrwt>
<rscale>  0 0.51310246E+02</rscale>
<asrwt>0</asrwt>
<pdfrwt beam="1">  1       13 0.10000000E+01 0.51310246E+02</pdfrwt>
<pdfrwt beam="2">  1       22 0.13395723E+00 0.51310246E+02</pdfrwt>
<totfact> 0.90388419E-01</totfact>
</mgrwt>
</event>
<event>
 4    1  0.2503484E+000  0.5138357E+02  0.7957747E-01  0.1438019E+00
         13   -1    0    0    0    0  0.00000000000E+00  0.00000000000E+00  0.99999944179E+02  0.99999999999E+02  0.10566000000E+00 0. -1.
         22   -1    0    0    0    0 -0.00000000000E+00 -0.00000000000E+00 -0.11772453748E+02  0.11772453748E+02  0.00000000000E+00 0. -1.
         13    1    1    2    0    0  0.11253339810E+02  0.36924009756E+01  0.29421027366E+01  0.12204040905E+02  0.10566000000E+00 0.  1.
        996    1    1    2    0    0 -0.11253339810E+02 -0.36924009756E+01  0.85285387694E+02  0.99568412843E+02  0.50000000000E+02 0.  0.
<mgrwt>
<rscale>  0 0.51383572E+02</rscale>
<asrwt>0</asrwt>
<pdfrwt beam="1">  1       13 0.10000000E+01 0.51383572E+02</pdfrwt>
<pdfrwt beam="2">  1       22 0.11772478E+00 0.51383572E+02</pdfrwt>
<totfact> 0.11052682E+00</totfact>
</mgrwt>
</event>
<event>
 4    1  0.2503484E+000  0.5564717E+02  0.7957747E-01  0.1417063E+00
         13   -1    0    0    0    0  0.00000000000E+00  0.00000000000E+00  0.99999944182E+02  0.10000000000E+03  0.10566000000E+00 0. -1.
         22   -1    0    0    0    0 -0.00000000000E+00 -0.00000000000E+00 -0.20848342607E+02  0.20848342607E+02  0.00000000000E+00 0.  1.
         13    1    1    2    0    0 -0.45009460180E+01  0.24007266154E+02  0.41129172859E+00  0.24429237978E+02  0.10566000000E+00 0.  1.
        996    1    1    2    0    0  0.45009460180E+01 -0.24007266154E+02  0.78740309847E+02  0.96419104632E+02  0.50000000000E+02 0.  0.
<mgrwt>
<rscale>  0 0.55647168E+02</rscale>
<asrwt>0</asrwt>
<pdfrwt beam="1">  1       13 0.10000000E+01 0.55647168E+02</pdfrwt>
<pdfrwt beam="2">  1       22 0.20848365E+00 0.55647168E+02</pdfrwt>
<totfact> 0.42165841E-01</totfact>
</mgrwt>
</event>
<event>
 4    1  0.2503484E+000  0.5331436E+02  0.7957747E-01  0.1428243E+00
         13   -1    0    0    0    0  0.00000000000E+00  0.00000000000E+00  0.99999944182E+02  0.10000000000E+03  0.10566000000E+00 0. -1.
         22   -1    0    0    0    0 -0.00000000000E+00 -0.00000000000E+00 -0.26792906353E+02  0.26792906353E+02  0.00000000000E+00 0.  1.
         13    1    1    2    0    0 -0.18043498258E+02 -0.41052587061E+01 -0.14935745448E+02  0.23780425449E+02  0.10566000000E+00 0.  1.
        996    1    1    2    0    0  0.18043498258E+02  0.41052587061E+01  0.88142783277E+02  0.10301248091E+03  0.50000000000E+02 0.  0.
<mgrwt>
<rscale>  0 0.53314360E+02</rscale>
<asrwt>0</asrwt>
<pdfrwt beam="1">  1       13 0.10000000E+01 0.53314360E+02</pdfrwt>
<pdfrwt beam="2">  1       22 0.26792927E+00 0.53314360E+02</pdfrwt>
<totfact> 0.25776721E-01</totfact>
</mgrwt>
</event>
<event>
 4    1  0.2503484E+000  0.5105721E+02  0.7957747E-01  0.1439721E+00
         13   -1    0    0    0    0  0.00000000000E+00  0.00000000000E+00  0.99999944181E+02  0.10000000000E+03  0.10566000000E+00 0.  1.
         22   -1    0    0    0    0 -0.00000000000E+00 -0.00000000000E+00 -0.11772512248E+02  0.11772512248E+02  0.00000000000E+00 0.  1.
         13    1    1    2    0    0  0.98583938601E+01  0.31066486927E+01  0.59841484444E+00  0.10354151822E+02  0.10566000000E+00 0. -1.
        996    1    1    2    0    0 -0.98583938601E+01 -0.31066486927E+01  0.87629017089E+02  0.10141836043E+03  0.50000000000E+02 0.  0.
<mgrwt>
<rscale>  0 0.51057215E+02</rscale>
<asrwt>0</asrwt>
<pdfrwt beam="1">  1       13 0.10000000E+01 0.51057215E+02</pdfrwt>
<pdfrwt beam="2">  1       22 0.11772537E+00 0.51057215E+02</pdfrwt>
<totfact> 0.11044350E+00</totfact>
</mgrwt>
</event>
<event>
 4    1  0.2503484E+000  0.5428160E+02  0.7957747E-01  0.1423527E+00
         13   -1    0    0    0    0  0.00000000000E+00  0.00000000000E+00  0.99999944177E+02  0.99999999997E+02  0.10566000000E+00 0. -1.
         22   -1    0    0    0    0 -0.00000000000E+00 -0.00000000000E+00 -0.20668827940E+02  0.20668827940E+02  0.00000000000E+00 0.  1.
         13    1    1    2    0    0  0.17260088338E+02  0.12189403051E+02 -0.37164544673E+01  0.21454961991E+02  0.10566000000E+00 0.  1.
        996    1    1    2    0    0 -0.17260088338E+02 -0.12189403051E+02  0.83047570703E+02  0.99213865946E+02  0.50000000000E+02 0.  0.
<mgrwt>
<rscale>  0 0.54281601E+02</rscale>
<asrwt>0</asrwt>
<pdfrwt beam="1">  1       13 0.10000000E+01 0.54281601E+02</pdfrwt>
<pdfrwt beam="2">  1       22 0.20668850E+00 0.54281601E+02</pdfrwt>
<totfact> 0.42764376E-01</totfact>
</mgrwt>
</event>
<event>
 4    1  0.2503484E+000  0.5361914E+02  0.7957747E-01  0.1426744E+00
         13   -1    0    0    0    0  0.00000000000E+00  0.00000000000E+00  0.99999944184E+02  0.10000000000E+03  0.10566000000E+00 0.  1.
         22   -1    0    0    0    0 -0.00000000000E+00 -0.00000000000E+00 -0.35386702349E+02  0.35386702349E+02  0.00000000000E+00 0. -1.
         13    1    1    2    0    0  0.17476975359E+02  0.83406867884E+01 -0.24595287867E+02  0.31304170219E+02  0.10566000000E+00 0. -1.
        996    1    1    2    0    0 -0.17476975359E+02 -0.83406867884E+01  0.89208529702E+02  0.10408253213E+03  0.50000000000E+02 0.  0.
<mgrwt>
<rscale>  0 0.53619136E+02</rscale>
<asrwt>0</asrwt>
<pdfrwt beam="1">  1       13 0.10000000E+01 0.53619136E+02</pdfrwt>
<pdfrwt beam="2">  1       22 0.35386720E+00 0.53619136E+02</pdfrwt>
<totfact> 0.15441241E-01</totfact>
</mgrwt>
</event>
<event>
 4    1  0.2503484E+000  0.5155180E+02  0.7957747E-01  0.1437147E+00
         13   -1    0    0    0    0  0.00000000000E+00  0.00000000000E+00  0.99999944185E+02  0.10000000001E+03  0.10566000000E+00 0.  1.
         22   -1    0    0    0    0 -0.00000000000E+00 -0.00000000000E+00 -0.11136730073E+02  0.11136730073E+02  0.00000000000E+00 0.  1.
         13    1    1    2    0    0 -0.12400082706E+02  0.19560155097E+01  0.69436006742E+01  0.14346177266E+02  0.10566000000E+00 0. -1.
        996    1    1    2    0    0  0.12400082706E+02 -0.19560155097E+01  0.81919613438E+02  0.96790552812E+02  0.50000000000E+02 0.  0.
<mgrwt>
<rscale>  0 0.51551800E+02</rscale>
<asrwt>0</asrwt>
<pdfrwt beam="1">  1       13 0.10000000E+01 0.51551800E+02</pdfrwt>
<pdfrwt beam="2">  1       22 0.11136755E+00 0.51551800E+02</pdfrwt>
<totfact> 0.12021132E+00</totfact>
</mgrwt>
</event>
<event>
 4    1  0.2503484E+000  0.5202875E+02  0.7957747E-01  0.1434696E+00
         13   -1    0    0    0    0  0.00000000000E+00  0.00000000000E+00  0.99999944179E+02  0.10000000000E+03  0.10566000000E+00 0. -1.
         22   -1    0    0    0    0 -0.00000000000E+00 -0.00000000000E+00 -0.11028084702E+02  0.11028084702E+02  0.00000000000E+00 0. -1.
         13    1    1    2    0    0  0.11818268057E+02  0.82048140334E+01  0.19036415728E+02  0.23861825601E+02  0.10566000000E+00 0.  1.
        996    1    1    2    0    0 -0.11818268057E+02 -0.82048140334E+01  0.69935443749E+02  0.87166259101E+02  0.50000000000E+02 0.  0.
<mgrwt>
<rscale>  0 0.52028746E+02</rscale>
<asrwt>0</asrwt>
<pdfrwt beam="1">  1       13 0.10000000E+01 0.52028746E+02</pdfrwt>
<pdfrwt beam="2">  1       22 0.11028110E+00 0.52028746E+02</pdfrwt>
<totfact> 0.12211620E+00</totfact>
</mgrwt>
</event>
<event>
 4    1  0.2503484E+000  0.5169757E+02  0.7957747E-01  0.1436395E+00
         13   -1    0    0    0    0  0.00000000000E+00  0.00000000000E+00  0.99999944171E+02  0.99999999992E+02  0.10566000000E+00 0. -1.
         22   -1    0    0    0    0 -0.00000000000E+00 -0.00000000000E+00 -0.11829623485E+02  0.11829623485E+02  0.00000000000E+00 0. -1.
         13    1    1    2    0    0 -0.13342405110E+01  0.13071278316E+02  0.36261381893E+02  0.38568607641E+02  0.10566000000E+00 0.  1.
        996    1    1    2    0    0  0.13342405110E+01 -0.13071278316E+02  0.51908938794E+02  0.73261015836E+02  0.50000000000E+02 0.  0.
<mgrwt>
<rscale>  0 0.51697568E+02</rscale>
<asrwt>0</asrwt>
<pdfrwt beam="1">  1       13 0.10000000E+01 0.51697568E+02</pdfrwt>
<pdfrwt beam="2">  1       22 0.11829648E+00 0.51697568E+02</pdfrwt>
<totfact> 0.10979372E+00</totfact>
</mgrwt>
</event>
<event>
 4    1  0.2503484E+000  0.5181057E+02  0.7957747E-01  0.1435813E+00
         13   -1    0    0    0    0  0.00000000000E+00  0.00000000000E+00  0.99999944184E+02  0.10000000000E+03  0.10566000000E+00 0.  1.
         22   -1    0    0    0    0 -0.00000000000E+00 -0.00000000000E+00 -0.25371874768E+02  0.25371874768E+02  0.00000000000E+00 0.  1.
         13    1    1    2    0    0 -0.74756115579E+01 -0.11333610388E+02 -0.15996928634E+02  0.20982096710E+02  0.10566000000E+00 0. -1.
        996    1    1    2    0    0  0.74756115579E+01  0.11333610388E+02  0.90624998049E+02  0.10438977806E+03  0.50000000000E+02 0.  0.
<mgrwt>
<rscale>  0 0.51810573E+02</rscale>
<asrwt>0</asrwt>
<pdfrwt beam="1">  1       13 0.10000000E+01 0.51810573E+02</pdfrwt>
<pdfrwt beam="2">  1       22 0.25371896E+00 0.51810573E+02</pdfrwt>
<totfact> 0.28626693E-01</totfact>
</mgrwt>
</event>
<event>
 4    1  0.2503484E+000  0.5259135E+02  0.7957747E-01  0.1431845E+00
         13   -1    0    0    0    0  0.00000000000E+00  0.00000000000E+00  0.99999944183E+02  0.10000000000E+03  0.10566000000E+00 0. -1.
         22   -1    0    0    0    0 -0.00000000000E+00 -0.00000000000E+00 -0.13649773426E+02  0.13649773426E+02  0.00000000000E+00 0. -1.
         13    1    1    2    0    0 -0.53288778663E+01 -0.15409516390E+02  0.55156301702E+01  0.17212886885E+02  0.10566000000E+00 0.  1.
        996    1    1    2    0    0  0.53288778663E+01  0.15409516390E+02  0.80834540586E+02  0.96436886545E+02  0.50000000000E+02 0.  0.
<mgrwt>
<rscale>  0 0.52591350E+02</rscale>
<asrwt>0</asrwt>
<pdfrwt beam="1">  1       13 0.10000000E+01 0.52591350E+02</pdfrwt>
<pdfrwt beam="2">  1       22 0.13649798E+00 0.52591350E+02</pdfrwt>
<totfact> 0.87954087E-01</totfact>
</mgrwt>
</event>
<event>
 4    1  0.2503484E+000  0.5614720E+02  0.7957747E-01  0.1414750E+00
         13   -1    0    0    0    0  0.00000000000E+00  0.00000000000E+00  0.99999944186E+02  0.10000000001E+03  0.10566000000E+00 0. -1.
         22   -1    0    0    0    0 -0.00000000000E+00 -0.00000000000E+00 -0.24945327606E+02  0.24945327606E+02  0.00000000000E+00 0.  1.
         13    1    1    2    0    0  0.17581159045E+02 -0.18531345867E+02 -0.60984743637E+01  0.26262339702E+02  0.10566000000E+00 0.  1.
        996    1    1    2    0    0 -0.17581159045E+02  0.18531345867E+02  0.81153090945E+02  0.98682987910E+02  0.50000000000E+02 0.  0.
<mgrwt>
<rscale>  0 0.56147199E+02</rscale>
<asrwt>0</asrwt>
<pdfrwt beam="1">  1       13 0.10000000E+01 0.56147199E+02</pdfrwt>
<pdfrwt beam="2">  1       22 0.24945349E+00 0.56147199E+02</pdfrwt>
<totfact> 0.29792392E-01</totfact>
</mgrwt>
</event>
<event>
 4    1  0.2503484E+000  0.5153051E+02  0.7957747E-01  0.1437257E+00
         13   -1    0    0    0    0  0.00000000000E+00  0.00000000000E+00  0.99999944175E+02  0.99999999996E+02  0.10566000000E+00 0. -1.
         22   -1    0    0    0    0 -0.00000000000E+00 -0.00000000000E+00 -0.14188515744E+02  0.14188515744E+02  0.00000000000E+00 0.  1.
         13    1    1    2    0    0 -0.11905648267E+02  0.36944325466E+01 -0.17509509399E+01  0.12588498152E+02  0.10566000000E+00 0.  1.
        996    1    1    2    0    0  0.11905648267E+02 -0.36944325466E+01  0.87562379372E+02  0.10160001759E+03  0.50000000000E+02 0.  0.
<mgrwt>
<rscale>  0 0.51530508E+02</rscale>
<asrwt>0</asrwt>
<pdfrwt beam="1">  1       13 0.10000000E+01 0.51530508E+02</pdfrwt>
<pdfrwt beam="2">  1       22 0.14188540E+00 0.51530508E+02</pdfrwt>
<totfact> 0.82433325E-01</totfact>
</mgrwt>
</event>
<event>
 4    1  0.2503484E+000  0.5113840E+02  0.7957747E-01  0.1439296E+00
         13   -1    0    0    0    0  0.00000000000E+00  0.00000000000E+00  0.99999944184E+02  0.10000000000E+03  0.10566000000E+00 0.  1.
         22   -1    0    0    0    0 -0.00000000000E+00 -0.00000000000E+00 -0.95709924072E+01  0.95709924072E+01  0.00000000000E+00 0.  1.
         13    1    1    2    0    0  0.10684797780E+02  0.98560466390E+00  0.16218482217E+02  0.19447021613E+02  0.10566000000E+00 0. -1.
        996    1    1    2    0    0 -0.10684797780E+02 -0.98560466390E+00  0.74210469560E+02  0.90123970798E+02  0.50000000000E+02 0.  0.
<mgrwt>
<rscale>  0 0.51138404E+02</rscale>
<asrwt>0</asrwt>
<pdfrwt beam="1">  1       13 0.10000000E+01 0.51138404E+02</pdfrwt>
<pdfrwt beam="2">  1       22 0.95710177E-01 0.51138404E+02</pdfrwt>
<totfact> 0.14985222E+00</totfact>
</mgrwt>
</event>
<event>
 4    1  0.2503484E+000  0.5144745E+02  0.7957747E-01  0.1437687E+00
         13   -1    0    0    0    0  0.00000000000E+00  0.00000000000E+00  0.99999944182E+02  0.10000000000E+03  0.10566000000E+00 0. -1.
         22   -1    0    0    0    0 -0.00000000000E+00 -0.00000000000E+00 -0.17047315623E+02  0.17047315623E+02  0.00000000000E+00 0.  1.
         13    1    1    2    0    0  0.10118790971E+02  0.66670805076E+01 -0.65773572141E+01  0.13788135667E+02  0.10566000000E+00 0.  1.
        996    1    1    2    0    0 -0.10118790971E+02 -0.66670805076E+01  0.89529985773E+02  0.10325917996E+03  0.50000000000E+02 0.  0.
<mgrwt>
<rscale>  0 0.51447448E+02</rscale>
<asrwt>0</asrwt>
<pdfrwt beam="1">  1       13 0.10000000E+01 0.51447448E+02</pdfrwt>
<pdfrwt beam="2">  1       22 0.17047339E+00 0.51447448E+02</pdfrwt>
<totfact> 0.60437902E-01</totfact>
</mgrwt>
</event>
<event>
 4    1  0.2503484E+000  0.5131404E+02  0.7957747E-01  0.1438380E+00
         13   -1    0    0    0    0  0.00000000000E+00  0.00000000000E+00  0.99999944174E+02  0.99999999995E+02  0.10566000000E+00 0.  1.
         22   -1    0    0    0    0 -0.00000000000E+00 -0.00000000000E+00 -0.65578321740E+02  0.65578321740E+02  0.00000000000E+00 0. -1.
         13    1    1    2    0    0  0.72903102486E+01  0.89432571089E+01 -0.58393586650E+02  0.59522706568E+02  0.10566000000E+00 0. -1.
        996    1    1    2    0    0 -0.72903102486E+01 -0.89432571089E+01  0.92815209084E+02  0.10605561517E+03  0.50000000000E+02 0.  0.
<mgrwt>
<rscale>  0 0.51314038E+02</rscale>
<asrwt>0</asrwt>
<pdfrwt beam="1">  1       13 0.10000000E+01 0.51314038E+02</pdfrwt>
<pdfrwt beam="2">  1       22 0.65578331E+00 0.51314038E+02</pdfrwt>
<totfact> 0.87136861E-02</totfact>
</mgrwt>
</event>
<event>
 4    1  0.2503484E+000  0.5103828E+02  0.7957747E-01  0.1439820E+00
         13   -1    0    0    0    0  0.00000000000E+00  0.00000000000E+00  0.99999944181E+02  0.10000000000E+03  0.10566000000E+00 0.  1.
         22   -1    0    0    0    0 -0.00000000000E+00 -0.00000000000E+00 -0.10053076388E+02  0.10053076388E+02  0.00000000000E+00 0.  1.
         13    1    1    2    0    0 -0.93211651335E+01 -0.42451910617E+01  0.61814764604E+01  0.11963594019E+02  0.10566000000E+00 0. -1.
        996    1    1    2    0    0  0.93211651335E+01  0.42451910617E+01  0.83765391332E+02  0.98089482370E+02  0.50000000000E+02 0.  0.
<mgrwt>
<rscale>  0 0.51038277E+02</rscale>
<asrwt>0</asrwt>
<pdfrwt beam="1">  1       13 0.10000000E+01 0.51038277E+02</pdfrwt>
<pdfrwt beam="2">  1       22 0.10053101E+00 0.51038277E+02</pdfrwt>
<totfact> 0.13957596E+00</totfact>
</mgrwt>
</event>
<event>
 4    1  0.2503484E+000  0.5136605E+02  0.7957747E-01  0.1438110E+00
         13   -1    0    0    0    0  0.00000000000E+00  0.00000000000E+00  0.99999944180E+02  0.10000000000E+03  0.10566000000E+00 0.  1.
         22   -1    0    0    0    0 -0.00000000000E+00 -0.00000000000E+00 -0.10207648391E+02  0.10207648391E+02  0.00000000000E+00 0.  1.
         13    1    1    2    0    0  0.24327136382E+01  0.11513184044E+02  0.10735125822E+02  0.15928766208E+02  0.10566000000E+00 0. -1.
        996    1    1    2    0    0 -0.24327136382E+01 -0.11513184044E+02  0.79057169967E+02  0.94278882183E+02  0.50000000000E+02 0.  0.
<mgrwt>
<rscale>  0 0.51366054E+02</rscale>
<asrwt>0</asrwt>
<pdfrwt beam="1">  1       13 0.10000000E+01 0.51366054E+02</pdfrwt>
<pdfrwt beam="2">  1       22 0.10207673E+00 0.51366054E+02</pdfrwt>
<totfact> 0.13662402E+00</totfact>
</mgrwt>
</event>
<event>
 4    1  0.2503484E+000  0.5733741E+02  0.7957747E-01  0.1409358E+00
         13   -1    0    0    0    0  0.00000000000E+00  0.00000000000E+00  0.99999944180E+02  0.10000000000E+03  0.10566000000E+00 0.  1.
         22   -1    0    0    0    0 -0.00000000000E+00 -0.00000000000E+00 -0.21639426379E+02  0.21639426379E+02  0.00000000000E+00 0. -1.
         13    1    1    2    0    0  0.26824142717E+02  0.82488663885E+01  0.49606077086E+01  0.28499074057E+02  0.10566000000E+00 0. -1.
        996    1    1    2    0    0 -0.26824142717E+02 -0.82488663885E+01  0.73399910092E+02  0.93140352323E+02  0.50000000000E+02 0.  0.
<mgrwt>
<rscale>  0 0.57337409E+02</rscale>
<asrwt>0</asrwt>
<pdfrwt beam="1">  1       13 0.10000000E+01 0.57337409E+02</pdfrwt>
<pdfrwt beam="2">  1       22 0.21639448E+00 0.57337409E+02</pdfrwt>
<totfact> 0.39380822E-01</totfact>
</mgrwt>
</event>
<event>
 4    1  0.2503484E+000  0.5114474E+02  0.7957747E-01  0.1439263E+00
         13   -1    0    0    0    0  0.00000000000E+00  0.00000000000E+00  0.99999944179E+02  0.99999999999E+02  0.10566000000E+00 0.  1.
         22   -1    0    0    0    0 -0.00000000000E+00 -0.00000000000E+00 -0.10878473002E+02  0.10878473002E+02  0.00000000000E+00 0. -1.
         13    1    1    2    0    0  0.55061405187E+01 -0.92448123200E+01  0.38189172609E+01  0.11418381292E+02  0.10566000000E+00 0. -1.
        996    1    1    2    0    0 -0.55061405187E+01  0.92448123200E+01  0.85302553916E+02  0.99460091709E+02  0.50000000000E+02 0.  0.
<mgrwt>
<rscale>  0 0.51144737E+02</rscale>
<asrwt>0</asrwt>
<pdfrwt beam="1">  1       13 0.10000000E+01 0.51144737E+02</pdfrwt>
<pdfrwt beam="2">  1       22 0.10878498E+00 0.51144737E+02</pdfrwt>
<totfact> 0.12436286E+00</totfact>
</mgrwt>
</event>
<event>
 4    1  0.2503484E+000  0.5225880E+02  0.7957747E-01  0.1433526E+00
         13   -1    0    0    0    0  0.00000000000E+00  0.00000000000E+00  0.99999944171E+02  0.99999999991E+02  0.10566000000E+00 0. -1.
         22   -1    0    0    0    0 -0.00000000000E+00 -0.00000000000E+00 -0.14030927241E+02  0.14030927241E+02  0.00000000000E+00 0.  1.
         13    1    1    2    0    0  0.76127104064E+01 -0.13154032149E+02  0.22840802654E+01  0.15369128414E+02  0.10566000000E+00 0.  1.
        996    1    1    2    0    0 -0.76127104064E+01  0.13154032149E+02  0.83684936664E+02  0.98661798818E+02  0.50000000000E+02 0.  0.
<mgrwt>
<rscale>  0 0.52258798E+02</rscale>
<asrwt>0</asrwt>
<pdfrwt beam="1">  1       13 0.10000000E+01 0.52258798E+02</pdfrwt>
<pdfrwt beam="2">  1       22 0.14030951E+00 0.52258798E+02</pdfrwt>
<totfact> 0.84071995E-01</totfact>
</mgrwt>
</event>
<event>
 4    1  0.2503484E+000  0.5131204E+02  0.7957747E-01  0.1438391E+00
         13   -1    0    0    0    0  0.00000000000E+00  0.00000000000E+00  0.99999944184E+02  0.10000000000E+03  0.10566000000E+00 0. -1.
         22   -1    0    0    0    0 -0.00000000000E+00 -0.00000000000E+00 -0.10326633947E+02  0.10326633947E+02  0.00000000000E+00 0. -1.
         13    1    1    2    0    0 -0.78267420140E+01 -0.84656851334E+01  0.86169244967E+01  0.14394035819E+02  0.10566000000E+00 0.  1.
        996    1    1    2    0    0  0.78267420140E+01  0.84656851334E+01  0.81056385740E+02  0.95932598133E+02  0.50000000000E+02 0.  0.
<mgrwt>
<rscale>  0 0.51312043E+02</rscale>
<asrwt>0</asrwt>
<pdfrwt beam="1">  1       13 0.10000000E+01 0.51312043E+02</pdfrwt>
<pdfrwt beam="2">  1       22 0.10326659E+00 0.51312043E+02</pdfrwt>
<totfact> 0.13431680E+00</totfact>
</mgrwt>
</event>
<event>
 4    1  0.2503484E+000  0.5362768E+02  0.7957747E-01  0.1426702E+00
         13   -1    0    0    0    0  0.00000000000E+00  0.00000000000E+00  0.99999944174E+02  0.99999999994E+02  0.10566000000E+00 0.  1.
         22   -1    0    0    0    0 -0.00000000000E+00 -0.00000000000E+00 -0.23650467702E+02  0.23650467702E+02  0.00000000000E+00 0. -1.
         13    1    1    2    0    0  0.15190257244E+02  0.12049231599E+02 -0.10142834883E+02  0.21881868311E+02  0.10566000000E+00 0. -1.
        996    1    1    2    0    0 -0.15190257244E+02 -0.12049231599E+02  0.86492311355E+02  0.10176859939E+03  0.50000000000E+02 0.  0.
<mgrwt>
<rscale>  0 0.53627678E+02</rscale>
<asrwt>0</asrwt>
<pdfrwt beam="1">  1       13 0.10000000E+01 0.53627678E+02</pdfrwt>
<pdfrwt beam="2">  1       22 0.23650489E+00 0.53627678E+02</pdfrwt>
<totfact> 0.32955745E-01</totfact>
</mgrwt>
</event>
<event>
 4    1  0.2503484E+000  0.5723053E+02  0.7957747E-01  0.1409836E+00
         13   -1    0    0    0    0  0.00000000000E+00  0.00000000000E+00  0.99999944183E+02  0.10000000000E+03  0.10566000000E+00 0. -1.
         22   -1    0    0    0    0 -0.00000000000E+00 -0.00000000000E+00 -0.21289307948E+02  0.21289307948E+02  0.00000000000E+00 0.  1.
         13    1    1    2    0    0 -0.16471295014E+02  0.22450621702E+02  0.55321959106E+01  0.28389264342E+02  0.10566000000E+00 0.  1.
        996    1    1    2    0    0  0.16471295014E+02 -0.22450621702E+02  0.73178440324E+02  0.92900043609E+02  0.50000000000E+02 0.  0.
<mgrwt>
<rscale>  0 0.57230534E+02</rscale>
<asrwt>0</asrwt>
<pdfrwt beam="1">  1       13 0.10000000E+01 0.57230534E+02</pdfrwt>
<pdfrwt beam="2">  1       22 0.21289330E+00 0.57230534E+02</pdfrwt>
<totfact> 0.40622827E-01</totfact>
</mgrwt>
</event>
<event>
 4    1  0.2503484E+000  0.5129361E+02  0.7957747E-01  0.1438486E+00
         13   -1    0    0    0    0  0.00000000000E+00  0.00000000000E+00  0.99999944181E+02  0.10000000000E+03  0.10566000000E+00 0. -1.
         22   -1    0    0    0    0 -0.00000000000E+00 -0.00000000000E+00 -0.11598085799E+02  0.11598085799E+02  0.00000000000E+00 0. -1.
         13    1    1    2    0    0  0.34671248528E+01 -0.10909330170E+02  0.27682024466E+01  0.11777459333E+02  0.10566000000E+00 0.  1.
        996    1    1    2    0    0 -0.34671248528E+01  0.10909330170E+02  0.85633655936E+02  0.99820626468E+02  0.50000000000E+02 0.  0.
<mgrwt>
<rscale>  0 0.51293610E+02</rscale>
<asrwt>0</asrwt>
<pdfrwt beam="1">  1       13 0.10000000E+01 0.51293610E+02</pdfrwt>
<pdfrwt beam="2">  1       22 0.11598110E+00 0.51293610E+02</pdfrwt>
<totfact> 0.11303187E+00</totfact>
</mgrwt>
</event>
<event>
 4    1  0.2503484E+000  0.5159322E+02  0.7957747E-01  0.1436933E+00
         13   -1    0    0    0    0  0.00000000000E+00  0.00000000000E+00  0.99999944180E+02  0.10000000000E+03  0.10566000000E+00 0.  1.
         22   -1    0    0    0    0 -0.00000000000E+00 -0.00000000000E+00 -0.11303920533E+02  0.11303920533E+02  0.00000000000E+00 0.  1.
         13    1    1    2    0    0  0.12704190155E+02 -0.68088907573E+00  0.65764482178E+01  0.14322042195E+02  0.10566000000E+00 0. -1.
        996    1    1    2    0    0 -0.12704190155E+02  0.68088907573E+00  0.82119575429E+02  0.96981878339E+02  0.50000000000E+02 0.  0.
<mgrwt>
<rscale>  0 0.51593217E+02</rscale>
<asrwt>0</asrwt>
<pdfrwt beam="1">  1       13 0.10000000E+01 0.51593217E+02</pdfrwt>
<pdfrwt beam="2">  1       22 0.11303945E+00 0.51593217E+02</pdfrwt>
<totfact> 0.11757156E+00</totfact>
</mgrwt>
</event>
<event>
 4    1  0.2503484E+000  0.5606296E+02  0.7957747E-01  0.1415138E+00
         13   -1    0    0    0    0  0.00000000000E+00  0.00000000000E+00  0.99999944178E+02  0.99999999999E+02  0.10566000000E+00 0.  1.
         22   -1    0    0    0    0 -0.00000000000E+00 -0.00000000000E+00 -0.32937886194E+02  0.32937886194E+02  0.00000000000E+00 0. -1.
         13    1    1    2    0    0  0.19965115807E+02  0.15634869430E+02 -0.17975055925E+02  0.31083255795E+02  0.10566000000E+00 0. -1.
        996    1    1    2    0    0 -0.19965115807E+02 -0.15634869430E+02  0.85037113910E+02  0.10185463040E+03  0.50000000000E+02 0.  0.
<mgrwt>
<rscale>  0 0.56062956E+02</rscale>
<asrwt>0</asrwt>
<pdfrwt beam="1">  1       13 0.10000000E+01 0.56062956E+02</pdfrwt>
<pdfrwt beam="2">  1       22 0.32937905E+00 0.56062956E+02</pdfrwt>
<totfact> 0.17555727E-01</totfact>
</mgrwt>
</event>
<event>
 4    1  0.2503484E+000  0.5130627E+02  0.7957747E-01  0.1438421E+00
         13   -1    0    0    0    0  0.00000000000E+00  0.00000000000E+00  0.99999944181E+02  0.10000000000E+03  0.10566000000E+00 0.  1.
         22   -1    0    0    0    0 -0.00000000000E+00 -0.00000000000E+00 -0.11437295794E+02  0.11437295794E+02  0.00000000000E+00 0. -1.
         13    1    1    2    0    0 -0.83907406455E+01 -0.78695115947E+01  0.33688895642E+01  0.11987256661E+02  0.10566000000E+00 0. -1.
        996    1    1    2    0    0  0.83907406455E+01  0.78695115947E+01  0.85193758824E+02  0.99450039134E+02  0.50000000000E+02 0.  0.
<mgrwt>
<rscale>  0 0.51306274E+02</rscale>
<asrwt>0</asrwt>
<pdfrwt beam="1">  1       13 0.10000000E+01 0.51306274E+02</pdfrwt>
<pdfrwt beam="2">  1       22 0.11437321E+00 0.51306274E+02</pdfrwt>
<totfact> 0.11544101E+00</totfact>
</mgrwt>
</event>
<event>
 4    1  0.2503484E+000  0.5243801E+02  0.7957747E-01  0.1432618E+00
         13   -1    0    0    0    0  0.00000000000E+00  0.00000000000E+00  0.99999944181E+02  0.10000000000E+03  0.10566000000E+00 0. -1.
         22   -1    0    0    0    0 -0.00000000000E+00 -0.00000000000E+00 -0.26151977122E+02  0.26151977122E+02  0.00000000000E+00 0.  1.
         13    1    1    2    0    0  0.43335275385E+01 -0.15197547996E+02 -0.15766055725E+02  0.22323185328E+02  0.10566000000E+00 0.  1.
        996    1    1    2    0    0 -0.43335275385E+01  0.15197547996E+02  0.89614022784E+02  0.10382879180E+03  0.50000000000E+02 0.  0.
<mgrwt>
<rscale>  0 0.52438010E+02</rscale>
<asrwt>0</asrwt>
<pdfrwt beam="1">  1       13 0.10000000E+01 0.52438010E+02</pdfrwt>
<pdfrwt beam="2">  1       22 0.26151998E+00 0.52438010E+02</pdfrwt>
<totfact> 0.26996797E-01</totfact>
</mgrwt>
</event>
<event>
 4    1  0.2503484E+000  0.5132526E+02  0.7957747E-01  0.1438322E+00
         13   -1    0    0    0    0  0.00000000000E+00  0.00000000000E+00  0.99999944171E+02  0.99999999991E+02  0.10566000000E+00 0. -1.
         22   -1    0    0    0    0 -0.00000000000E+00 -0.00000000000E+00 -0.11154838667E+02  0.11154838667E+02  0.00000000000E+00 0. -1.
         13    1    1    2    0    0 -0.10885563065E+02 -0.39733012300E+01  0.34544392594E+02  0.36436366855E+02  0.10566000000E+00 0.  1.
        996    1    1    2    0    0  0.10885563065E+02  0.39733012300E+01  0.54300712910E+02  0.74718471802E+02  0.50000000000E+02 0.  0.
<mgrwt>
<rscale>  0 0.51325263E+02</rscale>
<asrwt>0</asrwt>
<pdfrwt beam="1">  1       13 0.10000000E+01 0.51325263E+02</pdfrwt>
<pdfrwt beam="2">  1       22 0.11154863E+00 0.51325263E+02</pdfrwt>
<totfact> 0.11985686E+00</totfact>
</mgrwt>
</event>
<event>
 4    1  0.2503484E+000  0.6123115E+02  0.7957747E-01  0.1392737E+00
         13   -1    0    0    0    0  0.00000000000E+00  0.00000000000E+00  0.99999944186E+02  0.10000000001E+03  0.10566000000E+00 0.  1.
         22   -1    0    0    0    0 -0.00000000000E+00 -0.00000000000E+00 -0.67469764672E+02  0.67469764672E+02  0.00000000000E+00 0. -1.
         13    1    1    2    0    0 -0.31220785250E+02  0.16568531838E+02 -0.52132857609E+02  0.62984916332E+02  0.10566000000E+00 0. -1.
        996    1    1    2    0    0  0.31220785250E+02 -0.16568531838E+02  0.84663037123E+02  0.10448484835E+03  0.50000000000E+02 0.  0.
<mgrwt>
<rscale>  0 0.61231150E+02</rscale>
<asrwt>0</asrwt>
<pdfrwt beam="1">  1       13 0.10000000E+01 0.61231150E+02</pdfrwt>
<pdfrwt beam="2">  1       22 0.67469774E+00 0.61231150E+02</pdfrwt>
<totfact> 0.85135069E-02</totfact>
</mgrwt>
</event>
<event>
 4    1  0.2503484E+000  0.5216470E+02  0.7957747E-01  0.1434004E+00
         13   -1    0    0    0    0  0.00000000000E+00  0.00000000000E+00  0.99999944183E+02  0.10000000000E+03  0.10566000000E+00 0.  1.
         22   -1    0    0    0    0 -0.00000000000E+00 -0.00000000000E+00 -0.19543264540E+02  0.19543264540E+02  0.00000000000E+00 0. -1.
         13    1    1    2    0    0 -0.89290158250E+01  0.11892379784E+02 -0.79729600312E+01  0.16874100753E+02  0.10566000000E+00 0. -1.
        996    1    1    2    0    0  0.89290158250E+01 -0.11892379784E+02  0.88429639674E+02  0.10266916379E+03  0.50000000000E+02 0.  0.
<mgrwt>
<rscale>  0 0.52164701E+02</rscale>
<asrwt>0</asrwt>
<pdfrwt beam="1">  1       13 0.10000000E+01 0.52164701E+02</pdfrwt>
<pdfrwt beam="2">  1       22 0.19543287E+00 0.52164701E+02</pdfrwt>
<totfact> 0.47308810E-01</totfact>
</mgrwt>
</event>
<event>
 4    1  0.2503484E+000  0.5310043E+02  0.7957747E-01  0.1429302E+00
         13   -1    0    0    0    0  0.00000000000E+00  0.00000000000E+00  0.99999944180E+02  0.10000000000E+03  0.10566000000E+00 0.  1.
         22   -1    0    0    0    0 -0.00000000000E+00 -0.00000000000E+00 -0.12694516990E+02  0.12694516990E+02  0.00000000000E+00 0.  1.
         13    1    1    2    0    0 -0.97449540532E+01  0.14989726165E+02  0.17829643844E+02  0.25250017497E+02  0.10566000000E+00 0. -1.
        996    1    1    2    0    0  0.97449540532E+01 -0.14989726165E+02  0.69475783346E+02  0.87444499493E+02  0.50000000000E+02 0.  0.
<mgrwt>
<rscale>  0 0.53100433E+02</rscale>
<asrwt>0</asrwt>
<pdfrwt beam="1">  1       13 0.10000000E+01 0.53100433E+02</pdfrwt>
<pdfrwt beam="2">  1       22 0.12694541E+00 0.53100433E+02</pdfrwt>
<totfact> 0.98769119E-01</totfact>
</mgrwt>
</event>
<event>
 4    1  0.2503484E+000  0.5880645E+02  0.7957747E-01  0.1402910E+00
         13   -1    0    0    0    0  0.00000000000E+00  0.00000000000E+00  0.99999944181E+02  0.10000000000E+03  0.10566000000E+00 0.  1.
         22   -1    0    0    0    0 -0.00000000000E+00 -0.00000000000E+00 -0.40500193017E+02  0.40500193017E+02  0.00000000000E+00 0. -1.
         13    1    1    2    0    0 -0.30487939283E+02 -0.53558013076E+01 -0.23439841685E+02  0.38828293699E+02  0.10566000000E+00 0. -1.
        996    1    1    2    0    0  0.30487939283E+02  0.53558013076E+01  0.82939592848E+02  0.10167189932E+03  0.50000000000E+02 0.  0.
<mgrwt>
<rscale>  0 0.58806454E+02</rscale>
<asrwt>0</asrwt>
<pdfrwt beam="1">  1       13 0.10000000E+01 0.58806454E+02</pdfrwt>
<pdfrwt beam="2">  1       22 0.40500210E+00 0.58806454E+02</pdfrwt>
<totfact> 0.12136092E-01</totfact>
</mgrwt>
</event>
<event>
 4    1  0.2503484E+000  0.6085868E+02  0.7957747E-01  0.1394263E+00
         13   -1    0    0    0    0  0.00000000000E+00  0.00000000000E+00  0.99999944178E+02  0.99999999999E+02  0.10566000000E+00 0.  1.
         22   -1    0    0    0    0 -0.00000000000E+00 -0.00000000000E+00 -0.26193501127E+02  0.26193501127E+02  0.00000000000E+00 0. -1.
         13    1    1    2    0    0 -0.24245135129E+02 -0.24818389022E+02  0.62274659361E+01  0.35250127760E+02  0.10566000000E+00 0. -1.
        996    1    1    2    0    0  0.24245135129E+02  0.24818389022E+02  0.67578977115E+02  0.90943373365E+02  0.50000000000E+02 0.  0.
<mgrwt>
<rscale>  0 0.60858681E+02</rscale>
<asrwt>0</asrwt>
<pdfrwt beam="1">  1       13 0.10000000E+01 0.60858681E+02</pdfrwt>
<pdfrwt beam="2">  1       22 0.26193522E+00 0.60858681E+02</pdfrwt>
<totfact> 0.27228114E-01</totfact>
</mgrwt>
</event>
<event>
 4    1  0.2503484E+000  0.5512878E+02  0.7957747E-01  0.1419491E+00
         13   -1    0    0    0    0  0.00000000000E+00  0.00000000000E+00  0.99999944178E+02  0.99999999998E+02  0.10566000000E+00 0. -1.
         22   -1    0    0    0    0 -0.00000000000E+00 -0.00000000000E+00 -0.49022499321E+02  0.49022499321E+02  0.00000000000E+00 0.  1.
         13    1    1    2    0    0 -0.21064411122E+02 -0.97710430739E+01 -0.37892956893E+02  0.44441760145E+02  0.10566000000E+00 0.  1.
        996    1    1    2    0    0  0.21064411122E+02  0.97710430739E+01  0.88870401751E+02  0.10458073917E+03  0.50000000000E+02 0.  0.
<mgrwt>
<rscale>  0 0.55128783E+02</rscale>
<asrwt>0</asrwt>
<pdfrwt beam="1">  1       13 0.10000000E+01 0.55128783E+02</pdfrwt>
<pdfrwt beam="2">  1       22 0.49022514E+00 0.55128783E+02</pdfrwt>
<totfact> 0.77832089E-02</totfact>
</mgrwt>
</event>
<event>
 4    1  0.2503484E+000  0.5123984E+02  0.7957747E-01  0.1438767E+00
         13   -1    0    0    0    0  0.00000000000E+00  0.00000000000E+00  0.99999944175E+02  0.99999999995E+02  0.10566000000E+00 0. -1.
         22   -1    0    0    0    0 -0.00000000000E+00 -0.00000000000E+00 -0.98926900556E+01  0.98926900556E+01  0.00000000000E+00 0.  1.
         13    1    1    2    0    0  0.90532897643E+01 -0.65998970253E+01  0.11465906606E+02  0.16031184443E+02  0.10566000000E+00 0.  1.
        996    1    1    2    0    0 -0.90532897643E+01  0.65998970253E+01  0.78641347513E+02  0.93861505608E+02  0.50000000000E+02 0.  0.
<mgrwt>
<rscale>  0 0.51239835E+02</rscale>
<asrwt>0</asrwt>
<pdfrwt beam="1">  1       13 0.10000000E+01 0.51239835E+02</pdfrwt>
<pdfrwt beam="2">  1       22 0.98927152E-01 0.51239835E+02</pdfrwt>
<totfact> 0.14293231E+00</totfact>
</mgrwt>
</event>
<event>
 4    1  0.2503484E+000  0.5159975E+02  0.7957747E-01  0.1436899E+00
         13   -1    0    0    0    0  0.00000000000E+00  0.00000000000E+00  0.99999944182E+02  0.10000000000E+03  0.10566000000E+00 0. -1.
         22   -1    0    0    0    0 -0.00000000000E+00 -0.00000000000E+00 -0.32396701277E+02  0.32396701277E+02  0.00000000000E+00 0.  1.
         13    1    1    2    0    0 -0.83900545097E+01 -0.95990004836E+01 -0.24047870755E+02  0.27218469407E+02  0.10566000000E+00 0.  1.
        996    1    1    2    0    0  0.83900545097E+01  0.95990004836E+01  0.91651113659E+02  0.10517823187E+03  0.50000000000E+02 0.  0.
<mgrwt>
<rscale>  0 0.51599746E+02</rscale>
<asrwt>0</asrwt>
<pdfrwt beam="1">  1       13 0.10000000E+01 0.51599746E+02</pdfrwt>
<pdfrwt beam="2">  1       22 0.32396720E+00 0.51599746E+02</pdfrwt>
<totfact> 0.17989151E-01</totfact>
</mgrwt>
</event>
<event>
 4    1  0.2503484E+000  0.5361111E+02  0.7957747E-01  0.1426784E+00
         13   -1    0    0    0    0  0.00000000000E+00  0.00000000000E+00  0.99999944181E+02  0.10000000000E+03  0.10566000000E+00 0.  1.
         22   -1    0    0    0    0 -0.00000000000E+00 -0.00000000000E+00 -0.14052557476E+02  0.14052557476E+02  0.00000000000E+00 0.  1.
         13    1    1    2    0    0 -0.18926654150E+02 -0.39916545968E+01  0.12168868291E+02  0.22852659873E+02  0.10566000000E+00 0. -1.
        996    1    1    2    0    0  0.18926654150E+02  0.39916545968E+01  0.73778518413E+02  0.91199897604E+02  0.50000000000E+02 0.  0.
<mgrwt>
<rscale>  0 0.53611114E+02</rscale>
<asrwt>0</asrwt>
<pdfrwt beam="1">  1       13 0.10000000E+01 0.53611114E+02</pdfrwt>
<pdfrwt beam="2">  1       22 0.14052581E+00 0.53611114E+02</pdfrwt>
<totfact> 0.84095945E-01</totfact>
</mgrwt>
</event>
<event>
 4    1  0.2503484E+000  0.5278123E+02  0.7957747E-01  0.1430893E+00
         13   -1    0    0    0    0  0.00000000000E+00  0.00000000000E+00  0.99999944184E+02  0.10000000000E+03  0.10566000000E+00 0.  1.
         22   -1    0    0    0    0 -0.00000000000E+00 -0.00000000000E+00 -0.12194002524E+02  0.12194002524E+02  0.00000000000E+00 0.  1.
         13    1    1    2    0    0  0.14123623485E+01  0.16848252784E+02  0.18237616895E+02  0.24869262621E+02  0.10566000000E+00 0. -1.
        996    1    1    2    0    0 -0.14123623485E+01 -0.16848252784E+02  0.69568324765E+02  0.87324739907E+02  0.50000000000E+02 0.  0.
<mgrwt>
<rscale>  0 0.52781231E+02</rscale>
<asrwt>0</asrwt>
<pdfrwt beam="1">  1       13 0.10000000E+01 0.52781231E+02</pdfrwt>
<pdfrwt beam="2">  1       22 0.12194027E+00 0.52781231E+02</pdfrwt>
<totfact> 0.10505896E+00</totfact>
</mgrwt>
</event>
<event>
 4    1  0.2503484E+000  0.5499724E+02  0.7957747E-01  0.1420112E+00
         13   -1    0    0    0    0  0.00000000000E+00  0.00000000000E+00  0.99999944174E+02  0.99999999994E+02  0.10566000000E+00 0. -1.
         22   -1    0    0    0    0 -0.00000000000E+00 -0.00000000000E+00 -0.16061175753E+02  0.16061175753E+02  0.00000000000E+00 0. -1.
         13    1    1    2    0    0 -0.22871840983E+02 -0.12550106109E+01  0.13128878970E+02  0.26402173937E+02  0.10566000000E+00 0.  1.
        996    1    1    2    0    0  0.22871840983E+02  0.12550106109E+01  0.70809889451E+02  0.89659001811E+02  0.50000000000E+02 0.  0.
<mgrwt>
<rscale>  0 0.54997238E+02</rscale>
<asrwt>0</asrwt>
<pdfrwt beam="1">  1       13 0.10000000E+01 0.54997238E+02</pdfrwt>
<pdfrwt beam="2">  1       22 0.16061199E+00 0.54997238E+02</pdfrwt>
<totfact> 0.67473696E-01</totfact>
</mgrwt>
</event>
<event>
 4    1  0.2503484E+000  0.5529099E+02  0.7957747E-01  0.1418728E+00
         13   -1    0    0    0    0  0.00000000000E+00  0.00000000000E+00  0.99999944175E+02  0.99999999995E+02  0.10566000000E+00 0. -1.
         22   -1    0    0    0    0 -0.00000000000E+00 -0.00000000000E+00 -0.28020395256E+02  0.28020395256E+02  0.00000000000E+00 0.  1.
         13    1    1    2    0    0 -0.13116760412E+02 -0.19622549331E+02 -0.12765016549E+02  0.26833759660E+02  0.10566000000E+00 0.  1.
        996    1    1    2    0    0  0.13116760412E+02  0.19622549331E+02  0.84744565468E+02  0.10118663559E+03  0.50000000000E+02 0.  0.
<mgrwt>
<rscale>  0 0.55290992E+02</rscale>
<asrwt>0</asrwt>
<pdfrwt beam="1">  1       13 0.10000000E+01 0.55290992E+02</pdfrwt>
<pdfrwt beam="2">  1       22 0.28020415E+00 0.55290992E+02</pdfrwt>
<totfact> 0.23684679E-01</totfact>
</mgrwt>
</event>
<event>
 4    1  0.2503484E+000  0.5450388E+02  0.7957747E-01  0.1422460E+00
         13   -1    0    0    0    0  0.00000000000E+00  0.00000000000E+00  0.99999944179E+02  0.99999999999E+02  0.10566000000E+00 0. -1.
         22   -1    0    0    0    0 -0.00000000000E+00 -0.00000000000E+00 -0.21422895684E+02  0.21422895684E+02  0.00000000000E+00 0.  1.
         13    1    1    2    0    0  0.18905751140E+02 -0.10641706480E+02 -0.44089322452E+01  0.22138726037E+02  0.10566000000E+00 0.  1.
        996    1    1    2    0    0 -0.18905751140E+02  0.10641706480E+02  0.82985980740E+02  0.99284169646E+02  0.50000000000E+02 0.  0.
<mgrwt>
<rscale>  0 0.54503884E+02</rscale>
<asrwt>0</asrwt>
<pdfrwt beam="1">  1       13 0.10000000E+01 0.54503884E+02</pdfrwt>
<pdfrwt beam="2">  1       22 0.21422918E+00 0.54503884E+02</pdfrwt>
<totfact> 0.39965131E-01</totfact>
</mgrwt>
</event>
<event>
 4    1  0.2503484E+000  0.5303361E+02  0.7957747E-01  0.1429634E+00
         13   -1    0    0    0    0  0.00000000000E+00  0.00000000000E+00  0.99999944182E+02  0.10000000000E+03  0.10566000000E+00 0.  1.
         22   -1    0    0    0    0 -0.00000000000E+00 -0.00000000000E+00 -0.21845050623E+02  0.21845050623E+02  0.00000000000E+00 0.  1.
         13    1    1    2    0    0  0.57622908904E+01 -0.16714045064E+02 -0.89878356081E+01  0.19833195700E+02  0.10566000000E+00 0. -1.
        996    1    1    2    0    0 -0.57622908904E+01  0.16714045064E+02  0.87142729167E+02  0.10201185493E+03  0.50000000000E+02 0.  0.
<mgrwt>
<rscale>  0 0.53033605E+02</rscale>
<asrwt>0</asrwt>
<pdfrwt beam="1">  1       13 0.10000000E+01 0.53033605E+02</pdfrwt>
<pdfrwt beam="2">  1       22 0.21845072E+00 0.53033605E+02</pdfrwt>
<totfact> 0.38405209E-01</totfact>
</mgrwt>
</event>
<event>
 4    1  0.2503484E+000  0.5331109E+02  0.7957747E-01  0.1428259E+00
         13   -1    0    0    0    0  0.00000000000E+00  0.00000000000E+00  0.99999944181E+02  0.10000000000E+03  0.10566000000E+00 0. -1.
         22   -1    0    0    0    0 -0.00000000000E+00 -0.00000000000E+00 -0.14060324879E+02  0.14060324879E+02  0.00000000000E+00 0.  1.
         13    1    1    2    0    0 -0.18132044227E+02  0.36470686621E+01  0.92989741964E+01  0.20701551217E+02  0.10566000000E+00 0.  1.
        996    1    1    2    0    0  0.18132044227E+02 -0.36470686621E+01  0.76640645106E+02  0.93358773663E+02  0.50000000000E+02 0.  0.
<mgrwt>
<rscale>  0 0.53311088E+02</rscale>
<asrwt>0</asrwt>
<pdfrwt beam="1">  1       13 0.10000000E+01 0.53311088E+02</pdfrwt>
<pdfrwt beam="2">  1       22 0.14060349E+00 0.53311088E+02</pdfrwt>
<totfact> 0.83969179E-01</totfact>
</mgrwt>
</event>
<event>
 4    1  0.2503484E+000  0.5122505E+02  0.7957747E-01  0.1438844E+00
         13   -1    0    0    0    0  0.00000000000E+00  0.00000000000E+00  0.99999944176E+02  0.99999999996E+02  0.10566000000E+00 0. -1.
         22   -1    0    0    0    0 -0.00000000000E+00 -0.00000000000E+00 -0.51254636172E+02  0.51254636172E+02  0.00000000000E+00 0.  1.
         13    1    1    2    0    0 -0.95487793702E+01  0.57294220466E+01 -0.43954376195E+02  0.45343178265E+02  0.10566000000E+00 0.  1.
        996    1    1    2    0    0  0.95487793702E+01 -0.57294220466E+01  0.92699684200E+02  0.10591145790E+03  0.50000000000E+02 0.  0.
<mgrwt>
<rscale>  0 0.51225047E+02</rscale>
<asrwt>0</asrwt>
<pdfrwt beam="1">  1       13 0.10000000E+01 0.51225047E+02</pdfrwt>
<pdfrwt beam="2">  1       22 0.51254650E+00 0.51225047E+02</pdfrwt>
<totfact> 0.68815626E-02</totfact>
</mgrwt>
</event>
<event>
 4    1  0.2503484E+000  0.5148337E+02  0.7957747E-01  0.1437501E+00
         13   -1    0    0    0    0  0.00000000000E+00  0.00000000000E+00  0.99999944177E+02  0.99999999997E+02  0.10566000000E+00 0. -1.
         22   -1    0    0    0    0 -0.00000000000E+00 -0.00000000000E+00 -0.22188006266E+02  0.22188006266E+02  0.00000000000E+00 0.  1.
         13    1    1    2    0    0 -0.57111343560E+01  0.10859092812E+02 -0.12950984098E+02  0.17840294434E+02  0.10566000000E+00 0.  1.
        996    1    1    2    0    0  0.57111343560E+01 -0.10859092812E+02  0.90762922009E+02  0.10434771183E+03  0.50000000000E+02 0.  0.
<mgrwt>
<rscale>  0 0.51483366E+02</rscale>
<asrwt>0</asrwt>
<pdfrwt beam="1">  1       13 0.10000000E+01 0.51483366E+02</pdfrwt>
<pdfrwt beam="2">  1       22 0.22188028E+00 0.51483366E+02</pdfrwt>
<totfact> 0.37173833E-01</totfact>
</mgrwt>
</event>
<event>
 4    1  0.2503484E+000  0.5454186E+02  0.7957747E-01  0.1422278E+00
         13   -1    0    0    0    0  0.00000000000E+00  0.00000000000E+00  0.99999944174E+02  0.99999999994E+02  0.10566000000E+00 0.  1.
         22   -1    0    0    0    0 -0.00000000000E+00 -0.00000000000E+00 -0.67713954421E+02  0.67713954421E+02  0.00000000000E+00 0. -1.
         13    1    1    2    0    0  0.21423923434E+02 -0.39786525482E+01 -0.58152906877E+02  0.62101416358E+02  0.10566000000E+00 0. -1.
        996    1    1    2    0    0 -0.21423923434E+02  0.39786525482E+01  0.90438896629E+02  0.10561253806E+03  0.50000000000E+02 0.  0.
<mgrwt>
<rscale>  0 0.54541857E+02</rscale>
<asrwt>0</asrwt>
<pdfrwt beam="1">  1       13 0.10000000E+01 0.54541857E+02</pdfrwt>
<pdfrwt beam="2">  1       22 0.67713963E+00 0.54541857E+02</pdfrwt>
<totfact> 0.84417844E-02</totfact>
</mgrwt>
</event>
<event>
 4    1  0.2503484E+000  0.5292753E+02  0.7957747E-01  0.1430162E+00
         13   -1    0    0    0    0  0.00000000000E+00  0.00000000000E+00  0.99999944172E+02  0.99999999992E+02  0.10566000000E+00 0.  1.
         22   -1    0    0    0    0 -0.00000000000E+00 -0.00000000000E+00 -0.19478297433E+02  0.19478297433E+02  0.00000000000E+00 0. -1.
         13    1    1    2    0    0  0.13501568921E+02  0.10910135844E+02 -0.57315896243E+01  0.18280747007E+02  0.10566000000E+00 0. -1.
        996    1    1    2    0    0 -0.13501568921E+02 -0.10910135844E+02  0.86253236363E+02  0.10119755042E+03  0.50000000000E+02 0.  0.
<mgrwt>
<rscale>  0 0.52927530E+02</rscale>
<asrwt>0</asrwt>
<pdfrwt beam="1">  1       13 0.10000000E+01 0.52927530E+02</pdfrwt>
<pdfrwt beam="2">  1       22 0.19478320E+00 0.52927530E+02</pdfrwt>
<totfact> 0.47666381E-01</totfact>
</mgrwt>
</event>
<event>
 4    1  0.2503484E+000  0.5755994E+02  0.7957747E-01  0.1408366E+00
         13   -1    0    0    0    0  0.00000000000E+00  0.00000000000E+00  0.99999944180E+02  0.10000000000E+03  0.10566000000E+00 0. -1.
         22   -1    0    0    0    0 -0.00000000000E+00 -0.00000000000E+00 -0.19183367963E+02  0.19183367963E+02  0.00000000000E+00 0.  1.
         13    1    1    2    0    0 -0.10100201523E+02  0.26667065023E+02  0.37677332222E+02  0.47251867213E+02  0.10566000000E+00 0.  1.
        996    1    1    2    0    0  0.10100201523E+02 -0.26667065023E+02  0.43139243995E+02  0.71931500750E+02  0.50000000000E+02 0.  0.
<mgrwt>
<rscale>  0 0.57559938E+02</rscale>
<asrwt>0</asrwt>
<pdfrwt beam="1">  1       13 0.10000000E+01 0.57559938E+02</pdfrwt>
<pdfrwt beam="2">  1       22 0.19183391E+00 0.57559938E+02</pdfrwt>
<totfact> 0.49417653E-01</totfact>
</mgrwt>
</event>
<event>
 4    1  0.2503484E+000  0.5143103E+02  0.7957747E-01  0.1437772E+00
         13   -1    0    0    0    0  0.00000000000E+00  0.00000000000E+00  0.99999944183E+02  0.10000000000E+03  0.10566000000E+00 0.  1.
         22   -1    0    0    0    0 -0.00000000000E+00 -0.00000000000E+00 -0.20529330329E+02  0.20529330329E+02  0.00000000000E+00 0. -1.
         13    1    1    2    0    0 -0.11126292415E+02 -0.46212630857E+01 -0.11095249399E+02  0.16378833251E+02  0.10566000000E+00 0. -1.
        996    1    1    2    0    0  0.11126292415E+02  0.46212630857E+01  0.90565863253E+02  0.10415049708E+03  0.50000000000E+02 0.  0.
<mgrwt>
<rscale>  0 0.51431026E+02</rscale>
<asrwt>0</asrwt>
<pdfrwt beam="1">  1       13 0.10000000E+01 0.51431026E+02</pdfrwt>
<pdfrwt beam="2">  1       22 0.20529353E+00 0.51431026E+02</pdfrwt>
<totfact> 0.43099714E-01</totfact>
</mgrwt>
</event>
<event>
 4    1  0.2503484E+000  0.5399824E+02  0.7957747E-01  0.1424897E+00
         13   -1    0    0    0    0  0.00000000000E+00  0.00000000000E+00  0.99999944186E+02  0.10000000001E+03  0.10566000000E+00 0. -1.
         22   -1    0    0    0    0 -0.00000000000E+00 -0.00000000000E+00 -0.74943147853E+02  0.74943147853E+02  0.00000000000E+00 0.  1.
         13    1    1    2    0    0  0.12541078655E+02  0.16078919133E+02 -0.66000521179E+02  0.69078869810E+02  0.10566000000E+00 0.  1.
        996    1    1    2    0    0 -0.12541078655E+02 -0.16078919133E+02  0.91057317512E+02  0.10586427805E+03  0.50000000000E+02 0.  0.
<mgrwt>
<rscale>  0 0.53998243E+02</rscale>
<asrwt>0</asrwt>
<pdfrwt beam="1">  1       13 0.10000000E+01 0.53998243E+02</pdfrwt>
<pdfrwt beam="2">  1       22 0.74943155E+00 0.53998243E+02</pdfrwt>
<totfact> 0.49286230E-02</totfact>
</mgrwt>
</event>
<event>
 4    1  0.2503484E+000  0.5825435E+02  0.7957747E-01  0.1405307E+00
         13   -1    0    0    0    0  0.00000000000E+00  0.00000000000E+00  0.99999944178E+02  0.99999999998E+02  0.10566000000E+00 0. -1.
         22   -1    0    0    0    0 -0.00000000000E+00 -0.00000000000E+00 -0.22463992722E+02  0.22463992722E+02  0.00000000000E+00 0.  1.
         13    1    1    2    0    0  0.29697760465E+02  0.34077619297E+01  0.64912151289E+01  0.30589489304E+02  0.10566000000E+00 0.  1.
        996    1    1    2    0    0 -0.29697760465E+02 -0.34077619297E+01  0.71044736327E+02  0.91874503415E+02  0.50000000000E+02 0.  0.
<mgrwt>
<rscale>  0 0.58254354E+02</rscale>
<asrwt>0</asrwt>
<pdfrwt beam="1">  1       13 0.10000000E+01 0.58254354E+02</pdfrwt>
<pdfrwt beam="2">  1       22 0.22464014E+00 0.58254354E+02</pdfrwt>
<totfact> 0.36691172E-01</totfact>
</mgrwt>
</event>
<event>
 4    1  0.2503484E+000  0.5571055E+02  0.7957747E-01  0.1416768E+00
         13   -1    0    0    0    0  0.00000000000E+00  0.00000000000E+00  0.99999944181E+02  0.10000000000E+03  0.10566000000E+00 0. -1.
         22   -1    0    0    0    0 -0.00000000000E+00 -0.00000000000E+00 -0.18332832083E+02  0.18332832083E+02  0.00000000000E+00 0.  1.
         13    1    1    2    0    0 -0.70004996794E+01  0.23551176945E+02  0.77310634723E+01  0.25757434610E+02  0.10566000000E+00 0.  1.
        996    1    1    2    0    0  0.70004996794E+01 -0.23551176945E+02  0.73936048625E+02  0.92575397474E+02  0.50000000000E+02 0.  0.
<mgrwt>
<rscale>  0 0.55710546E+02</rscale>
<asrwt>0</asrwt>
<pdfrwt beam="1">  1       13 0.10000000E+01 0.55710546E+02</pdfrwt>
<pdfrwt beam="2">  1       22 0.18332855E+00 0.55710546E+02</pdfrwt>
<totfact> 0.53515660E-01</totfact>
</mgrwt>
</event>
<event>
 4    1  0.2503484E+000  0.5102132E+02  0.7957747E-01  0.1439909E+00
         13   -1    0    0    0    0  0.00000000000E+00  0.00000000000E+00  0.99999944177E+02  0.99999999997E+02  0.10566000000E+00 0. -1.
         22   -1    0    0    0    0 -0.00000000000E+00 -0.00000000000E+00 -0.12763361961E+02  0.12763361961E+02  0.00000000000E+00 0. -1.
         13    1    1    2    0    0 -0.10019804575E+02 -0.16669290382E+01 -0.16335800736E+01  0.10288580273E+02  0.10566000000E+00 0.  1.
        996    1    1    2    0    0  0.10019804575E+02  0.16669290382E+01  0.88870162289E+02  0.10247478169E+03  0.50000000000E+02 0.  0.
<mgrwt>
<rscale>  0 0.51021320E+02</rscale>
<asrwt>0</asrwt>
<pdfrwt beam="1">  1       13 0.10000000E+01 0.51021320E+02</pdfrwt>
<pdfrwt beam="2">  1       22 0.12763386E+00 0.51021320E+02</pdfrwt>
<totfact> 0.97494248E-01</totfact>
</mgrwt>
</event>
<event>
 4    1  0.2503484E+000  0.5144515E+02  0.7957747E-01  0.1437699E+00
         13   -1    0    0    0    0  0.00000000000E+00  0.00000000000E+00  0.99999944181E+02  0.10000000000E+03  0.10566000000E+00 0. -1.
         22   -1    0    0    0    0 -0.00000000000E+00 -0.00000000000E+00 -0.16642720173E+02  0.16642720173E+02  0.00000000000E+00 0.  1.
         13    1    1    2    0    0  0.63283502141E+01  0.10322544958E+02 -0.60159906927E+01  0.13520586485E+02  0.10566000000E+00 0.  1.
        996    1    1    2    0    0 -0.63283502141E+01 -0.10322544958E+02  0.89373214701E+02  0.10312213369E+03  0.50000000000E+02 0.  0.
<mgrwt>
<rscale>  0 0.51445145E+02</rscale>
<asrwt>0</asrwt>
<pdfrwt beam="1">  1       13 0.10000000E+01 0.51445145E+02</pdfrwt>
<pdfrwt beam="2">  1       22 0.16642743E+00 0.51445145E+02</pdfrwt>
<totfact> 0.63024971E-01</totfact>
</mgrwt>
</event>
<event>
 4    1  0.2503484E+000  0.5121492E+02  0.7957747E-01  0.1438897E+00
         13   -1    0    0    0    0  0.00000000000E+00  0.00000000000E+00  0.99999944173E+02  0.99999999993E+02  0.10566000000E+00 0.  1.
         22   -1    0    0    0    0 -0.00000000000E+00 -0.00000000000E+00 -0.67363685656E+02  0.67363685656E+02  0.00000000000E+00 0. -1.
         13    1    1    2    0    0  0.23559390654E+00  0.11086581086E+02 -0.60267054821E+02  0.61278845008E+02  0.10566000000E+00 0. -1.
        996    1    1    2    0    0 -0.23559390654E+00 -0.11086581086E+02  0.92903313338E+02  0.10608484064E+03  0.50000000000E+02 0.  0.
<mgrwt>
<rscale>  0 0.51214918E+02</rscale>
<asrwt>0</asrwt>
<pdfrwt beam="1">  1       13 0.10000000E+01 0.51214918E+02</pdfrwt>
<pdfrwt beam="2">  1       22 0.67363695E+00 0.51214918E+02</pdfrwt>
<totfact> 0.85425465E-02</totfact>
</mgrwt>
</event>
<event>
 4    1  0.2503484E+000  0.5114525E+02  0.7957747E-01  0.1439261E+00
         13   -1    0    0    0    0  0.00000000000E+00  0.00000000000E+00  0.99999944180E+02  0.10000000000E+03  0.10566000000E+00 0.  1.
         22   -1    0    0    0    0 -0.00000000000E+00 -0.00000000000E+00 -0.11300738099E+02  0.11300738099E+02  0.00000000000E+00 0.  1.
         13    1    1    2    0    0  0.64559680872E+01 -0.86114367966E+01  0.24676776084E+01  0.11042507164E+02  0.10566000000E+00 0. -1.
        996    1    1    2    0    0 -0.64559680872E+01  0.86114367966E+01  0.86231528472E+02  0.10025823094E+03  0.50000000000E+02 0.  0.
<mgrwt>
<rscale>  0 0.51145248E+02</rscale>
<asrwt>0</asrwt>
<pdfrwt beam="1">  1       13 0.10000000E+01 0.51145248E+02</pdfrwt>
<pdfrwt beam="2">  1       22 0.11300763E+00 0.51145248E+02</pdfrwt>
<totfact> 0.11749924E+00</totfact>
</mgrwt>
</event>
<event>
 4    1  0.2503484E+000  0.5100966E+02  0.7957747E-01  0.1439971E+00
         13   -1    0    0    0    0  0.00000000000E+00  0.00000000000E+00  0.99999944188E+02  0.10000000001E+03  0.10566000000E+00 0. -1.
         22   -1    0    0    0    0 -0.00000000000E+00 -0.00000000000E+00 -0.41635749036E+02  0.41635749036E+02  0.00000000000E+00 0.  1.
         13    1    1    2    0    0  0.18947931384E+01 -0.99194220756E+01 -0.34356368981E+02  0.35810004593E+02  0.10566000000E+00 0.  1.
        996    1    1    2    0    0 -0.18947931384E+01  0.99194220756E+01  0.92720564134E+02  0.10582574445E+03  0.50000000000E+02 0.  0.
<mgrwt>
<rscale>  0 0.51009658E+02</rscale>
<asrwt>0</asrwt>
<pdfrwt beam="1">  1       13 0.10000000E+01 0.51009658E+02</pdfrwt>
<pdfrwt beam="2">  1       22 0.41635765E+00 0.51009658E+02</pdfrwt>
<totfact> 0.11427824E-01</totfact>
</mgrwt>
</event>
<event>
 4    1  0.2503484E+000  0.5178700E+02  0.7957747E-01  0.1435935E+00
         13   -1    0    0    0    0  0.00000000000E+00  0.00000000000E+00  0.99999944179E+02  0.99999999999E+02  0.10566000000E+00 0. -1.
         22   -1    0    0    0    0 -0.00000000000E+00 -0.00000000000E+00 -0.10695840116E+02  0.10695840116E+02  0.00000000000E+00 0. -1.
         13    1    1    2    0    0  0.12475909993E+02 -0.51229592646E+01  0.15680355056E+02  0.20682788509E+02  0.10566000000E+00 0.  1.
        996    1    1    2    0    0 -0.12475909993E+02  0.51229592646E+01  0.73623749007E+02  0.90013051607E+02  0.50000000000E+02 0.  0.
<mgrwt>
<rscale>  0 0.51786997E+02</rscale>
<asrwt>0</asrwt>
<pdfrwt beam="1">  1       13 0.10000000E+01 0.51786997E+02</pdfrwt>
<pdfrwt beam="2">  1       22 0.10695865E+00 0.51786997E+02</pdfrwt>
<totfact> 0.12770912E+00</totfact>
</mgrwt>
</event>
<event>
 4    1  0.2503484E+000  0.5181428E+02  0.7957747E-01  0.1435794E+00
         13   -1    0    0    0    0  0.00000000000E+00  0.00000000000E+00  0.99999944176E+02  0.99999999996E+02  0.10566000000E+00 0.  1.
         22   -1    0    0    0    0 -0.00000000000E+00 -0.00000000000E+00 -0.13762289206E+02  0.13762289206E+02  0.00000000000E+00 0. -1.
         13    1    1    2    0    0 -0.51505873056E+01  0.12577389794E+02  0.52031932972E+00  0.13601513882E+02  0.10566000000E+00 0. -1.
        996    1    1    2    0    0  0.51505873056E+01 -0.12577389794E+02  0.85717335640E+02  0.10016077532E+03  0.50000000000E+02 0.  0.
<mgrwt>
<rscale>  0 0.51814277E+02</rscale>
<asrwt>0</asrwt>
<pdfrwt beam="1">  1       13 0.10000000E+01 0.51814277E+02</pdfrwt>
<pdfrwt beam="2">  1       22 0.13762313E+00 0.51814277E+02</pdfrwt>
<totfact> 0.86658672E-01</totfact>
</mgrwt>
</event>
<event>
 4    1  0.2503484E+000  0.5139694E+02  0.7957747E-01  0.1437949E+00
         13   -1    0    0    0    0  0.00000000000E+00  0.00000000000E+00  0.99999944175E+02  0.99999999996E+02  0.10566000000E+00 0.  1.
         22   -1    0    0    0    0 -0.00000000000E+00 -0.00000000000E+00 -0.49392092637E+02  0.49392092637E+02  0.00000000000E+00 0. -1.
         13    1    1    2    0    0 -0.55336013128E+01 -0.10536809542E+02 -0.41904085876E+02  0.43561550431E+02  0.10566000000E+00 0. -1.
        996    1    1    2    0    0  0.55336013128E+01  0.10536809542E+02  0.92511937414E+02  0.10583054220E+03  0.50000000000E+02 0.  0.
<mgrwt>
<rscale>  0 0.51396937E+02</rscale>
<asrwt>0</asrwt>
<pdfrwt beam="1">  1       13 0.10000000E+01 0.51396937E+02</pdfrwt>
<pdfrwt beam="2">  1       22 0.49392107E+00 0.51396937E+02</pdfrwt>
<totfact> 0.76112730E-02</totfact>
</mgrwt>
</event>
<event>
 4    1  0.2503484E+000  0.6010188E+02  0.7957747E-01  0.1397405E+00
         13   -1    0    0    0    0  0.00000000000E+00  0.00000000000E+00  0.99999944180E+02  0.10000000000E+03  0.10566000000E+00 0.  1.
         22   -1    0    0    0    0 -0.00000000000E+00 -0.00000000000E+00 -0.27980320624E+02  0.27980320624E+02  0.00000000000E+00 0. -1.
         13    1    1    2    0    0 -0.26910903922E+02 -0.19698717818E+02 -0.10519301384E+01  0.33366959026E+02  0.10566000000E+00 0. -1.
        996    1    1    2    0    0  0.26910903922E+02  0.19698717818E+02  0.73071553694E+02  0.94613361598E+02  0.50000000000E+02 0.  0.
<mgrwt>
<rscale>  0 0.60101882E+02</rscale>
<asrwt>0</asrwt>
<pdfrwt beam="1">  1       13 0.10000000E+01 0.60101882E+02</pdfrwt>
<pdfrwt beam="2">  1       22 0.27980341E+00 0.60101882E+02</pdfrwt>
<totfact> 0.23896781E-01</totfact>
</mgrwt>
</event>
<event>
 4    1  0.2503484E+000  0.5216504E+02  0.7957747E-01  0.1434002E+00
         13   -1    0    0    0    0  0.00000000000E+00  0.00000000000E+00  0.99999944176E+02  0.99999999996E+02  0.10566000000E+00 0.  1.
         22   -1    0    0    0    0 -0.00000000000E+00 -0.00000000000E+00 -0.13625144484E+02  0.13625144484E+02  0.00000000000E+00 0.  1.
         13    1    1    2    0    0 -0.12592168338E+02  0.79138201039E+01  0.28418849444E+01  0.15141952521E+02  0.10566000000E+00 0. -1.
        996    1    1    2    0    0  0.12592168338E+02 -0.79138201039E+01  0.83532914748E+02  0.98483191958E+02  0.50000000000E+02 0.  0.
<mgrwt>
<rscale>  0 0.52165039E+02</rscale>
<asrwt>0</asrwt>
<pdfrwt beam="1">  1       13 0.10000000E+01 0.52165039E+02</pdfrwt>
<pdfrwt beam="2">  1       22 0.13625169E+00 0.52165039E+02</pdfrwt>
<totfact> 0.88129985E-01</totfact>
</mgrwt>
</event>
<event>
 4    1  0.2503484E+000  0.7195492E+02  0.7957747E-01  0.1353569E+00
         13   -1    0    0    0    0  0.00000000000E+00  0.00000000000E+00  0.99999944182E+02  0.10000000000E+03  0.10566000000E+00 0. -1.
         22   -1    0    0    0    0 -0.00000000000E+00 -0.00000000000E+00 -0.62137316620E+02  0.62137316620E+02  0.00000000000E+00 0.  1.
         13    1    1    2    0    0  0.19601400450E+02  0.47888373219E+02 -0.32818320098E+02  0.61274501118E+02  0.10566000000E+00 0.  1.
        996    1    1    2    0    0 -0.19601400450E+02 -0.47888373219E+02  0.70680947660E+02  0.10086281550E+03  0.50000000000E+02 0.  0.
<mgrwt>
<rscale>  0 0.71954925E+02</rscale>
<asrwt>0</asrwt>
<pdfrwt beam="1">  1       13 0.10000000E+01 0.71954925E+02</pdfrwt>
<pdfrwt beam="2">  1       22 0.62137327E+00 0.71954925E+02</pdfrwt>
<totfact> 0.73803757E-02</totfact>
</mgrwt>
</event>
<event>
 4    1  0.2503484E+000  0.5103523E+02  0.7957747E-01  0.1439836E+00
         13   -1    0    0    0    0  0.00000000000E+00  0.00000000000E+00  0.99999944178E+02  0.99999999998E+02  0.10566000000E+00 0. -1.
         22   -1    0    0    0    0 -0.00000000000E+00 -0.00000000000E+00 -0.34758534680E+02  0.34758534680E+02  0.00000000000E+00 0.  1.
         13    1    1    2    0    0 -0.46577314272E+01  0.91049298422E+01 -0.27258285133E+02  0.29113905301E+02  0.10566000000E+00 0.  1.
        996    1    1    2    0    0  0.46577314272E+01 -0.91049298422E+01  0.92499694630E+02  0.10564462938E+03  0.50000000000E+02 0.  0.
<mgrwt>
<rscale>  0 0.51035225E+02</rscale>
<asrwt>0</asrwt>
<pdfrwt beam="1">  1       13 0.10000000E+01 0.51035225E+02</pdfrwt>
<pdfrwt beam="2">  1       22 0.34758553E+00 0.51035225E+02</pdfrwt>
<totfact> 0.15888816E-01</totfact>
</mgrwt>
</event>
<event>
 4    1  0.2503484E+000  0.5221448E+02  0.7957747E-01  0.1433751E+00
         13   -1    0    0    0    0  0.00000000000E+00  0.00000000000E+00  0.99999944178E+02  0.99999999998E+02  0.10566000000E+00 0. -1.
         22   -1    0    0    0    0 -0.00000000000E+00 -0.00000000000E+00 -0.12963601088E+02  0.12963601088E+02  0.00000000000E+00 0.  1.
         13    1    1    2    0    0 -0.94277382347E+01  0.11724748297E+02  0.52582043706E+01  0.15937749154E+02  0.10566000000E+00 0.  1.
        996    1    1    2    0    0  0.94277382347E+01 -0.11724748297E+02  0.81778138720E+02  0.97025851933E+02  0.50000000000E+02 0.  0.
<mgrwt>
<rscale>  0 0.52214480E+02</rscale>
<asrwt>0</asrwt>
<pdfrwt beam="1">  1       13 0.10000000E+01 0.52214480E+02</pdfrwt>
<pdfrwt beam="2">  1       22 0.12963625E+00 0.52214480E+02</pdfrwt>
<totfact> 0.95390766E-01</totfact>
</mgrwt>
</event>
<event>
 4    1  0.2503484E+000  0.5727450E+02  0.7957747E-01  0.1409639E+00
         13   -1    0    0    0    0  0.00000000000E+00  0.00000000000E+00  0.99999944175E+02  0.99999999995E+02  0.10566000000E+00 0. -1.
         22   -1    0    0    0    0 -0.00000000000E+00 -0.00000000000E+00 -0.27252644103E+02  0.27252644103E+02  0.00000000000E+00 0.  1.
         13    1    1    2    0    0 -0.26624449178E+02 -0.84561783104E+01 -0.72549267717E+01  0.28861971037E+02  0.10566000000E+00 0.  1.
        996    1    1    2    0    0  0.26624449178E+02  0.84561783104E+01  0.80002226844E+02  0.98390673062E+02  0.50000000000E+02 0.  0.
<mgrwt>
<rscale>  0 0.57274499E+02</rscale>
<asrwt>0</asrwt>
<pdfrwt beam="1">  1       13 0.10000000E+01 0.57274499E+02</pdfrwt>
<pdfrwt beam="2">  1       22 0.27252664E+00 0.57274499E+02</pdfrwt>
<totfact> 0.25068457E-01</totfact>
</mgrwt>
</event>
<event>
 4    1  0.2503484E+000  0.5111491E+02  0.7957747E-01  0.1439419E+00
         13   -1    0    0    0    0  0.00000000000E+00  0.00000000000E+00  0.99999944180E+02  0.10000000000E+03  0.10566000000E+00 0. -1.
         22   -1    0    0    0    0 -0.00000000000E+00 -0.00000000000E+00 -0.13832960058E+02  0.13832960058E+02  0.00000000000E+00 0. -1.
         13    1    1    2    0    0 -0.38318884499E+01  0.99020760869E+01  0.50253112976E+02  0.51362642141E+02  0.10566000000E+00 0.  1.
        996    1    1    2    0    0  0.38318884499E+01 -0.99020760869E+01  0.35913871145E+02  0.62470317916E+02  0.50000000000E+02 0.  0.
<mgrwt>
<rscale>  0 0.51114914E+02</rscale>
<asrwt>0</asrwt>
<pdfrwt beam="1">  1       13 0.10000000E+01 0.51114914E+02</pdfrwt>
<pdfrwt beam="2">  1       22 0.13832984E+00 0.51114914E+02</pdfrwt>
<totfact> 0.85818130E-01</totfact>
</mgrwt>
</event>
<event>
 4    1  0.2503484E+000  0.5237750E+02  0.7957747E-01  0.1432924E+00
         13   -1    0    0    0    0  0.00000000000E+00  0.00000000000E+00  0.99999944182E+02  0.10000000000E+03  0.10566000000E+00 0.  1.
         22   -1    0    0    0    0 -0.00000000000E+00 -0.00000000000E+00 -0.13233877982E+02  0.13233877982E+02  0.00000000000E+00 0.  1.
         13    1    1    2    0    0 -0.12661922911E+02  0.91147268383E+01  0.54838146797E+01  0.16537409852E+02  0.10566000000E+00 0. -1.
        996    1    1    2    0    0  0.12661922911E+02 -0.91147268383E+01  0.81282251520E+02  0.96696468132E+02  0.50000000000E+02 0.  0.
<mgrwt>
<rscale>  0 0.52377500E+02</rscale>
<asrwt>0</asrwt>
<pdfrwt beam="1">  1       13 0.10000000E+01 0.52377500E+02</pdfrwt>
<pdfrwt beam="2">  1       22 0.13233902E+00 0.52377500E+02</pdfrwt>
<totfact> 0.92363114E-01</totfact>
</mgrwt>
</event>
<event>
 4    1  0.2503484E+000  0.5111225E+02  0.7957747E-01  0.1439433E+00
         13   -1    0    0    0    0  0.00000000000E+00  0.00000000000E+00  0.99999944175E+02  0.99999999996E+02  0.10566000000E+00 0. -1.
         22   -1    0    0    0    0 -0.00000000000E+00 -0.00000000000E+00 -0.11525385413E+02  0.11525385413E+02  0.00000000000E+00 0.  1.
         13    1    1    2    0    0  0.95250930615E+01  0.46620201622E+01  0.15930595719E+01  0.10724310358E+02  0.10566000000E+00 0.  1.
        996    1    1    2    0    0 -0.95250930615E+01 -0.46620201622E+01  0.86881499190E+02  0.10080107505E+03  0.50000000000E+02 0.  0.
<mgrwt>
<rscale>  0 0.51112247E+02</rscale>
<asrwt>0</asrwt>
<pdfrwt beam="1">  1       13 0.10000000E+01 0.51112247E+02</pdfrwt>
<pdfrwt beam="2">  1       22 0.11525410E+00 0.51112247E+02</pdfrwt>
<totfact> 0.11406279E+00</totfact>
</mgrwt>
</event>
<event>
 4    1  0.2503484E+000  0.5116442E+02  0.7957747E-01  0.1439160E+00
         13   -1    0    0    0    0  0.00000000000E+00  0.00000000000E+00  0.99999944175E+02  0.99999999995E+02  0.10566000000E+00 0.  1.
         22   -1    0    0    0    0 -0.00000000000E+00 -0.00000000000E+00 -0.24817592466E+02  0.24817592466E+02  0.00000000000E+00 0.  1.
         13    1    1    2    0    0 -0.88072148071E+01 -0.63427488850E+01 -0.16543922188E+02  0.19786612178E+02  0.10566000000E+00 0. -1.
        996    1    1    2    0    0  0.88072148071E+01  0.63427488850E+01  0.91726273898E+02  0.10503098028E+03  0.50000000000E+02 0.  0.
<mgrwt>
<rscale>  0 0.51164416E+02</rscale>
<asrwt>0</asrwt>
<pdfrwt beam="1">  1       13 0.10000000E+01 0.51164416E+02</pdfrwt>
<pdfrwt beam="2">  1       22 0.24817613E+00 0.51164416E+02</pdfrwt>
<totfact> 0.29867226E-01</totfact>
</mgrwt>
</event>
<event>
 4    1  0.2503484E+000  0.5315966E+02  0.7957747E-01  0.1429008E+00
         13   -1    0    0    0    0  0.00000000000E+00  0.00000000000E+00  0.99999944175E+02  0.99999999995E+02  0.10566000000E+00 0. -1.
         22   -1    0    0    0    0 -0.00000000000E+00 -0.00000000000E+00 -0.26991087788E+02  0.26991087788E+02  0.00000000000E+00 0.  1.
         13    1    1    2    0    0  0.16256108100E+02 -0.78542156746E+01 -0.15466683132E+02  0.23773497966E+02  0.10566000000E+00 0.  1.
        996    1    1    2    0    0 -0.16256108100E+02  0.78542156746E+01  0.88475539519E+02  0.10321758982E+03  0.50000000000E+02 0.  0.
<mgrwt>
<rscale>  0 0.53159663E+02</rscale>
<asrwt>0</asrwt>
<pdfrwt beam="1">  1       13 0.10000000E+01 0.53159663E+02</pdfrwt>
<pdfrwt beam="2">  1       22 0.26991108E+00 0.53159663E+02</pdfrwt>
<totfact> 0.25401719E-01</totfact>
</mgrwt>
</event>
<event>
 4    1  0.2503484E+000  0.6937783E+02  0.7957747E-01  0.1362222E+00
         13   -1    0    0    0    0  0.00000000000E+00  0.00000000000E+00  0.99999944181E+02  0.10000000000E+03  0.10566000000E+00 0. -1.
         22   -1    0    0    0    0 -0.00000000000E+00 -0.00000000000E+00 -0.34512008159E+02  0.34512008159E+02  0.00000000000E+00 0.  1.
         13    1    1    2    0    0  0.46463160825E+01 -0.47871649663E+02  0.25614478590E+02  0.54492162483E+02  0.10566000000E+00 0.  1.
        996    1    1    2    0    0 -0.46463160825E+01  0.47871649663E+02  0.39873457432E+02  0.80019845677E+02  0.50000000000E+02 0.  0.
<mgrwt>
<rscale>  0 0.69377829E+02</rscale>
<asrwt>0</asrwt>
<pdfrwt beam="1">  1       13 0.10000000E+01 0.69377829E+02</pdfrwt>
<pdfrwt beam="2">  1       22 0.34512026E+00 0.69377829E+02</pdfrwt>
<totfact> 0.16361131E-01</totfact>
</mgrwt>
</event>
<event>
 4    1  0.2503484E+000  0.6553598E+02  0.7957747E-01  0.1375967E+00
         13   -1    0    0    0    0  0.00000000000E+00  0.00000000000E+00  0.99999944185E+02  0.10000000000E+03  0.10566000000E+00 0.  1.
         22   -1    0    0    0    0 -0.00000000000E+00 -0.00000000000E+00 -0.43434925040E+02  0.43434925040E+02  0.00000000000E+00 0. -1.
         13    1    1    2    0    0 -0.27687519420E+02  0.32068152566E+02 -0.16335315946E+02  0.45407255497E+02  0.10566000000E+00 0. -1.
        996    1    1    2    0    0  0.27687519420E+02 -0.32068152566E+02  0.72900335091E+02  0.98027669548E+02  0.50000000000E+02 0.  0.
<mgrwt>
<rscale>  0 0.65535984E+02</rscale>
<asrwt>0</asrwt>
<pdfrwt beam="1">  1       13 0.10000000E+01 0.65535984E+02</pdfrwt>
<pdfrwt beam="2">  1       22 0.43434941E+00 0.65535984E+02</pdfrwt>
<totfact> 0.10547745E-01</totfact>
</mgrwt>
</event>
<event>
 4    1  0.2503484E+000  0.5420593E+02  0.7957747E-01  0.1423892E+00
         13   -1    0    0    0    0  0.00000000000E+00  0.00000000000E+00  0.99999944176E+02  0.99999999996E+02  0.10566000000E+00 0.  1.
         22   -1    0    0    0    0 -0.00000000000E+00 -0.00000000000E+00 -0.37539565825E+02  0.37539565825E+02  0.00000000000E+00 0. -1.
         13    1    1    2    0    0 -0.53214553272E+01  0.20247580977E+02 -0.26251716672E+02  0.33577465873E+02  0.10566000000E+00 0. -1.
        996    1    1    2    0    0  0.53214553272E+01 -0.20247580977E+02  0.88712095023E+02  0.10396209995E+03  0.50000000000E+02 0.  0.
<mgrwt>
<rscale>  0 0.54205926E+02</rscale>
<asrwt>0</asrwt>
<pdfrwt beam="1">  1       13 0.10000000E+01 0.54205926E+02</pdfrwt>
<pdfrwt beam="2">  1       22 0.37539583E+00 0.54205926E+02</pdfrwt>
<totfact> 0.13921950E-01</totfact>
</mgrwt>
</event>
<event>
 4    1  0.2503484E+000  0.5150027E+02  0.7957747E-01  0.1437414E+00
         13   -1    0    0    0    0  0.00000000000E+00  0.00000000000E+00  0.99999944178E+02  0.99999999998E+02  0.10566000000E+00 0. -1.
         22   -1    0    0    0    0 -0.00000000000E+00 -0.00000000000E+00 -0.21106986205E+02  0.21106986205E+02  0.00000000000E+00 0.  1.
         13    1    1    2    0    0  0.10065212449E+02 -0.71392607590E+01 -0.11631546023E+02  0.16958230237E+02  0.10566000000E+00 0.  1.
        996    1    1    2    0    0 -0.10065212449E+02  0.71392607590E+01  0.90524503996E+02  0.10414875597E+03  0.50000000000E+02 0.  0.
<mgrwt>
<rscale>  0 0.51500267E+02</rscale>
<asrwt>0</asrwt>
<pdfrwt beam="1">  1       13 0.10000000E+01 0.51500267E+02</pdfrwt>
<pdfrwt beam="2">  1       22 0.21107008E+00 0.51500267E+02</pdfrwt>
<totfact> 0.40902159E-01</totfact>
</mgrwt>
</event>
<event>
 4    1  0.2503484E+000  0.5768653E+02  0.7957747E-01  0.1407805E+00
         13   -1    0    0    0    0  0.00000000000E+00  0.00000000000E+00  0.99999944177E+02  0.99999999997E+02  0.10566000000E+00 0. -1.
         22   -1    0    0    0    0 -0.00000000000E+00 -0.00000000000E+00 -0.44552329709E+02  0.44552329709E+02  0.00000000000E+00 0.  1.
         13    1    1    2    0    0 -0.44702328197E+01  0.28420982652E+02 -0.29928371059E+02  0.41514501016E+02  0.10566000000E+00 0.  1.
        996    1    1    2    0    0  0.44702328197E+01 -0.28420982652E+02  0.85375985527E+02  0.10303782869E+03  0.50000000000E+02 0.  0.
<mgrwt>
<rscale>  0 0.57686526E+02</rscale>
<asrwt>0</asrwt>
<pdfrwt beam="1">  1       13 0.10000000E+01 0.57686526E+02</pdfrwt>
<pdfrwt beam="2">  1       22 0.44552345E+00 0.57686526E+02</pdfrwt>
<totfact> 0.99208150E-02</totfact>
</mgrwt>
</event>
<event>
 4    1  0.2503484E+000  0.5546720E+02  0.7957747E-01  0.1417902E+00
         13   -1    0    0    0    0  0.00000000000E+00  0.00000000000E+00  0.99999944177E+02  0.99999999997E+02  0.10566000000E+00 0. -1.
         22   -1    0    0    0    0 -0.00000000000E+00 -0.00000000000E+00 -0.65442432171E+02  0.65442432171E+02  0.00000000000E+00 0.  1.
         13    1    1    2    0    0  0.41089488333E+01 -0.23658546722E+02 -0.55048604333E+02  0.60058057716E+02  0.10566000000E+00 0.  1.
        996    1    1    2    0    0 -0.41089488333E+01  0.23658546722E+02  0.89606116339E+02  0.10538437445E+03  0.50000000000E+02 0.  0.
<mgrwt>
<rscale>  0 0.55467200E+02</rscale>
<asrwt>0</asrwt>
<pdfrwt beam="1">  1       13 0.10000000E+01 0.55467200E+02</pdfrwt>
<pdfrwt beam="2">  1       22 0.65442442E+00 0.55467200E+02</pdfrwt>
<totfact> 0.87027598E-02</totfact>
</mgrwt>
</event>
<event>
 4    1  0.2503484E+000  0.5899381E+02  0.7957747E-01  0.1402103E+00
         13   -1    0    0    0    0  0.00000000000E+00  0.00000000000E+00  0.99999944174E+02  0.99999999994E+02  0.10566000000E+00 0.  1.
         22   -1    0    0    0    0 -0.00000000000E+00 -0.00000000000E+00 -0.20403747997E+02  0.20403747997E+02  0.00000000000E+00 0. -1.
         13    1    1    2    0    0  0.30763516172E+02 -0.58202567709E+01  0.25949215417E+02  0.40665000442E+02  0.10566000000E+00 0. -1.
        996    1    1    2    0    0 -0.30763516172E+02  0.58202567709E+01  0.53646980760E+02  0.79738747549E+02  0.50000000000E+02 0.  0.
<mgrwt>
<rscale>  0 0.58993807E+02</rscale>
<asrwt>0</asrwt>
<pdfrwt beam="1">  1       13 0.10000000E+01 0.58993807E+02</pdfrwt>
<pdfrwt beam="2">  1       22 0.20403770E+00 0.58993807E+02</pdfrwt>
<totfact> 0.44153372E-01</totfact>
</mgrwt>
</event>
<event>
 4    1  0.2503484E+000  0.5530073E+02  0.7957747E-01  0.1418682E+00
         13   -1    0    0    0    0  0.00000000000E+00  0.00000000000E+00  0.99999944177E+02  0.99999999997E+02  0.10566000000E+00 0.  1.
         22   -1    0    0    0    0 -0.00000000000E+00 -0.00000000000E+00 -0.17717672857E+02  0.17717672857E+02  0.00000000000E+00 0.  1.
         13    1    1    2    0    0  0.15417022818E+02  0.17902142230E+02  0.76574558698E+01  0.24835842716E+02  0.10566000000E+00 0. -1.
        996    1    1    2    0    0 -0.15417022818E+02 -0.17902142230E+02  0.74624815449E+02  0.92881830138E+02  0.50000000000E+02 0.  0.
<mgrwt>
<rscale>  0 0.55300735E+02</rscale>
<asrwt>0</asrwt>
<pdfrwt beam="1">  1       13 0.10000000E+01 0.55300735E+02</pdfrwt>
<pdfrwt beam="2">  1       22 0.17717696E+00 0.55300735E+02</pdfrwt>
<totfact> 0.56859075E-01</totfact>
</mgrwt>
</event>
<event>
 4    1  0.2503484E+000  0.6295376E+02  0.7957747E-01  0.1385838E+00
         13   -1    0    0    0    0  0.00000000000E+00  0.00000000000E+00  0.99999944175E+02  0.99999999995E+02  0.10566000000E+00 0.  1.
         22   -1    0    0    0    0 -0.00000000000E+00 -0.00000000000E+00 -0.29385237599E+02  0.29385237599E+02  0.00000000000E+00 0.  1.
         13    1    1    2    0    0  0.37673547170E+01 -0.38065515167E+02  0.52087466577E+01  0.38604644957E+02  0.10566000000E+00 0. -1.
        996    1    1    2    0    0 -0.37673547170E+01  0.38065515167E+02  0.65405959918E+02  0.90780592636E+02  0.50000000000E+02 0.  0.
<mgrwt>
<rscale>  0 0.62953764E+02</rscale>
<asrwt>0</asrwt>
<pdfrwt beam="1">  1       13 0.10000000E+01 0.62953764E+02</pdfrwt>
<pdfrwt beam="2">  1       22 0.29385257E+00 0.62953764E+02</pdfrwt>
<totfact> 0.21814905E-01</totfact>
</mgrwt>
</event>
<event>
 4    1  0.2503484E+000  0.5123340E+02  0.7957747E-01  0.1438800E+00
         13   -1    0    0    0    0  0.00000000000E+00  0.00000000000E+00  0.99999944173E+02  0.99999999993E+02  0.10566000000E+00 0. -1.
         22   -1    0    0    0    0 -0.00000000000E+00 -0.00000000000E+00 -0.21758120130E+02  0.21758120130E+02  0.00000000000E+00 0.  1.
         13    1    1    2    0    0  0.62870649989E+01  0.92376484506E+01 -0.12983735942E+02  0.17130379396E+02  0.10566000000E+00 0.  1.
        996    1    1    2    0    0 -0.62870649989E+01 -0.92376484506E+01  0.91225559985E+02  0.10462774073E+03  0.50000000000E+02 0.  0.
<mgrwt>
<rscale>  0 0.51233401E+02</rscale>
<asrwt>0</asrwt>
<pdfrwt beam="1">  1       13 0.10000000E+01 0.51233401E+02</pdfrwt>
<pdfrwt beam="2">  1       22 0.21758142E+00 0.51233401E+02</pdfrwt>
<totfact> 0.38581049E-01</totfact>
</mgrwt>
</event>
<event>
 4    1  0.2503484E+000  0.5243106E+02  0.7957747E-01  0.1432653E+00
         13   -1    0    0    0    0  0.00000000000E+00  0.00000000000E+00  0.99999944173E+02  0.99999999994E+02  0.10566000000E+00 0.  1.
         22   -1    0    0    0    0 -0.00000000000E+00 -0.00000000000E+00 -0.12086996360E+02  0.12086996360E+02  0.00000000000E+00 0.  1.
         13    1    1    2    0    0  0.14550598597E+02  0.61070881405E+01  0.30467202017E+02  0.34311485072E+02  0.10566000000E+00 0. -1.
        996    1    1    2    0    0 -0.14550598597E+02 -0.61070881405E+01  0.57445745796E+02  0.77775511282E+02  0.50000000000E+02 0.  0.
<mgrwt>
<rscale>  0 0.52431064E+02</rscale>
<asrwt>0</asrwt>
<pdfrwt beam="1">  1       13 0.10000000E+01 0.52431064E+02</pdfrwt>
<pdfrwt beam="2">  1       22 0.12087021E+00 0.52431064E+02</pdfrwt>
<totfact> 0.10641136E+00</totfact>
</mgrwt>
</event>
<event>
 4    1  0.2503484E+000  0.5182173E+02  0.7957747E-01  0.1435756E+00
         13   -1    0    0    0    0  0.00000000000E+00  0.00000000000E+00  0.99999944178E+02  0.99999999998E+02  0.10566000000E+00 0.  1.
         22   -1    0    0    0    0 -0.00000000000E+00 -0.00000000000E+00 -0.10745167719E+02  0.10745167719E+02  0.00000000000E+00 0.  1.
         13    1    1    2    0    0 -0.18319688168E+00 -0.13618310527E+02  0.21368885967E+02  0.25340331376E+02  0.10566000000E+00 0. -1.
        996    1    1    2    0    0  0.18319688168E+00  0.13618310527E+02  0.67885890492E+02  0.85404836342E+02  0.50000000000E+02 0.  0.
<mgrwt>
<rscale>  0 0.51821732E+02</rscale>
<asrwt>0</asrwt>
<pdfrwt beam="1">  1       13 0.10000000E+01 0.51821732E+02</pdfrwt>
<pdfrwt beam="2">  1       22 0.10745193E+00 0.51821732E+02</pdfrwt>
<totfact> 0.12685470E+00</totfact>
</mgrwt>
</event>
<event>
 4    1  0.2503484E+000  0.5322675E+02  0.7957747E-01  0.1428676E+00
         13   -1    0    0    0    0  0.00000000000E+00  0.00000000000E+00  0.99999944180E+02  0.10000000000E+03  0.10566000000E+00 0. -1.
         22   -1    0    0    0    0 -0.00000000000E+00 -0.00000000000E+00 -0.26488017450E+02  0.26488017450E+02  0.00000000000E+00 0.  1.
         13    1    1    2    0    0 -0.18246288834E+02 -0.40047249457E+00 -0.14718117265E+02  0.23446141992E+02  0.10566000000E+00 0.  1.
        996    1    1    2    0    0  0.18246288834E+02  0.40047249457E+00  0.88230043996E+02  0.10304187546E+03  0.50000000000E+02 0.  0.
<mgrwt>
<rscale>  0 0.53226755E+02</rscale>
<asrwt>0</asrwt>
<pdfrwt beam="1">  1       13 0.10000000E+01 0.53226755E+02</pdfrwt>
<pdfrwt beam="2">  1       22 0.26488038E+00 0.53226755E+02</pdfrwt>
<totfact> 0.26358619E-01</totfact>
</mgrwt>
</event>
<event>
 4    1  0.2503484E+000  0.5603385E+02  0.7957747E-01  0.1415272E+00
         13   -1    0    0    0    0  0.00000000000E+00  0.00000000000E+00  0.99999944182E+02  0.10000000000E+03  0.10566000000E+00 0. -1.
         22   -1    0    0    0    0 -0.00000000000E+00 -0.00000000000E+00 -0.22446389658E+02  0.22446389658E+02  0.00000000000E+00 0.  1.
         13    1    1    2    0    0 -0.15496342905E+02  0.19991389418E+02 -0.17379643075E+01  0.25353973618E+02  0.10566000000E+00 0.  1.
        996    1    1    2    0    0  0.15496342905E+02 -0.19991389418E+02  0.79291518832E+02  0.97092416042E+02  0.50000000000E+02 0.  0.
<mgrwt>
<rscale>  0 0.56033850E+02</rscale>
<asrwt>0</asrwt>
<pdfrwt beam="1">  1       13 0.10000000E+01 0.56033850E+02</pdfrwt>
<pdfrwt beam="2">  1       22 0.22446411E+00 0.56033850E+02</pdfrwt>
<totfact> 0.36622949E-01</totfact>
</mgrwt>
</event>
<event>
 4    1  0.2503484E+000  0.5395494E+02  0.7957747E-01  0.1425107E+00
         13   -1    0    0    0    0  0.00000000000E+00  0.00000000000E+00  0.99999944180E+02  0.10000000000E+03  0.10566000000E+00 0.  1.
         22   -1    0    0    0    0 -0.00000000000E+00 -0.00000000000E+00 -0.41109952685E+02  0.41109952685E+02  0.00000000000E+00 0. -1.
         13    1    1    2    0    0 -0.17969343607E+02  0.93935138164E+01 -0.30543594200E+02  0.36661392802E+02  0.10566000000E+00 0. -1.
        996    1    1    2    0    0  0.17969343607E+02 -0.93935138164E+01  0.89433585695E+02  0.10444855988E+03  0.50000000000E+02 0.  0.
<mgrwt>
<rscale>  0 0.53954939E+02</rscale>
<asrwt>0</asrwt>
<pdfrwt beam="1">  1       13 0.10000000E+01 0.53954939E+02</pdfrwt>
<pdfrwt beam="2">  1       22 0.41109969E+00 0.53954939E+02</pdfrwt>
<totfact> 0.11746500E-01</totfact>
</mgrwt>
</event>
<event>
 4    1  0.2503484E+000  0.5138134E+02  0.7957747E-01  0.1438030E+00
         13   -1    0    0    0    0  0.00000000000E+00  0.00000000000E+00  0.99999944181E+02  0.10000000000E+03  0.10566000000E+00 0.  1.
         22   -1    0    0    0    0 -0.00000000000E+00 -0.00000000000E+00 -0.12834218167E+02  0.12834218167E+02  0.00000000000E+00 0. -1.
         13    1    1    2    0    0  0.11830776556E+02  0.27409630550E+00  0.21445365214E+00  0.11836365874E+02  0.10566000000E+00 0. -1.
        996    1    1    2    0    0 -0.11830776556E+02 -0.27409630550E+00  0.86951272362E+02  0.10099785229E+03  0.50000000000E+02 0.  0.
<mgrwt>
<rscale>  0 0.51381343E+02</rscale>
<asrwt>0</asrwt>
<pdfrwt beam="1">  1       13 0.10000000E+01 0.51381343E+02</pdfrwt>
<pdfrwt beam="2">  1       22 0.12834243E+00 0.51381343E+02</pdfrwt>
<totfact> 0.96729777E-01</totfact>
</mgrwt>
</event>
<event>
 4    1  0.2503484E+000  0.5154889E+02  0.7957747E-01  0.1437162E+00
         13   -1    0    0    0    0  0.00000000000E+00  0.00000000000E+00  0.99999944181E+02  0.10000000000E+03  0.10566000000E+00 0. -1.
         22   -1    0    0    0    0 -0.00000000000E+00 -0.00000000000E+00 -0.10326246414E+02  0.10326246414E+02  0.00000000000E+00 0. -1.
         13    1    1    2    0    0 -0.12220974346E+02 -0.28171535807E+01  0.20962014749E+02  0.24427562192E+02  0.10566000000E+00 0.  1.
        996    1    1    2    0    0  0.12220974346E+02  0.28171535807E+01  0.68711683017E+02  0.85898684223E+02  0.50000000000E+02 0.  0.
<mgrwt>
<rscale>  0 0.51548895E+02</rscale>
<asrwt>0</asrwt>
<pdfrwt beam="1">  1       13 0.10000000E+01 0.51548895E+02</pdfrwt>
<pdfrwt beam="2">  1       22 0.10326271E+00 0.51548895E+02</pdfrwt>
<totfact> 0.13440035E+00</totfact>
</mgrwt>
</event>
<event>
 4    1  0.2503484E+000  0.5148855E+02  0.7957747E-01  0.1437474E+00
         13   -1    0    0    0    0  0.00000000000E+00  0.00000000000E+00  0.99999944181E+02  0.10000000000E+03  0.10566000000E+00 0. -1.
         22   -1    0    0    0    0 -0.00000000000E+00 -0.00000000000E+00 -0.10382882530E+02  0.10382882530E+02  0.00000000000E+00 0. -1.
         13    1    1    2    0    0  0.87405707913E+01 -0.86413792271E+01  0.24113109531E+02  0.27065184795E+02  0.10566000000E+00 0.  1.
        996    1    1    2    0    0 -0.87405707913E+01  0.86413792271E+01  0.65503952121E+02  0.83317697737E+02  0.50000000000E+02 0.  0.
<mgrwt>
<rscale>  0 0.51488552E+02</rscale>
<asrwt>0</asrwt>
<pdfrwt beam="1">  1       13 0.10000000E+01 0.51488552E+02</pdfrwt>
<pdfrwt beam="2">  1       22 0.10382908E+00 0.51488552E+02</pdfrwt>
<totfact> 0.13331069E+00</totfact>
</mgrwt>
</event>
<event>
 4    1  0.2503484E+000  0.5160560E+02  0.7957747E-01  0.1436869E+00
         13   -1    0    0    0    0  0.00000000000E+00  0.00000000000E+00  0.99999944180E+02  0.10000000000E+03  0.10566000000E+00 0.  1.
         22   -1    0    0    0    0 -0.00000000000E+00 -0.00000000000E+00 -0.10726416983E+02  0.10726416983E+02  0.00000000000E+00 0.  1.
         13    1    1    2    0    0 -0.89891552218E+01 -0.90737757548E+01  0.10404585640E+02  0.16474370532E+02  0.10566000000E+00 0. -1.
        996    1    1    2    0    0  0.89891552218E+01  0.90737757548E+01  0.78868941557E+02  0.94252046452E+02  0.50000000000E+02 0.  0.
<mgrwt>
<rscale>  0 0.51605604E+02</rscale>
<asrwt>0</asrwt>
<pdfrwt beam="1">  1       13 0.10000000E+01 0.51605604E+02</pdfrwt>
<pdfrwt beam="2">  1       22 0.10726442E+00 0.51605604E+02</pdfrwt>
<totfact> 0.12711795E+00</totfact>
</mgrwt>
</event>
<event>
 4    1  0.2503484E+000  0.6177648E+02  0.7957747E-01  0.1390524E+00
         13   -1    0    0    0    0  0.00000000000E+00  0.00000000000E+00  0.99999944175E+02  0.99999999995E+02  0.10566000000E+00 0. -1.
         22   -1    0    0    0    0 -0.00000000000E+00 -0.00000000000E+00 -0.24069179548E+02  0.24069179548E+02  0.00000000000E+00 0. -1.
         13    1    1    2    0    0 -0.31190329056E+02 -0.18533661026E+02  0.25964056612E+02  0.44614757844E+02  0.10566000000E+00 0.  1.
        996    1    1    2    0    0  0.31190329056E+02  0.18533661026E+02  0.49966708015E+02  0.79454421699E+02  0.50000000000E+02 0.  0.
<mgrwt>
<rscale>  0 0.61776478E+02</rscale>
<asrwt>0</asrwt>
<pdfrwt beam="1">  1       13 0.10000000E+01 0.61776478E+02</pdfrwt>
<pdfrwt beam="2">  1       22 0.24069201E+00 0.61776478E+02</pdfrwt>
<totfact> 0.32219054E-01</totfact>
</mgrwt>
</event>
<event>
 4    1  0.2503484E+000  0.5285399E+02  0.7957747E-01  0.1430529E+00
         13   -1    0    0    0    0  0.00000000000E+00  0.00000000000E+00  0.99999944175E+02  0.99999999995E+02  0.10566000000E+00 0.  1.
         22   -1    0    0    0    0 -0.00000000000E+00 -0.00000000000E+00 -0.38269610533E+02  0.38269610533E+02  0.00000000000E+00 0. -1.
         13    1    1    2    0    0  0.13228630546E+02  0.10887953363E+02 -0.28758610702E+02  0.33475558966E+02  0.10566000000E+00 0. -1.
        996    1    1    2    0    0 -0.13228630546E+02 -0.10887953363E+02  0.90488944344E+02  0.10479405156E+03  0.50000000000E+02 0.  0.
<mgrwt>
<rscale>  0 0.52853989E+02</rscale>
<asrwt>0</asrwt>
<pdfrwt beam="1">  1       13 0.10000000E+01 0.52853989E+02</pdfrwt>
<pdfrwt beam="2">  1       22 0.38269628E+00 0.52853989E+02</pdfrwt>
<totfact> 0.13432084E-01</totfact>
</mgrwt>
</event>
<event>
 4    1  0.2503484E+000  0.5135573E+02  0.7957747E-01  0.1438163E+00
         13   -1    0    0    0    0  0.00000000000E+00  0.00000000000E+00  0.99999944180E+02  0.10000000000E+03  0.10566000000E+00 0. -1.
         22   -1    0    0    0    0 -0.00000000000E+00 -0.00000000000E+00 -0.16080919913E+02  0.16080919913E+02  0.00000000000E+00 0.  1.
         13    1    1    2    0    0  0.61510502873E+00 -0.11706087150E+02 -0.55114689871E+01  0.12953697734E+02  0.10566000000E+00 0.  1.
        996    1    1    2    0    0 -0.61510502873E+00  0.11706087150E+02  0.89430493254E+02  0.10312722218E+03  0.50000000000E+02 0.  0.
<mgrwt>
<rscale>  0 0.51355728E+02</rscale>
<asrwt>0</asrwt>
<pdfrwt beam="1">  1       13 0.10000000E+01 0.51355728E+02</pdfrwt>
<pdfrwt beam="2">  1       22 0.16080943E+00 0.51355728E+02</pdfrwt>
<totfact> 0.66858212E-01</totfact>
</mgrwt>
</event>
<event>
 4    1  0.2503484E+000  0.5284252E+02  0.7957747E-01  0.1430586E+00
         13   -1    0    0    0    0  0.00000000000E+00  0.00000000000E+00  0.99999944179E+02  0.99999999999E+02  0.10566000000E+00 0.  1.
         22   -1    0    0    0    0 -0.00000000000E+00 -0.00000000000E+00 -0.12456123853E+02  0.12456123853E+02  0.00000000000E+00 0.  1.
         13    1    1    2    0    0 -0.15531907410E+02  0.71478826203E+01  0.15264554150E+02  0.22920518126E+02  0.10566000000E+00 0. -1.
        996    1    1    2    0    0  0.15531907410E+02 -0.71478826203E+01  0.72279266176E+02  0.89535605726E+02  0.50000000000E+02 0.  0.
<mgrwt>
<rscale>  0 0.52842524E+02</rscale>
<asrwt>0</asrwt>
<pdfrwt beam="1">  1       13 0.10000000E+01 0.52842524E+02</pdfrwt>
<pdfrwt beam="2">  1       22 0.12456148E+00 0.52842524E+02</pdfrwt>
<totfact> 0.10167290E+00</totfact>
</mgrwt>
</event>
<event>
 4    1  0.2503484E+000  0.5488651E+02  0.7957747E-01  0.1420636E+00
         13   -1    0    0    0    0  0.00000000000E+00  0.00000000000E+00  0.99999944177E+02  0.99999999997E+02  0.10566000000E+00 0.  1.
         22   -1    0    0    0    0 -0.00000000000E+00 -0.00000000000E+00 -0.20899655907E+02  0.20899655907E+02  0.00000000000E+00 0. -1.
         13    1    1    2    0    0  0.82807427583E+01  0.21070306299E+02 -0.22652907715E+01  0.22752389204E+02  0.10566000000E+00 0. -1.
        996    1    1    2    0    0 -0.82807427583E+01 -0.21070306299E+02  0.81365579041E+02  0.98147266701E+02  0.50000000000E+02 0.  0.
<mgrwt>
<rscale>  0 0.54886506E+02</rscale>
<asrwt>0</asrwt>
<pdfrwt beam="1">  1       13 0.10000000E+01 0.54886506E+02</pdfrwt>
<pdfrwt beam="2">  1       22 0.20899678E+00 0.54886506E+02</pdfrwt>
<totfact> 0.41917358E-01</totfact>
</mgrwt>
</event>
<event>
 4    1  0.2503484E+000  0.5265624E+02  0.7957747E-01  0.1431519E+00
         13   -1    0    0    0    0  0.00000000000E+00  0.00000000000E+00  0.99999944184E+02  0.10000000000E+03  0.10566000000E+00 0.  1.
         22   -1    0    0    0    0 -0.00000000000E+00 -0.00000000000E+00 -0.40618067283E+02  0.40618067283E+02  0.00000000000E+00 0. -1.
         13    1    1    2    0    0 -0.99410399556E+01 -0.13185403438E+02 -0.31510173274E+02  0.35575009810E+02  0.10566000000E+00 0. -1.
        996    1    1    2    0    0  0.99410399556E+01  0.13185403438E+02  0.90892050175E+02  0.10504305748E+03  0.50000000000E+02 0.  0.
<mgrwt>
<rscale>  0 0.52656236E+02</rscale>
<asrwt>0</asrwt>
<pdfrwt beam="1">  1       13 0.10000000E+01 0.52656236E+02</pdfrwt>
<pdfrwt beam="2">  1       22 0.40618084E+00 0.52656236E+02</pdfrwt>
<totfact> 0.12015204E-01</totfact>
</mgrwt>
</event>
<event>
 4    1  0.2503484E+000  0.5521777E+02  0.7957747E-01  0.1419072E+00
         13   -1    0    0    0    0  0.00000000000E+00  0.00000000000E+00  0.99999944175E+02  0.99999999996E+02  0.10566000000E+00 0.  1.
         22   -1    0    0    0    0 -0.00000000000E+00 -0.00000000000E+00 -0.16262471321E+02  0.16262471321E+02  0.00000000000E+00 0.  1.
         13    1    1    2    0    0 -0.11343215801E+02  0.20502029907E+02  0.13939927762E+02  0.27264161918E+02  0.10566000000E+00 0. -1.
        996    1    1    2    0    0  0.11343215801E+02 -0.20502029907E+02  0.69797545092E+02  0.88998309399E+02  0.50000000000E+02 0.  0.
<mgrwt>
<rscale>  0 0.55217767E+02</rscale>
<asrwt>0</asrwt>
<pdfrwt beam="1">  1       13 0.10000000E+01 0.55217767E+02</pdfrwt>
<pdfrwt beam="2">  1       22 0.16262495E+00 0.55217767E+02</pdfrwt>
<totfact> 0.66071391E-01</totfact>
</mgrwt>
</event>
<event>
 4    1  0.2503484E+000  0.5411594E+02  0.7957747E-01  0.1424327E+00
         13   -1    0    0    0    0  0.00000000000E+00  0.00000000000E+00  0.99999944181E+02  0.10000000000E+03  0.10566000000E+00 0.  1.
         22   -1    0    0    0    0 -0.00000000000E+00 -0.00000000000E+00 -0.15739654047E+02  0.15739654047E+02  0.00000000000E+00 0.  1.
         13    1    1    2    0    0  0.17617322423E+02  0.10870356615E+02  0.79211138186E+01  0.22165060579E+02  0.10566000000E+00 0. -1.
        996    1    1    2    0    0 -0.17617322423E+02 -0.10870356615E+02  0.76339176315E+02  0.93574593468E+02  0.50000000000E+02 0.  0.
<mgrwt>
<rscale>  0 0.54115938E+02</rscale>
<asrwt>0</asrwt>
<pdfrwt beam="1">  1       13 0.10000000E+01 0.54115938E+02</pdfrwt>
<pdfrwt beam="2">  1       22 0.15739678E+00 0.54115938E+02</pdfrwt>
<totfact> 0.69727492E-01</totfact>
</mgrwt>
</event>
<event>
 4    1  0.2503484E+000  0.5171977E+02  0.7957747E-01  0.1436280E+00
         13   -1    0    0    0    0  0.00000000000E+00  0.00000000000E+00  0.99999944184E+02  0.10000000000E+03  0.10566000000E+00 0.  1.
         22   -1    0    0    0    0 -0.00000000000E+00 -0.00000000000E+00 -0.12261366905E+02  0.12261366905E+02  0.00000000000E+00 0. -1.
         13    1    1    2    0    0  0.77672766483E+01  0.10705346411E+02  0.39643563564E+01  0.13808052494E+02  0.10566000000E+00 0. -1.
        996    1    1    2    0    0 -0.77672766483E+01 -0.10705346411E+02  0.83774220922E+02  0.98453314415E+02  0.50000000000E+02 0.  0.
<mgrwt>
<rscale>  0 0.51719774E+02</rscale>
<asrwt>0</asrwt>
<pdfrwt beam="1">  1       13 0.10000000E+01 0.51719774E+02</pdfrwt>
<pdfrwt beam="2">  1       22 0.12261391E+00 0.51719774E+02</pdfrwt>
<totfact> 0.10392647E+00</totfact>
</mgrwt>
</event>
<event>
 4    1  0.2503484E+000  0.5399100E+02  0.7957747E-01  0.1424932E+00
         13   -1    0    0    0    0  0.00000000000E+00  0.00000000000E+00  0.99999944177E+02  0.99999999997E+02  0.10566000000E+00 0. -1.
         22   -1    0    0    0    0 -0.00000000000E+00 -0.00000000000E+00 -0.14611838181E+02  0.14611838181E+02  0.00000000000E+00 0.  1.
         13    1    1    2    0    0 -0.31965826511E+01  0.20119879824E+02  0.36377272249E+02  0.41693462378E+02  0.10566000000E+00 0.  1.
        996    1    1    2    0    0  0.31965826511E+01 -0.20119879824E+02  0.49010833748E+02  0.72918375801E+02  0.50000000000E+02 0.  0.
<mgrwt>
<rscale>  0 0.53990997E+02</rscale>
<asrwt>0</asrwt>
<pdfrwt beam="1">  1       13 0.10000000E+01 0.53990997E+02</pdfrwt>
<pdfrwt beam="2">  1       22 0.14611862E+00 0.53990997E+02</pdfrwt>
<totfact> 0.78951868E-01</totfact>
</mgrwt>
</event>
<event>
 4    1  0.2503484E+000  0.5703326E+02  0.7957747E-01  0.1410721E+00
         13   -1    0    0    0    0  0.00000000000E+00  0.00000000000E+00  0.99999944171E+02  0.99999999991E+02  0.10566000000E+00 0. -1.
         22   -1    0    0    0    0 -0.00000000000E+00 -0.00000000000E+00 -0.21376504452E+02  0.21376504452E+02  0.00000000000E+00 0.  1.
         13    1    1    2    0    0 -0.12144332376E+02  0.24602997894E+02  0.51209999499E+02  0.58097052653E+02  0.10566000000E+00 0.  1.
        996    1    1    2    0    0  0.12144332376E+02 -0.24602997894E+02  0.27413440220E+02  0.63279451791E+02  0.50000000000E+02 0.  0.
<mgrwt>
<rscale>  0 0.57033256E+02</rscale>
<asrwt>0</asrwt>
<pdfrwt beam="1">  1       13 0.10000000E+01 0.57033256E+02</pdfrwt>
<pdfrwt beam="2">  1       22 0.21376526E+00 0.57033256E+02</pdfrwt>
<totfact> 0.40294437E-01</totfact>
</mgrwt>
</event>
<event>
 4    1  0.2503484E+000  0.5366227E+02  0.7957747E-01  0.1426533E+00
         13   -1    0    0    0    0  0.00000000000E+00  0.00000000000E+00  0.99999944179E+02  0.10000000000E+03  0.10566000000E+00 0.  1.
         22   -1    0    0    0    0 -0.00000000000E+00 -0.00000000000E+00 -0.15578083581E+02  0.15578083581E+02  0.00000000000E+00 0. -1.
         13    1    1    2    0    0 -0.19431182566E+02  0.14383058610E+01  0.56913053105E+01  0.20298810306E+02  0.10566000000E+00 0. -1.
        996    1    1    2    0    0  0.19431182566E+02 -0.14383058610E+01  0.78730555288E+02  0.95279273274E+02  0.50000000000E+02 0.  0.
<mgrwt>
<rscale>  0 0.53662273E+02</rscale>
<asrwt>0</asrwt>
<pdfrwt beam="1">  1       13 0.10000000E+01 0.53662273E+02</pdfrwt>
<pdfrwt beam="2">  1       22 0.15578107E+00 0.53662273E+02</pdfrwt>
<totfact> 0.70896483E-01</totfact>
</mgrwt>
</event>
<event>
 4    1  0.2503484E+000  0.6151647E+02  0.7957747E-01  0.1391576E+00
         13   -1    0    0    0    0  0.00000000000E+00  0.00000000000E+00  0.99999944184E+02  0.10000000000E+03  0.10566000000E+00 0.  1.
         22   -1    0    0    0    0 -0.00000000000E+00 -0.00000000000E+00 -0.44652266352E+02  0.44652266352E+02  0.00000000000E+00 0.  1.
         13    1    1    2    0    0  0.28183225022E+02  0.22135529095E+02 -0.24826945818E+02  0.43596607938E+02  0.10566000000E+00 0. -1.
        996    1    1    2    0    0 -0.28183225022E+02 -0.22135529095E+02  0.80174623650E+02  0.10105565842E+03  0.50000000000E+02 0.  0.
<mgrwt>
<rscale>  0 0.61516468E+02</rscale>
<asrwt>0</asrwt>
<pdfrwt beam="1">  1       13 0.10000000E+01 0.61516468E+02</pdfrwt>
<pdfrwt beam="2">  1       22 0.44652282E+00 0.61516468E+02</pdfrwt>
<totfact> 0.98896413E-02</totfact>
</mgrwt>
</event>
<event>
 4    1  0.2503484E+000  0.5178622E+02  0.7957747E-01  0.1435939E+00
         13   -1    0    0    0    0  0.00000000000E+00  0.00000000000E+00  0.99999944178E+02  0.99999999998E+02  0.10566000000E+00 0.  1.
         22   -1    0    0    0    0 -0.00000000000E+00 -0.00000000000E+00 -0.11073115068E+02  0.11073115068E+02  0.00000000000E+00 0.  1.
         13    1    1    2    0    0 -0.72282190827E+01  0.11382669078E+02  0.10494768071E+02  0.17086943183E+02  0.10566000000E+00 0. -1.
        996    1    1    2    0    0  0.72282190827E+01 -0.11382669078E+02  0.78432061039E+02  0.93986171883E+02  0.50000000000E+02 0.  0.
<mgrwt>
<rscale>  0 0.51786217E+02</rscale>
<asrwt>0</asrwt>
<pdfrwt beam="1">  1       13 0.10000000E+01 0.51786217E+02</pdfrwt>
<pdfrwt beam="2">  1       22 0.11073140E+00 0.51786217E+02</pdfrwt>
<totfact> 0.12130898E+00</totfact>
</mgrwt>
</event>
<event>
 4    1  0.2503484E+000  0.5124610E+02  0.7957747E-01  0.1438734E+00
         13   -1    0    0    0    0  0.00000000000E+00  0.00000000000E+00  0.99999944176E+02  0.99999999997E+02  0.10566000000E+00 0. -1.
         22   -1    0    0    0    0 -0.00000000000E+00 -0.00000000000E+00 -0.10396082534E+02  0.10396082534E+02  0.00000000000E+00 0.  1.
         13    1    1    2    0    0 -0.33805851703E+01 -0.10711413281E+02  0.71519414087E+01  0.13316311821E+02  0.10566000000E+00 0.  1.
        996    1    1    2    0    0  0.33805851703E+01  0.10711413281E+02  0.82451920234E+02  0.97079770709E+02  0.50000000000E+02 0.  0.
<mgrwt>
<rscale>  0 0.51246100E+02</rscale>
<asrwt>0</asrwt>
<pdfrwt beam="1">  1       13 0.10000000E+01 0.51246100E+02</pdfrwt>
<pdfrwt beam="2">  1       22 0.10396108E+00 0.51246100E+02</pdfrwt>
<totfact> 0.13298595E+00</totfact>
</mgrwt>
</event>
<event>
 4    1  0.2503484E+000  0.5191335E+02  0.7957747E-01  0.1435286E+00
         13   -1    0    0    0    0  0.00000000000E+00  0.00000000000E+00  0.99999944174E+02  0.99999999994E+02  0.10566000000E+00 0.  1.
         22   -1    0    0    0    0 -0.00000000000E+00 -0.00000000000E+00 -0.38398812127E+02  0.38398812127E+02  0.00000000000E+00 0. -1.
         13    1    1    2    0    0  0.13692427790E+02 -0.27410890321E+01 -0.30010674588E+02  0.33100572520E+02  0.10566000000E+00 0. -1.
        996    1    1    2    0    0 -0.13692427790E+02  0.27410890321E+01  0.91611806636E+02  0.10529823960E+03  0.50000000000E+02 0.  0.
<mgrwt>
<rscale>  0 0.51913352E+02</rscale>
<asrwt>0</asrwt>
<pdfrwt beam="1">  1       13 0.10000000E+01 0.51913352E+02</pdfrwt>
<pdfrwt beam="2">  1       22 0.38398829E+00 0.51913352E+02</pdfrwt>
<totfact> 0.13339475E-01</totfact>
</mgrwt>
</event>
<event>
 4    1  0.2503484E+000  0.5386705E+02  0.7957747E-01  0.1425534E+00
         13   -1    0    0    0    0  0.00000000000E+00  0.00000000000E+00  0.99999944185E+02  0.10000000000E+03  0.10566000000E+00 0.  1.
         22   -1    0    0    0    0 -0.00000000000E+00 -0.00000000000E+00 -0.14221001179E+02  0.14221001179E+02  0.00000000000E+00 0.  1.
         13    1    1    2    0    0 -0.47605820871E+01  0.19467810650E+02  0.13867721784E+02  0.24371780092E+02  0.10566000000E+00 0. -1.
        996    1    1    2    0    0  0.47605820871E+01 -0.19467810650E+02  0.71911221221E+02  0.89849221092E+02  0.50000000000E+02 0.  0.
<mgrwt>
<rscale>  0 0.53867047E+02</rscale>
<asrwt>0</asrwt>
<pdfrwt beam="1">  1       13 0.10000000E+01 0.53867047E+02</pdfrwt>
<pdfrwt beam="2">  1       22 0.14221025E+00 0.53867047E+02</pdfrwt>
<totfact> 0.82522830E-01</totfact>
</mgrwt>
</event>
<event>
 4    1  0.2503484E+000  0.5132111E+02  0.7957747E-01  0.1438343E+00
         13   -1    0    0    0    0  0.00000000000E+00  0.00000000000E+00  0.99999944176E+02  0.99999999996E+02  0.10566000000E+00 0.  1.
         22   -1    0    0    0    0 -0.00000000000E+00 -0.00000000000E+00 -0.10054086815E+02  0.10054086815E+02  0.00000000000E+00 0.  1.
         13    1    1    2    0    0  0.69346047895E+01 -0.92610692314E+01  0.22522926506E+02  0.25320930656E+02  0.10566000000E+00 0. -1.
        996    1    1    2    0    0 -0.69346047895E+01  0.92610692314E+01  0.67422930855E+02  0.84733156155E+02  0.50000000000E+02 0.  0.
<mgrwt>
<rscale>  0 0.51321108E+02</rscale>
<asrwt>0</asrwt>
<pdfrwt beam="1">  1       13 0.10000000E+01 0.51321108E+02</pdfrwt>
<pdfrwt beam="2">  1       22 0.10054112E+00 0.51321108E+02</pdfrwt>
<totfact> 0.13965162E+00</totfact>
</mgrwt>
</event>
<event>
 4    1  0.2503484E+000  0.5243128E+02  0.7957747E-01  0.1432652E+00
         13   -1    0    0    0    0  0.00000000000E+00  0.00000000000E+00  0.99999944174E+02  0.99999999994E+02  0.10566000000E+00 0. -1.
         22   -1    0    0    0    0 -0.00000000000E+00 -0.00000000000E+00 -0.12487875045E+02  0.12487875045E+02  0.00000000000E+00 0. -1.
         13    1    1    2    0    0  0.14128494176E+02 -0.70302517012E+01  0.92697088250E+01  0.18302389254E+02  0.10566000000E+00 0.  1.
        996    1    1    2    0    0 -0.14128494176E+02  0.70302517012E+01  0.78242360304E+02  0.94185485785E+02  0.50000000000E+02 0.  0.
<mgrwt>
<rscale>  0 0.52431277E+02</rscale>
<asrwt>0</asrwt>
<pdfrwt beam="1">  1       13 0.10000000E+01 0.52431277E+02</pdfrwt>
<pdfrwt beam="2">  1       22 0.12487899E+00 0.52431277E+02</pdfrwt>
<totfact> 0.10118129E+00</totfact>
</mgrwt>
</event>
<event>
 4    1  0.2503484E+000  0.5117396E+02  0.7957747E-01  0.1439110E+00
         13   -1    0    0    0    0  0.00000000000E+00  0.00000000000E+00  0.99999944177E+02  0.99999999997E+02  0.10566000000E+00 0.  1.
         22   -1    0    0    0    0 -0.00000000000E+00 -0.00000000000E+00 -0.10816543546E+02  0.10816543546E+02  0.00000000000E+00 0.  1.
         13    1    1    2    0    0  0.94132692382E+01  0.54922437159E+01  0.43324555886E+01  0.11728414822E+02  0.10566000000E+00 0. -1.
        996    1    1    2    0    0 -0.94132692382E+01 -0.54922437159E+01  0.84850945042E+02  0.99088128720E+02  0.50000000000E+02 0.  0.
<mgrwt>
<rscale>  0 0.51173962E+02</rscale>
<asrwt>0</asrwt>
<pdfrwt beam="1">  1       13 0.10000000E+01 0.51173962E+02</pdfrwt>
<pdfrwt beam="2">  1       22 0.10816568E+00 0.51173962E+02</pdfrwt>
<totfact> 0.12542757E+00</totfact>
</mgrwt>
</event>
<event>
 4    1  0.2503484E+000  0.5199933E+02  0.7957747E-01  0.1434847E+00
         13   -1    0    0    0    0  0.00000000000E+00  0.00000000000E+00  0.99999944179E+02  0.99999999999E+02  0.10566000000E+00 0.  1.
         22   -1    0    0    0    0 -0.00000000000E+00 -0.00000000000E+00 -0.14860048921E+02  0.14860048921E+02  0.00000000000E+00 0. -1.
         13    1    1    2    0    0 -0.34822234639E+01 -0.13849352926E+02 -0.91995973396E+00  0.14310413924E+02  0.10566000000E+00 0. -1.
        996    1    1    2    0    0  0.34822234639E+01  0.13849352926E+02  0.86059854992E+02  0.10054963500E+03  0.50000000000E+02 0.  0.
<mgrwt>
<rscale>  0 0.51999331E+02</rscale>
<asrwt>0</asrwt>
<pdfrwt beam="1">  1       13 0.10000000E+01 0.51999331E+02</pdfrwt>
<pdfrwt beam="2">  1       22 0.14860073E+00 0.51999331E+02</pdfrwt>
<totfact> 0.76474506E-01</totfact>
</mgrwt>
</event>
<event>
 4    1  0.2503484E+000  0.5183085E+02  0.7957747E-01  0.1435709E+00
         13   -1    0    0    0    0  0.00000000000E+00  0.00000000000E+00  0.99999944181E+02  0.10000000000E+03  0.10566000000E+00 0.  1.
         22   -1    0    0    0    0 -0.00000000000E+00 -0.00000000000E+00 -0.16303773689E+02  0.16303773689E+02  0.00000000000E+00 0. -1.
         13    1    1    2    0    0 -0.21199591312E+01 -0.13488611063E+02 -0.41807549349E+01  0.14280291698E+02  0.10566000000E+00 0. -1.
        996    1    1    2    0    0  0.21199591312E+01  0.13488611063E+02  0.87876925427E+02  0.10202348199E+03  0.50000000000E+02 0.  0.
<mgrwt>
<rscale>  0 0.51830848E+02</rscale>
<asrwt>0</asrwt>
<pdfrwt beam="1">  1       13 0.10000000E+01 0.51830848E+02</pdfrwt>
<pdfrwt beam="2">  1       22 0.16303797E+00 0.51830848E+02</pdfrwt>
<totfact> 0.65358209E-01</totfact>
</mgrwt>
</event>
<event>
 4    1  0.2503484E+000  0.5372036E+02  0.7957747E-01  0.1426249E+00
         13   -1    0    0    0    0  0.00000000000E+00  0.00000000000E+00  0.99999944182E+02  0.10000000000E+03  0.10566000000E+00 0. -1.
         22   -1    0    0    0    0 -0.00000000000E+00 -0.00000000000E+00 -0.13771868585E+02  0.13771868585E+02  0.00000000000E+00 0. -1.
         13    1    1    2    0    0  0.10025644403E+02 -0.16892717929E+02  0.15892334264E+02  0.25267665447E+02  0.10566000000E+00 0.  1.
        996    1    1    2    0    0 -0.10025644403E+02  0.16892717929E+02  0.70335741333E+02  0.88504203141E+02  0.50000000000E+02 0.  0.
<mgrwt>
<rscale>  0 0.53720364E+02</rscale>
<asrwt>0</asrwt>
<pdfrwt beam="1">  1       13 0.10000000E+01 0.53720364E+02</pdfrwt>
<pdfrwt beam="2">  1       22 0.13771893E+00 0.53720364E+02</pdfrwt>
<totfact> 0.86906069E-01</totfact>
</mgrwt>
</event>
<event>
 4    1  0.2503484E+000  0.5604087E+02  0.7957747E-01  0.1415240E+00
         13   -1    0    0    0    0  0.00000000000E+00  0.00000000000E+00  0.99999944178E+02  0.99999999998E+02  0.10566000000E+00 0.  1.
         22   -1    0    0    0    0 -0.00000000000E+00 -0.00000000000E+00 -0.19791790531E+02  0.19791790531E+02  0.00000000000E+00 0. -1.
         13    1    1    2    0    0 -0.76462898385E+01  0.24127030242E+02  0.46726609043E+01  0.25737604018E+02  0.10566000000E+00 0. -1.
        996    1    1    2    0    0  0.76462898385E+01 -0.24127030242E+02  0.75535492742E+02  0.94054186512E+02  0.50000000000E+02 0.  0.
<mgrwt>
<rscale>  0 0.56040872E+02</rscale>
<asrwt>0</asrwt>
<pdfrwt beam="1">  1       13 0.10000000E+01 0.56040872E+02</pdfrwt>
<pdfrwt beam="2">  1       22 0.19791813E+00 0.56040872E+02</pdfrwt>
<totfact> 0.46524082E-01</totfact>
</mgrwt>
</event>
<event>
 4    1  0.2503484E+000  0.5106030E+02  0.7957747E-01  0.1439705E+00
         13   -1    0    0    0    0  0.00000000000E+00  0.00000000000E+00  0.99999944181E+02  0.10000000000E+03  0.10566000000E+00 0. -1.
         22   -1    0    0    0    0 -0.00000000000E+00 -0.00000000000E+00 -0.95011082104E+01  0.95011082104E+01  0.00000000000E+00 0. -1.
         13    1    1    2    0    0 -0.10297561900E+02  0.10556538077E+01  0.19073796219E+02  0.21701959642E+02  0.10566000000E+00 0.  1.
        996    1    1    2    0    0  0.10297561900E+02 -0.10556538077E+01  0.71425039752E+02  0.87799148570E+02  0.50000000000E+02 0.  0.
<mgrwt>
<rscale>  0 0.51060300E+02</rscale>
<asrwt>0</asrwt>
<pdfrwt beam="1">  1       13 0.10000000E+01 0.51060300E+02</pdfrwt>
<pdfrwt beam="2">  1       22 0.95011335E-01 0.51060300E+02</pdfrwt>
<totfact> 0.15140160E+00</totfact>
</mgrwt>
</event>
<event>
 4    1  0.2503484E+000  0.5248717E+02  0.7957747E-01  0.1432370E+00
         13   -1    0    0    0    0  0.00000000000E+00  0.00000000000E+00  0.99999944174E+02  0.99999999995E+02  0.10566000000E+00 0.  1.
         22   -1    0    0    0    0 -0.00000000000E+00 -0.00000000000E+00 -0.16526977714E+02  0.16526977714E+02  0.00000000000E+00 0. -1.
         13    1    1    2    0    0 -0.15009577376E+02 -0.54420150269E+01 -0.21365928313E+01  0.16108356015E+02  0.10566000000E+00 0. -1.
        996    1    1    2    0    0  0.15009577376E+02  0.54420150269E+01  0.85609559292E+02  0.10041862169E+03  0.50000000000E+02 0.  0.
<mgrwt>
<rscale>  0 0.52487169E+02</rscale>
<asrwt>0</asrwt>
<pdfrwt beam="1">  1       13 0.10000000E+01 0.52487169E+02</pdfrwt>
<pdfrwt beam="2">  1       22 0.16527001E+00 0.52487169E+02</pdfrwt>
<totfact> 0.63923015E-01</totfact>
</mgrwt>
</event>
<event>
 4    1  0.2503484E+000  0.5199586E+02  0.7957747E-01  0.1434864E+00
         13   -1    0    0    0    0  0.00000000000E+00  0.00000000000E+00  0.99999944176E+02  0.99999999996E+02  0.10566000000E+00 0.  1.
         22   -1    0    0    0    0 -0.00000000000E+00 -0.00000000000E+00 -0.12434497855E+02  0.12434497855E+02  0.00000000000E+00 0.  1.
         13    1    1    2    0    0  0.12554400609E+02  0.67791563261E+01  0.55164909074E+01  0.15297475972E+02  0.10566000000E+00 0. -1.
        996    1    1    2    0    0 -0.12554400609E+02 -0.67791563261E+01  0.82048955414E+02  0.97137021880E+02  0.50000000000E+02 0.  0.
<mgrwt>
<rscale>  0 0.51995865E+02</rscale>
<asrwt>0</asrwt>
<pdfrwt beam="1">  1       13 0.10000000E+01 0.51995865E+02</pdfrwt>
<pdfrwt beam="2">  1       22 0.12434522E+00 0.51995865E+02</pdfrwt>
<totfact> 0.10175900E+00</totfact>
</mgrwt>
</event>
<event>
 4    1  0.2503484E+000  0.5164940E+02  0.7957747E-01  0.1436643E+00
         13   -1    0    0    0    0  0.00000000000E+00  0.00000000000E+00  0.99999944176E+02  0.99999999996E+02  0.10566000000E+00 0.  1.
         22   -1    0    0    0    0 -0.00000000000E+00 -0.00000000000E+00 -0.10459169684E+02  0.10459169684E+02  0.00000000000E+00 0.  1.
         13    1    1    2    0    0 -0.83040414378E+01  0.99349790739E+01  0.15774656205E+02  0.20408622095E+02  0.10566000000E+00 0. -1.
        996    1    1    2    0    0  0.83040414378E+01 -0.99349790739E+01  0.73766118287E+02  0.90050547586E+02  0.50000000000E+02 0.  0.
<mgrwt>
<rscale>  0 0.51649404E+02</rscale>
<asrwt>0</asrwt>
<pdfrwt beam="1">  1       13 0.10000000E+01 0.51649404E+02</pdfrwt>
<pdfrwt beam="2">  1       22 0.10459195E+00 0.51649404E+02</pdfrwt>
<totfact> 0.13193945E+00</totfact>
</mgrwt>
</event>
<event>
 4    1  0.2503484E+000  0.6027144E+02  0.7957747E-01  0.1396696E+00
         13   -1    0    0    0    0  0.00000000000E+00  0.00000000000E+00  0.99999944177E+02  0.99999999997E+02  0.10566000000E+00 0.  1.
         22   -1    0    0    0    0 -0.00000000000E+00 -0.00000000000E+00 -0.29752055243E+02  0.29752055243E+02  0.00000000000E+00 0. -1.
         13    1    1    2    0    0 -0.68628166895E+01 -0.32947666279E+02 -0.42544194411E+01  0.33922827343E+02  0.10566000000E+00 0. -1.
        996    1    1    2    0    0  0.68628166895E+01  0.32947666279E+02  0.74502308375E+02  0.95829227897E+02  0.50000000000E+02 0.  0.
<mgrwt>
<rscale>  0 0.60271444E+02</rscale>
<asrwt>0</asrwt>
<pdfrwt beam="1">  1       13 0.10000000E+01 0.60271444E+02</pdfrwt>
<pdfrwt beam="2">  1       22 0.29752075E+00 0.60271444E+02</pdfrwt>
<totfact> 0.21242831E-01</totfact>
</mgrwt>
</event>
<event>
 4    1  0.2503484E+000  0.5672433E+02  0.7957747E-01  0.1412116E+00
         13   -1    0    0    0    0  0.00000000000E+00  0.00000000000E+00  0.99999944174E+02  0.99999999995E+02  0.10566000000E+00 0.  1.
         22   -1    0    0    0    0 -0.00000000000E+00 -0.00000000000E+00 -0.18602898670E+02  0.18602898670E+02  0.00000000000E+00 0. -1.
         13    1    1    2    0    0 -0.18301716872E+02 -0.19562641658E+02  0.13097404432E+02  0.29819506301E+02  0.10566000000E+00 0. -1.
        996    1    1    2    0    0  0.18301716872E+02  0.19562641658E+02  0.68299641072E+02  0.88783392364E+02  0.50000000000E+02 0.  0.
<mgrwt>
<rscale>  0 0.56724332E+02</rscale>
<asrwt>0</asrwt>
<pdfrwt beam="1">  1       13 0.10000000E+01 0.56724332E+02</pdfrwt>
<pdfrwt beam="2">  1       22 0.18602921E+00 0.56724332E+02</pdfrwt>
<totfact> 0.52204965E-01</totfact>
</mgrwt>
</event>
<event>
 4    1  0.2503484E+000  0.5202610E+02  0.7957747E-01  0.1434710E+00
         13   -1    0    0    0    0  0.00000000000E+00  0.00000000000E+00  0.99999944185E+02  0.10000000001E+03  0.10566000000E+00 0. -1.
         22   -1    0    0    0    0 -0.00000000000E+00 -0.00000000000E+00 -0.14836387462E+02  0.14836387462E+02  0.00000000000E+00 0. -1.
         13    1    1    2    0    0 -0.14318943679E+02 -0.12971368514E+01 -0.75062313092E+00  0.14397545319E+02  0.10566000000E+00 0.  1.
        996    1    1    2    0    0  0.14318943679E+02  0.12971368514E+01  0.85914179854E+02  0.10043884215E+03  0.50000000000E+02 0.  0.
<mgrwt>
<rscale>  0 0.52026096E+02</rscale>
<asrwt>0</asrwt>
<pdfrwt beam="1">  1       13 0.10000000E+01 0.52026096E+02</pdfrwt>
<pdfrwt beam="2">  1       22 0.14836411E+00 0.52026096E+02</pdfrwt>
<totfact> 0.76681084E-01</totfact>
</mgrwt>
</event>
<event>
 4    1  0.2503484E+000  0.5166125E+02  0.7957747E-01  0.1436582E+00
         13   -1    0    0    0    0  0.00000000000E+00  0.00000000000E+00  0.99999944180E+02  0.10000000000E+03  0.10566000000E+00 0.  1.
         22   -1    0    0    0    0 -0.00000000000E+00 -0.00000000000E+00 -0.11074507674E+02  0.11074507674E+02  0.00000000000E+00 0.  1.
         13    1    1    2    0    0  0.14926387499E+01 -0.12909559814E+02  0.30092787470E+02  0.32779135541E+02  0.10566000000E+00 0. -1.
        996    1    1    2    0    0 -0.14926387499E+01  0.12909559814E+02  0.58832649035E+02  0.78295372133E+02  0.50000000000E+02 0.  0.
<mgrwt>
<rscale>  0 0.51661250E+02</rscale>
<asrwt>0</asrwt>
<pdfrwt beam="1">  1       13 0.10000000E+01 0.51661250E+02</pdfrwt>
<pdfrwt beam="2">  1       22 0.11074532E+00 0.51661250E+02</pdfrwt>
<totfact> 0.12125114E+00</totfact>
</mgrwt>
</event>
<event>
 4    1  0.2503484E+000  0.5389247E+02  0.7957747E-01  0.1425410E+00
         13   -1    0    0    0    0  0.00000000000E+00  0.00000000000E+00  0.99999944177E+02  0.99999999997E+02  0.10566000000E+00 0.  1.
         22   -1    0    0    0    0 -0.00000000000E+00 -0.00000000000E+00 -0.31528156054E+02  0.31528156054E+02  0.00000000000E+00 0. -1.
         13    1    1    2    0    0 -0.51340088025E+01  0.19443257362E+02 -0.19725220478E+02  0.28169021818E+02  0.10566000000E+00 0. -1.
        996    1    1    2    0    0  0.51340088025E+01 -0.19443257362E+02  0.88197008602E+02  0.10335913423E+03  0.50000000000E+02 0.  0.
<mgrwt>
<rscale>  0 0.53892470E+02</rscale>
<asrwt>0</asrwt>
<pdfrwt beam="1">  1       13 0.10000000E+01 0.53892470E+02</pdfrwt>
<pdfrwt beam="2">  1       22 0.31528175E+00 0.53892470E+02</pdfrwt>
<totfact> 0.18940217E-01</totfact>
</mgrwt>
</event>
<event>
 4    1  0.2503484E+000  0.5132412E+02  0.7957747E-01  0.1438328E+00
         13   -1    0    0    0    0  0.00000000000E+00  0.00000000000E+00  0.99999944176E+02  0.99999999997E+02  0.10566000000E+00 0.  1.
         22   -1    0    0    0    0 -0.00000000000E+00 -0.00000000000E+00 -0.13976552521E+02  0.13976552521E+02  0.00000000000E+00 0. -1.
         13    1    1    2    0    0  0.11356658894E+02  0.22785768642E+01 -0.23133814504E+01  0.11812218739E+02  0.10566000000E+00 0. -1.
        996    1    1    2    0    0 -0.11356658894E+02 -0.22785768642E+01  0.88336773106E+02  0.10216433378E+03  0.50000000000E+02 0.  0.
<mgrwt>
<rscale>  0 0.51324123E+02</rscale>
<asrwt>0</asrwt>
<pdfrwt beam="1">  1       13 0.10000000E+01 0.51324123E+02</pdfrwt>
<pdfrwt beam="2">  1       22 0.13976577E+00 0.51324123E+02</pdfrwt>
<totfact> 0.84435939E-01</totfact>
</mgrwt>
</event>
<event>
 4    1  0.2503484E+000  0.5188307E+02  0.7957747E-01  0.1435442E+00
         13   -1    0    0    0    0  0.00000000000E+00  0.00000000000E+00  0.99999944180E+02  0.10000000000E+03  0.10566000000E+00 0. -1.
         22   -1    0    0    0    0 -0.00000000000E+00 -0.00000000000E+00 -0.10914862472E+02  0.10914862472E+02  0.00000000000E+00 0. -1.
         13    1    1    2    0    0  0.23849188790E+01 -0.13644218561E+02  0.23637226778E+02  0.27396755136E+02  0.10566000000E+00 0.  1.
        996    1    1    2    0    0 -0.23849188790E+01  0.13644218561E+02  0.65447854930E+02  0.83518107337E+02  0.50000000000E+02 0.  0.
<mgrwt>
<rscale>  0 0.51883066E+02</rscale>
<asrwt>0</asrwt>
<pdfrwt beam="1">  1       13 0.10000000E+01 0.51883066E+02</pdfrwt>
<pdfrwt beam="2">  1       22 0.10914887E+00 0.51883066E+02</pdfrwt>
<totfact> 0.12396248E+00</totfact>
</mgrwt>
</event>
<event>
 4    1  0.2503484E+000  0.5194280E+02  0.7957747E-01  0.1435136E+00
         13   -1    0    0    0    0  0.00000000000E+00  0.00000000000E+00  0.99999944177E+02  0.99999999997E+02  0.10566000000E+00 0.  1.
         22   -1    0    0    0    0 -0.00000000000E+00 -0.00000000000E+00 -0.12967925647E+02  0.12967925647E+02  0.00000000000E+00 0.  1.
         13    1    1    2    0    0 -0.10473351977E+02 -0.94002038011E+01  0.33357646350E+01  0.14463520417E+02  0.10566000000E+00 0. -1.
        996    1    1    2    0    0  0.10473351977E+02  0.94002038011E+01  0.83696253895E+02  0.98504405227E+02  0.50000000000E+02 0.  0.
<mgrwt>
<rscale>  0 0.51942804E+02</rscale>
<asrwt>0</asrwt>
<pdfrwt beam="1">  1       13 0.10000000E+01 0.51942804E+02</pdfrwt>
<pdfrwt beam="2">  1       22 0.12967950E+00 0.51942804E+02</pdfrwt>
<totfact> 0.95284633E-01</totfact>
</mgrwt>
</event>
<event>
 4    1  0.2503484E+000  0.5487462E+02  0.7957747E-01  0.1420693E+00
         13   -1    0    0    0    0  0.00000000000E+00  0.00000000000E+00  0.99999944178E+02  0.99999999998E+02  0.10566000000E+00 0.  1.
         22   -1    0    0    0    0 -0.00000000000E+00 -0.00000000000E+00 -0.15291702000E+02  0.15291702000E+02  0.00000000000E+00 0.  1.
         13    1    1    2    0    0 -0.20674123630E+02  0.91545010033E+01  0.17914032501E+02  0.28846975595E+02  0.10566000000E+00 0. -1.
        996    1    1    2    0    0  0.20674123630E+02 -0.91545010033E+01  0.66794209677E+02  0.86444726403E+02  0.50000000000E+02 0.  0.
<mgrwt>
<rscale>  0 0.54874623E+02</rscale>
<asrwt>0</asrwt>
<pdfrwt beam="1">  1       13 0.10000000E+01 0.54874623E+02</pdfrwt>
<pdfrwt beam="2">  1       22 0.15291726E+00 0.54874623E+02</pdfrwt>
<totfact> 0.73320883E-01</totfact>
</mgrwt>
</event>
<event>
 4    1  0.2503484E+000  0.5430687E+02  0.7957747E-01  0.1423405E+00
         13   -1    0    0    0    0  0.00000000000E+00  0.00000000000E+00  0.99999944186E+02  0.10000000001E+03  0.10566000000E+00 0.  1.
         22   -1    0    0    0    0 -0.00000000000E+00 -0.00000000000E+00 -0.27270929231E+02  0.27270929231E+02  0.00000000000E+00 0. -1.
         13    1    1    2    0    0 -0.14043607965E+02 -0.15874913307E+02 -0.13670330277E+02  0.25221516432E+02  0.10566000000E+00 0. -1.
        996    1    1    2    0    0  0.14043607965E+02  0.15874913307E+02  0.86399345233E+02  0.10204941280E+03  0.50000000000E+02 0.  0.
<mgrwt>
<rscale>  0 0.54306867E+02</rscale>
<asrwt>0</asrwt>
<pdfrwt beam="1">  1       13 0.10000000E+01 0.54306867E+02</pdfrwt>
<pdfrwt beam="2">  1       22 0.27270950E+00 0.54306867E+02</pdfrwt>
<totfact> 0.24935065E-01</totfact>
</mgrwt>
</event>
<event>
 4    1  0.2503484E+000  0.5168286E+02  0.7957747E-01  0.1436470E+00
         13   -1    0    0    0    0  0.00000000000E+00  0.00000000000E+00  0.99999944175E+02  0.99999999995E+02  0.10566000000E+00 0.  1.
         22   -1    0    0    0    0 -0.00000000000E+00 -0.00000000000E+00 -0.13217535122E+02  0.13217535122E+02  0.00000000000E+00 0.  1.
         13    1    1    2    0    0 -0.10603425737E+02 -0.76606343021E+01  0.10653814157E+01  0.13124944071E+02  0.10566000000E+00 0. -1.
        996    1    1    2    0    0  0.10603425737E+02  0.76606343021E+01  0.85717027638E+02  0.10009259105E+03  0.50000000000E+02 0.  0.
<mgrwt>
<rscale>  0 0.51682859E+02</rscale>
<asrwt>0</asrwt>
<pdfrwt beam="1">  1       13 0.10000000E+01 0.51682859E+02</pdfrwt>
<pdfrwt beam="2">  1       22 0.13217559E+00 0.51682859E+02</pdfrwt>
<totfact> 0.92406136E-01</totfact>
</mgrwt>
</event>
<event>
 4    1  0.2503484E+000  0.5147970E+02  0.7957747E-01  0.1437520E+00
         13   -1    0    0    0    0  0.00000000000E+00  0.00000000000E+00  0.99999944179E+02  0.99999999999E+02  0.10566000000E+00 0.  1.
         22   -1    0    0    0    0 -0.00000000000E+00 -0.00000000000E+00 -0.10177530171E+02  0.10177530171E+02  0.00000000000E+00 0.  1.
         13    1    1    2    0    0 -0.11790346676E+02 -0.33387690337E+01  0.15290456851E+02  0.19595124092E+02  0.10566000000E+00 0. -1.
        996    1    1    2    0    0  0.11790346676E+02  0.33387690337E+01  0.74531957156E+02  0.90582406078E+02  0.50000000000E+02 0.  0.
<mgrwt>
<rscale>  0 0.51479701E+02</rscale>
<asrwt>0</asrwt>
<pdfrwt beam="1">  1       13 0.10000000E+01 0.51479701E+02</pdfrwt>
<pdfrwt beam="2">  1       22 0.10177555E+00 0.51479701E+02</pdfrwt>
<totfact> 0.13725045E+00</totfact>
</mgrwt>
</event>
<event>
 4    1  0.2503484E+000  0.5286776E+02  0.7957747E-01  0.1430460E+00
         13   -1    0    0    0    0  0.00000000000E+00  0.00000000000E+00  0.99999944181E+02  0.10000000000E+03  0.10566000000E+00 0. -1.
         22   -1    0    0    0    0 -0.00000000000E+00 -0.00000000000E+00 -0.23869665041E+02  0.23869665041E+02  0.00000000000E+00 0.  1.
         13    1    1    2    0    0  0.13519927728E+02  0.10593020520E+02 -0.12101763737E+02  0.21011053736E+02  0.10566000000E+00 0.  1.
        996    1    1    2    0    0 -0.13519927728E+02 -0.10593020520E+02  0.88232042878E+02  0.10285861131E+03  0.50000000000E+02 0.  0.
<mgrwt>
<rscale>  0 0.52867765E+02</rscale>
<asrwt>0</asrwt>
<pdfrwt beam="1">  1       13 0.10000000E+01 0.52867765E+02</pdfrwt>
<pdfrwt beam="2">  1       22 0.23869686E+00 0.52867765E+02</pdfrwt>
<totfact> 0.32327038E-01</totfact>
</mgrwt>
</event>
<event>
 4    1  0.2503484E+000  0.5373088E+02  0.7957747E-01  0.1426198E+00
         13   -1    0    0    0    0  0.00000000000E+00  0.00000000000E+00  0.99999944173E+02  0.99999999993E+02  0.10566000000E+00 0. -1.
         22   -1    0    0    0    0 -0.00000000000E+00 -0.00000000000E+00 -0.18996616687E+02  0.18996616687E+02  0.00000000000E+00 0.  1.
         13    1    1    2    0    0 -0.17991064869E+02  0.79579362357E+01 -0.23640618946E+01  0.19814315959E+02  0.10566000000E+00 0.  1.
        996    1    1    2    0    0  0.17991064869E+02 -0.79579362357E+01  0.83367389381E+02  0.99182300721E+02  0.50000000000E+02 0.  0.
<mgrwt>
<rscale>  0 0.53730877E+02</rscale>
<asrwt>0</asrwt>
<pdfrwt beam="1">  1       13 0.10000000E+01 0.53730877E+02</pdfrwt>
<pdfrwt beam="2">  1       22 0.18996639E+00 0.53730877E+02</pdfrwt>
<totfact> 0.49985925E-01</totfact>
</mgrwt>
</event>
<event>
 4    1  0.2503484E+000  0.5101066E+02  0.7957747E-01  0.1439965E+00
         13   -1    0    0    0    0  0.00000000000E+00  0.00000000000E+00  0.99999944179E+02  0.10000000000E+03  0.10566000000E+00 0.  1.
         22   -1    0    0    0    0 -0.00000000000E+00 -0.00000000000E+00 -0.12455742324E+02  0.12455742324E+02  0.00000000000E+00 0. -1.
         13    1    1    2    0    0  0.94580652784E+01  0.35542822058E+01 -0.11185144791E+01  0.10166128048E+02  0.10566000000E+00 0. -1.
        996    1    1    2    0    0 -0.94580652784E+01 -0.35542822058E+01  0.88662716335E+02  0.10228961428E+03  0.50000000000E+02 0.  0.
<mgrwt>
<rscale>  0 0.51010665E+02</rscale>
<asrwt>0</asrwt>
<pdfrwt beam="1">  1       13 0.10000000E+01 0.51010665E+02</pdfrwt>
<pdfrwt beam="2">  1       22 0.12455767E+00 0.51010665E+02</pdfrwt>
<totfact> 0.10126770E+00</totfact>
</mgrwt>
</event>
<event>
 4    1  0.2503484E+000  0.5107100E+02  0.7957747E-01  0.1439649E+00
         13   -1    0    0    0    0  0.00000000000E+00  0.00000000000E+00  0.99999944186E+02  0.10000000001E+03  0.10566000000E+00 0.  1.
         22   -1    0    0    0    0 -0.00000000000E+00 -0.00000000000E+00 -0.94481345498E+01  0.94481345498E+01  0.00000000000E+00 0. -1.
         13    1    1    2    0    0 -0.10383948351E+02 -0.64842018010E+00  0.15302452177E+02  0.18504676132E+02  0.10566000000E+00 0. -1.
        996    1    1    2    0    0  0.10383948351E+02  0.64842018010E+00  0.75249357460E+02  0.90943458424E+02  0.50000000000E+02 0.  0.
<mgrwt>
<rscale>  0 0.51070998E+02</rscale>
<asrwt>0</asrwt>
<pdfrwt beam="1">  1       13 0.10000000E+01 0.51070998E+02</pdfrwt>
<pdfrwt beam="2">  1       22 0.94481598E-01 0.51070998E+02</pdfrwt>
<totfact> 0.15261905E+00</totfact>
</mgrwt>
</event>
<event>
 4    1  0.2503484E+000  0.5099365E+02  0.7957747E-01  0.1440055E+00
         13   -1    0    0    0    0  0.00000000000E+00  0.00000000000E+00  0.99999944179E+02  0.99999999999E+02  0.10566000000E+00 0. -1.
         22   -1    0    0    0    0 -0.00000000000E+00 -0.00000000000E+00 -0.15261301866E+02  0.15261301866E+02  0.00000000000E+00 0. -1.
         13    1    1    2    0    0  0.72055830531E+01 -0.69593188034E+01 -0.56345077439E+01  0.11493971763E+02  0.10566000000E+00 0.  1.
        996    1    1    2    0    0 -0.72055830531E+01  0.69593188034E+01  0.90373150056E+02  0.10376733010E+03  0.50000000000E+02 0.  0.
<mgrwt>
<rscale>  0 0.50993652E+02</rscale>
<asrwt>0</asrwt>
<pdfrwt beam="1">  1       13 0.10000000E+01 0.50993652E+02</pdfrwt>
<pdfrwt beam="2">  1       22 0.15261326E+00 0.50993652E+02</pdfrwt>
<totfact> 0.73000150E-01</totfact>
</mgrwt>
</event>
<event>
 4    1  0.2503484E+000  0.5909021E+02  0.7957747E-01  0.1401690E+00
         13   -1    0    0    0    0  0.00000000000E+00  0.00000000000E+00  0.99999944178E+02  0.99999999998E+02  0.10566000000E+00 0.  1.
         22   -1    0    0    0    0 -0.00000000000E+00 -0.00000000000E+00 -0.42298085550E+02  0.42298085550E+02  0.00000000000E+00 0. -1.
         13    1    1    2    0    0 -0.59901526302E+01 -0.30915542140E+02 -0.25311179549E+02  0.40401975800E+02  0.10566000000E+00 0. -1.
        996    1    1    2    0    0  0.59901526302E+01  0.30915542140E+02  0.83013038177E+02  0.10189610975E+03  0.50000000000E+02 0.  0.
<mgrwt>
<rscale>  0 0.59090208E+02</rscale>
<asrwt>0</asrwt>
<pdfrwt beam="1">  1       13 0.10000000E+01 0.59090208E+02</pdfrwt>
<pdfrwt beam="2">  1       22 0.42298102E+00 0.59090208E+02</pdfrwt>
<totfact> 0.11123756E-01</totfact>
</mgrwt>
</event>
<event>
 4    1  0.2503484E+000  0.6511962E+02  0.7957747E-01  0.1377522E+00
         13   -1    0    0    0    0  0.00000000000E+00  0.00000000000E+00  0.99999944164E+02  0.99999999984E+02  0.10566000000E+00 0. -1.
         22   -1    0    0    0    0 -0.00000000000E+00 -0.00000000000E+00 -0.76634375666E+02  0.76634375666E+02  0.00000000000E+00 0.  1.
         13    1    1    2    0    0 -0.63003145149E+01 -0.41241621711E+02 -0.58609554870E+02  0.71942035073E+02  0.10566000000E+00 0.  1.
        996    1    1    2    0    0  0.63003145149E+01  0.41241621711E+02  0.81975123368E+02  0.10469234058E+03  0.50000000000E+02 0.  0.
<mgrwt>
<rscale>  0 0.65119623E+02</rscale>
<asrwt>0</asrwt>
<pdfrwt beam="1">  1       13 0.10000000E+01 0.65119623E+02</pdfrwt>
<pdfrwt beam="2">  1       22 0.76634382E+00 0.65119623E+02</pdfrwt>
<totfact> 0.42115476E-02</totfact>
</mgrwt>
</event>
<event>
 4    1  0.2503484E+000  0.6906771E+02  0.7957747E-01  0.1363292E+00
         13   -1    0    0    0    0  0.00000000000E+00  0.00000000000E+00  0.99999944187E+02  0.10000000001E+03  0.10566000000E+00 0. -1.
         22   -1    0    0    0    0 -0.00000000000E+00 -0.00000000000E+00 -0.52413766670E+02  0.52413766670E+02  0.00000000000E+00 0.  1.
         13    1    1    2    0    0 -0.44602494844E+02  0.16762054933E+02 -0.23647697725E+02  0.53193738387E+02  0.10566000000E+00 0.  1.
        996    1    1    2    0    0  0.44602494844E+02 -0.16762054933E+02  0.71233875242E+02  0.99220028290E+02  0.50000000000E+02 0.  0.
<mgrwt>
<rscale>  0 0.69067713E+02</rscale>
<asrwt>0</asrwt>
<pdfrwt beam="1">  1       13 0.10000000E+01 0.69067713E+02</pdfrwt>
<pdfrwt beam="2">  1       22 0.52413780E+00 0.69067713E+02</pdfrwt>
<totfact> 0.65323715E-02</totfact>
</mgrwt>
</event>
<event>
 4    1  0.2503484E+000  0.5467715E+02  0.7957747E-01  0.1421632E+00
         13   -1    0    0    0    0  0.00000000000E+00  0.00000000000E+00  0.99999944182E+02  0.10000000000E+03  0.10566000000E+00 0. -1.
         22   -1    0    0    0    0 -0.00000000000E+00 -0.00000000000E+00 -0.19006164476E+02  0.19006164476E+02  0.00000000000E+00 0.  1.
         13    1    1    2    0    0 -0.30957882959E+01  0.21909054232E+02  0.10489332560E+01  0.22151794228E+02  0.10566000000E+00 0.  1.
        996    1    1    2    0    0  0.30957882959E+01 -0.21909054232E+02  0.79944846450E+02  0.96854370250E+02  0.50000000000E+02 0.  0.
<mgrwt>
<rscale>  0 0.54677148E+02</rscale>
<asrwt>0</asrwt>
<pdfrwt beam="1">  1       13 0.10000000E+01 0.54677148E+02</pdfrwt>
<pdfrwt beam="2">  1       22 0.19006187E+00 0.54677148E+02</pdfrwt>
<totfact> 0.50023179E-01</totfact>
</mgrwt>
</event>
<event>
 4    1  0.2503484E+000  0.5149760E+02  0.7957747E-01  0.1437427E+00
         13   -1    0    0    0    0  0.00000000000E+00  0.00000000000E+00  0.99999944188E+02  0.10000000001E+03  0.10566000000E+00 0.  1.
         22   -1    0    0    0    0 -0.00000000000E+00 -0.00000000000E+00 -0.18653818589E+02  0.18653818589E+02  0.00000000000E+00 0. -1.
         13    1    1    2    0    0  0.12233261120E+02  0.15329791260E+01 -0.85835255179E+01  0.15023008254E+02  0.10566000000E+00 0. -1.
        996    1    1    2    0    0 -0.12233261120E+02 -0.15329791260E+01  0.89929651116E+02  0.10363081034E+03  0.50000000000E+02 0.  0.
<mgrwt>
<rscale>  0 0.51497599E+02</rscale>
<asrwt>0</asrwt>
<pdfrwt beam="1">  1       13 0.10000000E+01 0.51497599E+02</pdfrwt>
<pdfrwt beam="2">  1       22 0.18653841E+00 0.51497599E+02</pdfrwt>
<totfact> 0.51464535E-01</totfact>
</mgrwt>
</event>
<event>
 4    1  0.2503484E+000  0.5545866E+02  0.7957747E-01  0.1417942E+00
         13   -1    0    0    0    0  0.00000000000E+00  0.00000000000E+00  0.99999944180E+02  0.10000000000E+03  0.10566000000E+00 0.  1.
         22   -1    0    0    0    0 -0.00000000000E+00 -0.00000000000E+00 -0.29637444971E+02  0.29637444971E+02  0.00000000000E+00 0. -1.
         13    1    1    2    0    0 -0.11082038123E+02 -0.21280297957E+02 -0.14666621491E+02  0.28120874810E+02  0.10566000000E+00 0. -1.
        996    1    1    2    0    0  0.11082038123E+02  0.21280297957E+02  0.85029120700E+02  0.10151657016E+03  0.50000000000E+02 0.  0.
<mgrwt>
<rscale>  0 0.55458657E+02</rscale>
<asrwt>0</asrwt>
<pdfrwt beam="1">  1       13 0.10000000E+01 0.55458657E+02</pdfrwt>
<pdfrwt beam="2">  1       22 0.29637465E+00 0.55458657E+02</pdfrwt>
<totfact> 0.21275959E-01</totfact>
</mgrwt>
</event>
<event>
 4    1  0.2503484E+000  0.5137879E+02  0.7957747E-01  0.1438043E+00
         13   -1    0    0    0    0  0.00000000000E+00  0.00000000000E+00  0.99999944176E+02  0.99999999996E+02  0.10566000000E+00 0. -1.
         22   -1    0    0    0    0 -0.00000000000E+00 -0.00000000000E+00 -0.27689798698E+02  0.27689798698E+02  0.00000000000E+00 0.  1.
         13    1    1    2    0    0  0.10688031868E+02  0.50543392113E+01 -0.19312687279E+02  0.22644456806E+02  0.10566000000E+00 0.  1.
        996    1    1    2    0    0 -0.10688031868E+02 -0.50543392113E+01  0.91622832757E+02  0.10504534189E+03  0.50000000000E+02 0.  0.
<mgrwt>
<rscale>  0 0.51378793E+02</rscale>
<asrwt>0</asrwt>
<pdfrwt beam="1">  1       13 0.10000000E+01 0.51378793E+02</pdfrwt>
<pdfrwt beam="2">  1       22 0.27689819E+00 0.51378793E+02</pdfrwt>
<totfact> 0.24104710E-01</totfact>
</mgrwt>
</event>
<event>
 4    1  0.2503484E+000  0.5181425E+02  0.7957747E-01  0.1435795E+00
         13   -1    0    0    0    0  0.00000000000E+00  0.00000000000E+00  0.99999944178E+02  0.99999999998E+02  0.10566000000E+00 0. -1.
         22   -1    0    0    0    0 -0.00000000000E+00 -0.00000000000E+00 -0.14069410115E+02  0.14069410115E+02  0.00000000000E+00 0.  1.
         13    1    1    2    0    0 -0.34378368012E+01 -0.13149059262E+02 -0.15618202219E+00  0.13592352195E+02  0.10566000000E+00 0.  1.
        996    1    1    2    0    0  0.34378368012E+01  0.13149059262E+02  0.86086716086E+02  0.10047705792E+03  0.50000000000E+02 0.  0.
<mgrwt>
<rscale>  0 0.51814250E+02</rscale>
<asrwt>0</asrwt>
<pdfrwt beam="1">  1       13 0.10000000E+01 0.51814250E+02</pdfrwt>
<pdfrwt beam="2">  1       22 0.14069434E+00 0.51814250E+02</pdfrwt>
<totfact> 0.83621075E-01</totfact>
</mgrwt>
</event>
<event>
 4    1  0.2503484E+000  0.5391981E+02  0.7957747E-01  0.1425277E+00
         13   -1    0    0    0    0  0.00000000000E+00  0.00000000000E+00  0.99999944178E+02  0.99999999999E+02  0.10566000000E+00 0.  1.
         22   -1    0    0    0    0 -0.00000000000E+00 -0.00000000000E+00 -0.14112279618E+02  0.14112279618E+02  0.00000000000E+00 0.  1.
         13    1    1    2    0    0 -0.17641226749E+02 -0.98047306582E+01  0.15513310813E+02  0.25456229118E+02  0.10566000000E+00 0. -1.
        996    1    1    2    0    0  0.17641226749E+02  0.98047306582E+01  0.70374353748E+02  0.88656050498E+02  0.50000000000E+02 0.  0.
<mgrwt>
<rscale>  0 0.53919807E+02</rscale>
<asrwt>0</asrwt>
<pdfrwt beam="1">  1       13 0.10000000E+01 0.53919807E+02</pdfrwt>
<pdfrwt beam="2">  1       22 0.14112304E+00 0.53919807E+02</pdfrwt>
<totfact> 0.83570263E-01</totfact>
</mgrwt>
</event>
<event>
 4    1  0.2503484E+000  0.7131724E+02  0.7957747E-01  0.1355670E+00
         13   -1    0    0    0    0  0.00000000000E+00  0.00000000000E+00  0.99999944178E+02  0.99999999998E+02  0.10566000000E+00 0. -1.
         22   -1    0    0    0    0 -0.00000000000E+00 -0.00000000000E+00 -0.38536398631E+02  0.38536398631E+02  0.00000000000E+00 0.  1.
         13    1    1    2    0    0  0.38431725816E+02  0.33303917161E+02  0.13582892938E+02  0.52637007818E+02  0.10566000000E+00 0.  1.
        996    1    1    2    0    0 -0.38431725816E+02 -0.33303917161E+02  0.47880652609E+02  0.85899390811E+02  0.50000000000E+02 0.  0.
<mgrwt>
<rscale>  0 0.71317238E+02</rscale>
<asrwt>0</asrwt>
<pdfrwt beam="1">  1       13 0.10000000E+01 0.71317238E+02</pdfrwt>
<pdfrwt beam="2">  1       22 0.38536416E+00 0.71317238E+02</pdfrwt>
<totfact> 0.13440377E-01</totfact>
</mgrwt>
</event>
<event>
 4    1  0.2503484E+000  0.5129014E+02  0.7957747E-01  0.1438505E+00
         13   -1    0    0    0    0  0.00000000000E+00  0.00000000000E+00  0.99999944180E+02  0.10000000000E+03  0.10566000000E+00 0. -1.
         22   -1    0    0    0    0 -0.00000000000E+00 -0.00000000000E+00 -0.16666757452E+02  0.16666757452E+02  0.00000000000E+00 0.  1.
         13    1    1    2    0    0  0.84928174315E+01  0.76518082039E+01 -0.65527976783E+01  0.13176814416E+02  0.10566000000E+00 0.  1.
        996    1    1    2    0    0 -0.84928174315E+01 -0.76518082039E+01  0.89885984407E+02  0.10348994304E+03  0.50000000000E+02 0.  0.
<mgrwt>
<rscale>  0 0.51290137E+02</rscale>
<asrwt>0</asrwt>
<pdfrwt beam="1">  1       13 0.10000000E+01 0.51290137E+02</pdfrwt>
<pdfrwt beam="2">  1       22 0.16666781E+00 0.51290137E+02</pdfrwt>
<totfact> 0.62847866E-01</totfact>
</mgrwt>
</event>
<event>
 4    1  0.2503484E+000  0.5239661E+02  0.7957747E-01  0.1432827E+00
         13   -1    0    0    0    0  0.00000000000E+00  0.00000000000E+00  0.99999944180E+02  0.10000000000E+03  0.10566000000E+00 0.  1.
         22   -1    0    0    0    0 -0.00000000000E+00 -0.00000000000E+00 -0.14205234098E+02  0.14205234098E+02  0.00000000000E+00 0.  1.
         13    1    1    2    0    0 -0.54005032992E+01  0.14705075366E+02  0.25919680898E+01  0.15878732318E+02  0.10566000000E+00 0. -1.
        996    1    1    2    0    0  0.54005032992E+01 -0.14705075366E+02  0.83202741992E+02  0.98326501781E+02  0.50000000000E+02 0.  0.
<mgrwt>
<rscale>  0 0.52396609E+02</rscale>
<asrwt>0</asrwt>
<pdfrwt beam="1">  1       13 0.10000000E+01 0.52396609E+02</pdfrwt>
<pdfrwt beam="2">  1       22 0.14205258E+00 0.52396609E+02</pdfrwt>
<totfact> 0.82424520E-01</totfact>
</mgrwt>
</event>
<event>
 4    1  0.2503484E+000  0.5112533E+02  0.7957747E-01  0.1439365E+00
         13   -1    0    0    0    0  0.00000000000E+00  0.00000000000E+00  0.99999944175E+02  0.99999999995E+02  0.10566000000E+00 0.  1.
         22   -1    0    0    0    0 -0.00000000000E+00 -0.00000000000E+00 -0.28435855045E+02  0.28435855045E+02  0.00000000000E+00 0. -1.
         13    1    1    2    0    0 -0.71700580053E+01  0.78986866363E+01 -0.20510767334E+02  0.23119293308E+02  0.10566000000E+00 0. -1.
        996    1    1    2    0    0  0.71700580053E+01 -0.78986866363E+01  0.92074856464E+02  0.10531656173E+03  0.50000000000E+02 0.  0.
<mgrwt>
<rscale>  0 0.51125326E+02</rscale>
<asrwt>0</asrwt>
<pdfrwt beam="1">  1       13 0.10000000E+01 0.51125326E+02</pdfrwt>
<pdfrwt beam="2">  1       22 0.28435875E+00 0.51125326E+02</pdfrwt>
<totfact> 0.22889126E-01</totfact>
</mgrwt>
</event>
<event>
 4    1  0.2503484E+000  0.5123384E+02  0.7957747E-01  0.1438798E+00
         13   -1    0    0    0    0  0.00000000000E+00  0.00000000000E+00  0.99999944178E+02  0.99999999998E+02  0.10566000000E+00 0. -1.
         22   -1    0    0    0    0 -0.00000000000E+00 -0.00000000000E+00 -0.39830258597E+02  0.39830258597E+02  0.00000000000E+00 0.  1.
         13    1    1    2    0    0  0.11009773814E+02  0.19212222148E+01 -0.32265235321E+02  0.34146197279E+02  0.10566000000E+00 0.  1.
        996    1    1    2    0    0 -0.11009773814E+02 -0.19212222148E+01  0.92434920902E+02  0.10568406132E+03  0.50000000000E+02 0.  0.
<mgrwt>
<rscale>  0 0.51233839E+02</rscale>
<asrwt>0</asrwt>
<pdfrwt beam="1">  1       13 0.10000000E+01 0.51233839E+02</pdfrwt>
<pdfrwt beam="2">  1       22 0.39830275E+00 0.51233839E+02</pdfrwt>
<totfact> 0.12459995E-01</totfact>
</mgrwt>
</event>
<event>
 4    1  0.2503484E+000  0.5831462E+02  0.7957747E-01  0.1405044E+00
         13   -1    0    0    0    0  0.00000000000E+00  0.00000000000E+00  0.99999944177E+02  0.99999999997E+02  0.10566000000E+00 0. -1.
         22   -1    0    0    0    0 -0.00000000000E+00 -0.00000000000E+00 -0.39614118135E+02  0.39614118135E+02  0.00000000000E+00 0.  1.
         13    1    1    2    0    0  0.29998467287E+02 -0.82909729552E+00 -0.23035288752E+02  0.37831615532E+02  0.10566000000E+00 0.  1.
        996    1    1    2    0    0 -0.29998467287E+02  0.82909729552E+00  0.83421114794E+02  0.10178250260E+03  0.50000000000E+02 0.  0.
<mgrwt>
<rscale>  0 0.58314625E+02</rscale>
<asrwt>0</asrwt>
<pdfrwt beam="1">  1       13 0.10000000E+01 0.58314625E+02</pdfrwt>
<pdfrwt beam="2">  1       22 0.39614135E+00 0.58314625E+02</pdfrwt>
<totfact> 0.12656407E-01</totfact>
</mgrwt>
</event>
<event>
 4    1  0.2503484E+000  0.5293698E+02  0.7957747E-01  0.1430115E+00
         13   -1    0    0    0    0  0.00000000000E+00  0.00000000000E+00  0.99999944178E+02  0.99999999998E+02  0.10566000000E+00 0. -1.
         22   -1    0    0    0    0 -0.00000000000E+00 -0.00000000000E+00 -0.48872008458E+02  0.48872008458E+02  0.00000000000E+00 0.  1.
         13    1    1    2    0    0  0.16062882303E+02 -0.66563798512E+01 -0.39926062671E+02  0.43547964649E+02  0.10566000000E+00 0.  1.
        996    1    1    2    0    0 -0.16062882303E+02  0.66563798512E+01  0.91053998392E+02  0.10532404381E+03  0.50000000000E+02 0.  0.
<mgrwt>
<rscale>  0 0.52936977E+02</rscale>
<asrwt>0</asrwt>
<pdfrwt beam="1">  1       13 0.10000000E+01 0.52936977E+02</pdfrwt>
<pdfrwt beam="2">  1       22 0.48872023E+00 0.52936977E+02</pdfrwt>
<totfact> 0.78410566E-02</totfact>
</mgrwt>
</event>
<event>
 4    1  0.2503484E+000  0.5364970E+02  0.7957747E-01  0.1426595E+00
         13   -1    0    0    0    0  0.00000000000E+00  0.00000000000E+00  0.99999944173E+02  0.99999999993E+02  0.10566000000E+00 0.  1.
         22   -1    0    0    0    0 -0.00000000000E+00 -0.00000000000E+00 -0.32121670817E+02  0.32121670817E+02  0.00000000000E+00 0. -1.
         13    1    1    2    0    0 -0.66788365522E+01  0.18267009724E+02 -0.20800253502E+02  0.28477222683E+02  0.10566000000E+00 0. -1.
        996    1    1    2    0    0  0.66788365522E+01 -0.18267009724E+02  0.88678526858E+02  0.10364444813E+03  0.50000000000E+02 0.  0.
<mgrwt>
<rscale>  0 0.53649702E+02</rscale>
<asrwt>0</asrwt>
<pdfrwt beam="1">  1       13 0.10000000E+01 0.53649702E+02</pdfrwt>
<pdfrwt beam="2">  1       22 0.32121690E+00 0.53649702E+02</pdfrwt>
<totfact> 0.18309195E-01</totfact>
</mgrwt>
</event>
<event>
 4    1  0.2503484E+000  0.5103625E+02  0.7957747E-01  0.1439831E+00
         13   -1    0    0    0    0  0.00000000000E+00  0.00000000000E+00  0.99999944181E+02  0.10000000000E+03  0.10566000000E+00 0. -1.
         22   -1    0    0    0    0 -0.00000000000E+00 -0.00000000000E+00 -0.10796296446E+02  0.10796296446E+02  0.00000000000E+00 0. -1.
         13    1    1    2    0    0 -0.15477529390E+01 -0.10114493321E+02  0.30796605530E+01  0.10686158686E+02  0.10566000000E+00 0.  1.
        996    1    1    2    0    0  0.15477529390E+01  0.10114493321E+02  0.86123987182E+02  0.10011013776E+03  0.50000000000E+02 0.  0.
<mgrwt>
<rscale>  0 0.51036247E+02</rscale>
<asrwt>0</asrwt>
<pdfrwt beam="1">  1       13 0.10000000E+01 0.51036247E+02</pdfrwt>
<pdfrwt beam="2">  1       22 0.10796321E+00 0.51036247E+02</pdfrwt>
<totfact> 0.12573468E+00</totfact>
</mgrwt>
</event>
<event>
 4    1  0.2503484E+000  0.5101594E+02  0.7957747E-01  0.1439938E+00
         13   -1    0    0    0    0  0.00000000000E+00  0.00000000000E+00  0.99999944179E+02  0.99999999999E+02  0.10566000000E+00 0. -1.
         22   -1    0    0    0    0 -0.00000000000E+00 -0.00000000000E+00 -0.19996951173E+02  0.19996951173E+02  0.00000000000E+00 0.  1.
         13    1    1    2    0    0  0.83705730503E+00  0.10095795575E+02 -0.11442864544E+02  0.15283195551E+02  0.10566000000E+00 0.  1.
        996    1    1    2    0    0 -0.83705730503E+00 -0.10095795575E+02  0.91445857550E+02  0.10471375562E+03  0.50000000000E+02 0.  0.
<mgrwt>
<rscale>  0 0.51015936E+02</rscale>
<asrwt>0</asrwt>
<pdfrwt beam="1">  1       13 0.10000000E+01 0.51015936E+02</pdfrwt>
<pdfrwt beam="2">  1       22 0.19996974E+00 0.51015936E+02</pdfrwt>
<totfact> 0.45239948E-01</totfact>
</mgrwt>
</event>
<event>
 4    1  0.2503484E+000  0.5141285E+02  0.7957747E-01  0.1437867E+00
         13   -1    0    0    0    0  0.00000000000E+00  0.00000000000E+00  0.99999944184E+02  0.10000000000E+03  0.10566000000E+00 0.  1.
         22   -1    0    0    0    0 -0.00000000000E+00 -0.00000000000E+00 -0.13116653176E+02  0.13116653176E+02  0.00000000000E+00 0.  1.
         13    1    1    2    0    0 -0.11645878500E+02 -0.27667739626E+01 -0.21928106570E+00  0.11972500675E+02  0.10566000000E+00 0. -1.
        996    1    1    2    0    0  0.11645878500E+02  0.27667739626E+01  0.87102572074E+02  0.10114415251E+03  0.50000000000E+02 0.  0.
<mgrwt>
<rscale>  0 0.51412854E+02</rscale>
<asrwt>0</asrwt>
<pdfrwt beam="1">  1       13 0.10000000E+01 0.51412854E+02</pdfrwt>
<pdfrwt beam="2">  1       22 0.13116677E+00 0.51412854E+02</pdfrwt>
<totfact> 0.93478441E-01</totfact>
</mgrwt>
</event>
<event>
 4    1  0.2503484E+000  0.5141181E+02  0.7957747E-01  0.1437872E+00
         13   -1    0    0    0    0  0.00000000000E+00  0.00000000000E+00  0.99999944177E+02  0.99999999998E+02  0.10566000000E+00 0. -1.
         22   -1    0    0    0    0 -0.00000000000E+00 -0.00000000000E+00 -0.10577795919E+02  0.10577795919E+02  0.00000000000E+00 0. -1.
         13    1    1    2    0    0  0.11956932253E+02 -0.45416116623E+00  0.83975409141E+01  0.14618630193E+02  0.10566000000E+00 0.  1.
        996    1    1    2    0    0 -0.11956932253E+02  0.45416116623E+00  0.81024607344E+02  0.95959165724E+02  0.50000000000E+02 0.  0.
<mgrwt>
<rscale>  0 0.51411813E+02</rscale>
<asrwt>0</asrwt>
<pdfrwt beam="1">  1       13 0.10000000E+01 0.51411813E+02</pdfrwt>
<pdfrwt beam="2">  1       22 0.10577821E+00 0.51411813E+02</pdfrwt>
<totfact> 0.12969932E+00</totfact>
</mgrwt>
</event>
<event>
 4    1  0.2503484E+000  0.5169352E+02  0.7957747E-01  0.1436415E+00
         13   -1    0    0    0    0  0.00000000000E+00  0.00000000000E+00  0.99999944188E+02  0.10000000001E+03  0.10566000000E+00 0. -1.
         22   -1    0    0    0    0 -0.00000000000E+00 -0.00000000000E+00 -0.25960245112E+02  0.25960245112E+02  0.00000000000E+00 0. -1.
         13    1    1    2    0    0  0.72536631477E+01 -0.10936389429E+02 -0.16874568072E+02  0.21377147949E+02  0.10566000000E+00 0.  1.
        996    1    1    2    0    0 -0.72536631477E+01  0.10936389429E+02  0.90914267148E+02  0.10458309717E+03  0.50000000000E+02 0.  0.
<mgrwt>
<rscale>  0 0.51693522E+02</rscale>
<asrwt>0</asrwt>
<pdfrwt beam="1">  1       13 0.10000000E+01 0.51693522E+02</pdfrwt>
<pdfrwt beam="2">  1       22 0.25960266E+00 0.51693522E+02</pdfrwt>
<totfact> 0.27359301E-01</totfact>
</mgrwt>
</event>
<event>
 4    1  0.2503484E+000  0.5373153E+02  0.7957747E-01  0.1426195E+00
         13   -1    0    0    0    0  0.00000000000E+00  0.00000000000E+00  0.99999944179E+02  0.99999999999E+02  0.10566000000E+00 0. -1.
         22   -1    0    0    0    0 -0.00000000000E+00 -0.00000000000E+00 -0.14969967992E+02  0.14969967992E+02  0.00000000000E+00 0.  1.
         13    1    1    2    0    0  0.22457832555E+01 -0.19545694021E+02  0.84317893177E+01  0.21405231424E+02  0.10566000000E+00 0.  1.
        996    1    1    2    0    0 -0.22457832555E+01  0.19545694021E+02  0.76598186869E+02  0.93564736567E+02  0.50000000000E+02 0.  0.
<mgrwt>
<rscale>  0 0.53731534E+02</rscale>
<asrwt>0</asrwt>
<pdfrwt beam="1">  1       13 0.10000000E+01 0.53731534E+02</pdfrwt>
<pdfrwt beam="2">  1       22 0.14969992E+00 0.53731534E+02</pdfrwt>
<totfact> 0.75807320E-01</totfact>
</mgrwt>
</event>
<event>
 4    1  0.2503484E+000  0.5163172E+02  0.7957747E-01  0.1436734E+00
         13   -1    0    0    0    0  0.00000000000E+00  0.00000000000E+00  0.99999944180E+02  0.10000000000E+03  0.10566000000E+00 0.  1.
         22   -1    0    0    0    0 -0.00000000000E+00 -0.00000000000E+00 -0.15246834644E+02  0.15246834644E+02  0.00000000000E+00 0. -1.
         13    1    1    2    0    0 -0.15883668832E+01  0.12779358544E+02 -0.31899685113E+01  0.13267327436E+02  0.10566000000E+00 0. -1.
        996    1    1    2    0    0  0.15883668832E+01 -0.12779358544E+02  0.87943078047E+02  0.10197950721E+03  0.50000000000E+02 0.  0.
<mgrwt>
<rscale>  0 0.51631724E+02</rscale>
<asrwt>0</asrwt>
<pdfrwt beam="1">  1       13 0.10000000E+01 0.51631724E+02</pdfrwt>
<pdfrwt beam="2">  1       22 0.15246858E+00 0.51631724E+02</pdfrwt>
<totfact> 0.73212316E-01</totfact>
</mgrwt>
</event>
<event>
 4    1  0.2503484E+000  0.6202762E+02  0.7957747E-01  0.1389514E+00
         13   -1    0    0    0    0  0.00000000000E+00  0.00000000000E+00  0.99999944177E+02  0.99999999997E+02  0.10566000000E+00 0. -1.
         22   -1    0    0    0    0 -0.00000000000E+00 -0.00000000000E+00 -0.25584914927E+02  0.25584914927E+02  0.00000000000E+00 0. -1.
         13    1    1    2    0    0 -0.33796086671E+02 -0.14326566554E+02  0.14878924959E+02  0.39608326845E+02  0.10566000000E+00 0.  1.
        996    1    1    2    0    0  0.33796086671E+02  0.14326566554E+02  0.59536104291E+02  0.85976588079E+02  0.50000000000E+02 0.  0.
<mgrwt>
<rscale>  0 0.62027623E+02</rscale>
<asrwt>0</asrwt>
<pdfrwt beam="1">  1       13 0.10000000E+01 0.62027623E+02</pdfrwt>
<pdfrwt beam="2">  1       22 0.25584936E+00 0.62027623E+02</pdfrwt>
<totfact> 0.28566380E-01</totfact>
</mgrwt>
</event>
<event>
 4    1  0.2503484E+000  0.5200820E+02  0.7957747E-01  0.1434801E+00
         13   -1    0    0    0    0  0.00000000000E+00  0.00000000000E+00  0.99999944169E+02  0.99999999990E+02  0.10566000000E+00 0. -1.
         22   -1    0    0    0    0 -0.00000000000E+00 -0.00000000000E+00 -0.20944285211E+02  0.20944285211E+02  0.00000000000E+00 0.  1.
         13    1    1    2    0    0  0.28821970220E+01 -0.14019495149E+02 -0.10245674534E+02  0.17602224706E+02  0.10566000000E+00 0.  1.
        996    1    1    2    0    0 -0.28821970220E+01  0.14019495149E+02  0.89301333492E+02  0.10334206049E+03  0.50000000000E+02 0.  0.
<mgrwt>
<rscale>  0 0.52008204E+02</rscale>
<asrwt>0</asrwt>
<pdfrwt beam="1">  1       13 0.10000000E+01 0.52008204E+02</pdfrwt>
<pdfrwt beam="2">  1       22 0.20944307E+00 0.52008204E+02</pdfrwt>
<totfact> 0.41544004E-01</totfact>
</mgrwt>
</event>
<event>
 4    1  0.2503484E+000  0.5576529E+02  0.7957747E-01  0.1416514E+00
         13   -1    0    0    0    0  0.00000000000E+00  0.00000000000E+00  0.99999944182E+02  0.10000000000E+03  0.10566000000E+00 0. -1.
         22   -1    0    0    0    0 -0.00000000000E+00 -0.00000000000E+00 -0.21958831486E+02  0.21958831486E+02  0.00000000000E+00 0. -1.
         13    1    1    2    0    0 -0.21940691412E+02 -0.11330201788E+02 -0.15881385942E+01  0.24744711767E+02  0.10566000000E+00 0.  1.
        996    1    1    2    0    0  0.21940691412E+02  0.11330201788E+02  0.79629251290E+02  0.97214119722E+02  0.50000000000E+02 0.  0.
<mgrwt>
<rscale>  0 0.55765289E+02</rscale>
<asrwt>0</asrwt>
<pdfrwt beam="1">  1       13 0.10000000E+01 0.55765289E+02</pdfrwt>
<pdfrwt beam="2">  1       22 0.21958853E+00 0.55765289E+02</pdfrwt>
<totfact> 0.38193194E-01</totfact>
</mgrwt>
</event>
<event>
 4    1  0.2503484E+000  0.5275685E+02  0.7957747E-01  0.1431015E+00
         13   -1    0    0    0    0  0.00000000000E+00  0.00000000000E+00  0.99999944175E+02  0.99999999995E+02  0.10566000000E+00 0. -1.
         22   -1    0    0    0    0 -0.00000000000E+00 -0.00000000000E+00 -0.12109400891E+02  0.12109400891E+02  0.00000000000E+00 0. -1.
         13    1    1    2    0    0  0.12701120154E+02  0.11043843847E+02  0.20494131652E+02  0.26519908301E+02  0.10566000000E+00 0.  1.
        996    1    1    2    0    0 -0.12701120154E+02 -0.11043843847E+02  0.67396411632E+02  0.85589492585E+02  0.50000000000E+02 0.  0.
<mgrwt>
<rscale>  0 0.52756847E+02</rscale>
<asrwt>0</asrwt>
<pdfrwt beam="1">  1       13 0.10000000E+01 0.52756847E+02</pdfrwt>
<pdfrwt beam="2">  1       22 0.12109425E+00 0.52756847E+02</pdfrwt>
<totfact> 0.10618508E+00</totfact>
</mgrwt>
</event>
<event>
 4    1  0.2503484E+000  0.5194941E+02  0.7957747E-01  0.1435102E+00
         13   -1    0    0    0    0  0.00000000000E+00  0.00000000000E+00  0.99999944178E+02  0.99999999998E+02  0.10566000000E+00 0. -1.
         22   -1    0    0    0    0 -0.00000000000E+00 -0.00000000000E+00 -0.16434326854E+02  0.16434326854E+02  0.00000000000E+00 0.  1.
         13    1    1    2    0    0  0.76974053557E+01 -0.11810652275E+02 -0.39681754270E+01  0.14645789041E+02  0.10566000000E+00 0.  1.
        996    1    1    2    0    0 -0.76974053557E+01  0.11810652275E+02  0.87533792751E+02  0.10178853781E+03  0.50000000000E+02 0.  0.
<mgrwt>
<rscale>  0 0.51949413E+02</rscale>
<asrwt>0</asrwt>
<pdfrwt beam="1">  1       13 0.10000000E+01 0.51949413E+02</pdfrwt>
<pdfrwt beam="2">  1       22 0.16434350E+00 0.51949413E+02</pdfrwt>
<totfact> 0.64480059E-01</totfact>
</mgrwt>
</event>
<event>
 4    1  0.2503484E+000  0.6282004E+02  0.7957747E-01  0.1386364E+00
         13   -1    0    0    0    0  0.00000000000E+00  0.00000000000E+00  0.99999944171E+02  0.99999999991E+02  0.10566000000E+00 0. -1.
         22   -1    0    0    0    0 -0.00000000000E+00 -0.00000000000E+00 -0.33885095415E+02  0.33885095415E+02  0.00000000000E+00 0.  1.
         13    1    1    2    0    0  0.35001903121E+02  0.14873592700E+02 -0.57174273932E+01  0.38458511696E+02  0.10566000000E+00 0.  1.
        996    1    1    2    0    0 -0.35001903121E+02 -0.14873592700E+02  0.71832276149E+02  0.95426583710E+02  0.50000000000E+02 0.  0.
<mgrwt>
<rscale>  0 0.62820036E+02</rscale>
<asrwt>0</asrwt>
<pdfrwt beam="1">  1       13 0.10000000E+01 0.62820036E+02</pdfrwt>
<pdfrwt beam="2">  1       22 0.33885114E+00 0.62820036E+02</pdfrwt>
<totfact> 0.16807733E-01</totfact>
</mgrwt>
</event>
<event>
 4    1  0.2503484E+000  0.6768634E+02  0.7957747E-01  0.1368142E+00
         13   -1    0    0    0    0  0.00000000000E+00  0.00000000000E+00  0.99999944168E+02  0.99999999989E+02  0.10566000000E+00 0. -1.
         22   -1    0    0    0    0 -0.00000000000E+00 -0.00000000000E+00 -0.79279021367E+02  0.79279021367E+02  0.00000000000E+00 0.  1.
         13    1    1    2    0    0 -0.36851149314E+00  0.45621312692E+02 -0.59075759967E+02  0.74641788243E+02  0.10566000000E+00 0.  1.
        996    1    1    2    0    0  0.36851149314E+00 -0.45621312692E+02  0.79796682769E+02  0.10463723311E+03  0.50000000000E+02 0.  0.
<mgrwt>
<rscale>  0 0.67686335E+02</rscale>
<asrwt>0</asrwt>
<pdfrwt beam="1">  1       13 0.10000000E+01 0.67686335E+02</pdfrwt>
<pdfrwt beam="2">  1       22 0.79279027E+00 0.67686335E+02</pdfrwt>
<totfact> 0.32986271E-02</totfact>
</mgrwt>
</event>
<event>
 4    1  0.2503484E+000  0.5113717E+02  0.7957747E-01  0.1439303E+00
         13   -1    0    0    0    0  0.00000000000E+00  0.00000000000E+00  0.99999944172E+02  0.99999999993E+02  0.10566000000E+00 0.  1.
         22   -1    0    0    0    0 -0.00000000000E+00 -0.00000000000E+00 -0.20951383746E+02  0.20951383746E+02  0.00000000000E+00 0. -1.
         13    1    1    2    0    0 -0.56891837790E+01 -0.90908635600E+01 -0.12265774875E+02  0.16293281120E+02  0.10566000000E+00 0. -1.
        996    1    1    2    0    0  0.56891837790E+01  0.90908635600E+01  0.91314335301E+02  0.10465810262E+03  0.50000000000E+02 0.  0.
<mgrwt>
<rscale>  0 0.51137174E+02</rscale>
<asrwt>0</asrwt>
<pdfrwt beam="1">  1       13 0.10000000E+01 0.51137174E+02</pdfrwt>
<pdfrwt beam="2">  1       22 0.20951406E+00 0.51137174E+02</pdfrwt>
<totfact> 0.41453458E-01</totfact>
</mgrwt>
</event>
<event>
 4    1  0.2503484E+000  0.6048003E+02  0.7957747E-01  0.1395828E+00
         13   -1    0    0    0    0  0.00000000000E+00  0.00000000000E+00  0.99999944174E+02  0.99999999994E+02  0.10566000000E+00 0.  1.
         22   -1    0    0    0    0 -0.00000000000E+00 -0.00000000000E+00 -0.37928714972E+02  0.37928714972E+02  0.00000000000E+00 0. -1.
         13    1    1    2    0    0  0.17559148139E+02  0.29146357599E+02 -0.17274663632E+02  0.38160961889E+02  0.10566000000E+00 0. -1.
        996    1    1    2    0    0 -0.17559148139E+02 -0.29146357599E+02  0.79345892834E+02  0.99767753078E+02  0.50000000000E+02 0.  0.
<mgrwt>
<rscale>  0 0.60480028E+02</rscale>
<asrwt>0</asrwt>
<pdfrwt beam="1">  1       13 0.10000000E+01 0.60480028E+02</pdfrwt>
<pdfrwt beam="2">  1       22 0.37928732E+00 0.60480028E+02</pdfrwt>
<totfact> 0.13735405E-01</totfact>
</mgrwt>
</event>
<event>
 4    1  0.2503484E+000  0.5734924E+02  0.7957747E-01  0.1409305E+00
         13   -1    0    0    0    0  0.00000000000E+00  0.00000000000E+00  0.99999944185E+02  0.10000000000E+03  0.10566000000E+00 0. -1.
         22   -1    0    0    0    0 -0.00000000000E+00 -0.00000000000E+00 -0.19515310953E+02  0.19515310953E+02  0.00000000000E+00 0. -1.
         13    1    1    2    0    0  0.27888094034E+02 -0.33449945647E+01  0.12990437567E+02  0.30946686570E+02  0.10566000000E+00 0.  1.
        996    1    1    2    0    0 -0.27888094034E+02  0.33449945647E+01  0.67494195664E+02  0.88568624387E+02  0.50000000000E+02 0.  0.
<mgrwt>
<rscale>  0 0.57349235E+02</rscale>
<asrwt>0</asrwt>
<pdfrwt beam="1">  1       13 0.10000000E+01 0.57349235E+02</pdfrwt>
<pdfrwt beam="2">  1       22 0.19515333E+00 0.57349235E+02</pdfrwt>
<totfact> 0.47859162E-01</totfact>
</mgrwt>
</event>
<event>
 4    1  0.2503484E+000  0.5111459E+02  0.7957747E-01  0.1439421E+00
         13   -1    0    0    0    0  0.00000000000E+00  0.00000000000E+00  0.99999944177E+02  0.99999999997E+02  0.10566000000E+00 0.  1.
         22   -1    0    0    0    0 -0.00000000000E+00 -0.00000000000E+00 -0.95942474018E+01  0.95942474018E+01  0.00000000000E+00 0.  1.
         13    1    1    2    0    0 -0.43752935437E+01 -0.96725364600E+01  0.19232574599E+02  0.21968255390E+02  0.10566000000E+00 0. -1.
        996    1    1    2    0    0  0.43752935437E+01  0.96725364600E+01  0.71173122176E+02  0.87625992009E+02  0.50000000000E+02 0.  0.
<mgrwt>
<rscale>  0 0.51114588E+02</rscale>
<asrwt>0</asrwt>
<pdfrwt beam="1">  1       13 0.10000000E+01 0.51114588E+02</pdfrwt>
<pdfrwt beam="2">  1       22 0.95942726E-01 0.51114588E+02</pdfrwt>
<totfact> 0.14932359E+00</totfact>
</mgrwt>
</event>
<event>
 4    1  0.2503484E+000  0.5173387E+02  0.7957747E-01  0.1436208E+00
         13   -1    0    0    0    0  0.00000000000E+00  0.00000000000E+00  0.99999944186E+02  0.10000000001E+03  0.10566000000E+00 0.  1.
         22   -1    0    0    0    0 -0.00000000000E+00 -0.00000000000E+00 -0.18503907200E+02  0.18503907200E+02  0.00000000000E+00 0. -1.
         13    1    1    2    0    0 -0.62181234613E+01  0.11735774949E+02 -0.77280731636E+01  0.15366448903E+02  0.10566000000E+00 0. -1.
        996    1    1    2    0    0  0.62181234613E+01 -0.11735774949E+02  0.89224110150E+02  0.10313745830E+03  0.50000000000E+02 0.  0.
<mgrwt>
<rscale>  0 0.51733872E+02</rscale>
<asrwt>0</asrwt>
<pdfrwt beam="1">  1       13 0.10000000E+01 0.51733872E+02</pdfrwt>
<pdfrwt beam="2">  1       22 0.18503930E+00 0.51733872E+02</pdfrwt>
<totfact> 0.52246868E-01</totfact>
</mgrwt>
</event>
<event>
 4    1  0.2503484E+000  0.5467806E+02  0.7957747E-01  0.1421628E+00
         13   -1    0    0    0    0  0.00000000000E+00  0.00000000000E+00  0.99999944175E+02  0.99999999995E+02  0.10566000000E+00 0. -1.
         22   -1    0    0    0    0 -0.00000000000E+00 -0.00000000000E+00 -0.15015315722E+02  0.15015315722E+02  0.00000000000E+00 0.  1.
         13    1    1    2    0    0  0.49547826237E+01  0.21567117186E+02  0.17846559844E+02  0.28428881034E+02  0.10566000000E+00 0.  1.
        996    1    1    2    0    0 -0.49547826237E+01 -0.21567117186E+02  0.67138068609E+02  0.86586434683E+02  0.50000000000E+02 0.  0.
<mgrwt>
<rscale>  0 0.54678062E+02</rscale>
<asrwt>0</asrwt>
<pdfrwt beam="1">  1       13 0.10000000E+01 0.54678062E+02</pdfrwt>
<pdfrwt beam="2">  1       22 0.15015339E+00 0.54678062E+02</pdfrwt>
<totfact> 0.75565729E-01</totfact>
</mgrwt>
</event>
<event>
 4    1  0.2503484E+000  0.5159414E+02  0.7957747E-01  0.1436928E+00
         13   -1    0    0    0    0  0.00000000000E+00  0.00000000000E+00  0.99999944176E+02  0.99999999996E+02  0.10566000000E+00 0.  1.
         22   -1    0    0    0    0 -0.00000000000E+00 -0.00000000000E+00 -0.20515821805E+02  0.20515821805E+02  0.00000000000E+00 0.  1.
         13    1    1    2    0    0  0.11042543606E+02  0.63259591640E+01 -0.10692862797E+02  0.16622394758E+02  0.10566000000E+00 0. -1.
        996    1    1    2    0    0 -0.11042543606E+02 -0.63259591640E+01  0.90176985169E+02  0.10389342704E+03  0.50000000000E+02 0.  0.
<mgrwt>
<rscale>  0 0.51594142E+02</rscale>
<asrwt>0</asrwt>
<pdfrwt beam="1">  1       13 0.10000000E+01 0.51594142E+02</pdfrwt>
<pdfrwt beam="2">  1       22 0.20515844E+00 0.51594142E+02</pdfrwt>
<totfact> 0.43165721E-01</totfact>
</mgrwt>
</event>
<event>
 4    1  0.2503484E+000  0.5099646E+02  0.7957747E-01  0.1440040E+00
         13   -1    0    0    0    0  0.00000000000E+00  0.00000000000E+00  0.99999944178E+02  0.99999999999E+02  0.10566000000E+00 0.  1.
         22   -1    0    0    0    0 -0.00000000000E+00 -0.00000000000E+00 -0.94463517938E+01  0.94463517938E+01  0.00000000000E+00 0.  1.
         13    1    1    2    0    0  0.96868041534E+01 -0.26085145801E+01  0.20199211987E+02  0.22553444348E+02  0.10566000000E+00 0. -1.
        996    1    1    2    0    0 -0.96868041534E+01  0.26085145801E+01  0.70354380398E+02  0.86892907444E+02  0.50000000000E+02 0.  0.
<mgrwt>
<rscale>  0 0.50996456E+02</rscale>
<asrwt>0</asrwt>
<pdfrwt beam="1">  1       13 0.10000000E+01 0.50996456E+02</pdfrwt>
<pdfrwt beam="2">  1       22 0.94463771E-01 0.50996456E+02</pdfrwt>
<totfact> 0.15263175E+00</totfact>
</mgrwt>
</event>
<event>
 4    1  0.2503484E+000  0.5336534E+02  0.7957747E-01  0.1427991E+00
         13   -1    0    0    0    0  0.00000000000E+00  0.00000000000E+00  0.99999944180E+02  0.10000000000E+03  0.10566000000E+00 0.  1.
         22   -1    0    0    0    0 -0.00000000000E+00 -0.00000000000E+00 -0.13007386524E+02  0.13007386524E+02  0.00000000000E+00 0.  1.
         13    1    1    2    0    0 -0.77173531447E+01 -0.16979444896E+02  0.25391861639E+02  0.31505823113E+02  0.10566000000E+00 0. -1.
        996    1    1    2    0    0  0.77173531447E+01  0.16979444896E+02  0.61600696017E+02  0.81501563410E+02  0.50000000000E+02 0.  0.
<mgrwt>
<rscale>  0 0.53365336E+02</rscale>
<asrwt>0</asrwt>
<pdfrwt beam="1">  1       13 0.10000000E+01 0.53365336E+02</pdfrwt>
<pdfrwt beam="2">  1       22 0.13007411E+00 0.53365336E+02</pdfrwt>
<totfact> 0.95118404E-01</totfact>
</mgrwt>
</event>
<event>
 4    1  0.2503484E+000  0.5164904E+02  0.7957747E-01  0.1436645E+00
         13   -1    0    0    0    0  0.00000000000E+00  0.00000000000E+00  0.99999944182E+02  0.10000000000E+03  0.10566000000E+00 0. -1.
         22   -1    0    0    0    0 -0.00000000000E+00 -0.00000000000E+00 -0.15295920259E+02  0.15295920259E+02  0.00000000000E+00 0. -1.
         13    1    1    2    0    0 -0.22005035842E+01 -0.12758577270E+02 -0.32039477781E+01  0.13337914206E+02  0.10566000000E+00 0.  1.
        996    1    1    2    0    0  0.22005035842E+01  0.12758577270E+02  0.87907971701E+02  0.10195800605E+03  0.50000000000E+02 0.  0.
<mgrwt>
<rscale>  0 0.51649042E+02</rscale>
<asrwt>0</asrwt>
<pdfrwt beam="1">  1       13 0.10000000E+01 0.51649042E+02</pdfrwt>
<pdfrwt beam="2">  1       22 0.15295944E+00 0.51649042E+02</pdfrwt>
<totfact> 0.72821375E-01</totfact>
</mgrwt>
</event>
<event>
 4    1  0.2503484E+000  0.5317083E+02  0.7957747E-01  0.1428953E+00
         13   -1    0    0    0    0  0.00000000000E+00  0.00000000000E+00  0.99999944183E+02  0.10000000000E+03  0.10566000000E+00 0. -1.
         22   -1    0    0    0    0 -0.00000000000E+00 -0.00000000000E+00 -0.33188295429E+02  0.33188295429E+02  0.00000000000E+00 0.  1.
         13    1    1    2    0    0 -0.11344382703E+02  0.14086937516E+02 -0.22730892078E+02  0.29048949141E+02  0.10566000000E+00 0.  1.
        996    1    1    2    0    0  0.11344382703E+02 -0.14086937516E+02  0.89542540832E+02  0.10413934629E+03  0.50000000000E+02 0.  0.
<mgrwt>
<rscale>  0 0.53170827E+02</rscale>
<asrwt>0</asrwt>
<pdfrwt beam="1">  1       13 0.10000000E+01 0.53170827E+02</pdfrwt>
<pdfrwt beam="2">  1       22 0.33188314E+00 0.53170827E+02</pdfrwt>
<totfact> 0.17267764E-01</totfact>
</mgrwt>
</event>
<event>
 4    1  0.2503484E+000  0.5152460E+02  0.7957747E-01  0.1437288E+00
         13   -1    0    0    0    0  0.00000000000E+00  0.00000000000E+00  0.99999944176E+02  0.99999999996E+02  0.10566000000E+00 0. -1.
         22   -1    0    0    0    0 -0.00000000000E+00 -0.00000000000E+00 -0.11983040357E+02  0.11983040357E+02  0.00000000000E+00 0. -1.
         13    1    1    2    0    0  0.62566363439E+01 -0.10753544645E+02  0.33738597541E+01  0.12891016812E+02  0.10566000000E+00 0.  1.
        996    1    1    2    0    0 -0.62566363439E+01  0.10753544645E+02  0.84643044065E+02  0.99092023541E+02  0.50000000000E+02 0.  0.
<mgrwt>
<rscale>  0 0.51524598E+02</rscale>
<asrwt>0</asrwt>
<pdfrwt beam="1">  1       13 0.10000000E+01 0.51524598E+02</pdfrwt>
<pdfrwt beam="2">  1       22 0.11983065E+00 0.51524598E+02</pdfrwt>
<totfact> 0.10761202E+00</totfact>
</mgrwt>
</event>
<event>
 4    1  0.2503484E+000  0.5200014E+02  0.7957747E-01  0.1434843E+00
         13   -1    0    0    0    0  0.00000000000E+00  0.00000000000E+00  0.99999944178E+02  0.99999999998E+02  0.10566000000E+00 0.  1.
         22   -1    0    0    0    0 -0.00000000000E+00 -0.00000000000E+00 -0.14263393740E+02  0.14263393740E+02  0.00000000000E+00 0. -1.
         13    1    1    2    0    0  0.12312651181E+02  0.72396885289E+01  0.34883311711E+00  0.14288013077E+02  0.10566000000E+00 0. -1.
        996    1    1    2    0    0 -0.12312651181E+02 -0.72396885289E+01  0.85387717321E+02  0.99975380661E+02  0.50000000000E+02 0.  0.
<mgrwt>
<rscale>  0 0.52000139E+02</rscale>
<asrwt>0</asrwt>
<pdfrwt beam="1">  1       13 0.10000000E+01 0.52000139E+02</pdfrwt>
<pdfrwt beam="2">  1       22 0.14263418E+00 0.52000139E+02</pdfrwt>
<totfact> 0.81809483E-01</totfact>
</mgrwt>
</event>
<event>
 4    1  0.2503484E+000  0.5769001E+02  0.7957747E-01  0.1407790E+00
         13   -1    0    0    0    0  0.00000000000E+00  0.00000000000E+00  0.99999944183E+02  0.10000000000E+03  0.10566000000E+00 0.  1.
         22   -1    0    0    0    0 -0.00000000000E+00 -0.00000000000E+00 -0.22965032087E+02  0.22965032087E+02  0.00000000000E+00 0.  1.
         13    1    1    2    0    0 -0.23671423786E+02 -0.16364632340E+02  0.27483645524E+01  0.28908513753E+02  0.10566000000E+00 0. -1.
        996    1    1    2    0    0  0.23671423786E+02  0.16364632340E+02  0.74286547544E+02  0.94056518337E+02  0.50000000000E+02 0.  0.
<mgrwt>
<rscale>  0 0.57690012E+02</rscale>
<asrwt>0</asrwt>
<pdfrwt beam="1">  1       13 0.10000000E+01 0.57690012E+02</pdfrwt>
<pdfrwt beam="2">  1       22 0.22965054E+00 0.57690012E+02</pdfrwt>
<totfact> 0.35121584E-01</totfact>
</mgrwt>
</event>
<event>
 4    1  0.2503484E+000  0.5168409E+02  0.7957747E-01  0.1436464E+00
         13   -1    0    0    0    0  0.00000000000E+00  0.00000000000E+00  0.99999944177E+02  0.99999999998E+02  0.10566000000E+00 0. -1.
         22   -1    0    0    0    0 -0.00000000000E+00 -0.00000000000E+00 -0.16383110750E+02  0.16383110750E+02  0.00000000000E+00 0.  1.
         13    1    1    2    0    0  0.10892299428E+02 -0.72527703834E+01 -0.48242853997E+01  0.13947392542E+02  0.10566000000E+00 0.  1.
        996    1    1    2    0    0 -0.10892299428E+02  0.72527703834E+01  0.88441118827E+02  0.10243571821E+03  0.50000000000E+02 0.  0.
<mgrwt>
<rscale>  0 0.51684087E+02</rscale>
<asrwt>0</asrwt>
<pdfrwt beam="1">  1       13 0.10000000E+01 0.51684087E+02</pdfrwt>
<pdfrwt beam="2">  1       22 0.16383134E+00 0.51684087E+02</pdfrwt>
<totfact> 0.64794619E-01</totfact>
</mgrwt>
</event>
<event>
 4    1  0.2503484E+000  0.5107950E+02  0.7957747E-01  0.1439605E+00
         13   -1    0    0    0    0  0.00000000000E+00  0.00000000000E+00  0.99999944182E+02  0.10000000000E+03  0.10566000000E+00 0. -1.
         22   -1    0    0    0    0 -0.00000000000E+00 -0.00000000000E+00 -0.94676930430E+01  0.94676930430E+01  0.00000000000E+00 0. -1.
         13    1    1    2    0    0 -0.35637626510E+01 -0.98190866907E+01  0.16244678436E+02  0.19313612018E+02  0.10566000000E+00 0.  1.
        996    1    1    2    0    0  0.35637626510E+01  0.98190866907E+01  0.74287572703E+02  0.90154081027E+02  0.50000000000E+02 0.  0.
<mgrwt>
<rscale>  0 0.51079496E+02</rscale>
<asrwt>0</asrwt>
<pdfrwt beam="1">  1       13 0.10000000E+01 0.51079496E+02</pdfrwt>
<pdfrwt beam="2">  1       22 0.94677183E-01 0.51079496E+02</pdfrwt>
<totfact> 0.15217255E+00</totfact>
</mgrwt>
</event>
<event>
 4    1  0.2503484E+000  0.5166240E+02  0.7957747E-01  0.1436576E+00
         13   -1    0    0    0    0  0.00000000000E+00  0.00000000000E+00  0.99999944178E+02  0.99999999998E+02  0.10566000000E+00 0. -1.
         22   -1    0    0    0    0 -0.00000000000E+00 -0.00000000000E+00 -0.18827543941E+02  0.18827543941E+02  0.00000000000E+00 0.  1.
         13    1    1    2    0    0 -0.12772724771E+02  0.24210402352E+01 -0.83617510330E+01  0.15457489391E+02  0.10566000000E+00 0.  1.
        996    1    1    2    0    0  0.12772724771E+02 -0.24210402352E+01  0.89534151270E+02  0.10337005455E+03  0.50000000000E+02 0.  0.
<mgrwt>
<rscale>  0 0.51662403E+02</rscale>
<asrwt>0</asrwt>
<pdfrwt beam="1">  1       13 0.10000000E+01 0.51662403E+02</pdfrwt>
<pdfrwt beam="2">  1       22 0.18827567E+00 0.51662403E+02</pdfrwt>
<totfact> 0.50618703E-01</totfact>
</mgrwt>
</event>
<event>
 4    1  0.2503484E+000  0.5143306E+02  0.7957747E-01  0.1437762E+00
         13   -1    0    0    0    0  0.00000000000E+00  0.00000000000E+00  0.99999944167E+02  0.99999999987E+02  0.10566000000E+00 0.  1.
         22   -1    0    0    0    0 -0.00000000000E+00 -0.00000000000E+00 -0.19593143419E+02  0.19593143419E+02  0.00000000000E+00 0. -1.
         13    1    1    2    0    0 -0.10709224720E+02 -0.55382879541E+01 -0.99439692760E+01  0.15628621710E+02  0.10566000000E+00 0. -1.
        996    1    1    2    0    0  0.10709224720E+02  0.55382879541E+01  0.90350770024E+02  0.10396452170E+03  0.50000000000E+02 0.  0.
<mgrwt>
<rscale>  0 0.51433065E+02</rscale>
<asrwt>0</asrwt>
<pdfrwt beam="1">  1       13 0.10000000E+01 0.51433065E+02</pdfrwt>
<pdfrwt beam="2">  1       22 0.19593166E+00 0.51433065E+02</pdfrwt>
<totfact> 0.47023410E-01</totfact>
</mgrwt>
</event>
<event>
 4    1  0.2503484E+000  0.5204256E+02  0.7957747E-01  0.1434626E+00
         13   -1    0    0    0    0  0.00000000000E+00  0.00000000000E+00  0.99999944179E+02  0.99999999999E+02  0.10566000000E+00 0. -1.
         22   -1    0    0    0    0 -0.00000000000E+00 -0.00000000000E+00 -0.14309330935E+02  0.14309330935E+02  0.00000000000E+00 0. -1.
         13    1    1    2    0    0 -0.11184770070E+02 -0.91284899401E+01  0.45850034499E+00  0.14444715182E+02  0.10566000000E+00 0.  1.
        996    1    1    2    0    0  0.11184770070E+02  0.91284899401E+01  0.85232112899E+02  0.99864615752E+02  0.50000000000E+02 0.  0.
<mgrwt>
<rscale>  0 0.52042563E+02</rscale>
<asrwt>0</asrwt>
<pdfrwt beam="1">  1       13 0.10000000E+01 0.52042563E+02</pdfrwt>
<pdfrwt beam="2">  1       22 0.14309355E+00 0.52042563E+02</pdfrwt>
<totfact> 0.81388133E-01</totfact>
</mgrwt>
</event>
<event>
 4    1  0.2503484E+000  0.5500466E+02  0.7957747E-01  0.1420077E+00
         13   -1    0    0    0    0  0.00000000000E+00  0.00000000000E+00  0.99999944170E+02  0.99999999991E+02  0.10566000000E+00 0.  1.
         22   -1    0    0    0    0 -0.00000000000E+00 -0.00000000000E+00 -0.38411056349E+02  0.38411056349E+02  0.00000000000E+00 0. -1.
         13    1    1    2    0    0  0.81718662700E+01 -0.21418059826E+02 -0.26200300394E+02  0.34813497236E+02  0.10566000000E+00 0. -1.
        996    1    1    2    0    0 -0.81718662700E+01  0.21418059826E+02  0.87789188215E+02  0.10359755910E+03  0.50000000000E+02 0.  0.
<mgrwt>
<rscale>  0 0.55004661E+02</rscale>
<asrwt>0</asrwt>
<pdfrwt beam="1">  1       13 0.10000000E+01 0.55004661E+02</pdfrwt>
<pdfrwt beam="2">  1       22 0.38411074E+00 0.55004661E+02</pdfrwt>
<totfact> 0.13366310E-01</totfact>
</mgrwt>
</event>
<event>
 4    1  0.2503484E+000  0.5133933E+02  0.7957747E-01  0.1438249E+00
         13   -1    0    0    0    0  0.00000000000E+00  0.00000000000E+00  0.99999944181E+02  0.10000000000E+03  0.10566000000E+00 0.  1.
         22   -1    0    0    0    0 -0.00000000000E+00 -0.00000000000E+00 -0.15621366839E+02  0.15621366839E+02  0.00000000000E+00 0. -1.
         13    1    1    2    0    0 -0.10285846740E+02 -0.54706238241E+01 -0.48959399118E+01  0.12637553554E+02  0.10566000000E+00 0. -1.
        996    1    1    2    0    0  0.10285846740E+02  0.54706238241E+01  0.89274517254E+02  0.10298381329E+03  0.50000000000E+02 0.  0.
<mgrwt>
<rscale>  0 0.51339326E+02</rscale>
<asrwt>0</asrwt>
<pdfrwt beam="1">  1       13 0.10000000E+01 0.51339326E+02</pdfrwt>
<pdfrwt beam="2">  1       22 0.15621390E+00 0.51339326E+02</pdfrwt>
<totfact> 0.70238881E-01</totfact>
</mgrwt>
</event>
<event>
 4    1  0.2503484E+000  0.5466737E+02  0.7957747E-01  0.1421679E+00
         13   -1    0    0    0    0  0.00000000000E+00  0.00000000000E+00  0.99999944170E+02  0.99999999990E+02  0.10566000000E+00 0. -1.
         22   -1    0    0    0    0 -0.00000000000E+00 -0.00000000000E+00 -0.20943258156E+02  0.20943258156E+02  0.00000000000E+00 0. -1.
         13    1    1    2    0    0  0.21307458934E+02  0.58747789026E+01 -0.30398280803E+01  0.22310816932E+02  0.10566000000E+00 0.  1.
        996    1    1    2    0    0 -0.21307458934E+02 -0.58747789026E+01  0.82096514094E+02  0.98632441214E+02  0.50000000000E+02 0.  0.
<mgrwt>
<rscale>  0 0.54667365E+02</rscale>
<asrwt>0</asrwt>
<pdfrwt beam="1">  1       13 0.10000000E+01 0.54667365E+02</pdfrwt>
<pdfrwt beam="2">  1       22 0.20943280E+00 0.54667365E+02</pdfrwt>
<totfact> 0.41736836E-01</totfact>
</mgrwt>
</event>
<event>
 4    1  0.2503484E+000  0.5606899E+02  0.7957747E-01  0.1415110E+00
         13   -1    0    0    0    0  0.00000000000E+00  0.00000000000E+00  0.99999944169E+02  0.99999999990E+02  0.10566000000E+00 0. -1.
         22   -1    0    0    0    0 -0.00000000000E+00 -0.00000000000E+00 -0.22524164228E+02  0.22524164228E+02  0.00000000000E+00 0.  1.
         13    1    1    2    0    0  0.25265753940E+02 -0.23179852884E+01 -0.17869930097E+01  0.25434934362E+02  0.10566000000E+00 0.  1.
        996    1    1    2    0    0 -0.25265753940E+02  0.23179852884E+01  0.79262772951E+02  0.97089229855E+02  0.50000000000E+02 0.  0.
<mgrwt>
<rscale>  0 0.56068988E+02</rscale>
<asrwt>0</asrwt>
<pdfrwt beam="1">  1       13 0.10000000E+01 0.56068988E+02</pdfrwt>
<pdfrwt beam="2">  1       22 0.22524186E+00 0.56068988E+02</pdfrwt>
<totfact> 0.36380332E-01</totfact>
</mgrwt>
</event>
<event>
 4    1  0.2503484E+000  0.5857679E+02  0.7957747E-01  0.1403903E+00
         13   -1    0    0    0    0  0.00000000000E+00  0.00000000000E+00  0.99999944177E+02  0.99999999997E+02  0.10566000000E+00 0. -1.
         22   -1    0    0    0    0 -0.00000000000E+00 -0.00000000000E+00 -0.36155204931E+02  0.36155204931E+02  0.00000000000E+00 0.  1.
         13    1    1    2    0    0 -0.16405299978E+02  0.25731431438E+02 -0.18059577082E+02  0.35459835301E+02  0.10566000000E+00 0.  1.
        996    1    1    2    0    0  0.16405299978E+02 -0.25731431438E+02  0.81904316328E+02  0.10069536963E+03  0.50000000000E+02 0.  0.
<mgrwt>
<rscale>  0 0.58576791E+02</rscale>
<asrwt>0</asrwt>
<pdfrwt beam="1">  1       13 0.10000000E+01 0.58576791E+02</pdfrwt>
<pdfrwt beam="2">  1       22 0.36155223E+00 0.58576791E+02</pdfrwt>
<totfact> 0.14937829E-01</totfact>
</mgrwt>
</event>
<event>
 4    1  0.2503484E+000  0.5103799E+02  0.7957747E-01  0.1439822E+00
         13   -1    0    0    0    0  0.00000000000E+00  0.00000000000E+00  0.99999944179E+02  0.99999999999E+02  0.10566000000E+00 0. -1.
         22   -1    0    0    0    0 -0.00000000000E+00 -0.00000000000E+00 -0.96141242432E+01  0.96141242432E+01  0.00000000000E+00 0. -1.
         13    1    1    2    0    0  0.62004241759E+01 -0.81505030460E+01  0.94820680194E+01  0.13956960193E+02  0.10566000000E+00 0.  1.
        996    1    1    2    0    0 -0.62004241759E+01  0.81505030460E+01  0.80903751917E+02  0.95657164050E+02  0.50000000000E+02 0.  0.
<mgrwt>
<rscale>  0 0.51037985E+02</rscale>
<asrwt>0</asrwt>
<pdfrwt beam="1">  1       13 0.10000000E+01 0.51037985E+02</pdfrwt>
<pdfrwt beam="2">  1       22 0.96141495E-01 0.51037985E+02</pdfrwt>
<totfact> 0.14885323E+00</totfact>
</mgrwt>
</event>
<event>
 4    1  0.2503484E+000  0.5200026E+02  0.7957747E-01  0.1434842E+00
         13   -1    0    0    0    0  0.00000000000E+00  0.00000000000E+00  0.99999944175E+02  0.99999999995E+02  0.10566000000E+00 0.  1.
         22   -1    0    0    0    0 -0.00000000000E+00 -0.00000000000E+00 -0.12939923732E+02  0.12939923732E+02  0.00000000000E+00 0.  1.
         13    1    1    2    0    0 -0.66047533505E+01 -0.12665065514E+02  0.41200851767E+02  0.43606742617E+02  0.10566000000E+00 0. -1.
        996    1    1    2    0    0  0.66047533505E+01  0.12665065514E+02  0.45859168675E+02  0.69333181110E+02  0.50000000000E+02 0.  0.
<mgrwt>
<rscale>  0 0.52000256E+02</rscale>
<asrwt>0</asrwt>
<pdfrwt beam="1">  1       13 0.10000000E+01 0.52000256E+02</pdfrwt>
<pdfrwt beam="2">  1       22 0.12939948E+00 0.52000256E+02</pdfrwt>
<totfact> 0.95621195E-01</totfact>
</mgrwt>
</event>
<event>
 4    1  0.2503484E+000  0.5340264E+02  0.7957747E-01  0.1427807E+00
         13   -1    0    0    0    0  0.00000000000E+00  0.00000000000E+00  0.99999944182E+02  0.10000000000E+03  0.10566000000E+00 0. -1.
         22   -1    0    0    0    0 -0.00000000000E+00 -0.00000000000E+00 -0.16128979869E+02  0.16128979869E+02  0.00000000000E+00 0.  1.
         13    1    1    2    0    0  0.18174958361E+02  0.46382134621E+01  0.26779104418E+01  0.18947941944E+02  0.10566000000E+00 0.  1.
        996    1    1    2    0    0 -0.18174958361E+02 -0.46382134621E+01  0.81193053871E+02  0.97181037927E+02  0.50000000000E+02 0.  0.
<mgrwt>
<rscale>  0 0.53402642E+02</rscale>
<asrwt>0</asrwt>
<pdfrwt beam="1">  1       13 0.10000000E+01 0.53402642E+02</pdfrwt>
<pdfrwt beam="2">  1       22 0.16129003E+00 0.53402642E+02</pdfrwt>
<totfact> 0.66785556E-01</totfact>
</mgrwt>
</event>
<event>
 4    1  0.2503484E+000  0.5426033E+02  0.7957747E-01  0.1423630E+00
         13   -1    0    0    0    0  0.00000000000E+00  0.00000000000E+00  0.99999944174E+02  0.99999999994E+02  0.10566000000E+00 0.  1.
         22   -1    0    0    0    0 -0.00000000000E+00 -0.00000000000E+00 -0.15591105380E+02  0.15591105380E+02  0.00000000000E+00 0. -1.
         13    1    1    2    0    0  0.35091566816E+01  0.20781459836E+02  0.95577916409E+01  0.23141862471E+02  0.10566000000E+00 0. -1.
        996    1    1    2    0    0 -0.35091566816E+01 -0.20781459836E+02  0.74851047153E+02  0.92449242904E+02  0.50000000000E+02 0.  0.
<mgrwt>
<rscale>  0 0.54260329E+02</rscale>
<asrwt>0</asrwt>
<pdfrwt beam="1">  1       13 0.10000000E+01 0.54260329E+02</pdfrwt>
<pdfrwt beam="2">  1       22 0.15591129E+00 0.54260329E+02</pdfrwt>
<totfact> 0.70878096E-01</totfact>
</mgrwt>
</event>
<event>
 4    1  0.2503484E+000  0.5151746E+02  0.7957747E-01  0.1437325E+00
         13   -1    0    0    0    0  0.00000000000E+00  0.00000000000E+00  0.99999944182E+02  0.10000000000E+03  0.10566000000E+00 0.  1.
         22   -1    0    0    0    0 -0.00000000000E+00 -0.00000000000E+00 -0.10251125358E+02  0.10251125358E+02  0.00000000000E+00 0.  1.
         13    1    1    2    0    0 -0.10095203519E+02 -0.72205029065E+01  0.20017340586E+02  0.23553213889E+02  0.10566000000E+00 0. -1.
        996    1    1    2    0    0  0.10095203519E+02  0.72205029065E+01  0.69731478238E+02  0.86697911472E+02  0.50000000000E+02 0.  0.
<mgrwt>
<rscale>  0 0.51517461E+02</rscale>
<asrwt>0</asrwt>
<pdfrwt beam="1">  1       13 0.10000000E+01 0.51517461E+02</pdfrwt>
<pdfrwt beam="2">  1       22 0.10251150E+00 0.51517461E+02</pdfrwt>
<totfact> 0.13582994E+00</totfact>
</mgrwt>
</event>
<event>
 4    1  0.2503484E+000  0.5236987E+02  0.7957747E-01  0.1432963E+00
         13   -1    0    0    0    0  0.00000000000E+00  0.00000000000E+00  0.99999944182E+02  0.10000000000E+03  0.10566000000E+00 0. -1.
         22   -1    0    0    0    0 -0.00000000000E+00 -0.00000000000E+00 -0.18205390558E+02  0.18205390558E+02  0.00000000000E+00 0.  1.
         13    1    1    2    0    0  0.98557051057E+01  0.12061036633E+02 -0.54059072324E+01  0.16487526341E+02  0.10566000000E+00 0.  1.
        996    1    1    2    0    0 -0.98557051057E+01 -0.12061036633E+02  0.87200460857E+02  0.10171786422E+03  0.50000000000E+02 0.  0.
<mgrwt>
<rscale>  0 0.52369872E+02</rscale>
<asrwt>0</asrwt>
<pdfrwt beam="1">  1       13 0.10000000E+01 0.52369872E+02</pdfrwt>
<pdfrwt beam="2">  1       22 0.18205413E+00 0.52369872E+02</pdfrwt>
<totfact> 0.53868925E-01</totfact>
</mgrwt>
</event>
<event>
 4    1  0.2503484E+000  0.5120704E+02  0.7957747E-01  0.1438938E+00
         13   -1    0    0    0    0  0.00000000000E+00  0.00000000000E+00  0.99999944178E+02  0.99999999998E+02  0.10566000000E+00 0. -1.
         22   -1    0    0    0    0 -0.00000000000E+00 -0.00000000000E+00 -0.10682377629E+02  0.10682377629E+02  0.00000000000E+00 0.  1.
         13    1    1    2    0    0  0.67368747162E+01  0.87621885700E+01  0.52255703508E+01  0.12226167797E+02  0.10566000000E+00 0.  1.
        996    1    1    2    0    0 -0.67368747162E+01 -0.87621885700E+01  0.84091996198E+02  0.98456209830E+02  0.50000000000E+02 0.  0.
<mgrwt>
<rscale>  0 0.51207045E+02</rscale>
<asrwt>0</asrwt>
<pdfrwt beam="1">  1       13 0.10000000E+01 0.51207045E+02</pdfrwt>
<pdfrwt beam="2">  1       22 0.10682403E+00 0.51207045E+02</pdfrwt>
<totfact> 0.12777165E+00</totfact>
</mgrwt>
</event>
<event>
 4    1  0.2503484E+000  0.5444623E+02  0.7957747E-01  0.1422736E+00
         13   -1    0    0    0    0  0.00000000000E+00  0.00000000000E+00  0.99999944185E+02  0.10000000000E+03  0.10566000000E+00 0. -1.
         22   -1    0    0    0    0 -0.00000000000E+00 -0.00000000000E+00 -0.21191248898E+02  0.21191248898E+02  0.00000000000E+00 0.  1.
         13    1    1    2    0    0  0.73644779764E+01 -0.20252308255E+02 -0.41651847036E+01  0.21948837172E+02  0.10566000000E+00 0.  1.
        996    1    1    2    0    0 -0.73644779764E+01  0.20252308255E+02  0.82973879990E+02  0.99242411731E+02  0.50000000000E+02 0.  0.
<mgrwt>
<rscale>  0 0.54446226E+02</rscale>
<asrwt>0</asrwt>
<pdfrwt beam="1">  1       13 0.10000000E+01 0.54446226E+02</pdfrwt>
<pdfrwt beam="2">  1       22 0.21191271E+00 0.54446226E+02</pdfrwt>
<totfact> 0.40798517E-01</totfact>
</mgrwt>
</event>
<event>
 4    1  0.2503484E+000  0.5943729E+02  0.7957747E-01  0.1400208E+00
         13   -1    0    0    0    0  0.00000000000E+00  0.00000000000E+00  0.99999944178E+02  0.99999999998E+02  0.10566000000E+00 0. -1.
         22   -1    0    0    0    0 -0.00000000000E+00 -0.00000000000E+00 -0.34639427989E+02  0.34639427989E+02  0.00000000000E+00 0.  1.
         13    1    1    2    0    0 -0.18602844475E+02 -0.26205445901E+02 -0.14360528196E+02  0.35199817493E+02  0.10566000000E+00 0.  1.
        996    1    1    2    0    0  0.18602844475E+02  0.26205445901E+02  0.79721044384E+02  0.99439610494E+02  0.50000000000E+02 0.  0.
<mgrwt>
<rscale>  0 0.59437288E+02</rscale>
<asrwt>0</asrwt>
<pdfrwt beam="1">  1       13 0.10000000E+01 0.59437288E+02</pdfrwt>
<pdfrwt beam="2">  1       22 0.34639446E+00 0.59437288E+02</pdfrwt>
<totfact> 0.16118301E-01</totfact>
</mgrwt>
</event>
<event>
 4    1  0.2503484E+000  0.5262034E+02  0.7957747E-01  0.1431700E+00
         13   -1    0    0    0    0  0.00000000000E+00  0.00000000000E+00  0.99999944180E+02  0.10000000000E+03  0.10566000000E+00 0. -1.
         22   -1    0    0    0    0 -0.00000000000E+00 -0.00000000000E+00 -0.39926382409E+02  0.39926382409E+02  0.00000000000E+00 0.  1.
         13    1    1    2    0    0 -0.13188622597E+02 -0.97447632115E+01 -0.30813663638E+02  0.34905489638E+02  0.10566000000E+00 0.  1.
        996    1    1    2    0    0  0.13188622597E+02  0.97447632115E+01  0.90887225409E+02  0.10502089277E+03  0.50000000000E+02 0.  0.
<mgrwt>
<rscale>  0 0.52620340E+02</rscale>
<asrwt>0</asrwt>
<pdfrwt beam="1">  1       13 0.10000000E+01 0.52620340E+02</pdfrwt>
<pdfrwt beam="2">  1       22 0.39926399E+00 0.52620340E+02</pdfrwt>
<totfact> 0.12416992E-01</totfact>
</mgrwt>
</event>
<event>
 4    1  0.2503484E+000  0.6026332E+02  0.7957747E-01  0.1396730E+00
         13   -1    0    0    0    0  0.00000000000E+00  0.00000000000E+00  0.99999944175E+02  0.99999999995E+02  0.10566000000E+00 0.  1.
         22   -1    0    0    0    0 -0.00000000000E+00 -0.00000000000E+00 -0.23201891085E+02  0.23201891085E+02  0.00000000000E+00 0.  1.
         13    1    1    2    0    0 -0.21609855728E+02 -0.25781415252E+02  0.41276392461E+02  0.53248652336E+02  0.10566000000E+00 0. -1.
        996    1    1    2    0    0  0.21609855728E+02  0.25781415252E+02  0.35521660629E+02  0.69953238744E+02  0.50000000000E+02 0.  0.
<mgrwt>
<rscale>  0 0.60263316E+02</rscale>
<asrwt>0</asrwt>
<pdfrwt beam="1">  1       13 0.10000000E+01 0.60263316E+02</pdfrwt>
<pdfrwt beam="2">  1       22 0.23201913E+00 0.60263316E+02</pdfrwt>
<totfact> 0.34553486E-01</totfact>
</mgrwt>
</event>
<event>
 4    1  0.2503484E+000  0.5135270E+02  0.7957747E-01  0.1438179E+00
         13   -1    0    0    0    0  0.00000000000E+00  0.00000000000E+00  0.99999944182E+02  0.10000000000E+03  0.10566000000E+00 0. -1.
         22   -1    0    0    0    0 -0.00000000000E+00 -0.00000000000E+00 -0.16689952963E+02  0.16689952963E+02  0.00000000000E+00 0. -1.
         13    1    1    2    0    0  0.80789688511E+01 -0.84752459372E+01 -0.63832608599E+01  0.13336293137E+02  0.10566000000E+00 0.  1.
        996    1    1    2    0    0 -0.80789688511E+01  0.84752459372E+01  0.89693252078E+02  0.10335365983E+03  0.50000000000E+02 0.  0.
<mgrwt>
<rscale>  0 0.51352697E+02</rscale>
<asrwt>0</asrwt>
<pdfrwt beam="1">  1       13 0.10000000E+01 0.51352697E+02</pdfrwt>
<pdfrwt beam="2">  1       22 0.16689976E+00 0.51352697E+02</pdfrwt>
<totfact> 0.62703897E-01</totfact>
</mgrwt>
</event>
<event>
 4    1  0.2503484E+000  0.5118427E+02  0.7957747E-01  0.1439057E+00
         13   -1    0    0    0    0  0.00000000000E+00  0.00000000000E+00  0.99999944179E+02  0.99999999999E+02  0.10566000000E+00 0.  1.
         22   -1    0    0    0    0 -0.00000000000E+00 -0.00000000000E+00 -0.11749230525E+02  0.11749230525E+02  0.00000000000E+00 0.  1.
         13    1    1    2    0    0  0.86109722575E+01  0.67587531044E+01  0.15347960451E+01  0.11054245776E+02  0.10566000000E+00 0. -1.
        996    1    1    2    0    0 -0.86109722575E+01 -0.67587531044E+01  0.86715917609E+02  0.10069498475E+03  0.50000000000E+02 0.  0.
<mgrwt>
<rscale>  0 0.51184271E+02</rscale>
<asrwt>0</asrwt>
<pdfrwt beam="1">  1       13 0.10000000E+01 0.51184271E+02</pdfrwt>
<pdfrwt beam="2">  1       22 0.11749255E+00 0.51184271E+02</pdfrwt>
<totfact> 0.11080832E+00</totfact>
</mgrwt>
</event>
<event>
 4    1  0.2503484E+000  0.5137055E+02  0.7957747E-01  0.1438086E+00
         13   -1    0    0    0    0  0.00000000000E+00  0.00000000000E+00  0.99999944181E+02  0.10000000000E+03  0.10566000000E+00 0.  1.
         22   -1    0    0    0    0 -0.00000000000E+00 -0.00000000000E+00 -0.14991223792E+02  0.14991223792E+02  0.00000000000E+00 0. -1.
         13    1    1    2    0    0 -0.90191109487E+01  0.75887571214E+01 -0.38089066416E+01  0.12387595844E+02  0.10566000000E+00 0. -1.
        996    1    1    2    0    0  0.90191109487E+01 -0.75887571214E+01  0.88817627031E+02  0.10260362795E+03  0.50000000000E+02 0.  0.
<mgrwt>
<rscale>  0 0.51370552E+02</rscale>
<asrwt>0</asrwt>
<pdfrwt beam="1">  1       13 0.10000000E+01 0.51370552E+02</pdfrwt>
<pdfrwt beam="2">  1       22 0.14991248E+00 0.51370552E+02</pdfrwt>
<totfact> 0.75268324E-01</totfact>
</mgrwt>
</event>
<event>
 4    1  0.2503484E+000  0.5785163E+02  0.7957747E-01  0.1407075E+00
         13   -1    0    0    0    0  0.00000000000E+00  0.00000000000E+00  0.99999944181E+02  0.10000000000E+03  0.10566000000E+00 0.  1.
         22   -1    0    0    0    0 -0.00000000000E+00 -0.00000000000E+00 -0.20213627458E+02  0.20213627458E+02  0.00000000000E+00 0. -1.
         13    1    1    2    0    0  0.27826358572E+02 -0.85149981979E+01  0.13048495550E+02  0.31891783046E+02  0.10566000000E+00 0. -1.
        996    1    1    2    0    0 -0.27826358572E+02  0.85149981979E+01  0.66737821172E+02  0.88321844413E+02  0.50000000000E+02 0.  0.
<mgrwt>
<rscale>  0 0.57851633E+02</rscale>
<asrwt>0</asrwt>
<pdfrwt beam="1">  1       13 0.10000000E+01 0.57851633E+02</pdfrwt>
<pdfrwt beam="2">  1       22 0.20213650E+00 0.57851633E+02</pdfrwt>
<totfact> 0.44857206E-01</totfact>
</mgrwt>
</event>
<event>
 4    1  0.2503484E+000  0.5274912E+02  0.7957747E-01  0.1431053E+00
         13   -1    0    0    0    0  0.00000000000E+00  0.00000000000E+00  0.99999944179E+02  0.99999999999E+02  0.10566000000E+00 0. -1.
         22   -1    0    0    0    0 -0.00000000000E+00 -0.00000000000E+00 -0.26246861166E+02  0.26246861166E+02  0.00000000000E+00 0.  1.
         13    1    1    2    0    0 -0.27067089074E+01  0.16587442907E+02 -0.15310058915E+02  0.22734964335E+02  0.10566000000E+00 0.  1.
        996    1    1    2    0    0  0.27067089074E+01 -0.16587442907E+02  0.89063141928E+02  0.10351189683E+03  0.50000000000E+02 0.  0.
<mgrwt>
<rscale>  0 0.52749119E+02</rscale>
<asrwt>0</asrwt>
<pdfrwt beam="1">  1       13 0.10000000E+01 0.52749119E+02</pdfrwt>
<pdfrwt beam="2">  1       22 0.26246882E+00 0.52749119E+02</pdfrwt>
<totfact> 0.26817735E-01</totfact>
</mgrwt>
</event>
<event>
 4    1  0.2503484E+000  0.5111652E+02  0.7957747E-01  0.1439411E+00
         13   -1    0    0    0    0  0.00000000000E+00  0.00000000000E+00  0.99999944170E+02  0.99999999990E+02  0.10566000000E+00 0.  1.
         22   -1    0    0    0    0 -0.00000000000E+00 -0.00000000000E+00 -0.97841709921E+01  0.97841709921E+01  0.00000000000E+00 0.  1.
         13    1    1    2    0    0  0.85838974327E+01  0.62621978336E+01  0.95533787022E+01  0.14289038649E+02  0.10566000000E+00 0. -1.
        996    1    1    2    0    0 -0.85838974327E+01 -0.62621978336E+01  0.80662394475E+02  0.95495132333E+02  0.50000000000E+02 0.  0.
<mgrwt>
<rscale>  0 0.51116518E+02</rscale>
<asrwt>0</asrwt>
<pdfrwt beam="1">  1       13 0.10000000E+01 0.51116518E+02</pdfrwt>
<pdfrwt beam="2">  1       22 0.97841962E-01 0.51116518E+02</pdfrwt>
<totfact> 0.14517970E+00</totfact>
</mgrwt>
</event>
<event>
 4    1  0.2503484E+000  0.5130807E+02  0.7957747E-01  0.1438411E+00
         13   -1    0    0    0    0  0.00000000000E+00  0.00000000000E+00  0.99999944181E+02  0.10000000000E+03  0.10566000000E+00 0.  1.
         22   -1    0    0    0    0 -0.00000000000E+00 -0.00000000000E+00 -0.99320387896E+01  0.99320387896E+01  0.00000000000E+00 0.  1.
         13    1    1    2    0    0 -0.11358003803E+02 -0.18746180025E+01  0.20172976362E+02  0.23226678246E+02  0.10566000000E+00 0. -1.
        996    1    1    2    0    0  0.11358003803E+02  0.18746180025E+01  0.69894929030E+02  0.86705360544E+02  0.50000000000E+02 0.  0.
<mgrwt>
<rscale>  0 0.51308074E+02</rscale>
<asrwt>0</asrwt>
<pdfrwt beam="1">  1       13 0.10000000E+01 0.51308074E+02</pdfrwt>
<pdfrwt beam="2">  1       22 0.99320639E-01 0.51308074E+02</pdfrwt>
<totfact> 0.14213858E+00</totfact>
</mgrwt>
</event>
<event>
 4    1  0.2503484E+000  0.5977156E+02  0.7957747E-01  0.1398793E+00
         13   -1    0    0    0    0  0.00000000000E+00  0.00000000000E+00  0.99999944165E+02  0.99999999985E+02  0.10566000000E+00 0.  1.
         22   -1    0    0    0    0 -0.00000000000E+00 -0.00000000000E+00 -0.22276140525E+02  0.22276140525E+02  0.00000000000E+00 0. -1.
         13    1    1    2    0    0  0.30523254393E+01  0.32608625747E+02  0.16348878372E+02  0.36605138325E+02  0.10566000000E+00 0. -1.
        996    1    1    2    0    0 -0.30523254393E+01 -0.32608625747E+02  0.61374925268E+02  0.85671002185E+02  0.50000000000E+02 0.  0.
<mgrwt>
<rscale>  0 0.59771558E+02</rscale>
<asrwt>0</asrwt>
<pdfrwt beam="1">  1       13 0.10000000E+01 0.59771558E+02</pdfrwt>
<pdfrwt beam="2">  1       22 0.22276162E+00 0.59771558E+02</pdfrwt>
<totfact> 0.37376477E-01</totfact>
</mgrwt>
</event>
<event>
 4    1  0.2503484E+000  0.5218036E+02  0.7957747E-01  0.1433924E+00
         13   -1    0    0    0    0  0.00000000000E+00  0.00000000000E+00  0.99999944176E+02  0.99999999996E+02  0.10566000000E+00 0.  1.
         22   -1    0    0    0    0 -0.00000000000E+00 -0.00000000000E+00 -0.40017387539E+02  0.40017387539E+02  0.00000000000E+00 0. -1.
         13    1    1    2    0    0  0.77955530685E+01 -0.12728695978E+02 -0.31410807392E+02  0.34777008698E+02  0.10566000000E+00 0. -1.
        996    1    1    2    0    0 -0.77955530685E+01  0.12728695978E+02  0.91393364030E+02  0.10524037884E+03  0.50000000000E+02 0.  0.
<mgrwt>
<rscale>  0 0.52180364E+02</rscale>
<asrwt>0</asrwt>
<pdfrwt beam="1">  1       13 0.10000000E+01 0.52180364E+02</pdfrwt>
<pdfrwt beam="2">  1       22 0.40017404E+00 0.52180364E+02</pdfrwt>
<totfact> 0.12359211E-01</totfact>
</mgrwt>
</event>
<event>
 4    1  0.2503484E+000  0.5425363E+02  0.7957747E-01  0.1423662E+00
         13   -1    0    0    0    0  0.00000000000E+00  0.00000000000E+00  0.99999944184E+02  0.10000000000E+03  0.10566000000E+00 0. -1.
         22   -1    0    0    0    0 -0.00000000000E+00 -0.00000000000E+00 -0.52757842573E+02  0.52757842573E+02  0.00000000000E+00 0.  1.
         13    1    1    2    0    0 -0.20724642193E+02  0.37343769098E+01 -0.42762221686E+02  0.47666289267E+02  0.10566000000E+00 0.  1.
        996    1    1    2    0    0  0.20724642193E+02 -0.37343769098E+01  0.90004323297E+02  0.10509155331E+03  0.50000000000E+02 0.  0.
<mgrwt>
<rscale>  0 0.54253630E+02</rscale>
<asrwt>0</asrwt>
<pdfrwt beam="1">  1       13 0.10000000E+01 0.54253630E+02</pdfrwt>
<pdfrwt beam="2">  1       22 0.52757856E+00 0.54253630E+02</pdfrwt>
<totfact> 0.63922467E-02</totfact>
</mgrwt>
</event>
<event>
 4    1  0.2503484E+000  0.5178711E+02  0.7957747E-01  0.1435934E+00
         13   -1    0    0    0    0  0.00000000000E+00  0.00000000000E+00  0.99999944179E+02  0.99999999999E+02  0.10566000000E+00 0. -1.
         22   -1    0    0    0    0 -0.00000000000E+00 -0.00000000000E+00 -0.27349623792E+02  0.27349623792E+02  0.00000000000E+00 0.  1.
         13    1    1    2    0    0  0.91079667826E+01  0.99473708267E+01 -0.18273430064E+02  0.22711993651E+02  0.10566000000E+00 0.  1.
        996    1    1    2    0    0 -0.91079667826E+01 -0.99473708267E+01  0.90923750451E+02  0.10463763014E+03  0.50000000000E+02 0.  0.
<mgrwt>
<rscale>  0 0.51787115E+02</rscale>
<asrwt>0</asrwt>
<pdfrwt beam="1">  1       13 0.10000000E+01 0.51787115E+02</pdfrwt>
<pdfrwt beam="2">  1       22 0.27349644E+00 0.51787115E+02</pdfrwt>
<totfact> 0.24706134E-01</totfact>
</mgrwt>
</event>
<event>
 4    1  0.2503484E+000  0.5101207E+02  0.7957747E-01  0.1439958E+00
         13   -1    0    0    0    0  0.00000000000E+00  0.00000000000E+00  0.99999944178E+02  0.99999999998E+02  0.10566000000E+00 0. -1.
         22   -1    0    0    0    0 -0.00000000000E+00 -0.00000000000E+00 -0.58960907843E+02  0.58960907843E+02  0.00000000000E+00 0.  1.
         13    1    1    2    0    0 -0.64076889831E+01 -0.78213143475E+01 -0.51935899814E+02  0.52911060183E+02  0.10566000000E+00 0.  1.
        996    1    1    2    0    0  0.64076889831E+01  0.78213143475E+01  0.92974936149E+02  0.10604984766E+03  0.50000000000E+02 0.  0.
<mgrwt>
<rscale>  0 0.51012071E+02</rscale>
<asrwt>0</asrwt>
<pdfrwt beam="1">  1       13 0.10000000E+01 0.51012071E+02</pdfrwt>
<pdfrwt beam="2">  1       22 0.58960919E+00 0.51012071E+02</pdfrwt>
<totfact> 0.60300446E-02</totfact>
</mgrwt>
</event>
<event>
 4    1  0.2503484E+000  0.5165946E+02  0.7957747E-01  0.1436591E+00
         13   -1    0    0    0    0  0.00000000000E+00  0.00000000000E+00  0.99999944181E+02  0.10000000000E+03  0.10566000000E+00 0. -1.
         22   -1    0    0    0    0 -0.00000000000E+00 -0.00000000000E+00 -0.10485555648E+02  0.10485555648E+02  0.00000000000E+00 0. -1.
         13    1    1    2    0    0 -0.68129652528E+01  0.11058162503E+02  0.20714200427E+02  0.24449718134E+02  0.10566000000E+00 0.  1.
        996    1    1    2    0    0  0.68129652528E+01 -0.11058162503E+02  0.68800188107E+02  0.86035837516E+02  0.50000000000E+02 0.  0.
<mgrwt>
<rscale>  0 0.51659457E+02</rscale>
<asrwt>0</asrwt>
<pdfrwt beam="1">  1       13 0.10000000E+01 0.51659457E+02</pdfrwt>
<pdfrwt beam="2">  1       22 0.10485581E+00 0.51659457E+02</pdfrwt>
<totfact> 0.13145590E+00</totfact>
</mgrwt>
</event>
<event>
 4    1  0.2503484E+000  0.5441697E+02  0.7957747E-01  0.1422876E+00
         13   -1    0    0    0    0  0.00000000000E+00  0.00000000000E+00  0.99999944181E+02  0.10000000000E+03  0.10566000000E+00 0.  1.
         22   -1    0    0    0    0 -0.00000000000E+00 -0.00000000000E+00 -0.15457118799E+02  0.15457118799E+02  0.00000000000E+00 0.  1.
         13    1    1    2    0    0 -0.12079274894E+02  0.17756612058E+02  0.38891975102E+02  0.44427503251E+02  0.10566000000E+00 0. -1.
        996    1    1    2    0    0  0.12079274894E+02 -0.17756612058E+02  0.45650850280E+02  0.71029615549E+02  0.50000000000E+02 0.  0.
<mgrwt>
<rscale>  0 0.54416966E+02</rscale>
<asrwt>0</asrwt>
<pdfrwt beam="1">  1       13 0.10000000E+01 0.54416966E+02</pdfrwt>
<pdfrwt beam="2">  1       22 0.15457142E+00 0.54416966E+02</pdfrwt>
<totfact> 0.71941431E-01</totfact>
</mgrwt>
</event>
<event>
 4    1  0.2503484E+000  0.6139580E+02  0.7957747E-01  0.1392066E+00
         13   -1    0    0    0    0  0.00000000000E+00  0.00000000000E+00  0.99999944182E+02  0.10000000000E+03  0.10566000000E+00 0.  1.
         22   -1    0    0    0    0 -0.00000000000E+00 -0.00000000000E+00 -0.35137879393E+02  0.35137879393E+02  0.00000000000E+00 0. -1.
         13    1    1    2    0    0  0.80987486762E+00  0.35620048729E+02 -0.11237562648E+02  0.37359573700E+02  0.10566000000E+00 0. -1.
        996    1    1    2    0    0 -0.80987486762E+00 -0.35620048729E+02  0.76099627437E+02  0.97778305696E+02  0.50000000000E+02 0.  0.
<mgrwt>
<rscale>  0 0.61395796E+02</rscale>
<asrwt>0</asrwt>
<pdfrwt beam="1">  1       13 0.10000000E+01 0.61395796E+02</pdfrwt>
<pdfrwt beam="2">  1       22 0.35137898E+00 0.61395796E+02</pdfrwt>
<totfact> 0.15746014E-01</totfact>
</mgrwt>
</event>
<event>
 4    1  0.2503484E+000  0.5160259E+02  0.7957747E-01  0.1436884E+00
         13   -1    0    0    0    0  0.00000000000E+00  0.00000000000E+00  0.99999944178E+02  0.99999999998E+02  0.10566000000E+00 0. -1.
         22   -1    0    0    0    0 -0.00000000000E+00 -0.00000000000E+00 -0.11518491376E+02  0.11518491376E+02  0.00000000000E+00 0.  1.
         13    1    1    2    0    0 -0.10265230206E+02  0.75797239989E+01  0.57122997772E+01  0.13981012118E+02  0.10566000000E+00 0.  1.
        996    1    1    2    0    0  0.10265230206E+02 -0.75797239989E+01  0.82769153025E+02  0.97537479256E+02  0.50000000000E+02 0.  0.
<mgrwt>
<rscale>  0 0.51602589E+02</rscale>
<asrwt>0</asrwt>
<pdfrwt beam="1">  1       13 0.10000000E+01 0.51602589E+02</pdfrwt>
<pdfrwt beam="2">  1       22 0.11518516E+00 0.51602589E+02</pdfrwt>
<totfact> 0.11429462E+00</totfact>
</mgrwt>
</event>
<event>
 4    1  0.2503484E+000  0.6140853E+02  0.7957747E-01  0.1392014E+00
         13   -1    0    0    0    0  0.00000000000E+00  0.00000000000E+00  0.99999944180E+02  0.10000000000E+03  0.10566000000E+00 0.  1.
         22   -1    0    0    0    0 -0.00000000000E+00 -0.00000000000E+00 -0.35308662428E+02  0.35308662428E+02  0.00000000000E+00 0. -1.
         13    1    1    2    0    0  0.35636901732E+02  0.10095828348E+01 -0.11491504884E+02  0.37457627676E+02  0.10566000000E+00 0. -1.
        996    1    1    2    0    0 -0.35636901732E+02 -0.10095828348E+01  0.76182786635E+02  0.97851034752E+02  0.50000000000E+02 0.  0.
<mgrwt>
<rscale>  0 0.61408534E+02</rscale>
<asrwt>0</asrwt>
<pdfrwt beam="1">  1       13 0.10000000E+01 0.61408534E+02</pdfrwt>
<pdfrwt beam="2">  1       22 0.35308681E+00 0.61408534E+02</pdfrwt>
<totfact> 0.15612427E-01</totfact>
</mgrwt>
</event>
<event>
 4    1  0.2503484E+000  0.5371031E+02  0.7957747E-01  0.1426298E+00
         13   -1    0    0    0    0  0.00000000000E+00  0.00000000000E+00  0.99999944174E+02  0.99999999995E+02  0.10566000000E+00 0.  1.
         22   -1    0    0    0    0 -0.00000000000E+00 -0.00000000000E+00 -0.21025331710E+02  0.21025331710E+02  0.00000000000E+00 0. -1.
         13    1    1    2    0    0  0.19451313812E+02  0.25384660302E+01 -0.59874151574E+01  0.20509942055E+02  0.10566000000E+00 0. -1.
        996    1    1    2    0    0 -0.19451313812E+02 -0.25384660302E+01  0.84962027621E+02  0.10051538965E+03  0.50000000000E+02 0.  0.
<mgrwt>
<rscale>  0 0.53710310E+02</rscale>
<asrwt>0</asrwt>
<pdfrwt beam="1">  1       13 0.10000000E+01 0.53710310E+02</pdfrwt>
<pdfrwt beam="2">  1       22 0.21025354E+00 0.53710310E+02</pdfrwt>
<totfact> 0.41361813E-01</totfact>
</mgrwt>
</event>
<event>
 4    1  0.2503484E+000  0.5135231E+02  0.7957747E-01  0.1438181E+00
         13   -1    0    0    0    0  0.00000000000E+00  0.00000000000E+00  0.99999944177E+02  0.99999999998E+02  0.10566000000E+00 0.  1.
         22   -1    0    0    0    0 -0.00000000000E+00 -0.00000000000E+00 -0.10302908625E+02  0.10302908625E+02  0.00000000000E+00 0.  1.
         13    1    1    2    0    0  0.10642338241E+02 -0.48785668659E+01  0.25768040879E+02  0.28303054123E+02  0.10566000000E+00 0. -1.
        996    1    1    2    0    0 -0.10642338241E+02  0.48785668659E+01  0.63928994674E+02  0.81999854500E+02  0.50000000000E+02 0.  0.
<mgrwt>
<rscale>  0 0.51352310E+02</rscale>
<asrwt>0</asrwt>
<pdfrwt beam="1">  1       13 0.10000000E+01 0.51352310E+02</pdfrwt>
<pdfrwt beam="2">  1       22 0.10302934E+00 0.51352310E+02</pdfrwt>
<totfact> 0.13478173E+00</totfact>
</mgrwt>
</event>
<event>
 4    1  0.2503484E+000  0.5464574E+02  0.7957747E-01  0.1421782E+00
         13   -1    0    0    0    0  0.00000000000E+00  0.00000000000E+00  0.99999944182E+02  0.10000000000E+03  0.10566000000E+00 0. -1.
         22   -1    0    0    0    0 -0.00000000000E+00 -0.00000000000E+00 -0.39065713382E+02  0.39065713382E+02  0.00000000000E+00 0.  1.
         13    1    1    2    0    0  0.21073744960E+02 -0.64849225724E+01 -0.27415442004E+02  0.35182020574E+02  0.10566000000E+00 0.  1.
        996    1    1    2    0    0 -0.21073744960E+02  0.64849225724E+01  0.88349672803E+02  0.10388369281E+03  0.50000000000E+02 0.  0.
<mgrwt>
<rscale>  0 0.54645740E+02</rscale>
<asrwt>0</asrwt>
<pdfrwt beam="1">  1       13 0.10000000E+01 0.54645740E+02</pdfrwt>
<pdfrwt beam="2">  1       22 0.39065730E+00 0.54645740E+02</pdfrwt>
<totfact> 0.12954509E-01</totfact>
</mgrwt>
</event>
<event>
 4    1  0.2503484E+000  0.5216369E+02  0.7957747E-01  0.1434009E+00
         13   -1    0    0    0    0  0.00000000000E+00  0.00000000000E+00  0.99999944184E+02  0.10000000000E+03  0.10566000000E+00 0. -1.
         22   -1    0    0    0    0 -0.00000000000E+00 -0.00000000000E+00 -0.11557838649E+02  0.11557838649E+02  0.00000000000E+00 0.  1.
         13    1    1    2    0    0  0.19812965819E+01  0.14735150308E+02  0.12491067353E+02  0.19418756871E+02  0.10566000000E+00 0.  1.
        996    1    1    2    0    0 -0.19812965819E+01 -0.14735150308E+02  0.75951038182E+02  0.92139081782E+02  0.50000000000E+02 0.  0.
<mgrwt>
<rscale>  0 0.52163687E+02</rscale>
<asrwt>0</asrwt>
<pdfrwt beam="1">  1       13 0.10000000E+01 0.52163687E+02</pdfrwt>
<pdfrwt beam="2">  1       22 0.11557863E+00 0.52163687E+02</pdfrwt>
<totfact> 0.11385282E+00</totfact>
</mgrwt>
</event>
<event>
 4    1  0.2503484E+000  0.5287879E+02  0.7957747E-01  0.1430405E+00
         13   -1    0    0    0    0  0.00000000000E+00  0.00000000000E+00  0.99999944174E+02  0.99999999995E+02  0.10566000000E+00 0.  1.
         22   -1    0    0    0    0 -0.00000000000E+00 -0.00000000000E+00 -0.13174529700E+02  0.13174529700E+02  0.00000000000E+00 0.  1.
         13    1    1    2    0    0 -0.16327921701E+02 -0.54374163349E+01  0.99826485847E+01  0.19895501006E+02  0.10566000000E+00 0. -1.
        996    1    1    2    0    0  0.16327921701E+02  0.54374163349E+01  0.76842765890E+02  0.93279028689E+02  0.50000000000E+02 0.  0.
<mgrwt>
<rscale>  0 0.52878791E+02</rscale>
<asrwt>0</asrwt>
<pdfrwt beam="1">  1       13 0.10000000E+01 0.52878791E+02</pdfrwt>
<pdfrwt beam="2">  1       22 0.13174554E+00 0.52878791E+02</pdfrwt>
<totfact> 0.93122599E-01</totfact>
</mgrwt>
</event>
<event>
 4    1  0.2503484E+000  0.5451676E+02  0.7957747E-01  0.1422398E+00
         13   -1    0    0    0    0  0.00000000000E+00  0.00000000000E+00  0.99999944181E+02  0.10000000000E+03  0.10566000000E+00 0. -1.
         22   -1    0    0    0    0 -0.00000000000E+00 -0.00000000000E+00 -0.18601517005E+02  0.18601517005E+02  0.00000000000E+00 0.  1.
         13    1    1    2    0    0  0.38544715354E+01 -0.21382712985E+02  0.13728982691E+01  0.21770929679E+02  0.10566000000E+00 0.  1.
        996    1    1    2    0    0 -0.38544715354E+01  0.21382712985E+02  0.80025528906E+02  0.96830587327E+02  0.50000000000E+02 0.  0.
<mgrwt>
<rscale>  0 0.54516762E+02</rscale>
<asrwt>0</asrwt>
<pdfrwt beam="1">  1       13 0.10000000E+01 0.54516762E+02</pdfrwt>
<pdfrwt beam="2">  1       22 0.18601540E+00 0.54516762E+02</pdfrwt>
<totfact> 0.52013129E-01</totfact>
</mgrwt>
</event>
<event>
 4    1  0.2503484E+000  0.5155924E+02  0.7957747E-01  0.1437108E+00
         13   -1    0    0    0    0  0.00000000000E+00  0.00000000000E+00  0.99999944181E+02  0.10000000000E+03  0.10566000000E+00 0.  1.
         22   -1    0    0    0    0 -0.00000000000E+00 -0.00000000000E+00 -0.10328154986E+02  0.10328154986E+02  0.00000000000E+00 0.  1.
         13    1    1    2    0    0  0.59264486169E+01  0.11101025059E+02  0.20506845650E+02  0.24060287469E+02  0.10566000000E+00 0. -1.
        996    1    1    2    0    0 -0.59264486169E+01 -0.11101025059E+02  0.69164943545E+02  0.86267867518E+02  0.50000000000E+02 0.  0.
<mgrwt>
<rscale>  0 0.51559243E+02</rscale>
<asrwt>0</asrwt>
<pdfrwt beam="1">  1       13 0.10000000E+01 0.51559243E+02</pdfrwt>
<pdfrwt beam="2">  1       22 0.10328180E+00 0.51559243E+02</pdfrwt>
<totfact> 0.13436738E+00</totfact>
</mgrwt>
</event>
<event>
 4    1  0.2503484E+000  0.5192715E+02  0.7957747E-01  0.1435216E+00
         13   -1    0    0    0    0  0.00000000000E+00  0.00000000000E+00  0.99999944175E+02  0.99999999995E+02  0.10566000000E+00 0. -1.
         22   -1    0    0    0    0 -0.00000000000E+00 -0.00000000000E+00 -0.15189846505E+02  0.15189846505E+02  0.00000000000E+00 0.  1.
         13    1    1    2    0    0  0.13874567026E+02  0.19811338915E+01 -0.18761224512E+01  0.14140703700E+02  0.10566000000E+00 0.  1.
        996    1    1    2    0    0 -0.13874567026E+02 -0.19811338915E+01  0.86686220122E+02  0.10104914280E+03  0.50000000000E+02 0.  0.
<mgrwt>
<rscale>  0 0.51927146E+02</rscale>
<asrwt>0</asrwt>
<pdfrwt beam="1">  1       13 0.10000000E+01 0.51927146E+02</pdfrwt>
<pdfrwt beam="2">  1       22 0.15189870E+00 0.51927146E+02</pdfrwt>
<totfact> 0.73717269E-01</totfact>
</mgrwt>
</event>
<event>
 4    1  0.2503484E+000  0.5755947E+02  0.7957747E-01  0.1408369E+00
         13   -1    0    0    0    0  0.00000000000E+00  0.00000000000E+00  0.99999944180E+02  0.10000000000E+03  0.10566000000E+00 0.  1.
         22   -1    0    0    0    0 -0.00000000000E+00 -0.00000000000E+00 -0.27625678958E+02  0.27625678958E+02  0.00000000000E+00 0.  1.
         13    1    1    2    0    0 -0.17644145916E+02 -0.22400361687E+02 -0.72056933279E+01  0.29411311926E+02  0.10566000000E+00 0. -1.
        996    1    1    2    0    0  0.17644145916E+02  0.22400361687E+02  0.79579958550E+02  0.98214367032E+02  0.50000000000E+02 0.  0.
<mgrwt>
<rscale>  0 0.57559466E+02</rscale>
<asrwt>0</asrwt>
<pdfrwt beam="1">  1       13 0.10000000E+01 0.57559466E+02</pdfrwt>
<pdfrwt beam="2">  1       22 0.27625699E+00 0.57559466E+02</pdfrwt>
<totfact> 0.24420165E-01</totfact>
</mgrwt>
</event>
<event>
 4    1  0.2503484E+000  0.5157437E+02  0.7957747E-01  0.1437030E+00
         13   -1    0    0    0    0  0.00000000000E+00  0.00000000000E+00  0.99999944181E+02  0.10000000000E+03  0.10566000000E+00 0.  1.
         22   -1    0    0    0    0 -0.00000000000E+00 -0.00000000000E+00 -0.14589139580E+02  0.14589139580E+02  0.00000000000E+00 0.  1.
         13    1    1    2    0    0  0.79744400174E+01 -0.98144658167E+01 -0.22858624190E+01  0.12851138622E+02  0.10566000000E+00 0. -1.
        996    1    1    2    0    0 -0.79744400174E+01  0.98144658167E+01  0.87696667019E+02  0.10173800096E+03  0.50000000000E+02 0.  0.
<mgrwt>
<rscale>  0 0.51574368E+02</rscale>
<asrwt>0</asrwt>
<pdfrwt beam="1">  1       13 0.10000000E+01 0.51574368E+02</pdfrwt>
<pdfrwt beam="2">  1       22 0.14589163E+00 0.51574368E+02</pdfrwt>
<totfact> 0.78766345E-01</totfact>
</mgrwt>
</event>
<event>
 4    1  0.2503484E+000  0.5112438E+02  0.7957747E-01  0.1439370E+00
         13   -1    0    0    0    0  0.00000000000E+00  0.00000000000E+00  0.99999944178E+02  0.99999999999E+02  0.10566000000E+00 0.  1.
         22   -1    0    0    0    0 -0.00000000000E+00 -0.00000000000E+00 -0.95497331211E+01  0.95497331211E+01  0.00000000000E+00 0.  1.
         13    1    1    2    0    0  0.47944863168E+01  0.95244401610E+01  0.14645921938E+02  0.18116739576E+02  0.10566000000E+00 0. -1.
        996    1    1    2    0    0 -0.47944863168E+01 -0.95244401610E+01  0.75804289120E+02  0.91432993544E+02  0.50000000000E+02 0.  0.
<mgrwt>
<rscale>  0 0.51124378E+02</rscale>
<asrwt>0</asrwt>
<pdfrwt beam="1">  1       13 0.10000000E+01 0.51124378E+02</pdfrwt>
<pdfrwt beam="2">  1       22 0.95497584E-01 0.51124378E+02</pdfrwt>
<totfact> 0.15032461E+00</totfact>
</mgrwt>
</event>
<event>
 4    1  0.2503484E+000  0.5171275E+02  0.7957747E-01  0.1436316E+00
         13   -1    0    0    0    0  0.00000000000E+00  0.00000000000E+00  0.99999944185E+02  0.10000000000E+03  0.10566000000E+00 0. -1.
         22   -1    0    0    0    0 -0.00000000000E+00 -0.00000000000E+00 -0.47741327961E+02  0.47741327961E+02  0.00000000000E+00 0.  1.
         13    1    1    2    0    0  0.25873291040E+01 -0.12942745119E+02 -0.39921287483E+02  0.42046751140E+02  0.10566000000E+00 0.  1.
        996    1    1    2    0    0 -0.25873291040E+01  0.12942745119E+02  0.92179903706E+02  0.10569457683E+03  0.50000000000E+02 0.  0.
<mgrwt>
<rscale>  0 0.51712754E+02</rscale>
<asrwt>0</asrwt>
<pdfrwt beam="1">  1       13 0.10000000E+01 0.51712754E+02</pdfrwt>
<pdfrwt beam="2">  1       22 0.47741343E+00 0.51712754E+02</pdfrwt>
<totfact> 0.83420987E-02</totfact>
</mgrwt>
</event>
<event>
 4    1  0.2503484E+000  0.6686099E+02  0.7957747E-01  0.1371105E+00
         13   -1    0    0    0    0  0.00000000000E+00  0.00000000000E+00  0.99999944182E+02  0.10000000000E+03  0.10566000000E+00 0.  1.
         22   -1    0    0    0    0 -0.00000000000E+00 -0.00000000000E+00 -0.51505734228E+02  0.51505734228E+02  0.00000000000E+00 0. -1.
         13    1    1    2    0    0 -0.12331925836E+02  0.42641705557E+02 -0.25970937805E+02  0.51428515652E+02  0.10566000000E+00 0. -1.
        996    1    1    2    0    0  0.12331925836E+02 -0.42641705557E+02  0.74465147759E+02  0.10007721858E+03  0.50000000000E+02 0.  0.
<mgrwt>
<rscale>  0 0.66860986E+02</rscale>
<asrwt>0</asrwt>
<pdfrwt beam="1">  1       13 0.10000000E+01 0.66860986E+02</pdfrwt>
<pdfrwt beam="2">  1       22 0.51505748E+00 0.66860986E+02</pdfrwt>
<totfact> 0.68320195E-02</totfact>
</mgrwt>
</event>
<event>
 4    1  0.2503484E+000  0.5205236E+02  0.7957747E-01  0.1434576E+00
         13   -1    0    0    0    0  0.00000000000E+00  0.00000000000E+00  0.99999944179E+02  0.99999999999E+02  0.10566000000E+00 0.  1.
         22   -1    0    0    0    0 -0.00000000000E+00 -0.00000000000E+00 -0.77797685977E+02  0.77797685977E+02  0.00000000000E+00 0. -1.
         13    1    1    2    0    0 -0.10875120628E+02  0.95488089743E+01 -0.70235939271E+02  0.71711549494E+02  0.10566000000E+00 0. -1.
        996    1    1    2    0    0  0.10875120628E+02 -0.95488089743E+01  0.92438197474E+02  0.10608613648E+03  0.50000000000E+02 0.  0.
<mgrwt>
<rscale>  0 0.52052358E+02</rscale>
<asrwt>0</asrwt>
<pdfrwt beam="1">  1       13 0.10000000E+01 0.52052358E+02</pdfrwt>
<pdfrwt beam="2">  1       22 0.77797692E+00 0.52052358E+02</pdfrwt>
<totfact> 0.37812502E-02</totfact>
</mgrwt>
</event>
<event>
 4    1  0.2503484E+000  0.5314828E+02  0.7957747E-01  0.1429064E+00
         13   -1    0    0    0    0  0.00000000000E+00  0.00000000000E+00  0.99999944180E+02  0.10000000000E+03  0.10566000000E+00 0. -1.
         22   -1    0    0    0    0 -0.00000000000E+00 -0.00000000000E+00 -0.50614859637E+02  0.50614859637E+02  0.00000000000E+00 0.  1.
         13    1    1    2    0    0 -0.11158823903E+02  0.14149910745E+02 -0.41548585763E+02  0.45288359077E+02  0.10566000000E+00 0.  1.
        996    1    1    2    0    0  0.11158823903E+02 -0.14149910745E+02  0.90933670305E+02  0.10532650056E+03  0.50000000000E+02 0.  0.
<mgrwt>
<rscale>  0 0.53148277E+02</rscale>
<asrwt>0</asrwt>
<pdfrwt beam="1">  1       13 0.10000000E+01 0.53148277E+02</pdfrwt>
<pdfrwt beam="2">  1       22 0.50614873E+00 0.53148277E+02</pdfrwt>
<totfact> 0.71229650E-02</totfact>
</mgrwt>
</event>
<event>
 4    1  0.2503484E+000  0.5778096E+02  0.7957747E-01  0.1407387E+00
         13   -1    0    0    0    0  0.00000000000E+00  0.00000000000E+00  0.99999944179E+02  0.10000000000E+03  0.10566000000E+00 0. -1.
         22   -1    0    0    0    0 -0.00000000000E+00 -0.00000000000E+00 -0.19526814302E+02  0.19526814302E+02  0.00000000000E+00 0.  1.
         13    1    1    2    0    0  0.25416381290E+02  0.13879711948E+02  0.16531471462E+02  0.33345757667E+02  0.10566000000E+00 0.  1.
        996    1    1    2    0    0 -0.25416381290E+02 -0.13879711948E+02  0.63941658416E+02  0.86181056635E+02  0.50000000000E+02 0.  0.
<mgrwt>
<rscale>  0 0.57780956E+02</rscale>
<asrwt>0</asrwt>
<pdfrwt beam="1">  1       13 0.10000000E+01 0.57780956E+02</pdfrwt>
<pdfrwt beam="2">  1       22 0.19526837E+00 0.57780956E+02</pdfrwt>
<totfact> 0.47840497E-01</totfact>
</mgrwt>
</event>
<event>
 4    1  0.2503484E+000  0.5141060E+02  0.7957747E-01  0.1437878E+00
         13   -1    0    0    0    0  0.00000000000E+00  0.00000000000E+00  0.99999944183E+02  0.10000000000E+03  0.10566000000E+00 0.  1.
         22   -1    0    0    0    0 -0.00000000000E+00 -0.00000000000E+00 -0.10096946311E+02  0.10096946311E+02  0.00000000000E+00 0.  1.
         13    1    1    2    0    0 -0.99212411647E+01 -0.66797034761E+01  0.20373377832E+02  0.23624884192E+02  0.10566000000E+00 0. -1.
        996    1    1    2    0    0  0.99212411647E+01  0.66797034761E+01  0.69529620039E+02  0.86472062122E+02  0.50000000000E+02 0.  0.
<mgrwt>
<rscale>  0 0.51410597E+02</rscale>
<asrwt>0</asrwt>
<pdfrwt beam="1">  1       13 0.10000000E+01 0.51410597E+02</pdfrwt>
<pdfrwt beam="2">  1       22 0.10096971E+00 0.51410597E+02</pdfrwt>
<totfact> 0.13882235E+00</totfact>
</mgrwt>
</event>
<event>
 4    1  0.2503484E+000  0.5152041E+02  0.7957747E-01  0.1437309E+00
         13   -1    0    0    0    0  0.00000000000E+00  0.00000000000E+00  0.99999944186E+02  0.10000000001E+03  0.10566000000E+00 0. -1.
         22   -1    0    0    0    0 -0.00000000000E+00 -0.00000000000E+00 -0.51871333425E+02  0.51871333425E+02  0.00000000000E+00 0.  1.
         13    1    1    2    0    0  0.12165455791E+02  0.25207552832E+01 -0.44324115255E+02  0.46032498074E+02  0.10566000000E+00 0.  1.
        996    1    1    2    0    0 -0.12165455791E+02 -0.25207552832E+01  0.92452726016E+02  0.10583883536E+03  0.50000000000E+02 0.  0.
<mgrwt>
<rscale>  0 0.51520409E+02</rscale>
<asrwt>0</asrwt>
<pdfrwt beam="1">  1       13 0.10000000E+01 0.51520409E+02</pdfrwt>
<pdfrwt beam="2">  1       22 0.51871347E+00 0.51520409E+02</pdfrwt>
<totfact> 0.66704872E-02</totfact>
</mgrwt>
</event>
<event>
 4    1  0.2503484E+000  0.5125657E+02  0.7957747E-01  0.1438679E+00
         13   -1    0    0    0    0  0.00000000000E+00  0.00000000000E+00  0.99999944184E+02  0.10000000000E+03  0.10566000000E+00 0. -1.
         22   -1    0    0    0    0 -0.00000000000E+00 -0.00000000000E+00 -0.25345600748E+02  0.25345600748E+02  0.00000000000E+00 0.  1.
         13    1    1    2    0    0 -0.66487112575E+01 -0.91120991047E+01 -0.16959169599E+02  0.20368119918E+02  0.10566000000E+00 0.  1.
        996    1    1    2    0    0  0.66487112575E+01  0.91120991047E+01  0.91613513035E+02  0.10497748083E+03  0.50000000000E+02 0.  0.
<mgrwt>
<rscale>  0 0.51256567E+02</rscale>
<asrwt>0</asrwt>
<pdfrwt beam="1">  1       13 0.10000000E+01 0.51256567E+02</pdfrwt>
<pdfrwt beam="2">  1       22 0.25345622E+00 0.51256567E+02</pdfrwt>
<totfact> 0.28660213E-01</totfact>
</mgrwt>
</event>
<event>
 4    1  0.2503484E+000  0.5125684E+02  0.7957747E-01  0.1438678E+00
         13   -1    0    0    0    0  0.00000000000E+00  0.00000000000E+00  0.99999944178E+02  0.99999999998E+02  0.10566000000E+00 0. -1.
         22   -1    0    0    0    0 -0.00000000000E+00 -0.00000000000E+00 -0.16492796973E+02  0.16492796973E+02  0.00000000000E+00 0.  1.
         13    1    1    2    0    0 -0.79871996778E+01 -0.79666690214E+01 -0.64223443249E+01  0.12981557867E+02  0.10566000000E+00 0.  1.
        996    1    1    2    0    0  0.79871996778E+01  0.79666690214E+01  0.89929491530E+02  0.10351123910E+03  0.50000000000E+02 0.  0.
<mgrwt>
<rscale>  0 0.51256835E+02</rscale>
<asrwt>0</asrwt>
<pdfrwt beam="1">  1       13 0.10000000E+01 0.51256835E+02</pdfrwt>
<pdfrwt beam="2">  1       22 0.16492820E+00 0.51256835E+02</pdfrwt>
<totfact> 0.63997451E-01</totfact>
</mgrwt>
</event>
<event>
 4    1  0.2503484E+000  0.5407915E+02  0.7957747E-01  0.1424505E+00
         13   -1    0    0    0    0  0.00000000000E+00  0.00000000000E+00  0.99999944182E+02  0.10000000000E+03  0.10566000000E+00 0.  1.
         22   -1    0    0    0    0 -0.00000000000E+00 -0.00000000000E+00 -0.15166444069E+02  0.15166444069E+02  0.00000000000E+00 0.  1.
         13    1    1    2    0    0  0.81813768838E+01  0.18910833083E+02  0.10177505996E+02  0.22981456175E+02  0.10566000000E+00 0. -1.
        996    1    1    2    0    0 -0.81813768838E+01 -0.18910833083E+02  0.74655994117E+02  0.92184987895E+02  0.50000000000E+02 0.  0.
<mgrwt>
<rscale>  0 0.54079151E+02</rscale>
<asrwt>0</asrwt>
<pdfrwt beam="1">  1       13 0.10000000E+01 0.54079151E+02</pdfrwt>
<pdfrwt beam="2">  1       22 0.15166468E+00 0.54079151E+02</pdfrwt>
<totfact> 0.74225327E-01</totfact>
</mgrwt>
</event>
<event>
 4    1  0.2503484E+000  0.5175944E+02  0.7957747E-01  0.1436076E+00
         13   -1    0    0    0    0  0.00000000000E+00  0.00000000000E+00  0.99999944178E+02  0.99999999999E+02  0.10566000000E+00 0.  1.
         22   -1    0    0    0    0 -0.00000000000E+00 -0.00000000000E+00 -0.22115712384E+02  0.22115712384E+02  0.00000000000E+00 0. -1.
         13    1    1    2    0    0  0.13215518638E+02 -0.20952485345E+01 -0.12273129226E+02  0.18157116079E+02  0.10566000000E+00 0. -1.
        996    1    1    2    0    0 -0.13215518638E+02  0.20952485345E+01  0.90157361020E+02  0.10395859630E+03  0.50000000000E+02 0.  0.
<mgrwt>
<rscale>  0 0.51759444E+02</rscale>
<asrwt>0</asrwt>
<pdfrwt beam="1">  1       13 0.10000000E+01 0.51759444E+02</pdfrwt>
<pdfrwt beam="2">  1       22 0.22115734E+00 0.51759444E+02</pdfrwt>
<totfact> 0.37425875E-01</totfact>
</mgrwt>
</event>
<event>
 4    1  0.2503484E+000  0.5323573E+02  0.7957747E-01  0.1428631E+00
         13   -1    0    0    0    0  0.00000000000E+00  0.00000000000E+00  0.99999944184E+02  0.10000000000E+03  0.10566000000E+00 0.  1.
         22   -1    0    0    0    0 -0.00000000000E+00 -0.00000000000E+00 -0.19691741851E+02  0.19691741851E+02  0.00000000000E+00 0. -1.
         13    1    1    2    0    0 -0.17559421598E+02 -0.50704337471E+01 -0.51674011553E+01  0.18993572175E+02  0.10566000000E+00 0. -1.
        996    1    1    2    0    0  0.17559421598E+02  0.50704337471E+01  0.85475603489E+02  0.10069816968E+03  0.50000000000E+02 0.  0.
<mgrwt>
<rscale>  0 0.53235727E+02</rscale>
<asrwt>0</asrwt>
<pdfrwt beam="1">  1       13 0.10000000E+01 0.53235727E+02</pdfrwt>
<pdfrwt beam="2">  1       22 0.19691764E+00 0.53235727E+02</pdfrwt>
<totfact> 0.46739291E-01</totfact>
</mgrwt>
</event>
<event>
 4    1  0.2503484E+000  0.5262731E+02  0.7957747E-01  0.1431665E+00
         13   -1    0    0    0    0  0.00000000000E+00  0.00000000000E+00  0.99999944184E+02  0.10000000000E+03  0.10566000000E+00 0. -1.
         22   -1    0    0    0    0 -0.00000000000E+00 -0.00000000000E+00 -0.60070385300E+02  0.60070385300E+02  0.00000000000E+00 0.  1.
         13    1    1    2    0    0 -0.10039168500E+02 -0.12994191945E+02 -0.51786682000E+02  0.54327760170E+02  0.10566000000E+00 0.  1.
        996    1    1    2    0    0  0.10039168500E+02  0.12994191945E+02  0.91716240884E+02  0.10574262513E+03  0.50000000000E+02 0.  0.
<mgrwt>
<rscale>  0 0.52627312E+02</rscale>
<asrwt>0</asrwt>
<pdfrwt beam="1">  1       13 0.10000000E+01 0.52627312E+02</pdfrwt>
<pdfrwt beam="2">  1       22 0.60070396E+00 0.52627312E+02</pdfrwt>
<totfact> 0.63830022E-02</totfact>
</mgrwt>
</event>
<event>
 4    1  0.2503484E+000  0.5140592E+02  0.7957747E-01  0.1437903E+00
         13   -1    0    0    0    0  0.00000000000E+00  0.00000000000E+00  0.99999944183E+02  0.10000000000E+03  0.10566000000E+00 0. -1.
         22   -1    0    0    0    0 -0.00000000000E+00 -0.00000000000E+00 -0.13732081911E+02  0.13732081911E+02  0.00000000000E+00 0.  1.
         13    1    1    2    0    0  0.63590984454E+01  0.10105972624E+02 -0.14831865874E+01  0.12032448720E+02  0.10566000000E+00 0.  1.
        996    1    1    2    0    0 -0.63590984454E+01 -0.10105972624E+02  0.87751048859E+02  0.10169963319E+03  0.50000000000E+02 0.  0.
<mgrwt>
<rscale>  0 0.51405922E+02</rscale>
<asrwt>0</asrwt>
<pdfrwt beam="1">  1       13 0.10000000E+01 0.51405922E+02</pdfrwt>
<pdfrwt beam="2">  1       22 0.13732106E+00 0.51405922E+02</pdfrwt>
<totfact> 0.86889859E-01</totfact>
</mgrwt>
</event>
<event>
 4    1  0.2503484E+000  0.6919872E+02  0.7957747E-01  0.1362839E+00
         13   -1    0    0    0    0  0.00000000000E+00  0.00000000000E+00  0.99999944179E+02  0.99999999999E+02  0.10566000000E+00 0.  1.
         22   -1    0    0    0    0 -0.00000000000E+00 -0.00000000000E+00 -0.60193195726E+02  0.60193195726E+02  0.00000000000E+00 0. -1.
         13    1    1    2    0    0 -0.10723935111E+01  0.47825860434E+02 -0.34252458959E+02  0.58836256364E+02  0.10566000000E+00 0. -1.
        996    1    1    2    0    0  0.10723935111E+01 -0.47825860434E+02  0.74059207412E+02  0.10135693936E+03  0.50000000000E+02 0.  0.
<mgrwt>
<rscale>  0 0.69198721E+02</rscale>
<asrwt>0</asrwt>
<pdfrwt beam="1">  1       13 0.10000000E+01 0.69198721E+02</pdfrwt>
<pdfrwt beam="2">  1       22 0.60193207E+00 0.69198721E+02</pdfrwt>
<totfact> 0.64396232E-02</totfact>
</mgrwt>
</event>
<event>
 4    1  0.2503484E+000  0.6012288E+02  0.7957747E-01  0.1397317E+00
         13   -1    0    0    0    0  0.00000000000E+00  0.00000000000E+00  0.99999944176E+02  0.99999999996E+02  0.10566000000E+00 0. -1.
         22   -1    0    0    0    0 -0.00000000000E+00 -0.00000000000E+00 -0.25783145289E+02  0.25783145289E+02  0.00000000000E+00 0.  1.
         13    1    1    2    0    0  0.27613661059E+02 -0.18768235257E+02  0.44483743502E+01  0.33683232180E+02  0.10566000000E+00 0.  1.
        996    1    1    2    0    0 -0.27613661059E+02  0.18768235257E+02  0.69768424536E+02  0.92099913105E+02  0.50000000000E+02 0.  0.
<mgrwt>
<rscale>  0 0.60122882E+02</rscale>
<asrwt>0</asrwt>
<pdfrwt beam="1">  1       13 0.10000000E+01 0.60122882E+02</pdfrwt>
<pdfrwt beam="2">  1       22 0.25783166E+00 0.60122882E+02</pdfrwt>
<totfact> 0.28064406E-01</totfact>
</mgrwt>
</event>
<event>
 4    1  0.2503484E+000  0.5339132E+02  0.7957747E-01  0.1427863E+00
         13   -1    0    0    0    0  0.00000000000E+00  0.00000000000E+00  0.99999944179E+02  0.99999999999E+02  0.10566000000E+00 0. -1.
         22   -1    0    0    0    0 -0.00000000000E+00 -0.00000000000E+00 -0.27601418271E+02  0.27601418271E+02  0.00000000000E+00 0. -1.
         13    1    1    2    0    0  0.47675712141E+01  0.18108104728E+02 -0.15800467749E+02  0.24501002781E+02  0.10566000000E+00 0.  1.
        996    1    1    2    0    0 -0.47675712141E+01 -0.18108104728E+02  0.88198993657E+02  0.10310041549E+03  0.50000000000E+02 0.  0.
<mgrwt>
<rscale>  0 0.53391321E+02</rscale>
<asrwt>0</asrwt>
<pdfrwt beam="1">  1       13 0.10000000E+01 0.53391321E+02</pdfrwt>
<pdfrwt beam="2">  1       22 0.27601438E+00 0.53391321E+02</pdfrwt>
<totfact> 0.24324947E-01</totfact>
</mgrwt>
</event>
<event>
 4    1  0.2503484E+000  0.7748378E+02  0.7957747E-01  0.1336348E+00
         13   -1    0    0    0    0  0.00000000000E+00  0.00000000000E+00  0.99999944181E+02  0.10000000000E+03  0.10566000000E+00 0.  1.
         22   -1    0    0    0    0 -0.00000000000E+00 -0.00000000000E+00 -0.64464568738E+02  0.64464568738E+02  0.00000000000E+00 0. -1.
         13    1    1    2    0    0 -0.47070218529E+02  0.35890544804E+02 -0.26840495068E+02  0.64993538280E+02  0.10566000000E+00 0. -1.
        996    1    1    2    0    0  0.47070218529E+02 -0.35890544804E+02  0.62375870511E+02  0.99471030459E+02  0.50000000000E+02 0.  0.
<mgrwt>
<rscale>  0 0.77483783E+02</rscale>
<asrwt>0</asrwt>
<pdfrwt beam="1">  1       13 0.10000000E+01 0.77483783E+02</pdfrwt>
<pdfrwt beam="2">  1       22 0.64464579E+00 0.77483783E+02</pdfrwt>
<totfact> 0.85014209E-02</totfact>
</mgrwt>
</event>
<event>
 4    1  0.2503484E+000  0.6415330E+02  0.7957747E-01  0.1381185E+00
         13   -1    0    0    0    0  0.00000000000E+00  0.00000000000E+00  0.99999944179E+02  0.99999999999E+02  0.10566000000E+00 0.  1.
         22   -1    0    0    0    0 -0.00000000000E+00 -0.00000000000E+00 -0.65467370330E+02  0.65467370330E+02  0.00000000000E+00 0. -1.
         13    1    1    2    0    0 -0.40173517717E+02 -0.13170642803E+01 -0.46920851657E+02  0.61783684483E+02  0.10566000000E+00 0. -1.
        996    1    1    2    0    0  0.40173517717E+02  0.13170642803E+01  0.81453425505E+02  0.10368368585E+03  0.50000000000E+02 0.  0.
<mgrwt>
<rscale>  0 0.64153302E+02</rscale>
<asrwt>0</asrwt>
<pdfrwt beam="1">  1       13 0.10000000E+01 0.64153302E+02</pdfrwt>
<pdfrwt beam="2">  1       22 0.65467380E+00 0.64153302E+02</pdfrwt>
<totfact> 0.87057306E-02</totfact>
</mgrwt>
</event>
<event>
 4    1  0.2503484E+000  0.5866352E+02  0.7957747E-01  0.1403527E+00
         13   -1    0    0    0    0  0.00000000000E+00  0.00000000000E+00  0.99999944185E+02  0.10000000001E+03  0.10566000000E+00 0. -1.
         22   -1    0    0    0    0 -0.00000000000E+00 -0.00000000000E+00 -0.58818721005E+02  0.58818721005E+02  0.00000000000E+00 0.  1.
         13    1    1    2    0    0  0.11271395986E+02  0.28537061406E+02 -0.45061242185E+02  0.54515456088E+02  0.10566000000E+00 0.  1.
        996    1    1    2    0    0 -0.11271395986E+02 -0.28537061406E+02  0.86242465365E+02  0.10430326492E+03  0.50000000000E+02 0.  0.
<mgrwt>
<rscale>  0 0.58663517E+02</rscale>
<asrwt>0</asrwt>
<pdfrwt beam="1">  1       13 0.10000000E+01 0.58663517E+02</pdfrwt>
<pdfrwt beam="2">  1       22 0.58818733E+00 0.58663517E+02</pdfrwt>
<totfact> 0.60008725E-02</totfact>
</mgrwt>
</event>
<event>
 4    1  0.2503484E+000  0.5563836E+02  0.7957747E-01  0.1417104E+00
         13   -1    0    0    0    0  0.00000000000E+00  0.00000000000E+00  0.99999944176E+02  0.99999999996E+02  0.10566000000E+00 0.  1.
         22   -1    0    0    0    0 -0.00000000000E+00 -0.00000000000E+00 -0.27340272095E+02  0.27340272095E+02  0.00000000000E+00 0. -1.
         13    1    1    2    0    0  0.62284511957E+01 -0.23597314320E+02 -0.11079082348E+02  0.26802687872E+02  0.10566000000E+00 0. -1.
        996    1    1    2    0    0 -0.62284511957E+01  0.23597314320E+02  0.83738754429E+02  0.10053758422E+03  0.50000000000E+02 0.  0.
<mgrwt>
<rscale>  0 0.55638358E+02</rscale>
<asrwt>0</asrwt>
<pdfrwt beam="1">  1       13 0.10000000E+01 0.55638358E+02</pdfrwt>
<pdfrwt beam="2">  1       22 0.27340292E+00 0.55638358E+02</pdfrwt>
<totfact> 0.24857111E-01</totfact>
</mgrwt>
</event>
<event>
 4    1  0.2503484E+000  0.8503640E+02  0.7957747E-01  0.1315337E+00
         13   -1    0    0    0    0  0.00000000000E+00  0.00000000000E+00  0.99999944188E+02  0.10000000001E+03  0.10566000000E+00 0. -1.
         22   -1    0    0    0    0 -0.00000000000E+00 -0.00000000000E+00 -0.63274920994E+02  0.63274920994E+02  0.00000000000E+00 0. -1.
         13    1    1    2    0    0 -0.35454209249E+02 -0.58942239434E+02 -0.41822925664E+01  0.68910748640E+02  0.10566000000E+00 0.  1.
        996    1    1    2    0    0  0.35454209249E+02  0.58942239434E+02  0.40907315760E+02  0.94364172362E+02  0.50000000000E+02 0.  0.
<mgrwt>
<rscale>  0 0.85036395E+02</rscale>
<asrwt>0</asrwt>
<pdfrwt beam="1">  1       13 0.10000000E+01 0.85036395E+02</pdfrwt>
<pdfrwt beam="2">  1       22 0.63274931E+00 0.85036395E+02</pdfrwt>
<totfact> 0.80268591E-02</totfact>
</mgrwt>
</event>
<event>
 4    1  0.2503484E+000  0.5495189E+02  0.7957747E-01  0.1420327E+00
         13   -1    0    0    0    0  0.00000000000E+00  0.00000000000E+00  0.99999944174E+02  0.99999999995E+02  0.10566000000E+00 0.  1.
         22   -1    0    0    0    0 -0.00000000000E+00 -0.00000000000E+00 -0.17574836774E+02  0.17574836774E+02  0.00000000000E+00 0. -1.
         13    1    1    2    0    0 -0.17803613995E+02 -0.14238743729E+02  0.62338822881E+01  0.23634359452E+02  0.10566000000E+00 0. -1.
        996    1    1    2    0    0  0.17803613995E+02  0.14238743729E+02  0.76191225113E+02  0.93940477317E+02  0.50000000000E+02 0.  0.
<mgrwt>
<rscale>  0 0.54951893E+02</rscale>
<asrwt>0</asrwt>
<pdfrwt beam="1">  1       13 0.10000000E+01 0.54951893E+02</pdfrwt>
<pdfrwt beam="2">  1       22 0.17574860E+00 0.54951893E+02</pdfrwt>
<totfact> 0.57648904E-01</totfact>
</mgrwt>
</event>
<event>
 4    1  0.2503484E+000  0.5319455E+02  0.7957747E-01  0.1428835E+00
         13   -1    0    0    0    0  0.00000000000E+00  0.00000000000E+00  0.99999944178E+02  0.99999999998E+02  0.10566000000E+00 0. -1.
         22   -1    0    0    0    0 -0.00000000000E+00 -0.00000000000E+00 -0.13115144887E+02  0.13115144887E+02  0.00000000000E+00 0. -1.
         13    1    1    2    0    0 -0.15589412977E+02  0.93075525148E+01  0.14230464840E+02  0.23068975365E+02  0.10566000000E+00 0.  1.
        996    1    1    2    0    0  0.15589412977E+02 -0.93075525148E+01  0.72654334451E+02  0.90046169521E+02  0.50000000000E+02 0.  0.
<mgrwt>
<rscale>  0 0.53194552E+02</rscale>
<asrwt>0</asrwt>
<pdfrwt beam="1">  1       13 0.10000000E+01 0.53194552E+02</pdfrwt>
<pdfrwt beam="2">  1       22 0.13115169E+00 0.53194552E+02</pdfrwt>
<totfact> 0.93853367E-01</totfact>
</mgrwt>
</event>
<event>
 4    1  0.2503484E+000  0.5272806E+02  0.7957747E-01  0.1431159E+00
         13   -1    0    0    0    0  0.00000000000E+00  0.00000000000E+00  0.99999944179E+02  0.99999999999E+02  0.10566000000E+00 0. -1.
         22   -1    0    0    0    0 -0.00000000000E+00 -0.00000000000E+00 -0.30893887473E+02  0.30893887473E+02  0.00000000000E+00 0.  1.
         13    1    1    2    0    0 -0.16697768699E+02  0.11970616389E+01 -0.20779483995E+02  0.26684200480E+02  0.10566000000E+00 0.  1.
        996    1    1    2    0    0  0.16697768699E+02 -0.11970616389E+01  0.89885540701E+02  0.10420968699E+03  0.50000000000E+02 0.  0.
<mgrwt>
<rscale>  0 0.52728061E+02</rscale>
<asrwt>0</asrwt>
<pdfrwt beam="1">  1       13 0.10000000E+01 0.52728061E+02</pdfrwt>
<pdfrwt beam="2">  1       22 0.30893907E+00 0.52728061E+02</pdfrwt>
<totfact> 0.19626799E-01</totfact>
</mgrwt>
</event>
<event>
 4    1  0.2503484E+000  0.5208497E+02  0.7957747E-01  0.1434410E+00
         13   -1    0    0    0    0  0.00000000000E+00  0.00000000000E+00  0.99999944181E+02  0.10000000000E+03  0.10566000000E+00 0.  1.
         22   -1    0    0    0    0 -0.00000000000E+00 -0.00000000000E+00 -0.27617598214E+02  0.27617598214E+02  0.00000000000E+00 0. -1.
         13    1    1    2    0    0  0.13627136104E+02 -0.52100775074E+01 -0.18080010920E+02  0.23232341787E+02  0.10566000000E+00 0. -1.
        996    1    1    2    0    0 -0.13627136104E+02  0.52100775074E+01  0.90462356887E+02  0.10438525643E+03  0.50000000000E+02 0.  0.
<mgrwt>
<rscale>  0 0.52084967E+02</rscale>
<asrwt>0</asrwt>
<pdfrwt beam="1">  1       13 0.10000000E+01 0.52084967E+02</pdfrwt>
<pdfrwt beam="2">  1       22 0.27617618E+00 0.52084967E+02</pdfrwt>
<totfact> 0.24252109E-01</totfact>
</mgrwt>
</event>
<event>
 4    1  0.2503484E+000  0.6277315E+02  0.7957747E-01  0.1386549E+00
         13   -1    0    0    0    0  0.00000000000E+00  0.00000000000E+00  0.99999944184E+02  0.10000000000E+03  0.10566000000E+00 0. -1.
         22   -1    0    0    0    0 -0.00000000000E+00 -0.00000000000E+00 -0.27077855658E+02  0.27077855658E+02  0.00000000000E+00 0.  1.
         13    1    1    2    0    0  0.15868838518E+02  0.34476773838E+02  0.12524415416E+02  0.39966737617E+02  0.10566000000E+00 0.  1.
        996    1    1    2    0    0 -0.15868838518E+02 -0.34476773838E+02  0.60397673110E+02  0.87111118046E+02  0.50000000000E+02 0.  0.
<mgrwt>
<rscale>  0 0.62773147E+02</rscale>
<asrwt>0</asrwt>
<pdfrwt beam="1">  1       13 0.10000000E+01 0.62773147E+02</pdfrwt>
<pdfrwt beam="2">  1       22 0.27077876E+00 0.62773147E+02</pdfrwt>
<totfact> 0.25563212E-01</totfact>
</mgrwt>
</event>
<event>
 4    1  0.2503484E+000  0.5541418E+02  0.7957747E-01  0.1418150E+00
         13   -1    0    0    0    0  0.00000000000E+00  0.00000000000E+00  0.99999944184E+02  0.10000000000E+03  0.10566000000E+00 0. -1.
         22   -1    0    0    0    0 -0.00000000000E+00 -0.00000000000E+00 -0.16973789670E+02  0.16973789670E+02  0.00000000000E+00 0.  1.
         13    1    1    2    0    0  0.14826616991E+02 -0.18732410256E+02  0.11558277523E+02  0.26539342658E+02  0.10566000000E+00 0.  1.
        996    1    1    2    0    0 -0.14826616991E+02  0.18732410256E+02  0.71467876991E+02  0.90434447016E+02  0.50000000000E+02 0.  0.
<mgrwt>
<rscale>  0 0.55414184E+02</rscale>
<asrwt>0</asrwt>
<pdfrwt beam="1">  1       13 0.10000000E+01 0.55414184E+02</pdfrwt>
<pdfrwt beam="2">  1       22 0.16973813E+00 0.55414184E+02</pdfrwt>
<totfact> 0.61354054E-01</totfact>
</mgrwt>
</event>
<event>
 4    1  0.2503484E+000  0.5127041E+02  0.7957747E-01  0.1438607E+00
         13   -1    0    0    0    0  0.00000000000E+00  0.00000000000E+00  0.99999944178E+02  0.99999999998E+02  0.10566000000E+00 0. -1.
         22   -1    0    0    0    0 -0.00000000000E+00 -0.00000000000E+00 -0.39127204619E+02  0.39127204619E+02  0.00000000000E+00 0.  1.
         13    1    1    2    0    0  0.80481113505E+01  0.79926434743E+01 -0.31499838201E+02  0.33479925579E+02  0.10566000000E+00 0.  1.
        996    1    1    2    0    0 -0.80481113505E+01 -0.79926434743E+01  0.92372577760E+02  0.10564727904E+03  0.50000000000E+02 0.  0.
<mgrwt>
<rscale>  0 0.51270405E+02</rscale>
<asrwt>0</asrwt>
<pdfrwt beam="1">  1       13 0.10000000E+01 0.51270405E+02</pdfrwt>
<pdfrwt beam="2">  1       22 0.39127222E+00 0.51270405E+02</pdfrwt>
<totfact> 0.12881493E-01</totfact>
</mgrwt>
</event>
<event>
 4    1  0.2503484E+000  0.5146777E+02  0.7957747E-01  0.1437582E+00
         13   -1    0    0    0    0  0.00000000000E+00  0.00000000000E+00  0.99999944179E+02  0.99999999999E+02  0.10566000000E+00 0.  1.
         22   -1    0    0    0    0 -0.00000000000E+00 -0.00000000000E+00 -0.14486278957E+02  0.14486278957E+02  0.00000000000E+00 0. -1.
         13    1    1    2    0    0  0.85303310796E+01  0.87272267688E+01 -0.25667006100E+01  0.12471172818E+02  0.10566000000E+00 0. -1.
        996    1    1    2    0    0 -0.85303310796E+01 -0.87272267688E+01  0.88080365832E+02  0.10201510614E+03  0.50000000000E+02 0.  0.
<mgrwt>
<rscale>  0 0.51467767E+02</rscale>
<asrwt>0</asrwt>
<pdfrwt beam="1">  1       13 0.10000000E+01 0.51467767E+02</pdfrwt>
<pdfrwt beam="2">  1       22 0.14486303E+00 0.51467767E+02</pdfrwt>
<totfact> 0.79670249E-01</totfact>
</mgrwt>
</event>
<event>
 4    1  0.2503484E+000  0.5153411E+02  0.7957747E-01  0.1437238E+00
         13   -1    0    0    0    0  0.00000000000E+00  0.00000000000E+00  0.99999944179E+02  0.99999999999E+02  0.10566000000E+00 0.  1.
         22   -1    0    0    0    0 -0.00000000000E+00 -0.00000000000E+00 -0.10245778196E+02  0.10245778196E+02  0.00000000000E+00 0.  1.
         13    1    1    2    0    0 -0.10104900689E+02  0.73249855749E+01  0.17078105390E+02  0.21152713285E+02  0.10566000000E+00 0. -1.
        996    1    1    2    0    0  0.10104900689E+02 -0.73249855749E+01  0.72676060593E+02  0.89093064910E+02  0.50000000000E+02 0.  0.
<mgrwt>
<rscale>  0 0.51534109E+02</rscale>
<asrwt>0</asrwt>
<pdfrwt beam="1">  1       13 0.10000000E+01 0.51534109E+02</pdfrwt>
<pdfrwt beam="2">  1       22 0.10245803E+00 0.51534109E+02</pdfrwt>
<totfact> 0.13593872E+00</totfact>
</mgrwt>
</event>
<event>
 4    1  0.2503484E+000  0.5787892E+02  0.7957747E-01  0.1406955E+00
         13   -1    0    0    0    0  0.00000000000E+00  0.00000000000E+00  0.99999944174E+02  0.99999999994E+02  0.10566000000E+00 0.  1.
         22   -1    0    0    0    0 -0.00000000000E+00 -0.00000000000E+00 -0.74033681831E+02  0.74033681831E+02  0.00000000000E+00 0. -1.
         13    1    1    2    0    0  0.20017826339E+02  0.21195647709E+02 -0.62127151175E+02  0.68627712553E+02  0.10566000000E+00 0. -1.
        996    1    1    2    0    0 -0.20017826339E+02 -0.21195647709E+02  0.88093413518E+02  0.10540596927E+03  0.50000000000E+02 0.  0.
<mgrwt>
<rscale>  0 0.57878915E+02</rscale>
<asrwt>0</asrwt>
<pdfrwt beam="1">  1       13 0.10000000E+01 0.57878915E+02</pdfrwt>
<pdfrwt beam="2">  1       22 0.74033689E+00 0.57878915E+02</pdfrwt>
<totfact> 0.53559872E-02</totfact>
</mgrwt>
</event>
<event>
 4    1  0.2503484E+000  0.6252408E+02  0.7957747E-01  0.1387535E+00
         13   -1    0    0    0    0  0.00000000000E+00  0.00000000000E+00  0.99999944180E+02  0.10000000000E+03  0.10566000000E+00 0. -1.
         22   -1    0    0    0    0 -0.00000000000E+00 -0.00000000000E+00 -0.37666284450E+02  0.37666284450E+02  0.00000000000E+00 0.  1.
         13    1    1    2    0    0  0.26825851021E+02 -0.26260891672E+02 -0.13035324774E+02  0.39739043401E+02  0.10566000000E+00 0.  1.
        996    1    1    2    0    0 -0.26825851021E+02  0.26260891672E+02  0.75368984503E+02  0.97927241049E+02  0.50000000000E+02 0.  0.
<mgrwt>
<rscale>  0 0.62524081E+02</rscale>
<asrwt>0</asrwt>
<pdfrwt beam="1">  1       13 0.10000000E+01 0.62524081E+02</pdfrwt>
<pdfrwt beam="2">  1       22 0.37666302E+00 0.62524081E+02</pdfrwt>
<totfact> 0.13930304E-01</totfact>
</mgrwt>
</event>
<event>
 4    1  0.2503484E+000  0.5265880E+02  0.7957747E-01  0.1431506E+00
         13   -1    0    0    0    0  0.00000000000E+00  0.00000000000E+00  0.99999944181E+02  0.10000000000E+03  0.10566000000E+00 0. -1.
         22   -1    0    0    0    0 -0.00000000000E+00 -0.00000000000E+00 -0.13187002021E+02  0.13187002021E+02  0.00000000000E+00 0.  1.
         13    1    1    2    0    0  0.15113773033E+02 -0.66725587607E+01  0.78887935956E+01  0.18308287854E+02  0.10566000000E+00 0.  1.
        996    1    1    2    0    0 -0.15113773033E+02  0.66725587607E+01  0.78924148564E+02  0.94878714168E+02  0.50000000000E+02 0.  0.
<mgrwt>
<rscale>  0 0.52658800E+02</rscale>
<asrwt>0</asrwt>
<pdfrwt beam="1">  1       13 0.10000000E+01 0.52658800E+02</pdfrwt>
<pdfrwt beam="2">  1       22 0.13187026E+00 0.52658800E+02</pdfrwt>
<totfact> 0.92939764E-01</totfact>
</mgrwt>
</event>
<event>
 4    1  0.2503484E+000  0.5593299E+02  0.7957747E-01  0.1415738E+00
         13   -1    0    0    0    0  0.00000000000E+00  0.00000000000E+00  0.99999944172E+02  0.99999999992E+02  0.10566000000E+00 0.  1.
         22   -1    0    0    0    0 -0.00000000000E+00 -0.00000000000E+00 -0.17490915992E+02  0.17490915992E+02  0.00000000000E+00 0.  1.
         13    1    1    2    0    0  0.22125637868E+02  0.11787946545E+02  0.12900652329E+02  0.28194636535E+02  0.10566000000E+00 0. -1.
        996    1    1    2    0    0 -0.22125637868E+02 -0.11787946545E+02  0.69608375852E+02  0.89296279449E+02  0.50000000000E+02 0.  0.
<mgrwt>
<rscale>  0 0.55932991E+02</rscale>
<asrwt>0</asrwt>
<pdfrwt beam="1">  1       13 0.10000000E+01 0.55932991E+02</pdfrwt>
<pdfrwt beam="2">  1       22 0.17490939E+00 0.55932991E+02</pdfrwt>
<totfact> 0.58243088E-01</totfact>
</mgrwt>
</event>
<event>
 4    1  0.2503484E+000  0.5585262E+02  0.7957747E-01  0.1416109E+00
         13   -1    0    0    0    0  0.00000000000E+00  0.00000000000E+00  0.99999944185E+02  0.10000000000E+03  0.10566000000E+00 0. -1.
         22   -1    0    0    0    0 -0.00000000000E+00 -0.00000000000E+00 -0.16326439621E+02  0.16326439621E+02  0.00000000000E+00 0. -1.
         13    1    1    2    0    0 -0.71462210603E+01 -0.23842111114E+02  0.28043064111E+02  0.37495857725E+02  0.10566000000E+00 0.  1.
        996    1    1    2    0    0  0.71462210603E+01  0.23842111114E+02  0.55630440453E+02  0.78830581901E+02  0.50000000000E+02 0.  0.
<mgrwt>
<rscale>  0 0.55852616E+02</rscale>
<asrwt>0</asrwt>
<pdfrwt beam="1">  1       13 0.10000000E+01 0.55852616E+02</pdfrwt>
<pdfrwt beam="2">  1       22 0.16326463E+00 0.55852616E+02</pdfrwt>
<totfact> 0.65701978E-01</totfact>
</mgrwt>
</event>
<event>
 4    1  0.2503484E+000  0.5248302E+02  0.7957747E-01  0.1432391E+00
         13   -1    0    0    0    0  0.00000000000E+00  0.00000000000E+00  0.99999944180E+02  0.10000000000E+03  0.10566000000E+00 0.  1.
         22   -1    0    0    0    0 -0.00000000000E+00 -0.00000000000E+00 -0.11959807404E+02  0.11959807404E+02  0.00000000000E+00 0.  1.
         13    1    1    2    0    0 -0.62658601769E+00 -0.15939731967E+02  0.14125362555E+02  0.21307385962E+02  0.10566000000E+00 0. -1.
        996    1    1    2    0    0  0.62658601769E+00  0.15939731967E+02  0.73914774221E+02  0.90652421442E+02  0.50000000000E+02 0.  0.
<mgrwt>
<rscale>  0 0.52483023E+02</rscale>
<asrwt>0</asrwt>
<pdfrwt beam="1">  1       13 0.10000000E+01 0.52483023E+02</pdfrwt>
<pdfrwt beam="2">  1       22 0.11959832E+00 0.52483023E+02</pdfrwt>
<totfact> 0.10816380E+00</totfact>
</mgrwt>
</event>
<event>
 4    1  0.2503484E+000  0.5996517E+02  0.7957747E-01  0.1397978E+00
         13   -1    0    0    0    0  0.00000000000E+00  0.00000000000E+00  0.99999944175E+02  0.99999999995E+02  0.10566000000E+00 0. -1.
         22   -1    0    0    0    0 -0.00000000000E+00 -0.00000000000E+00 -0.49575354154E+02  0.49575354154E+02  0.00000000000E+00 0.  1.
         13    1    1    2    0    0 -0.33100773464E+02 -0.40094640357E+00 -0.33061425027E+02  0.46785584860E+02  0.10566000000E+00 0.  1.
        996    1    1    2    0    0  0.33100773464E+02  0.40094640357E+00  0.83486015047E+02  0.10278976929E+03  0.50000000000E+02 0.  0.
<mgrwt>
<rscale>  0 0.59965173E+02</rscale>
<asrwt>0</asrwt>
<pdfrwt beam="1">  1       13 0.10000000E+01 0.59965173E+02</pdfrwt>
<pdfrwt beam="2">  1       22 0.49575368E+00 0.59965173E+02</pdfrwt>
<totfact> 0.75619597E-02</totfact>
</mgrwt>
</event>
<event>
 4    1  0.2503484E+000  0.5537135E+02  0.7957747E-01  0.1418351E+00
         13   -1    0    0    0    0  0.00000000000E+00  0.00000000000E+00  0.99999944181E+02  0.10000000000E+03  0.10566000000E+00 0. -1.
         22   -1    0    0    0    0 -0.00000000000E+00 -0.00000000000E+00 -0.47263958513E+02  0.47263958513E+02  0.00000000000E+00 0.  1.
         13    1    1    2    0    0 -0.22761637876E+02 -0.69205319932E+01 -0.35713517194E+02  0.42912147421E+02  0.10566000000E+00 0.  1.
        996    1    1    2    0    0  0.22761637876E+02  0.69205319932E+01  0.88449502862E+02  0.10435181109E+03  0.50000000000E+02 0.  0.
<mgrwt>
<rscale>  0 0.55371346E+02</rscale>
<asrwt>0</asrwt>
<pdfrwt beam="1">  1       13 0.10000000E+01 0.55371346E+02</pdfrwt>
<pdfrwt beam="2">  1       22 0.47263973E+00 0.55371346E+02</pdfrwt>
<totfact> 0.85787352E-02</totfact>
</mgrwt>
</event>
<event>
 4    1  0.2503484E+000  0.5121798E+02  0.7957747E-01  0.1438881E+00
         13   -1    0    0    0    0  0.00000000000E+00  0.00000000000E+00  0.99999944179E+02  0.99999999999E+02  0.10566000000E+00 0. -1.
         22   -1    0    0    0    0 -0.00000000000E+00 -0.00000000000E+00 -0.97684891277E+01  0.97684891277E+01  0.00000000000E+00 0. -1.
         13    1    1    2    0    0  0.13622416563E+01 -0.11019317550E+02  0.19508667719E+02  0.22447279163E+02  0.10566000000E+00 0.  1.
        996    1    1    2    0    0 -0.13622416563E+01  0.11019317550E+02  0.70722787332E+02  0.87321209964E+02  0.50000000000E+02 0.  0.
<mgrwt>
<rscale>  0 0.51217976E+02</rscale>
<asrwt>0</asrwt>
<pdfrwt beam="1">  1       13 0.10000000E+01 0.51217976E+02</pdfrwt>
<pdfrwt beam="2">  1       22 0.97685143E-01 0.51217976E+02</pdfrwt>
<totfact> 0.14555157E+00</totfact>
</mgrwt>
</event>
<event>
 4    1  0.2503484E+000  0.5225085E+02  0.7957747E-01  0.1433566E+00
         13   -1    0    0    0    0  0.00000000000E+00  0.00000000000E+00  0.99999944181E+02  0.10000000000E+03  0.10566000000E+00 0. -1.
         22   -1    0    0    0    0 -0.00000000000E+00 -0.00000000000E+00 -0.11452768686E+02  0.11452768686E+02  0.00000000000E+00 0. -1.
         13    1    1    2    0    0  0.11331707938E+02 -0.10086807378E+02  0.16014799341E+02  0.22059833405E+02  0.10566000000E+00 0.  1.
        996    1    1    2    0    0 -0.11331707938E+02  0.10086807378E+02  0.72532376153E+02  0.89392935282E+02  0.50000000000E+02 0.  0.
<mgrwt>
<rscale>  0 0.52250850E+02</rscale>
<asrwt>0</asrwt>
<pdfrwt beam="1">  1       13 0.10000000E+01 0.52250850E+02</pdfrwt>
<pdfrwt beam="2">  1       22 0.11452793E+00 0.52250850E+02</pdfrwt>
<totfact> 0.11545529E+00</totfact>
</mgrwt>
</event>
<event>
 4    1  0.2503484E+000  0.5125553E+02  0.7957747E-01  0.1438685E+00
         13   -1    0    0    0    0  0.00000000000E+00  0.00000000000E+00  0.99999944182E+02  0.10000000000E+03  0.10566000000E+00 0.  1.
         22   -1    0    0    0    0 -0.00000000000E+00 -0.00000000000E+00 -0.15270644212E+02  0.15270644212E+02  0.00000000000E+00 0.  1.
         13    1    1    2    0    0 -0.50821320620E+01 -0.10064858156E+02 -0.46826796507E+01  0.12209344320E+02  0.10566000000E+00 0. -1.
        996    1    1    2    0    0  0.50821320620E+01  0.10064858156E+02  0.89411979621E+02  0.10306129989E+03  0.50000000000E+02 0.  0.
<mgrwt>
<rscale>  0 0.51255531E+02</rscale>
<asrwt>0</asrwt>
<pdfrwt beam="1">  1       13 0.10000000E+01 0.51255531E+02</pdfrwt>
<pdfrwt beam="2">  1       22 0.15270668E+00 0.51255531E+02</pdfrwt>
<totfact> 0.72964763E-01</totfact>
</mgrwt>
</event>
<event>
 4    1  0.2503484E+000  0.5134493E+02  0.7957747E-01  0.1438219E+00
         13   -1    0    0    0    0  0.00000000000E+00  0.00000000000E+00  0.99999944177E+02  0.99999999997E+02  0.10566000000E+00 0. -1.
         22   -1    0    0    0    0 -0.00000000000E+00 -0.00000000000E+00 -0.11494610611E+02  0.11494610611E+02  0.00000000000E+00 0. -1.
         13    1    1    2    0    0  0.85494991004E+01 -0.79503657601E+01  0.36877619610E+02  0.38681678385E+02  0.10566000000E+00 0.  1.
        996    1    1    2    0    0 -0.85494991004E+01  0.79503657601E+01  0.51627713956E+02  0.72812932223E+02  0.50000000000E+02 0.  0.
<mgrwt>
<rscale>  0 0.51344934E+02</rscale>
<asrwt>0</asrwt>
<pdfrwt beam="1">  1       13 0.10000000E+01 0.51344934E+02</pdfrwt>
<pdfrwt beam="2">  1       22 0.11494635E+00 0.51344934E+02</pdfrwt>
<totfact> 0.11458518E+00</totfact>
</mgrwt>
</event>
<event>
 4    1  0.2503484E+000  0.5199721E+02  0.7957747E-01  0.1434857E+00
         13   -1    0    0    0    0  0.00000000000E+00  0.00000000000E+00  0.99999944182E+02  0.10000000000E+03  0.10566000000E+00 0.  1.
         22   -1    0    0    0    0 -0.00000000000E+00 -0.00000000000E+00 -0.11672789640E+02  0.11672789640E+02  0.00000000000E+00 0.  1.
         13    1    1    2    0    0 -0.90582700762E+01  0.11029842195E+02  0.31864327361E+02  0.34914985291E+02  0.10566000000E+00 0. -1.
        996    1    1    2    0    0  0.90582700762E+01 -0.11029842195E+02  0.56462827181E+02  0.76757804352E+02  0.50000000000E+02 0.  0.
<mgrwt>
<rscale>  0 0.51997208E+02</rscale>
<asrwt>0</asrwt>
<pdfrwt beam="1">  1       13 0.10000000E+01 0.51997208E+02</pdfrwt>
<pdfrwt beam="2">  1       22 0.11672814E+00 0.51997208E+02</pdfrwt>
<totfact> 0.11211813E+00</totfact>
</mgrwt>
</event>
<event>
 4    1  0.2503484E+000  0.5114757E+02  0.7957747E-01  0.1439248E+00
         13   -1    0    0    0    0  0.00000000000E+00  0.00000000000E+00  0.99999944184E+02  0.10000000000E+03  0.10566000000E+00 0.  1.
         22   -1    0    0    0    0 -0.00000000000E+00 -0.00000000000E+00 -0.96135111573E+01  0.96135111573E+01  0.00000000000E+00 0.  1.
         13    1    1    2    0    0 -0.40649562753E+01 -0.99774696572E+01  0.18047143437E+02  0.21018666003E+02  0.10566000000E+00 0. -1.
        996    1    1    2    0    0  0.40649562753E+01  0.99774696572E+01  0.72339289590E+02  0.88594845159E+02  0.50000000000E+02 0.  0.
<mgrwt>
<rscale>  0 0.51147569E+02</rscale>
<asrwt>0</asrwt>
<pdfrwt beam="1">  1       13 0.10000000E+01 0.51147569E+02</pdfrwt>
<pdfrwt beam="2">  1       22 0.96135364E-01 0.51147569E+02</pdfrwt>
<totfact> 0.14890724E+00</totfact>
</mgrwt>
</event>
<event>
 4    1  0.2503484E+000  0.5130859E+02  0.7957747E-01  0.1438409E+00
         13   -1    0    0    0    0  0.00000000000E+00  0.00000000000E+00  0.99999944171E+02  0.99999999991E+02  0.10566000000E+00 0.  1.
         22   -1    0    0    0    0 -0.00000000000E+00 -0.00000000000E+00 -0.10476989219E+02  0.10476989219E+02  0.00000000000E+00 0.  1.
         13    1    1    2    0    0 -0.11015129619E+02  0.33523797139E+01  0.75448293884E+01  0.13766159406E+02  0.10566000000E+00 0. -1.
        996    1    1    2    0    0  0.11015129619E+02 -0.33523797139E+01  0.81978125564E+02  0.96710829803E+02  0.50000000000E+02 0.  0.
<mgrwt>
<rscale>  0 0.51308591E+02</rscale>
<asrwt>0</asrwt>
<pdfrwt beam="1">  1       13 0.10000000E+01 0.51308591E+02</pdfrwt>
<pdfrwt beam="2">  1       22 0.10477014E+00 0.51308591E+02</pdfrwt>
<totfact> 0.13150385E+00</totfact>
</mgrwt>
</event>
<event>
 4    1  0.2503484E+000  0.8181996E+02  0.7957747E-01  0.1323965E+00
         13   -1    0    0    0    0  0.00000000000E+00  0.00000000000E+00  0.99999944181E+02  0.10000000000E+03  0.10566000000E+00 0.  1.
         22   -1    0    0    0    0 -0.00000000000E+00 -0.00000000000E+00 -0.87635328870E+02  0.87635328870E+02  0.00000000000E+00 0. -1.
         13    1    1    2    0    0 -0.63116614838E+02  0.14518902147E+02 -0.52381449618E+02  0.83296656693E+02  0.10566000000E+00 0. -1.
        996    1    1    2    0    0  0.63116614838E+02 -0.14518902147E+02  0.64746064929E+02  0.10433867218E+03  0.50000000000E+02 0.  0.
<mgrwt>
<rscale>  0 0.81819958E+02</rscale>
<asrwt>0</asrwt>
<pdfrwt beam="1">  1       13 0.10000000E+01 0.81819958E+02</pdfrwt>
<pdfrwt beam="2">  1       22 0.87635332E+00 0.81819958E+02</pdfrwt>
<totfact> 0.14108931E-02</totfact>
</mgrwt>
</event>
<event>
 4    1  0.2503484E+000  0.5861022E+02  0.7957747E-01  0.1403758E+00
         13   -1    0    0    0    0  0.00000000000E+00  0.00000000000E+00  0.99999944177E+02  0.99999999997E+02  0.10566000000E+00 0.  1.
         22   -1    0    0    0    0 -0.00000000000E+00 -0.00000000000E+00 -0.32260532565E+02  0.32260532565E+02  0.00000000000E+00 0. -1.
         13    1    1    2    0    0  0.26559469934E+02 -0.15157594828E+02 -0.12380335625E+02  0.32991544346E+02  0.10566000000E+00 0. -1.
        996    1    1    2    0    0 -0.26559469934E+02  0.15157594828E+02  0.80119747237E+02  0.99268988216E+02  0.50000000000E+02 0.  0.
<mgrwt>
<rscale>  0 0.58610222E+02</rscale>
<asrwt>0</asrwt>
<pdfrwt beam="1">  1       13 0.10000000E+01 0.58610222E+02</pdfrwt>
<pdfrwt beam="2">  1       22 0.32260551E+00 0.58610222E+02</pdfrwt>
<totfact> 0.18267880E-01</totfact>
</mgrwt>
</event>
<event>
 4    1  0.2503484E+000  0.5366340E+02  0.7957747E-01  0.1426528E+00
         13   -1    0    0    0    0  0.00000000000E+00  0.00000000000E+00  0.99999944169E+02  0.99999999989E+02  0.10566000000E+00 0.  1.
         22   -1    0    0    0    0 -0.00000000000E+00 -0.00000000000E+00 -0.20724740486E+02  0.20724740486E+02  0.00000000000E+00 0. -1.
         13    1    1    2    0    0 -0.17513519907E+02 -0.85462062390E+01 -0.56279913682E+01  0.20284143351E+02  0.10566000000E+00 0. -1.
        996    1    1    2    0    0  0.17513519907E+02  0.85462062390E+01  0.84903195051E+02  0.10044059712E+03  0.50000000000E+02 0.  0.
<mgrwt>
<rscale>  0 0.53663405E+02</rscale>
<asrwt>0</asrwt>
<pdfrwt beam="1">  1       13 0.10000000E+01 0.53663405E+02</pdfrwt>
<pdfrwt beam="2">  1       22 0.20724763E+00 0.53663405E+02</pdfrwt>
<totfact> 0.42502126E-01</totfact>
</mgrwt>
</event>
<event>
 4    1  0.2503484E+000  0.5274134E+02  0.7957747E-01  0.1431092E+00
         13   -1    0    0    0    0  0.00000000000E+00  0.00000000000E+00  0.99999944184E+02  0.10000000000E+03  0.10566000000E+00 0.  1.
         22   -1    0    0    0    0 -0.00000000000E+00 -0.00000000000E+00 -0.21634854628E+02  0.21634854628E+02  0.00000000000E+00 0. -1.
         13    1    1    2    0    0 -0.13686255127E+02  0.97126193153E+01 -0.94043069101E+01  0.19238001607E+02  0.10566000000E+00 0. -1.
        996    1    1    2    0    0  0.13686255127E+02 -0.97126193153E+01  0.87769396466E+02  0.10239685302E+03  0.50000000000E+02 0.  0.
<mgrwt>
<rscale>  0 0.52741336E+02</rscale>
<asrwt>0</asrwt>
<pdfrwt beam="1">  1       13 0.10000000E+01 0.52741336E+02</pdfrwt>
<pdfrwt beam="2">  1       22 0.21634877E+00 0.52741336E+02</pdfrwt>
<totfact> 0.39104401E-01</totfact>
</mgrwt>
</event>
<event>
 4    1  0.2503484E+000  0.5113424E+02  0.7957747E-01  0.1439318E+00
         13   -1    0    0    0    0  0.00000000000E+00  0.00000000000E+00  0.99999944181E+02  0.10000000000E+03  0.10566000000E+00 0.  1.
         22   -1    0    0    0    0 -0.00000000000E+00 -0.00000000000E+00 -0.13043884171E+02  0.13043884171E+02  0.00000000000E+00 0. -1.
         13    1    1    2    0    0 -0.68344192852E+01  0.82462941952E+01 -0.15558091393E+01  0.10823232467E+02  0.10566000000E+00 0. -1.
        996    1    1    2    0    0  0.68344192852E+01 -0.82462941952E+01  0.88511869149E+02  0.10222065171E+03  0.50000000000E+02 0.  0.
<mgrwt>
<rscale>  0 0.51134242E+02</rscale>
<asrwt>0</asrwt>
<pdfrwt beam="1">  1       13 0.10000000E+01 0.51134242E+02</pdfrwt>
<pdfrwt beam="2">  1       22 0.13043908E+00 0.51134242E+02</pdfrwt>
<totfact> 0.94245312E-01</totfact>
</mgrwt>
</event>
<event>
 4    1  0.2503484E+000  0.5260287E+02  0.7957747E-01  0.1431788E+00
         13   -1    0    0    0    0  0.00000000000E+00  0.00000000000E+00  0.99999944182E+02  0.10000000000E+03  0.10566000000E+00 0. -1.
         22   -1    0    0    0    0 -0.00000000000E+00 -0.00000000000E+00 -0.12570015432E+02  0.12570015432E+02  0.00000000000E+00 0. -1.
         13    1    1    2    0    0  0.11173124522E+02  0.11925722922E+02  0.10676268228E+02  0.19520641539E+02  0.10566000000E+00 0.  1.
        996    1    1    2    0    0 -0.11173124522E+02 -0.11925722922E+02  0.76753660522E+02  0.93049373895E+02  0.50000000000E+02 0.  0.
<mgrwt>
<rscale>  0 0.52602867E+02</rscale>
<asrwt>0</asrwt>
<pdfrwt beam="1">  1       13 0.10000000E+01 0.52602867E+02</pdfrwt>
<pdfrwt beam="2">  1       22 0.12570040E+00 0.52602867E+02</pdfrwt>
<totfact> 0.10019220E+00</totfact>
</mgrwt>
</event>
<event>
 4    1  0.2503484E+000  0.5101889E+02  0.7957747E-01  0.1439922E+00
         13   -1    0    0    0    0  0.00000000000E+00  0.00000000000E+00  0.99999944183E+02  0.10000000000E+03  0.10566000000E+00 0. -1.
         22   -1    0    0    0    0 -0.00000000000E+00 -0.00000000000E+00 -0.16709050493E+02  0.16709050493E+02  0.00000000000E+00 0.  1.
         13    1    1    2    0    0 -0.10749250640E+01  0.10088198006E+02 -0.74647488026E+01  0.12596064529E+02  0.10566000000E+00 0.  1.
        996    1    1    2    0    0  0.10749250640E+01 -0.10088198006E+02  0.90755642492E+02  0.10411298597E+03  0.50000000000E+02 0.  0.
<mgrwt>
<rscale>  0 0.51018891E+02</rscale>
<asrwt>0</asrwt>
<pdfrwt beam="1">  1       13 0.10000000E+01 0.51018891E+02</pdfrwt>
<pdfrwt beam="2">  1       22 0.16709074E+00 0.51018891E+02</pdfrwt>
<totfact> 0.62537875E-01</totfact>
</mgrwt>
</event>
<event>
 4    1  0.2503484E+000  0.5137808E+02  0.7957747E-01  0.1438047E+00
         13   -1    0    0    0    0  0.00000000000E+00  0.00000000000E+00  0.99999944178E+02  0.99999999999E+02  0.10566000000E+00 0. -1.
         22   -1    0    0    0    0 -0.00000000000E+00 -0.00000000000E+00 -0.15944892978E+02  0.15944892978E+02  0.00000000000E+00 0.  1.
         13    1    1    2    0    0 -0.28350079419E+01 -0.11474746941E+02 -0.52355238734E+01  0.12927836697E+02  0.10566000000E+00 0.  1.
        996    1    1    2    0    0  0.28350079419E+01  0.11474746941E+02  0.89290575074E+02  0.10301705628E+03  0.50000000000E+02 0.  0.
<mgrwt>
<rscale>  0 0.51378080E+02</rscale>
<asrwt>0</asrwt>
<pdfrwt beam="1">  1       13 0.10000000E+01 0.51378080E+02</pdfrwt>
<pdfrwt beam="2">  1       22 0.15944916E+00 0.51378080E+02</pdfrwt>
<totfact> 0.67839315E-01</totfact>
</mgrwt>
</event>
<event>
 4    1  0.2503484E+000  0.5100661E+02  0.7957747E-01  0.1439987E+00
         13   -1    0    0    0    0  0.00000000000E+00  0.00000000000E+00  0.99999944175E+02  0.99999999995E+02  0.10566000000E+00 0. -1.
         22   -1    0    0    0    0 -0.00000000000E+00 -0.00000000000E+00 -0.11055871045E+02  0.11055871045E+02  0.00000000000E+00 0. -1.
         13    1    1    2    0    0 -0.59197067032E+01  0.81628324822E+01  0.20390566697E+01  0.10288035659E+02  0.10566000000E+00 0.  1.
        996    1    1    2    0    0  0.59197067032E+01 -0.81628324822E+01  0.86905016460E+02  0.10076783538E+03  0.50000000000E+02 0.  0.
<mgrwt>
<rscale>  0 0.51006615E+02</rscale>
<asrwt>0</asrwt>
<pdfrwt beam="1">  1       13 0.10000000E+01 0.51006615E+02</pdfrwt>
<pdfrwt beam="2">  1       22 0.11055896E+00 0.51006615E+02</pdfrwt>
<totfact> 0.12136999E+00</totfact>
</mgrwt>
</event>
<event>
 4    1  0.2503484E+000  0.5116300E+02  0.7957747E-01  0.1439168E+00
         13   -1    0    0    0    0  0.00000000000E+00  0.00000000000E+00  0.99999944186E+02  0.10000000001E+03  0.10566000000E+00 0. -1.
         22   -1    0    0    0    0 -0.00000000000E+00 -0.00000000000E+00 -0.97606951527E+01  0.97606951527E+01  0.00000000000E+00 0. -1.
         13    1    1    2    0    0  0.28411268341E+01  0.10468051454E+02  0.11073761137E+02  0.15501337126E+02  0.10566000000E+00 0.  1.
        996    1    1    2    0    0 -0.28411268341E+01 -0.10468051454E+02  0.79165487896E+02  0.94259358033E+02  0.50000000000E+02 0.  0.
<mgrwt>
<rscale>  0 0.51162995E+02</rscale>
<asrwt>0</asrwt>
<pdfrwt beam="1">  1       13 0.10000000E+01 0.51162995E+02</pdfrwt>
<pdfrwt beam="2">  1       22 0.97607203E-01 0.51162995E+02</pdfrwt>
<totfact> 0.14569916E+00</totfact>
</mgrwt>
</event>
<event>
 4    1  0.2503484E+000  0.5199254E+02  0.7957747E-01  0.1434881E+00
         13   -1    0    0    0    0  0.00000000000E+00  0.00000000000E+00  0.99999944173E+02  0.99999999993E+02  0.10566000000E+00 0.  1.
         22   -1    0    0    0    0 -0.00000000000E+00 -0.00000000000E+00 -0.23934571815E+02  0.23934571815E+02  0.00000000000E+00 0. -1.
         13    1    1    2    0    0 -0.10607624321E+02  0.95237833799E+01 -0.13973523217E+02  0.19962330995E+02  0.10566000000E+00 0. -1.
        996    1    1    2    0    0  0.10607624321E+02 -0.95237833799E+01  0.90038895574E+02  0.10397224081E+03  0.50000000000E+02 0.  0.
<mgrwt>
<rscale>  0 0.51992539E+02</rscale>
<asrwt>0</asrwt>
<pdfrwt beam="1">  1       13 0.10000000E+01 0.51992539E+02</pdfrwt>
<pdfrwt beam="2">  1       22 0.23934593E+00 0.51992539E+02</pdfrwt>
<totfact> 0.32110407E-01</totfact>
</mgrwt>
</event>
<event>
 4    1  0.2503484E+000  0.6414175E+02  0.7957747E-01  0.1381229E+00
         13   -1    0    0    0    0  0.00000000000E+00  0.00000000000E+00  0.99999944189E+02  0.10000000001E+03  0.10566000000E+00 0.  1.
         22   -1    0    0    0    0 -0.00000000000E+00 -0.00000000000E+00 -0.30928542855E+02  0.30928542855E+02  0.00000000000E+00 0.  1.
         13    1    1    2    0    0  0.21191283673E+02 -0.34133476204E+02  0.49735134894E+02  0.63935588747E+02  0.10566000000E+00 0. -1.
        996    1    1    2    0    0 -0.21191283673E+02  0.34133476204E+02  0.19336266441E+02  0.66992954117E+02  0.50000000000E+02 0.  0.
<mgrwt>
<rscale>  0 0.64141755E+02</rscale>
<asrwt>0</asrwt>
<pdfrwt beam="1">  1       13 0.10000000E+01 0.64141755E+02</pdfrwt>
<pdfrwt beam="2">  1       22 0.30928562E+00 0.64141755E+02</pdfrwt>
<totfact> 0.19839337E-01</totfact>
</mgrwt>
</event>
<event>
 4    1  0.2503484E+000  0.5101059E+02  0.7957747E-01  0.1439966E+00
         13   -1    0    0    0    0  0.00000000000E+00  0.00000000000E+00  0.99999944181E+02  0.10000000000E+03  0.10566000000E+00 0.  1.
         22   -1    0    0    0    0 -0.00000000000E+00 -0.00000000000E+00 -0.98032480156E+01  0.98032480156E+01  0.00000000000E+00 0.  1.
         13    1    1    2    0    0  0.80460315005E+01 -0.61108146707E+01  0.72855839681E+01  0.12456788376E+02  0.10566000000E+00 0. -1.
        996    1    1    2    0    0 -0.80460315005E+01  0.61108146707E+01  0.82911112197E+02  0.97346459641E+02  0.50000000000E+02 0.  0.
<mgrwt>
<rscale>  0 0.51010594E+02</rscale>
<asrwt>0</asrwt>
<pdfrwt beam="1">  1       13 0.10000000E+01 0.51010594E+02</pdfrwt>
<pdfrwt beam="2">  1       22 0.98032732E-01 0.51010594E+02</pdfrwt>
<totfact> 0.14473532E+00</totfact>
</mgrwt>
</event>
<event>
 4    1  0.2503484E+000  0.5203877E+02  0.7957747E-01  0.1434645E+00
         13   -1    0    0    0    0  0.00000000000E+00  0.00000000000E+00  0.99999944174E+02  0.99999999994E+02  0.10566000000E+00 0. -1.
         22   -1    0    0    0    0 -0.00000000000E+00 -0.00000000000E+00 -0.11380544113E+02  0.11380544113E+02  0.00000000000E+00 0. -1.
         13    1    1    2    0    0  0.10717799217E+02 -0.96520444061E+01  0.12015192502E+02  0.18772564986E+02  0.10566000000E+00 0.  1.
        996    1    1    2    0    0 -0.10717799217E+02  0.96520444061E+01  0.76604207558E+02  0.92607979121E+02  0.50000000000E+02 0.  0.
<mgrwt>
<rscale>  0 0.52038766E+02</rscale>
<asrwt>0</asrwt>
<pdfrwt beam="1">  1       13 0.10000000E+01 0.52038766E+02</pdfrwt>
<pdfrwt beam="2">  1       22 0.11380569E+00 0.52038766E+02</pdfrwt>
<totfact> 0.11650373E+00</totfact>
</mgrwt>
</event>
<event>
 4    1  0.2503484E+000  0.5488520E+02  0.7957747E-01  0.1420643E+00
         13   -1    0    0    0    0  0.00000000000E+00  0.00000000000E+00  0.99999944185E+02  0.10000000001E+03  0.10566000000E+00 0.  1.
         22   -1    0    0    0    0 -0.00000000000E+00 -0.00000000000E+00 -0.15708003386E+02  0.15708003386E+02  0.00000000000E+00 0.  1.
         13    1    1    2    0    0 -0.22111070080E+02  0.48462000106E+01  0.14347500260E+02  0.26800130641E+02  0.10566000000E+00 0. -1.
        996    1    1    2    0    0  0.22111070080E+02 -0.48462000106E+01  0.69944440539E+02  0.88907872750E+02  0.50000000000E+02 0.  0.
<mgrwt>
<rscale>  0 0.54885199E+02</rscale>
<asrwt>0</asrwt>
<pdfrwt beam="1">  1       13 0.10000000E+01 0.54885199E+02</pdfrwt>
<pdfrwt beam="2">  1       22 0.15708027E+00 0.54885199E+02</pdfrwt>
<totfact> 0.70068969E-01</totfact>
</mgrwt>
</event>
<event>
 4    1  0.2503484E+000  0.5545608E+02  0.7957747E-01  0.1417954E+00
         13   -1    0    0    0    0  0.00000000000E+00  0.00000000000E+00  0.99999944179E+02  0.99999999999E+02  0.10566000000E+00 0. -1.
         22   -1    0    0    0    0 -0.00000000000E+00 -0.00000000000E+00 -0.36525829199E+02  0.36525829199E+02  0.00000000000E+00 0.  1.
         13    1    1    2    0    0 -0.16844208681E+02 -0.17077736992E+02 -0.23367526698E+02  0.33487743054E+02  0.10566000000E+00 0.  1.
        996    1    1    2    0    0  0.16844208681E+02  0.17077736992E+02  0.86841641678E+02  0.10303808614E+03  0.50000000000E+02 0.  0.
<mgrwt>
<rscale>  0 0.55456077E+02</rscale>
<asrwt>0</asrwt>
<pdfrwt beam="1">  1       13 0.10000000E+01 0.55456077E+02</pdfrwt>
<pdfrwt beam="2">  1       22 0.36525847E+00 0.55456077E+02</pdfrwt>
<totfact> 0.14631241E-01</totfact>
</mgrwt>
</event>
<event>
 4    1  0.2503484E+000  0.5452588E+02  0.7957747E-01  0.1422354E+00
         13   -1    0    0    0    0  0.00000000000E+00  0.00000000000E+00  0.99999944176E+02  0.99999999996E+02  0.10566000000E+00 0. -1.
         22   -1    0    0    0    0 -0.00000000000E+00 -0.00000000000E+00 -0.14793393449E+02  0.14793393449E+02  0.00000000000E+00 0. -1.
         13    1    1    2    0    0  0.17630422478E+02  0.12737338007E+02  0.17877960275E+02  0.28155003176E+02  0.10566000000E+00 0.  1.
        996    1    1    2    0    0 -0.17630422478E+02 -0.12737338007E+02  0.67328590452E+02  0.86638390270E+02  0.50000000000E+02 0.  0.
<mgrwt>
<rscale>  0 0.54525880E+02</rscale>
<asrwt>0</asrwt>
<pdfrwt beam="1">  1       13 0.10000000E+01 0.54525880E+02</pdfrwt>
<pdfrwt beam="2">  1       22 0.14793417E+00 0.54525880E+02</pdfrwt>
<totfact> 0.77437321E-01</totfact>
</mgrwt>
</event>
<event>
 4    1  0.2503484E+000  0.5344524E+02  0.7957747E-01  0.1427598E+00
         13   -1    0    0    0    0  0.00000000000E+00  0.00000000000E+00  0.99999944175E+02  0.99999999996E+02  0.10566000000E+00 0. -1.
         22   -1    0    0    0    0 -0.00000000000E+00 -0.00000000000E+00 -0.20701950510E+02  0.20701950510E+02  0.00000000000E+00 0.  1.
         13    1    1    2    0    0  0.12239413631E+02  0.14373250514E+02 -0.62027378343E+01  0.19871554973E+02  0.10566000000E+00 0.  1.
        996    1    1    2    0    0 -0.12239413631E+02 -0.14373250514E+02  0.85500731499E+02  0.10083039553E+03  0.50000000000E+02 0.  0.
<mgrwt>
<rscale>  0 0.53445239E+02</rscale>
<asrwt>0</asrwt>
<pdfrwt beam="1">  1       13 0.10000000E+01 0.53445239E+02</pdfrwt>
<pdfrwt beam="2">  1       22 0.20701973E+00 0.53445239E+02</pdfrwt>
<totfact> 0.42574694E-01</totfact>
</mgrwt>
</event>
<event>
 4    1  0.2503484E+000  0.5341831E+02  0.7957747E-01  0.1427730E+00
         13   -1    0    0    0    0  0.00000000000E+00  0.00000000000E+00  0.99999944181E+02  0.10000000000E+03  0.10566000000E+00 0.  1.
         22   -1    0    0    0    0 -0.00000000000E+00 -0.00000000000E+00 -0.78347443940E+02  0.78347443940E+02  0.00000000000E+00 0. -1.
         13    1    1    2    0    0 -0.35800639869E+01  0.18458046514E+02 -0.69881269356E+02  0.72366562099E+02  0.10566000000E+00 0. -1.
        996    1    1    2    0    0  0.35800639869E+01 -0.18458046514E+02  0.91533769598E+02  0.10598088184E+03  0.50000000000E+02 0.  0.
<mgrwt>
<rscale>  0 0.53418315E+02</rscale>
<asrwt>0</asrwt>
<pdfrwt beam="1">  1       13 0.10000000E+01 0.53418315E+02</pdfrwt>
<pdfrwt beam="2">  1       22 0.78347450E+00 0.53418315E+02</pdfrwt>
<totfact> 0.35943058E-02</totfact>
</mgrwt>
</event>
<event>
 4    1  0.2503484E+000  0.5377727E+02  0.7957747E-01  0.1425971E+00
         13   -1    0    0    0    0  0.00000000000E+00  0.00000000000E+00  0.99999944177E+02  0.99999999997E+02  0.10566000000E+00 0. -1.
         22   -1    0    0    0    0 -0.00000000000E+00 -0.00000000000E+00 -0.23331105539E+02  0.23331105539E+02  0.00000000000E+00 0.  1.
         13    1    1    2    0    0 -0.70377546735E+01 -0.18505791728E+02 -0.93417928072E+01  0.21892340560E+02  0.10566000000E+00 0.  1.
        996    1    1    2    0    0  0.70377546735E+01  0.18505791728E+02  0.86010631444E+02  0.10143876498E+03  0.50000000000E+02 0.  0.
<mgrwt>
<rscale>  0 0.53777266E+02</rscale>
<asrwt>0</asrwt>
<pdfrwt beam="1">  1       13 0.10000000E+01 0.53777266E+02</pdfrwt>
<pdfrwt beam="2">  1       22 0.23331127E+00 0.53777266E+02</pdfrwt>
<totfact> 0.33850884E-01</totfact>
</mgrwt>
</event>
<event>
 4    1  0.2503484E+000  0.5155208E+02  0.7957747E-01  0.1437145E+00
         13   -1    0    0    0    0  0.00000000000E+00  0.00000000000E+00  0.99999944181E+02  0.10000000000E+03  0.10566000000E+00 0.  1.
         22   -1    0    0    0    0 -0.00000000000E+00 -0.00000000000E+00 -0.13616713988E+02  0.13616713988E+02  0.00000000000E+00 0.  1.
         13    1    1    2    0    0  0.58708469131E+01 -0.11097313238E+02 -0.52824775729E+00  0.12566121689E+02  0.10566000000E+00 0. -1.
        996    1    1    2    0    0 -0.58708469131E+01  0.11097313238E+02  0.86911477950E+02  0.10105059230E+03  0.50000000000E+02 0.  0.
<mgrwt>
<rscale>  0 0.51552082E+02</rscale>
<asrwt>0</asrwt>
<pdfrwt beam="1">  1       13 0.10000000E+01 0.51552082E+02</pdfrwt>
<pdfrwt beam="2">  1       22 0.13616738E+00 0.51552082E+02</pdfrwt>
<totfact> 0.88102253E-01</totfact>
</mgrwt>
</event>
<event>
 4    1  0.2503484E+000  0.5362921E+02  0.7957747E-01  0.1426695E+00
         13   -1    0    0    0    0  0.00000000000E+00  0.00000000000E+00  0.99999944180E+02  0.10000000000E+03  0.10566000000E+00 0.  1.
         22   -1    0    0    0    0 -0.00000000000E+00 -0.00000000000E+00 -0.19940119355E+02  0.19940119355E+02  0.00000000000E+00 0.  1.
         13    1    1    2    0    0  0.19219786903E+02  0.25868060457E+01 -0.44057356140E+01  0.19887519817E+02  0.10566000000E+00 0. -1.
        996    1    1    2    0    0 -0.19219786903E+02 -0.25868060457E+01  0.84465560438E+02  0.10005259954E+03  0.50000000000E+02 0.  0.
<mgrwt>
<rscale>  0 0.53629206E+02</rscale>
<asrwt>0</asrwt>
<pdfrwt beam="1">  1       13 0.10000000E+01 0.53629206E+02</pdfrwt>
<pdfrwt beam="2">  1       22 0.19940142E+00 0.53629206E+02</pdfrwt>
<totfact> 0.45693390E-01</totfact>
</mgrwt>
</event>
<event>
 4    1  0.2503484E+000  0.6137253E+02  0.7957747E-01  0.1392160E+00
         13   -1    0    0    0    0  0.00000000000E+00  0.00000000000E+00  0.99999944179E+02  0.99999999999E+02  0.10566000000E+00 0. -1.
         22   -1    0    0    0    0 -0.00000000000E+00 -0.00000000000E+00 -0.34865350896E+02  0.34865350896E+02  0.00000000000E+00 0.  1.
         13    1    1    2    0    0  0.30188177787E+02 -0.18848379862E+02 -0.10835693863E+02  0.37202297336E+02  0.10566000000E+00 0.  1.
        996    1    1    2    0    0 -0.30188177787E+02  0.18848379862E+02  0.75970287145E+02  0.97663053559E+02  0.50000000000E+02 0.  0.
<mgrwt>
<rscale>  0 0.61372531E+02</rscale>
<asrwt>0</asrwt>
<pdfrwt beam="1">  1       13 0.10000000E+01 0.61372531E+02</pdfrwt>
<pdfrwt beam="2">  1       22 0.34865369E+00 0.61372531E+02</pdfrwt>
<totfact> 0.15962863E-01</totfact>
</mgrwt>
</event>
<event>
 4    1  0.2503484E+000  0.5172815E+02  0.7957747E-01  0.1436237E+00
         13   -1    0    0    0    0  0.00000000000E+00  0.00000000000E+00  0.99999944182E+02  0.10000000000E+03  0.10566000000E+00 0.  1.
         22   -1    0    0    0    0 -0.00000000000E+00 -0.00000000000E+00 -0.11670134927E+02  0.11670134927E+02  0.00000000000E+00 0.  1.
         13    1    1    2    0    0  0.13043478330E+02 -0.23810481207E+01  0.34754172396E+02  0.37197652883E+02  0.10566000000E+00 0. -1.
        996    1    1    2    0    0 -0.13043478330E+02  0.23810481207E+01  0.53575636860E+02  0.74472482046E+02  0.50000000000E+02 0.  0.
<mgrwt>
<rscale>  0 0.51728152E+02</rscale>
<asrwt>0</asrwt>
<pdfrwt beam="1">  1       13 0.10000000E+01 0.51728152E+02</pdfrwt>
<pdfrwt beam="2">  1       22 0.11670160E+00 0.51728152E+02</pdfrwt>
<totfact> 0.11208842E+00</totfact>
</mgrwt>
</event>
<event>
 4    1  0.2503484E+000  0.5460456E+02  0.7957747E-01  0.1421978E+00
         13   -1    0    0    0    0  0.00000000000E+00  0.00000000000E+00  0.99999944178E+02  0.99999999998E+02  0.10566000000E+00 0.  1.
         22   -1    0    0    0    0 -0.00000000000E+00 -0.00000000000E+00 -0.14689181603E+02  0.14689181603E+02  0.00000000000E+00 0. -1.
         13    1    1    2    0    0 -0.10214274901E+02  0.19424890537E+02  0.21837639954E+02  0.30960482343E+02  0.10566000000E+00 0. -1.
        996    1    1    2    0    0  0.10214274901E+02 -0.19424890537E+02  0.63473122621E+02  0.83728699257E+02  0.50000000000E+02 0.  0.
<mgrwt>
<rscale>  0 0.54604558E+02</rscale>
<asrwt>0</asrwt>
<pdfrwt beam="1">  1       13 0.10000000E+01 0.54604558E+02</pdfrwt>
<pdfrwt beam="2">  1       22 0.14689205E+00 0.54604558E+02</pdfrwt>
<totfact> 0.78361082E-01</totfact>
</mgrwt>
</event>
<event>
 4    1  0.2503484E+000  0.5867730E+02  0.7957747E-01  0.1403468E+00
         13   -1    0    0    0    0  0.00000000000E+00  0.00000000000E+00  0.99999944170E+02  0.99999999990E+02  0.10566000000E+00 0. -1.
         22   -1    0    0    0    0 -0.00000000000E+00 -0.00000000000E+00 -0.20246301071E+02  0.20246301071E+02  0.00000000000E+00 0.  1.
         13    1    1    2    0    0  0.29236068537E+02 -0.93956046829E+01  0.20948286366E+02  0.37173471139E+02  0.10566000000E+00 0.  1.
        996    1    1    2    0    0 -0.29236068537E+02  0.93956046829E+01  0.58805356733E+02  0.83072829922E+02  0.50000000000E+02 0.  0.
<mgrwt>
<rscale>  0 0.58677296E+02</rscale>
<asrwt>0</asrwt>
<pdfrwt beam="1">  1       13 0.10000000E+01 0.58677296E+02</pdfrwt>
<pdfrwt beam="2">  1       22 0.20246323E+00 0.58677296E+02</pdfrwt>
<totfact> 0.44779622E-01</totfact>
</mgrwt>
</event>
<event>
 4    1  0.2503484E+000  0.6089167E+02  0.7957747E-01  0.1394127E+00
         13   -1    0    0    0    0  0.00000000000E+00  0.00000000000E+00  0.99999944181E+02  0.10000000000E+03  0.10566000000E+00 0.  1.
         22   -1    0    0    0    0 -0.00000000000E+00 -0.00000000000E+00 -0.50428575328E+02  0.50428575328E+02  0.00000000000E+00 0. -1.
         13    1    1    2    0    0  0.30984617980E+01  0.34614953954E+02 -0.32938453677E+02  0.47882652365E+02  0.10566000000E+00 0. -1.
        996    1    1    2    0    0 -0.30984617980E+01 -0.34614953954E+02  0.82509822530E+02  0.10254592296E+03  0.50000000000E+02 0.  0.
<mgrwt>
<rscale>  0 0.60891670E+02</rscale>
<asrwt>0</asrwt>
<pdfrwt beam="1">  1       13 0.10000000E+01 0.60891670E+02</pdfrwt>
<pdfrwt beam="2">  1       22 0.50428589E+00 0.60891670E+02</pdfrwt>
<totfact> 0.72168476E-02</totfact>
</mgrwt>
</event>
<event>
 4    1  0.2503484E+000  0.5334719E+02  0.7957747E-01  0.1428081E+00
         13   -1    0    0    0    0  0.00000000000E+00  0.00000000000E+00  0.99999944179E+02  0.10000000000E+03  0.10566000000E+00 0. -1.
         22   -1    0    0    0    0 -0.00000000000E+00 -0.00000000000E+00 -0.13878868516E+02  0.13878868516E+02  0.00000000000E+00 0.  1.
         13    1    1    2    0    0 -0.17466610555E+02  0.63906011745E+01  0.10574058617E+02  0.21394956119E+02  0.10566000000E+00 0.  1.
        996    1    1    2    0    0  0.17466610555E+02 -0.63906011745E+01  0.75547017046E+02  0.92483912397E+02  0.50000000000E+02 0.  0.
<mgrwt>
<rscale>  0 0.53347186E+02</rscale>
<asrwt>0</asrwt>
<pdfrwt beam="1">  1       13 0.10000000E+01 0.53347186E+02</pdfrwt>
<pdfrwt beam="2">  1       22 0.13878893E+00 0.53347186E+02</pdfrwt>
<totfact> 0.85761630E-01</totfact>
</mgrwt>
</event>
<event>
 4    1  0.2503484E+000  0.5182138E+02  0.7957747E-01  0.1435758E+00
         13   -1    0    0    0    0  0.00000000000E+00  0.00000000000E+00  0.99999944179E+02  0.99999999999E+02  0.10566000000E+00 0.  1.
         22   -1    0    0    0    0 -0.00000000000E+00 -0.00000000000E+00 -0.13801055238E+02  0.13801055238E+02  0.00000000000E+00 0.  1.
         13    1    1    2    0    0  0.12184692215E+02 -0.60818650501E+01  0.47002131466E+00  0.13626734419E+02  0.10566000000E+00 0. -1.
        996    1    1    2    0    0 -0.12184692215E+02  0.60818650501E+01  0.85728867626E+02  0.10017432082E+03  0.50000000000E+02 0.  0.
<mgrwt>
<rscale>  0 0.51821384E+02</rscale>
<asrwt>0</asrwt>
<pdfrwt beam="1">  1       13 0.10000000E+01 0.51821384E+02</pdfrwt>
<pdfrwt beam="2">  1       22 0.13801079E+00 0.51821384E+02</pdfrwt>
<totfact> 0.86268234E-01</totfact>
</mgrwt>
</event>
<event>
 4    1  0.2503484E+000  0.5139299E+02  0.7957747E-01  0.1437970E+00
         13   -1    0    0    0    0  0.00000000000E+00  0.00000000000E+00  0.99999944182E+02  0.10000000000E+03  0.10566000000E+00 0. -1.
         22   -1    0    0    0    0 -0.00000000000E+00 -0.00000000000E+00 -0.14161302378E+02  0.14161302378E+02  0.00000000000E+00 0.  1.
         13    1    1    2    0    0  0.94093718294E+00 -0.11847120570E+02 -0.23266915154E+01  0.12110503129E+02  0.10566000000E+00 0.  1.
        996    1    1    2    0    0 -0.94093718294E+00  0.11847120570E+02  0.88165333319E+02  0.10205079925E+03  0.50000000000E+02 0.  0.
<mgrwt>
<rscale>  0 0.51392992E+02</rscale>
<asrwt>0</asrwt>
<pdfrwt beam="1">  1       13 0.10000000E+01 0.51392992E+02</pdfrwt>
<pdfrwt beam="2">  1       22 0.14161326E+00 0.51392992E+02</pdfrwt>
<totfact> 0.82667332E-01</totfact>
</mgrwt>
</event>
<event>
 4    1  0.2503484E+000  0.5356474E+02  0.7957747E-01  0.1427011E+00
         13   -1    0    0    0    0  0.00000000000E+00  0.00000000000E+00  0.99999944183E+02  0.10000000000E+03  0.10566000000E+00 0.  1.
         22   -1    0    0    0    0 -0.00000000000E+00 -0.00000000000E+00 -0.22555086315E+02  0.22555086315E+02  0.00000000000E+00 0. -1.
         13    1    1    2    0    0 -0.72914953861E-01  0.19213946152E+02 -0.87179376534E+01  0.21099636117E+02  0.10566000000E+00 0. -1.
        996    1    1    2    0    0  0.72914953861E-01 -0.19213946152E+02  0.86162795521E+02  0.10145545020E+03  0.50000000000E+02 0.  0.
<mgrwt>
<rscale>  0 0.53564737E+02</rscale>
<asrwt>0</asrwt>
<pdfrwt beam="1">  1       13 0.10000000E+01 0.53564737E+02</pdfrwt>
<pdfrwt beam="2">  1       22 0.22555108E+00 0.53564737E+02</pdfrwt>
<totfact> 0.36139654E-01</totfact>
</mgrwt>
</event>
<event>
 4    1  0.2503484E+000  0.7345286E+02  0.7957747E-01  0.1348730E+00
         13   -1    0    0    0    0  0.00000000000E+00  0.00000000000E+00  0.99999944175E+02  0.99999999995E+02  0.10566000000E+00 0. -1.
         22   -1    0    0    0    0 -0.00000000000E+00 -0.00000000000E+00 -0.56434213168E+02  0.56434213168E+02  0.00000000000E+00 0.  1.
         13    1    1    2    0    0  0.12693699416E+02 -0.52289509768E+02 -0.21849550625E+02  0.58075268946E+02  0.10566000000E+00 0.  1.
        996    1    1    2    0    0 -0.12693699416E+02  0.52289509768E+02  0.65415281632E+02  0.98358944217E+02  0.50000000000E+02 0.  0.
<mgrwt>
<rscale>  0 0.73452861E+02</rscale>
<asrwt>0</asrwt>
<pdfrwt beam="1">  1       13 0.10000000E+01 0.73452861E+02</pdfrwt>
<pdfrwt beam="2">  1       22 0.56434225E+00 0.73452861E+02</pdfrwt>
<totfact> 0.58365225E-02</totfact>
</mgrwt>
</event>
<event>
 4    1  0.2503484E+000  0.5226955E+02  0.7957747E-01  0.1433471E+00
         13   -1    0    0    0    0  0.00000000000E+00  0.00000000000E+00  0.99999944171E+02  0.99999999991E+02  0.10566000000E+00 0.  1.
         22   -1    0    0    0    0 -0.00000000000E+00 -0.00000000000E+00 -0.27951843565E+02  0.27951843565E+02  0.00000000000E+00 0. -1.
         13    1    1    2    0    0 -0.14906597150E+02 -0.31462363035E+01 -0.18153845548E+02  0.23699761891E+02  0.10566000000E+00 0. -1.
        996    1    1    2    0    0  0.14906597150E+02  0.31462363035E+01  0.90201946154E+02  0.10425208166E+03  0.50000000000E+02 0.  0.
<mgrwt>
<rscale>  0 0.52269546E+02</rscale>
<asrwt>0</asrwt>
<pdfrwt beam="1">  1       13 0.10000000E+01 0.52269546E+02</pdfrwt>
<pdfrwt beam="2">  1       22 0.27951864E+00 0.52269546E+02</pdfrwt>
<totfact> 0.23698716E-01</totfact>
</mgrwt>
</event>
<event>
 4    1  0.2503484E+000  0.5392435E+02  0.7957747E-01  0.1425255E+00
         13   -1    0    0    0    0  0.00000000000E+00  0.00000000000E+00  0.99999944176E+02  0.99999999996E+02  0.10566000000E+00 0.  1.
         22   -1    0    0    0    0 -0.00000000000E+00 -0.00000000000E+00 -0.20638704373E+02  0.20638704373E+02  0.00000000000E+00 0. -1.
         13    1    1    2    0    0  0.14218528366E+02  0.14341161561E+02 -0.47310882825E+01  0.20741982167E+02  0.10566000000E+00 0. -1.
        996    1    1    2    0    0 -0.14218528366E+02 -0.14341161561E+02  0.84092328086E+02  0.99896722202E+02  0.50000000000E+02 0.  0.
<mgrwt>
<rscale>  0 0.53924349E+02</rscale>
<asrwt>0</asrwt>
<pdfrwt beam="1">  1       13 0.10000000E+01 0.53924349E+02</pdfrwt>
<pdfrwt beam="2">  1       22 0.20638727E+00 0.53924349E+02</pdfrwt>
<totfact> 0.42856378E-01</totfact>
</mgrwt>
</event>
<event>
 4    1  0.2503484E+000  0.5620392E+02  0.7957747E-01  0.1414490E+00
         13   -1    0    0    0    0  0.00000000000E+00  0.00000000000E+00  0.99999944175E+02  0.99999999995E+02  0.10566000000E+00 0.  1.
         22   -1    0    0    0    0 -0.00000000000E+00 -0.00000000000E+00 -0.18126575316E+02  0.18126575316E+02  0.00000000000E+00 0.  1.
         13    1    1    2    0    0  0.22639329821E+02  0.12097158818E+02  0.11671457195E+02  0.28197776212E+02  0.10566000000E+00 0. -1.
        996    1    1    2    0    0 -0.22639329821E+02 -0.12097158818E+02  0.70201911664E+02  0.89928799099E+02  0.50000000000E+02 0.  0.
<mgrwt>
<rscale>  0 0.56203919E+02</rscale>
<asrwt>0</asrwt>
<pdfrwt beam="1">  1       13 0.10000000E+01 0.56203919E+02</pdfrwt>
<pdfrwt beam="2">  1       22 0.18126598E+00 0.56203919E+02</pdfrwt>
<totfact> 0.54666626E-01</totfact>
</mgrwt>
</event>
<event>
 4    1  0.2503484E+000  0.5197351E+02  0.7957747E-01  0.1434979E+00
         13   -1    0    0    0    0  0.00000000000E+00  0.00000000000E+00  0.99999944181E+02  0.10000000000E+03  0.10566000000E+00 0. -1.
         22   -1    0    0    0    0 -0.00000000000E+00 -0.00000000000E+00 -0.15022208578E+02  0.15022208578E+02  0.00000000000E+00 0. -1.
         13    1    1    2    0    0 -0.13005730894E+02 -0.56653935592E+01 -0.13562303490E+01  0.14251183988E+02  0.10566000000E+00 0.  1.
        996    1    1    2    0    0  0.13005730894E+02  0.56653935592E+01  0.86333965951E+02  0.10077102459E+03  0.50000000000E+02 0.  0.
<mgrwt>
<rscale>  0 0.51973510E+02</rscale>
<asrwt>0</asrwt>
<pdfrwt beam="1">  1       13 0.10000000E+01 0.51973510E+02</pdfrwt>
<pdfrwt beam="2">  1       22 0.15022232E+00 0.51973510E+02</pdfrwt>
<totfact> 0.75103069E-01</totfact>
</mgrwt>
</event>
<event>
 4    1  0.2503484E+000  0.5852436E+02  0.7957747E-01  0.1404131E+00
         13   -1    0    0    0    0  0.00000000000E+00  0.00000000000E+00  0.99999944173E+02  0.99999999993E+02  0.10566000000E+00 0. -1.
         22   -1    0    0    0    0 -0.00000000000E+00 -0.00000000000E+00 -0.45341875880E+02  0.45341875880E+02  0.00000000000E+00 0.  1.
         13    1    1    2    0    0  0.22302430166E+02 -0.20680975390E+02 -0.29804812888E+02  0.42584494475E+02  0.10566000000E+00 0.  1.
        996    1    1    2    0    0 -0.22302430166E+02  0.20680975390E+02  0.84462881181E+02  0.10275738140E+03  0.50000000000E+02 0.  0.
<mgrwt>
<rscale>  0 0.58524364E+02</rscale>
<asrwt>0</asrwt>
<pdfrwt beam="1">  1       13 0.10000000E+01 0.58524364E+02</pdfrwt>
<pdfrwt beam="2">  1       22 0.45341891E+00 0.58524364E+02</pdfrwt>
<totfact> 0.95251006E-02</totfact>
</mgrwt>
</event>
<event>
 4    1  0.2503484E+000  0.5181084E+02  0.7957747E-01  0.1435812E+00
         13   -1    0    0    0    0  0.00000000000E+00  0.00000000000E+00  0.99999944175E+02  0.99999999995E+02  0.10566000000E+00 0.  1.
         22   -1    0    0    0    0 -0.00000000000E+00 -0.00000000000E+00 -0.20817478106E+02  0.20817478106E+02  0.00000000000E+00 0. -1.
         13    1    1    2    0    0 -0.13207754242E+02 -0.31493515688E+01 -0.10554194294E+02  0.17197830347E+02  0.10566000000E+00 0. -1.
        996    1    1    2    0    0  0.13207754242E+02  0.31493515688E+01  0.89736660364E+02  0.10361964775E+03  0.50000000000E+02 0.  0.
<mgrwt>
<rscale>  0 0.51810840E+02</rscale>
<asrwt>0</asrwt>
<pdfrwt beam="1">  1       13 0.10000000E+01 0.51810840E+02</pdfrwt>
<pdfrwt beam="2">  1       22 0.20817500E+00 0.51810840E+02</pdfrwt>
<totfact> 0.42009683E-01</totfact>
</mgrwt>
</event>
<event>
 4    1  0.2503484E+000  0.5206046E+02  0.7957747E-01  0.1434535E+00
         13   -1    0    0    0    0  0.00000000000E+00  0.00000000000E+00  0.99999944172E+02  0.99999999992E+02  0.10566000000E+00 0. -1.
         22   -1    0    0    0    0 -0.00000000000E+00 -0.00000000000E+00 -0.11099364395E+02  0.11099364395E+02  0.00000000000E+00 0. -1.
         13    1    1    2    0    0  0.99157182941E+01 -0.10581584385E+02  0.17329784418E+02  0.22596990715E+02  0.10566000000E+00 0.  1.
        996    1    1    2    0    0 -0.99157182941E+01  0.10581584385E+02  0.71570795358E+02  0.88502373672E+02  0.50000000000E+02 0.  0.
<mgrwt>
<rscale>  0 0.52060459E+02</rscale>
<asrwt>0</asrwt>
<pdfrwt beam="1">  1       13 0.10000000E+01 0.52060459E+02</pdfrwt>
<pdfrwt beam="2">  1       22 0.11099389E+00 0.52060459E+02</pdfrwt>
<totfact> 0.12095793E+00</totfact>
</mgrwt>
</event>
<event>
 4    1  0.2503484E+000  0.7241746E+02  0.7957747E-01  0.1352060E+00
         13   -1    0    0    0    0  0.00000000000E+00  0.00000000000E+00  0.99999944184E+02  0.10000000000E+03  0.10566000000E+00 0.  1.
         22   -1    0    0    0    0 -0.00000000000E+00 -0.00000000000E+00 -0.60687574471E+02  0.60687574471E+02  0.00000000000E+00 0. -1.
         13    1    1    2    0    0  0.48688086781E+02 -0.19332828715E+02 -0.30065075284E+02  0.60400397154E+02  0.10566000000E+00 0. -1.
        996    1    1    2    0    0 -0.48688086781E+02  0.19332828715E+02  0.69377444998E+02  0.10028717732E+03  0.50000000000E+02 0.  0.
<mgrwt>
<rscale>  0 0.72417457E+02</rscale>
<asrwt>0</asrwt>
<pdfrwt beam="1">  1       13 0.10000000E+01 0.72417457E+02</pdfrwt>
<pdfrwt beam="2">  1       22 0.60687585E+00 0.72417457E+02</pdfrwt>
<totfact> 0.66367648E-02</totfact>
</mgrwt>
</event>
<event>
 4    1  0.2503484E+000  0.5641868E+02  0.7957747E-01  0.1413507E+00
         13   -1    0    0    0    0  0.00000000000E+00  0.00000000000E+00  0.99999944174E+02  0.99999999994E+02  0.10566000000E+00 0. -1.
         22   -1    0    0    0    0 -0.00000000000E+00 -0.00000000000E+00 -0.18802651648E+02  0.18802651648E+02  0.00000000000E+00 0. -1.
         13    1    1    2    0    0  0.25297028493E+02 -0.65672188569E+01  0.10051926787E+02  0.28002150100E+02  0.10566000000E+00 0.  1.
        996    1    1    2    0    0 -0.25297028493E+02  0.65672188569E+01  0.71145365739E+02  0.90800501542E+02  0.50000000000E+02 0.  0.
<mgrwt>
<rscale>  0 0.56418685E+02</rscale>
<asrwt>0</asrwt>
<pdfrwt beam="1">  1       13 0.10000000E+01 0.56418685E+02</pdfrwt>
<pdfrwt beam="2">  1       22 0.18802674E+00 0.56418685E+02</pdfrwt>
<totfact> 0.51171506E-01</totfact>
</mgrwt>
</event>
<event>
 4    1  0.2503484E+000  0.5201419E+02  0.7957747E-01  0.1434771E+00
         13   -1    0    0    0    0  0.00000000000E+00  0.00000000000E+00  0.99999944176E+02  0.99999999996E+02  0.10566000000E+00 0. -1.
         22   -1    0    0    0    0 -0.00000000000E+00 -0.00000000000E+00 -0.31849917966E+02  0.31849917966E+02  0.00000000000E+00 0.  1.
         13    1    1    2    0    0 -0.13355292607E+02 -0.52069762383E+01 -0.22884539172E+02  0.27003513462E+02  0.10566000000E+00 0.  1.
        996    1    1    2    0    0  0.13355292607E+02  0.52069762383E+01  0.91034565383E+02  0.10484640450E+03  0.50000000000E+02 0.  0.
<mgrwt>
<rscale>  0 0.52014195E+02</rscale>
<asrwt>0</asrwt>
<pdfrwt beam="1">  1       13 0.10000000E+01 0.52014195E+02</pdfrwt>
<pdfrwt beam="2">  1       22 0.31849937E+00 0.52014195E+02</pdfrwt>
<totfact> 0.18554394E-01</totfact>
</mgrwt>
</event>
<event>
 4    1  0.2503484E+000  0.5484434E+02  0.7957747E-01  0.1420836E+00
         13   -1    0    0    0    0  0.00000000000E+00  0.00000000000E+00  0.99999944177E+02  0.99999999997E+02  0.10566000000E+00 0. -1.
         22   -1    0    0    0    0 -0.00000000000E+00 -0.00000000000E+00 -0.16517034604E+02  0.16517034604E+02  0.00000000000E+00 0.  1.
         13    1    1    2    0    0 -0.15264224113E+02  0.16580265902E+02  0.95839679445E+01  0.24490107405E+02  0.10566000000E+00 0.  1.
        996    1    1    2    0    0  0.15264224113E+02 -0.16580265902E+02  0.73898941628E+02  0.92026927195E+02  0.50000000000E+02 0.  0.
<mgrwt>
<rscale>  0 0.54844341E+02</rscale>
<asrwt>0</asrwt>
<pdfrwt beam="1">  1       13 0.10000000E+01 0.54844341E+02</pdfrwt>
<pdfrwt beam="2">  1       22 0.16517058E+00 0.54844341E+02</pdfrwt>
<totfact> 0.64276367E-01</totfact>
</mgrwt>
</event>
<event>
 4    1  0.2503484E+000  0.6199738E+02  0.7957747E-01  0.1389636E+00
         13   -1    0    0    0    0  0.00000000000E+00  0.00000000000E+00  0.99999944182E+02  0.10000000000E+03  0.10566000000E+00 0. -1.
         22   -1    0    0    0    0 -0.00000000000E+00 -0.00000000000E+00 -0.41516322347E+02  0.41516322347E+02  0.00000000000E+00 0.  1.
         13    1    1    2    0    0 -0.36592463493E+02  0.21603529229E+01 -0.19795522756E+02  0.41659925522E+02  0.10566000000E+00 0.  1.
        996    1    1    2    0    0  0.36592463493E+02 -0.21603529229E+01  0.78279144591E+02  0.99856396827E+02  0.50000000000E+02 0.  0.
<mgrwt>
<rscale>  0 0.61997383E+02</rscale>
<asrwt>0</asrwt>
<pdfrwt beam="1">  1       13 0.10000000E+01 0.61997383E+02</pdfrwt>
<pdfrwt beam="2">  1       22 0.41516339E+00 0.61997383E+02</pdfrwt>
<totfact> 0.11578357E-01</totfact>
</mgrwt>
</event>
<event>
 4    1  0.2503484E+000  0.5186366E+02  0.7957747E-01  0.1435541E+00
         13   -1    0    0    0    0  0.00000000000E+00  0.00000000000E+00  0.99999944176E+02  0.99999999996E+02  0.10566000000E+00 0. -1.
         22   -1    0    0    0    0 -0.00000000000E+00 -0.00000000000E+00 -0.25474176141E+02  0.25474176141E+02  0.00000000000E+00 0.  1.
         13    1    1    2    0    0 -0.11120207418E+02 -0.81351007892E+01 -0.16017834487E+02  0.21128678699E+02  0.10566000000E+00 0.  1.
        996    1    1    2    0    0  0.11120207418E+02  0.81351007892E+01  0.90543602523E+02  0.10434549744E+03  0.50000000000E+02 0.  0.
<mgrwt>
<rscale>  0 0.51863657E+02</rscale>
<asrwt>0</asrwt>
<pdfrwt beam="1">  1       13 0.10000000E+01 0.51863657E+02</pdfrwt>
<pdfrwt beam="2">  1       22 0.25474197E+00 0.51863657E+02</pdfrwt>
<totfact> 0.28403251E-01</totfact>
</mgrwt>
</event>
<event>
 4    1  0.2503484E+000  0.5500928E+02  0.7957747E-01  0.1420055E+00
         13   -1    0    0    0    0  0.00000000000E+00  0.00000000000E+00  0.99999944176E+02  0.99999999997E+02  0.10566000000E+00 0. -1.
         22   -1    0    0    0    0 -0.00000000000E+00 -0.00000000000E+00 -0.17749060050E+02  0.17749060050E+02  0.00000000000E+00 0.  1.
         13    1    1    2    0    0  0.16320627909E+01  0.22877000325E+02  0.59652495926E+01  0.23698441712E+02  0.10566000000E+00 0.  1.
        996    1    1    2    0    0 -0.16320627909E+01 -0.22877000325E+02  0.76285634534E+02  0.94050618335E+02  0.50000000000E+02 0.  0.
<mgrwt>
<rscale>  0 0.55009279E+02</rscale>
<asrwt>0</asrwt>
<pdfrwt beam="1">  1       13 0.10000000E+01 0.55009279E+02</pdfrwt>
<pdfrwt beam="2">  1       22 0.17749083E+00 0.55009279E+02</pdfrwt>
<totfact> 0.56650280E-01</totfact>
</mgrwt>
</event>
<event>
 4    1  0.2503484E+000  0.5207784E+02  0.7957747E-01  0.1434446E+00
         13   -1    0    0    0    0  0.00000000000E+00  0.00000000000E+00  0.99999944183E+02  0.10000000000E+03  0.10566000000E+00 0. -1.
         22   -1    0    0    0    0 -0.00000000000E+00 -0.00000000000E+00 -0.11226071922E+02  0.11226071922E+02  0.00000000000E+00 0. -1.
         13    1    1    2    0    0  0.11969803484E+02  0.82961148391E+01  0.14847120158E+02  0.20797833009E+02  0.10566000000E+00 0.  1.
        996    1    1    2    0    0 -0.11969803484E+02 -0.82961148391E+01  0.73926752103E+02  0.90428238916E+02  0.50000000000E+02 0.  0.
<mgrwt>
<rscale>  0 0.52077843E+02</rscale>
<asrwt>0</asrwt>
<pdfrwt beam="1">  1       13 0.10000000E+01 0.52077843E+02</pdfrwt>
<pdfrwt beam="2">  1       22 0.11226097E+00 0.52077843E+02</pdfrwt>
<totfact> 0.11892787E+00</totfact>
</mgrwt>
</event>
<event>
 4    1  0.2503484E+000  0.5290534E+02  0.7957747E-01  0.1430273E+00
         13   -1    0    0    0    0  0.00000000000E+00  0.00000000000E+00  0.99999944181E+02  0.10000000000E+03  0.10566000000E+00 0.  1.
         22   -1    0    0    0    0 -0.00000000000E+00 -0.00000000000E+00 -0.35897540083E+02  0.35897540083E+02  0.00000000000E+00 0. -1.
         13    1    1    2    0    0  0.15513461168E+02  0.76359416350E+01 -0.26109879166E+02  0.31316322201E+02  0.10566000000E+00 0. -1.
        996    1    1    2    0    0 -0.15513461168E+02 -0.76359416350E+01  0.90212283265E+02  0.10458121788E+03  0.50000000000E+02 0.  0.
<mgrwt>
<rscale>  0 0.52905341E+02</rscale>
<asrwt>0</asrwt>
<pdfrwt beam="1">  1       13 0.10000000E+01 0.52905341E+02</pdfrwt>
<pdfrwt beam="2">  1       22 0.35897558E+00 0.52905341E+02</pdfrwt>
<totfact> 0.15048573E-01</totfact>
</mgrwt>
</event>
<event>
 4    1  0.2503484E+000  0.5600773E+02  0.7957747E-01  0.1415392E+00
         13   -1    0    0    0    0  0.00000000000E+00  0.00000000000E+00  0.99999944169E+02  0.99999999990E+02  0.10566000000E+00 0. -1.
         22   -1    0    0    0    0 -0.00000000000E+00 -0.00000000000E+00 -0.18810043847E+02  0.18810043847E+02  0.00000000000E+00 0.  1.
         13    1    1    2    0    0  0.22672709071E+02 -0.11082152592E+02  0.76489333992E+01  0.26370119243E+02  0.10566000000E+00 0.  1.
        996    1    1    2    0    0 -0.22672709071E+02  0.11082152592E+02  0.73540966924E+02  0.92439924593E+02  0.50000000000E+02 0.  0.
<mgrwt>
<rscale>  0 0.56007730E+02</rscale>
<asrwt>0</asrwt>
<pdfrwt beam="1">  1       13 0.10000000E+01 0.56007730E+02</pdfrwt>
<pdfrwt beam="2">  1       22 0.18810067E+00 0.56007730E+02</pdfrwt>
<totfact> 0.51099056E-01</totfact>
</mgrwt>
</event>
<event>
 4    1  0.2503484E+000  0.5116681E+02  0.7957747E-01  0.1439148E+00
         13   -1    0    0    0    0  0.00000000000E+00  0.00000000000E+00  0.99999944174E+02  0.99999999994E+02  0.10566000000E+00 0.  1.
         22   -1    0    0    0    0 -0.00000000000E+00 -0.00000000000E+00 -0.15090523058E+02  0.15090523058E+02  0.00000000000E+00 0.  1.
         13    1    1    2    0    0  0.98184565610E+01  0.46519261816E+01 -0.47502466781E+01  0.11858267748E+02  0.10566000000E+00 0. -1.
        996    1    1    2    0    0 -0.98184565610E+01 -0.46519261816E+01  0.89659667794E+02  0.10323225530E+03  0.50000000000E+02 0.  0.
<mgrwt>
<rscale>  0 0.51166811E+02</rscale>
<asrwt>0</asrwt>
<pdfrwt beam="1">  1       13 0.10000000E+01 0.51166811E+02</pdfrwt>
<pdfrwt beam="2">  1       22 0.15090547E+00 0.51166811E+02</pdfrwt>
<totfact> 0.74413451E-01</totfact>
</mgrwt>
</event>
<event>
 4    1  0.2503484E+000  0.5981825E+02  0.7957747E-01  0.1398596E+00
         13   -1    0    0    0    0  0.00000000000E+00  0.00000000000E+00  0.99999944174E+02  0.99999999995E+02  0.10566000000E+00 0.  1.
         22   -1    0    0    0    0 -0.00000000000E+00 -0.00000000000E+00 -0.22341894558E+02  0.22341894558E+02  0.00000000000E+00 0. -1.
         13    1    1    2    0    0 -0.26783824775E+02 -0.18996034915E+02  0.16333844158E+02  0.36674626666E+02  0.10566000000E+00 0. -1.
        996    1    1    2    0    0  0.26783824775E+02  0.18996034915E+02  0.61324205458E+02  0.85667267887E+02  0.50000000000E+02 0.  0.
<mgrwt>
<rscale>  0 0.59818246E+02</rscale>
<asrwt>0</asrwt>
<pdfrwt beam="1">  1       13 0.10000000E+01 0.59818246E+02</pdfrwt>
<pdfrwt beam="2">  1       22 0.22341916E+00 0.59818246E+02</pdfrwt>
<totfact> 0.37166238E-01</totfact>
</mgrwt>
</event>
<event>
 4    1  0.2503484E+000  0.5141716E+02  0.7957747E-01  0.1437844E+00
         13   -1    0    0    0    0  0.00000000000E+00  0.00000000000E+00  0.99999944182E+02  0.10000000000E+03  0.10566000000E+00 0.  1.
         22   -1    0    0    0    0 -0.00000000000E+00 -0.00000000000E+00 -0.11997363895E+02  0.11997363895E+02  0.00000000000E+00 0.  1.
         13    1    1    2    0    0 -0.55685697979E+01  0.10616759661E+02  0.25327239091E+01  0.12253587627E+02  0.10566000000E+00 0. -1.
        996    1    1    2    0    0  0.55685697979E+01 -0.10616759661E+02  0.85469856378E+02  0.99743776270E+02  0.50000000000E+02 0.  0.
<mgrwt>
<rscale>  0 0.51417162E+02</rscale>
<asrwt>0</asrwt>
<pdfrwt beam="1">  1       13 0.10000000E+01 0.51417162E+02</pdfrwt>
<pdfrwt beam="2">  1       22 0.11997388E+00 0.51417162E+02</pdfrwt>
<totfact> 0.10738932E+00</totfact>
</mgrwt>
</event>
<event>
 4    1  0.2503484E+000  0.5763206E+02  0.7957747E-01  0.1408046E+00
         13   -1    0    0    0    0  0.00000000000E+00  0.00000000000E+00  0.99999944185E+02  0.10000000001E+03  0.10566000000E+00 0. -1.
         22   -1    0    0    0    0 -0.00000000000E+00 -0.00000000000E+00 -0.24832531299E+02  0.24832531299E+02  0.00000000000E+00 0.  1.
         13    1    1    2    0    0 -0.26468339769E+02  0.10994584804E+02 -0.17555364642E+01  0.28714926040E+02  0.10566000000E+00 0.  1.
        996    1    1    2    0    0  0.26468339769E+02 -0.10994584804E+02  0.76922949350E+02  0.96117605265E+02  0.50000000000E+02 0.  0.
<mgrwt>
<rscale>  0 0.57632056E+02</rscale>
<asrwt>0</asrwt>
<pdfrwt beam="1">  1       13 0.10000000E+01 0.57632056E+02</pdfrwt>
<pdfrwt beam="2">  1       22 0.24832552E+00 0.57632056E+02</pdfrwt>
<totfact> 0.30123745E-01</totfact>
</mgrwt>
</event>
<event>
 4    1  0.2503484E+000  0.5138809E+02  0.7957747E-01  0.1437995E+00
         13   -1    0    0    0    0  0.00000000000E+00  0.00000000000E+00  0.99999944178E+02  0.99999999999E+02  0.10566000000E+00 0. -1.
         22   -1    0    0    0    0 -0.00000000000E+00 -0.00000000000E+00 -0.10165538318E+02  0.10165538318E+02  0.00000000000E+00 0. -1.
         13    1    1    2    0    0  0.10980332159E+02 -0.44909320293E+01  0.22784755201E+02  0.25688370880E+02  0.10566000000E+00 0.  1.
        996    1    1    2    0    0 -0.10980332159E+02  0.44909320293E+01  0.67049650659E+02  0.84477167437E+02  0.50000000000E+02 0.  0.
<mgrwt>
<rscale>  0 0.51388094E+02</rscale>
<asrwt>0</asrwt>
<pdfrwt beam="1">  1       13 0.10000000E+01 0.51388094E+02</pdfrwt>
<pdfrwt beam="2">  1       22 0.10165563E+00 0.51388094E+02</pdfrwt>
<totfact> 0.13745574E+00</totfact>
</mgrwt>
</event>
<event>
 4    1  0.2503484E+000  0.5468645E+02  0.7957747E-01  0.1421588E+00
         13   -1    0    0    0    0  0.00000000000E+00  0.00000000000E+00  0.99999944178E+02  0.99999999998E+02  0.10566000000E+00 0. -1.
         22   -1    0    0    0    0 -0.00000000000E+00 -0.00000000000E+00 -0.34160567118E+02  0.34160567118E+02  0.00000000000E+00 0.  1.
         13    1    1    2    0    0  0.35425427303E+00  0.22146830503E+02 -0.21658228313E+02  0.30978986670E+02  0.10566000000E+00 0.  1.
        996    1    1    2    0    0 -0.35425427303E+00 -0.22146830503E+02  0.87497605373E+02  0.10318158045E+03  0.50000000000E+02 0.  0.
<mgrwt>
<rscale>  0 0.54686448E+02</rscale>
<asrwt>0</asrwt>
<pdfrwt beam="1">  1       13 0.10000000E+01 0.54686448E+02</pdfrwt>
<pdfrwt beam="2">  1       22 0.34160586E+00 0.54686448E+02</pdfrwt>
<totfact> 0.16440663E-01</totfact>
</mgrwt>
</event>
<event>
 4    1  0.2503484E+000  0.5117583E+02  0.7957747E-01  0.1439101E+00
         13   -1    0    0    0    0  0.00000000000E+00  0.00000000000E+00  0.99999944178E+02  0.99999999998E+02  0.10566000000E+00 0. -1.
         22   -1    0    0    0    0 -0.00000000000E+00 -0.00000000000E+00 -0.37558077665E+02  0.37558077665E+02  0.00000000000E+00 0.  1.
         13    1    1    2    0    0 -0.10611318579E+02  0.25230242452E+01 -0.29986019842E+02  0.31908279229E+02  0.10566000000E+00 0.  1.
        996    1    1    2    0    0  0.10611318579E+02 -0.25230242452E+01  0.92427886355E+02  0.10564979843E+03  0.50000000000E+02 0.  0.
<mgrwt>
<rscale>  0 0.51175832E+02</rscale>
<asrwt>0</asrwt>
<pdfrwt beam="1">  1       13 0.10000000E+01 0.51175832E+02</pdfrwt>
<pdfrwt beam="2">  1       22 0.37558095E+00 0.51175832E+02</pdfrwt>
<totfact> 0.13872167E-01</totfact>
</mgrwt>
</event>
<event>
 4    1  0.2503484E+000  0.5400224E+02  0.7957747E-01  0.1424877E+00
         13   -1    0    0    0    0  0.00000000000E+00  0.00000000000E+00  0.99999944180E+02  0.10000000000E+03  0.10566000000E+00 0. -1.
         22   -1    0    0    0    0 -0.00000000000E+00 -0.00000000000E+00 -0.18615839065E+02  0.18615839065E+02  0.00000000000E+00 0.  1.
         13    1    1    2    0    0 -0.16880834023E+02 -0.11457723774E+02 -0.63844649215E+00  0.20412270069E+02  0.10566000000E+00 0.  1.
        996    1    1    2    0    0  0.16880834023E+02  0.11457723774E+02  0.82022551607E+02  0.98203568996E+02  0.50000000000E+02 0.  0.
<mgrwt>
<rscale>  0 0.54002241E+02</rscale>
<asrwt>0</asrwt>
<pdfrwt beam="1">  1       13 0.10000000E+01 0.54002241E+02</pdfrwt>
<pdfrwt beam="2">  1       22 0.18615862E+00 0.54002241E+02</pdfrwt>
<totfact> 0.51892954E-01</totfact>
</mgrwt>
</event>
<event>
 4    1  0.2503484E+000  0.5258411E+02  0.7957747E-01  0.1431882E+00
         13   -1    0    0    0    0  0.00000000000E+00  0.00000000000E+00  0.99999944177E+02  0.99999999997E+02  0.10566000000E+00 0. -1.
         22   -1    0    0    0    0 -0.00000000000E+00 -0.00000000000E+00 -0.49620644291E+02  0.49620644291E+02  0.00000000000E+00 0.  1.
         13    1    1    2    0    0 -0.12540293383E+02  0.10384082143E+02 -0.41042908176E+02  0.44154496890E+02  0.10566000000E+00 0.  1.
        996    1    1    2    0    0  0.12540293383E+02 -0.10384082143E+02  0.91422208061E+02  0.10546614740E+03  0.50000000000E+02 0.  0.
<mgrwt>
<rscale>  0 0.52584105E+02</rscale>
<asrwt>0</asrwt>
<pdfrwt beam="1">  1       13 0.10000000E+01 0.52584105E+02</pdfrwt>
<pdfrwt beam="2">  1       22 0.49620658E+00 0.52584105E+02</pdfrwt>
<totfact> 0.75193070E-02</totfact>
</mgrwt>
</event>
<event>
 4    1  0.2503484E+000  0.5160116E+02  0.7957747E-01  0.1436892E+00
         13   -1    0    0    0    0  0.00000000000E+00  0.00000000000E+00  0.99999944185E+02  0.10000000001E+03  0.10566000000E+00 0.  1.
         22   -1    0    0    0    0 -0.00000000000E+00 -0.00000000000E+00 -0.18612424841E+02  0.18612424841E+02  0.00000000000E+00 0. -1.
         13    1    1    2    0    0 -0.10113410678E+02 -0.77716622165E+01 -0.82449071030E+01  0.15187806501E+02  0.10566000000E+00 0. -1.
        996    1    1    2    0    0  0.10113410678E+02  0.77716622165E+01  0.89632426447E+02  0.10342461835E+03  0.50000000000E+02 0.  0.
<mgrwt>
<rscale>  0 0.51601161E+02</rscale>
<asrwt>0</asrwt>
<pdfrwt beam="1">  1       13 0.10000000E+01 0.51601161E+02</pdfrwt>
<pdfrwt beam="2">  1       22 0.18612448E+00 0.51601161E+02</pdfrwt>
<totfact> 0.51682708E-01</totfact>
</mgrwt>
</event>
<event>
 4    1  0.2503484E+000  0.5115483E+02  0.7957747E-01  0.1439210E+00
         13   -1    0    0    0    0  0.00000000000E+00  0.00000000000E+00  0.99999944180E+02  0.10000000000E+03  0.10566000000E+00 0.  1.
         22   -1    0    0    0    0 -0.00000000000E+00 -0.00000000000E+00 -0.11439350486E+02  0.11439350486E+02  0.00000000000E+00 0.  1.
         13    1    1    2    0    0 -0.10770687798E+02  0.89933090554E+00  0.21473840645E+01  0.11019933488E+02  0.10566000000E+00 0. -1.
        996    1    1    2    0    0  0.10770687798E+02 -0.89933090554E+00  0.86413209630E+02  0.10041941700E+03  0.50000000000E+02 0.  0.
<mgrwt>
<rscale>  0 0.51154829E+02</rscale>
<asrwt>0</asrwt>
<pdfrwt beam="1">  1       13 0.10000000E+01 0.51154829E+02</pdfrwt>
<pdfrwt beam="2">  1       22 0.11439375E+00 0.51154829E+02</pdfrwt>
<totfact> 0.11536939E+00</totfact>
</mgrwt>
</event>
<event>
 4    1  0.2503484E+000  0.5199013E+02  0.7957747E-01  0.1434894E+00
         13   -1    0    0    0    0  0.00000000000E+00  0.00000000000E+00  0.99999944178E+02  0.99999999998E+02  0.10566000000E+00 0.  1.
         22   -1    0    0    0    0 -0.00000000000E+00 -0.00000000000E+00 -0.12811091733E+02  0.12811091733E+02  0.00000000000E+00 0.  1.
         13    1    1    2    0    0 -0.78228578629E+01 -0.11907011853E+02  0.41497489644E+01  0.14839326700E+02  0.10566000000E+00 0. -1.
        996    1    1    2    0    0  0.78228578629E+01  0.11907011853E+02  0.83039103481E+02  0.97971765031E+02  0.50000000000E+02 0.  0.
<mgrwt>
<rscale>  0 0.51990134E+02</rscale>
<asrwt>0</asrwt>
<pdfrwt beam="1">  1       13 0.10000000E+01 0.51990134E+02</pdfrwt>
<pdfrwt beam="2">  1       22 0.12811116E+00 0.51990134E+02</pdfrwt>
<totfact> 0.97133092E-01</totfact>
</mgrwt>
</event>
<event>
 4    1  0.2503484E+000  0.5135381E+02  0.7957747E-01  0.1438173E+00
         13   -1    0    0    0    0  0.00000000000E+00  0.00000000000E+00  0.99999944181E+02  0.10000000000E+03  0.10566000000E+00 0.  1.
         22   -1    0    0    0    0 -0.00000000000E+00 -0.00000000000E+00 -0.47320567826E+02  0.47320567826E+02  0.00000000000E+00 0. -1.
         13    1    1    2    0    0 -0.11232936550E+02  0.33219486852E+01 -0.39827974192E+02  0.41514971984E+02  0.10566000000E+00 0. -1.
        996    1    1    2    0    0  0.11232936550E+02 -0.33219486852E+01  0.92507350546E+02  0.10580559584E+03  0.50000000000E+02 0.  0.
<mgrwt>
<rscale>  0 0.51353814E+02</rscale>
<asrwt>0</asrwt>
<pdfrwt beam="1">  1       13 0.10000000E+01 0.51353814E+02</pdfrwt>
<pdfrwt beam="2">  1       22 0.47320583E+00 0.51353814E+02</pdfrwt>
<totfact> 0.85347664E-02</totfact>
</mgrwt>
</event>
<event>
 4    1  0.2503484E+000  0.5124645E+02  0.7957747E-01  0.1438732E+00
         13   -1    0    0    0    0  0.00000000000E+00  0.00000000000E+00  0.99999944178E+02  0.99999999998E+02  0.10566000000E+00 0. -1.
         22   -1    0    0    0    0 -0.00000000000E+00 -0.00000000000E+00 -0.16181362854E+02  0.16181362854E+02  0.00000000000E+00 0.  1.
         13    1    1    2    0    0  0.10725731754E+02 -0.33403061678E+01 -0.60264363771E+01  0.12748649591E+02  0.10566000000E+00 0.  1.
        996    1    1    2    0    0 -0.10725731754E+02  0.33403061678E+01  0.89845017701E+02  0.10343271326E+03  0.50000000000E+02 0.  0.
<mgrwt>
<rscale>  0 0.51246453E+02</rscale>
<asrwt>0</asrwt>
<pdfrwt beam="1">  1       13 0.10000000E+01 0.51246453E+02</pdfrwt>
<pdfrwt beam="2">  1       22 0.16181386E+00 0.51246453E+02</pdfrwt>
<totfact> 0.66133663E-01</totfact>
</mgrwt>
</event>
<event>
 4    1  0.2503484E+000  0.6522892E+02  0.7957747E-01  0.1377112E+00
         13   -1    0    0    0    0  0.00000000000E+00  0.00000000000E+00  0.99999944181E+02  0.10000000000E+03  0.10566000000E+00 0. -1.
         22   -1    0    0    0    0 -0.00000000000E+00 -0.00000000000E+00 -0.63475298175E+02  0.63475298175E+02  0.00000000000E+00 0.  1.
         13    1    1    2    0    0  0.41888206238E+02  0.43617797875E+00 -0.43394998859E+02  0.60315413976E+02  0.10566000000E+00 0.  1.
        996    1    1    2    0    0 -0.41888206238E+02 -0.43617797875E+00  0.79919644864E+02  0.10315988420E+03  0.50000000000E+02 0.  0.
<mgrwt>
<rscale>  0 0.65228921E+02</rscale>
<asrwt>0</asrwt>
<pdfrwt beam="1">  1       13 0.10000000E+01 0.65228921E+02</pdfrwt>
<pdfrwt beam="2">  1       22 0.63475308E+00 0.65228921E+02</pdfrwt>
<totfact> 0.81168132E-02</totfact>
</mgrwt>
</event>
<event>
 4    1  0.2503484E+000  0.5388489E+02  0.7957747E-01  0.1425447E+00
         13   -1    0    0    0    0  0.00000000000E+00  0.00000000000E+00  0.99999944176E+02  0.99999999996E+02  0.10566000000E+00 0.  1.
         22   -1    0    0    0    0 -0.00000000000E+00 -0.00000000000E+00 -0.13686244194E+02  0.13686244194E+02  0.00000000000E+00 0.  1.
         13    1    1    2    0    0 -0.74529781859E+01 -0.18655679409E+02  0.24480994261E+02  0.31668778033E+02  0.10566000000E+00 0. -1.
        996    1    1    2    0    0  0.74529781859E+01  0.18655679409E+02  0.61832705721E+02  0.82017466157E+02  0.50000000000E+02 0.  0.
<mgrwt>
<rscale>  0 0.53884889E+02</rscale>
<asrwt>0</asrwt>
<pdfrwt beam="1">  1       13 0.10000000E+01 0.53884889E+02</pdfrwt>
<pdfrwt beam="2">  1       22 0.13686268E+00 0.53884889E+02</pdfrwt>
<totfact> 0.87812609E-01</totfact>
</mgrwt>
</event>
<event>
 4    1  0.2503484E+000  0.5391205E+02  0.7957747E-01  0.1425315E+00
         13   -1    0    0    0    0  0.00000000000E+00  0.00000000000E+00  0.99999944180E+02  0.10000000000E+03  0.10566000000E+00 0. -1.
         22   -1    0    0    0    0 -0.00000000000E+00 -0.00000000000E+00 -0.14177223332E+02  0.14177223332E+02  0.00000000000E+00 0. -1.
         13    1    1    2    0    0 -0.17821243707E+00  0.20161288176E+02  0.14804318836E+02  0.25013762628E+02  0.10566000000E+00 0.  1.
        996    1    1    2    0    0  0.17821243707E+00 -0.20161288176E+02  0.71018402012E+02  0.89163460705E+02  0.50000000000E+02 0.  0.
<mgrwt>
<rscale>  0 0.53912052E+02</rscale>
<asrwt>0</asrwt>
<pdfrwt beam="1">  1       13 0.10000000E+01 0.53912052E+02</pdfrwt>
<pdfrwt beam="2">  1       22 0.14177247E+00 0.53912052E+02</pdfrwt>
<totfact> 0.82946372E-01</totfact>
</mgrwt>
</event>
<event>
 4    1  0.2503484E+000  0.5232637E+02  0.7957747E-01  0.1433183E+00
         13   -1    0    0    0    0  0.00000000000E+00  0.00000000000E+00  0.99999944183E+02  0.10000000000E+03  0.10566000000E+00 0.  1.
         22   -1    0    0    0    0 -0.00000000000E+00 -0.00000000000E+00 -0.11918761898E+02  0.11918761898E+02  0.00000000000E+00 0.  1.
         13    1    1    2    0    0 -0.55880895812E+01  0.14381314612E+02  0.11840625340E+02  0.19448920988E+02  0.10566000000E+00 0. -1.
        996    1    1    2    0    0  0.55880895812E+01 -0.14381314612E+02  0.76240556945E+02  0.92469840913E+02  0.50000000000E+02 0.  0.
<mgrwt>
<rscale>  0 0.52326370E+02</rscale>
<asrwt>0</asrwt>
<pdfrwt beam="1">  1       13 0.10000000E+01 0.52326370E+02</pdfrwt>
<pdfrwt beam="2">  1       22 0.11918786E+00 0.52326370E+02</pdfrwt>
<totfact> 0.10869624E+00</totfact>
</mgrwt>
</event>
<event>
 4    1  0.2503484E+000  0.5665794E+02  0.7957747E-01  0.1412417E+00
         13   -1    0    0    0    0  0.00000000000E+00  0.00000000000E+00  0.99999944181E+02  0.10000000000E+03  0.10566000000E+00 0.  1.
         22   -1    0    0    0    0 -0.00000000000E+00 -0.00000000000E+00 -0.45701874149E+02  0.45701874149E+02  0.00000000000E+00 0. -1.
         13    1    1    2    0    0  0.94597929891E+01 -0.24912541787E+02 -0.32512483272E+02  0.42038020341E+02  0.10566000000E+00 0. -1.
        996    1    1    2    0    0 -0.94597929891E+01  0.24912541787E+02  0.86810553304E+02  0.10366385381E+03  0.50000000000E+02 0.  0.
<mgrwt>
<rscale>  0 0.56657942E+02</rscale>
<asrwt>0</asrwt>
<pdfrwt beam="1">  1       13 0.10000000E+01 0.56657942E+02</pdfrwt>
<pdfrwt beam="2">  1       22 0.45701889E+00 0.56657942E+02</pdfrwt>
<totfact> 0.93367631E-02</totfact>
</mgrwt>
</event>
<event>
 4    1  0.2503484E+000  0.5170000E+02  0.7957747E-01  0.1436382E+00
         13   -1    0    0    0    0  0.00000000000E+00  0.00000000000E+00  0.99999944178E+02  0.99999999998E+02  0.10566000000E+00 0.  1.
         22   -1    0    0    0    0 -0.00000000000E+00 -0.00000000000E+00 -0.11352649911E+02  0.11352649911E+02  0.00000000000E+00 0.  1.
         13    1    1    2    0    0 -0.12994300865E+02 -0.20094824101E+01  0.75069265619E+01  0.15141168547E+02  0.10566000000E+00 0. -1.
        996    1    1    2    0    0  0.12994300865E+02  0.20094824101E+01  0.81140367706E+02  0.96211481362E+02  0.50000000000E+02 0.  0.
<mgrwt>
<rscale>  0 0.51699999E+02</rscale>
<asrwt>0</asrwt>
<pdfrwt beam="1">  1       13 0.10000000E+01 0.51699999E+02</pdfrwt>
<pdfrwt beam="2">  1       22 0.11352675E+00 0.51699999E+02</pdfrwt>
<totfact> 0.11684356E+00</totfact>
</mgrwt>
</event>
<event>
 4    1  0.2503484E+000  0.5399321E+02  0.7957747E-01  0.1424921E+00
         13   -1    0    0    0    0  0.00000000000E+00  0.00000000000E+00  0.99999944178E+02  0.99999999998E+02  0.10566000000E+00 0.  1.
         22   -1    0    0    0    0 -0.00000000000E+00 -0.00000000000E+00 -0.13967222206E+02  0.13967222206E+02  0.00000000000E+00 0.  1.
         13    1    1    2    0    0  0.12239832001E+02  0.16292741920E+02  0.28852572910E+02  0.35323491535E+02  0.10566000000E+00 0. -1.
        996    1    1    2    0    0 -0.12239832001E+02 -0.16292741920E+02  0.57180149062E+02  0.78643730668E+02  0.50000000000E+02 0.  0.
<mgrwt>
<rscale>  0 0.53993212E+02</rscale>
<asrwt>0</asrwt>
<pdfrwt beam="1">  1       13 0.10000000E+01 0.53993212E+02</pdfrwt>
<pdfrwt beam="2">  1       22 0.13967246E+00 0.53993212E+02</pdfrwt>
<totfact> 0.84996934E-01</totfact>
</mgrwt>
</event>
<event>
 4    1  0.2503484E+000  0.5174696E+02  0.7957747E-01  0.1436140E+00
         13   -1    0    0    0    0  0.00000000000E+00  0.00000000000E+00  0.99999944178E+02  0.99999999998E+02  0.10566000000E+00 0. -1.
         22   -1    0    0    0    0 -0.00000000000E+00 -0.00000000000E+00 -0.19719885744E+02  0.19719885744E+02  0.00000000000E+00 0.  1.
         13    1    1    2    0    0  0.11359832601E+02  0.69786545668E+01 -0.93083954296E+01  0.16260529075E+02  0.10566000000E+00 0.  1.
        996    1    1    2    0    0 -0.11359832601E+02 -0.69786545668E+01  0.89588453863E+02  0.10345935667E+03  0.50000000000E+02 0.  0.
<mgrwt>
<rscale>  0 0.51746956E+02</rscale>
<asrwt>0</asrwt>
<pdfrwt beam="1">  1       13 0.10000000E+01 0.51746956E+02</pdfrwt>
<pdfrwt beam="2">  1       22 0.19719908E+00 0.51746956E+02</pdfrwt>
<totfact> 0.46491395E-01</totfact>
</mgrwt>
</event>
<event>
 4    1  0.2503484E+000  0.5924693E+02  0.7957747E-01  0.1401019E+00
         13   -1    0    0    0    0  0.00000000000E+00  0.00000000000E+00  0.99999944184E+02  0.10000000000E+03  0.10566000000E+00 0. -1.
         22   -1    0    0    0    0 -0.00000000000E+00 -0.00000000000E+00 -0.30267656202E+02  0.30267656202E+02  0.00000000000E+00 0. -1.
         13    1    1    2    0    0 -0.80075469153E+01 -0.30758383194E+02 -0.77639771564E+01  0.32718335068E+02  0.10566000000E+00 0.  1.
        996    1    1    2    0    0  0.80075469153E+01  0.30758383194E+02  0.77496265138E+02  0.97549321139E+02  0.50000000000E+02 0.  0.
<mgrwt>
<rscale>  0 0.59246932E+02</rscale>
<asrwt>0</asrwt>
<pdfrwt beam="1">  1       13 0.10000000E+01 0.59246932E+02</pdfrwt>
<pdfrwt beam="2">  1       22 0.30267676E+00 0.59246932E+02</pdfrwt>
<totfact> 0.20543348E-01</totfact>
</mgrwt>
</event>
<event>
 4    1  0.2503484E+000  0.5175283E+02  0.7957747E-01  0.1436110E+00
         13   -1    0    0    0    0  0.00000000000E+00  0.00000000000E+00  0.99999944175E+02  0.99999999995E+02  0.10566000000E+00 0. -1.
         22   -1    0    0    0    0 -0.00000000000E+00 -0.00000000000E+00 -0.11420193728E+02  0.11420193728E+02  0.00000000000E+00 0. -1.
         13    1    1    2    0    0 -0.52335863761E+01 -0.12286798430E+02  0.77473978785E+01  0.15439856863E+02  0.10566000000E+00 0.  1.
        996    1    1    2    0    0  0.52335863761E+01  0.12286798430E+02  0.80832352569E+02  0.95980336860E+02  0.50000000000E+02 0.  0.
<mgrwt>
<rscale>  0 0.51752834E+02</rscale>
<asrwt>0</asrwt>
<pdfrwt beam="1">  1       13 0.10000000E+01 0.51752834E+02</pdfrwt>
<pdfrwt beam="2">  1       22 0.11420218E+00 0.51752834E+02</pdfrwt>
<totfact> 0.11582012E+00</totfact>
</mgrwt>
</event>
<event>
 4    1  0.2503484E+000  0.5118234E+02  0.7957747E-01  0.1439067E+00
         13   -1    0    0    0    0  0.00000000000E+00  0.00000000000E+00  0.99999944175E+02  0.99999999995E+02  0.10566000000E+00 0.  1.
         22   -1    0    0    0    0 -0.00000000000E+00 -0.00000000000E+00 -0.98244217099E+01  0.98244217099E+01  0.00000000000E+00 0.  1.
         13    1    1    2    0    0  0.61392647236E+01  0.90521730583E+01  0.22056507030E+02  0.24619770000E+02  0.10566000000E+00 0. -1.
        996    1    1    2    0    0 -0.61392647236E+01 -0.90521730583E+01  0.68119015434E+02  0.85204651705E+02  0.50000000000E+02 0.  0.
<mgrwt>
<rscale>  0 0.51182345E+02</rscale>
<asrwt>0</asrwt>
<pdfrwt beam="1">  1       13 0.10000000E+01 0.51182345E+02</pdfrwt>
<pdfrwt beam="2">  1       22 0.98244469E-01 0.51182345E+02</pdfrwt>
<totfact> 0.14434702E+00</totfact>
</mgrwt>
</event>
<event>
 4    1  0.2503484E+000  0.5158341E+02  0.7957747E-01  0.1436984E+00
         13   -1    0    0    0    0  0.00000000000E+00  0.00000000000E+00  0.99999944179E+02  0.10000000000E+03  0.10566000000E+00 0. -1.
         22   -1    0    0    0    0 -0.00000000000E+00 -0.00000000000E+00 -0.26147467078E+02  0.26147467078E+02  0.00000000000E+00 0.  1.
         13    1    1    2    0    0  0.44361160291E+01  0.11881452837E+02 -0.17276388982E+02  0.21432051400E+02  0.10566000000E+00 0.  1.
        996    1    1    2    0    0 -0.44361160291E+01 -0.11881452837E+02  0.91128866083E+02  0.10471541568E+03  0.50000000000E+02 0.  0.
<mgrwt>
<rscale>  0 0.51583409E+02</rscale>
<asrwt>0</asrwt>
<pdfrwt beam="1">  1       13 0.10000000E+01 0.51583409E+02</pdfrwt>
<pdfrwt beam="2">  1       22 0.26147488E+00 0.51583409E+02</pdfrwt>
<totfact> 0.26970994E-01</totfact>
</mgrwt>
</event>
<event>
 4    1  0.2503484E+000  0.5265557E+02  0.7957747E-01  0.1431523E+00
         13   -1    0    0    0    0  0.00000000000E+00  0.00000000000E+00  0.99999944175E+02  0.99999999996E+02  0.10566000000E+00 0. -1.
         22   -1    0    0    0    0 -0.00000000000E+00 -0.00000000000E+00 -0.75648934378E+02  0.75648934378E+02  0.00000000000E+00 0.  1.
         13    1    1    2    0    0 -0.11723246947E+02  0.11626468016E+02 -0.67655108346E+02  0.69640750476E+02  0.10566000000E+00 0.  1.
        996    1    1    2    0    0  0.11723246947E+02 -0.11626468016E+02  0.92006118143E+02  0.10600818390E+03  0.50000000000E+02 0.  0.
<mgrwt>
<rscale>  0 0.52655572E+02</rscale>
<asrwt>0</asrwt>
<pdfrwt beam="1">  1       13 0.10000000E+01 0.52655572E+02</pdfrwt>
<pdfrwt beam="2">  1       22 0.75648941E+00 0.52655572E+02</pdfrwt>
<totfact> 0.46174326E-02</totfact>
</mgrwt>
</event>
<event>
 4    1  0.2503484E+000  0.5289948E+02  0.7957747E-01  0.1430302E+00
         13   -1    0    0    0    0  0.00000000000E+00  0.00000000000E+00  0.99999944179E+02  0.99999999999E+02  0.10566000000E+00 0.  1.
         22   -1    0    0    0    0 -0.00000000000E+00 -0.00000000000E+00 -0.14482845782E+02  0.14482845782E+02  0.00000000000E+00 0. -1.
         13    1    1    2    0    0 -0.14824137003E-01 -0.17272942556E+02  0.47158797278E+01  0.17905458663E+02  0.10566000000E+00 0. -1.
        996    1    1    2    0    0  0.14824137003E-01  0.17272942556E+02  0.80801218669E+02  0.96577387119E+02  0.50000000000E+02 0.  0.
<mgrwt>
<rscale>  0 0.52899478E+02</rscale>
<asrwt>0</asrwt>
<pdfrwt beam="1">  1       13 0.10000000E+01 0.52899478E+02</pdfrwt>
<pdfrwt beam="2">  1       22 0.14482870E+00 0.52899478E+02</pdfrwt>
<totfact> 0.79937323E-01</totfact>
</mgrwt>
</event>
<event>
 4    1  0.2503484E+000  0.5284775E+02  0.7957747E-01  0.1430560E+00
         13   -1    0    0    0    0  0.00000000000E+00  0.00000000000E+00  0.99999944188E+02  0.10000000001E+03  0.10566000000E+00 0.  1.
         22   -1    0    0    0    0 -0.00000000000E+00 -0.00000000000E+00 -0.24217399749E+02  0.24217399749E+02  0.00000000000E+00 0. -1.
         13    1    1    2    0    0 -0.11584163902E+02 -0.12597276957E+02 -0.12591556501E+02  0.21247180970E+02  0.10566000000E+00 0. -1.
        996    1    1    2    0    0  0.11584163902E+02  0.12597276957E+02  0.88374100940E+02  0.10297021879E+03  0.50000000000E+02 0.  0.
<mgrwt>
<rscale>  0 0.52847746E+02</rscale>
<asrwt>0</asrwt>
<pdfrwt beam="1">  1       13 0.10000000E+01 0.52847746E+02</pdfrwt>
<pdfrwt beam="2">  1       22 0.24217421E+00 0.52847746E+02</pdfrwt>
<totfact> 0.31422394E-01</totfact>
</mgrwt>
</event>
<event>
 4    1  0.2503484E+000  0.5346873E+02  0.7957747E-01  0.1427482E+00
         13   -1    0    0    0    0  0.00000000000E+00  0.00000000000E+00  0.99999944176E+02  0.99999999996E+02  0.10566000000E+00 0. -1.
         22   -1    0    0    0    0 -0.00000000000E+00 -0.00000000000E+00 -0.13222730922E+02  0.13222730922E+02  0.00000000000E+00 0.  1.
         13    1    1    2    0    0  0.14717301280E+02 -0.11929202215E+02  0.18266811012E+02  0.26317149751E+02  0.10566000000E+00 0.  1.
        996    1    1    2    0    0 -0.14717301280E+02  0.11929202215E+02  0.68510402242E+02  0.86905581166E+02  0.50000000000E+02 0.  0.
<mgrwt>
<rscale>  0 0.53468728E+02</rscale>
<asrwt>0</asrwt>
<pdfrwt beam="1">  1       13 0.10000000E+01 0.53468728E+02</pdfrwt>
<pdfrwt beam="2">  1       22 0.13222755E+00 0.53468728E+02</pdfrwt>
<totfact> 0.92699863E-01</totfact>
</mgrwt>
</event>
<event>
 4    1  0.2503484E+000  0.5126197E+02  0.7957747E-01  0.1438651E+00
         13   -1    0    0    0    0  0.00000000000E+00  0.00000000000E+00  0.99999944182E+02  0.10000000000E+03  0.10566000000E+00 0.  1.
         22   -1    0    0    0    0 -0.00000000000E+00 -0.00000000000E+00 -0.32922746240E+02  0.32922746240E+02  0.00000000000E+00 0. -1.
         13    1    1    2    0    0  0.42346451567E+01 -0.10481282525E+02 -0.25056312524E+02  0.27488533324E+02  0.10566000000E+00 0. -1.
        996    1    1    2    0    0 -0.42346451567E+01  0.10481282525E+02  0.92133510466E+02  0.10543421292E+03  0.50000000000E+02 0.  0.
<mgrwt>
<rscale>  0 0.51261969E+02</rscale>
<asrwt>0</asrwt>
<pdfrwt beam="1">  1       13 0.10000000E+01 0.51261969E+02</pdfrwt>
<pdfrwt beam="2">  1       22 0.32922765E+00 0.51261969E+02</pdfrwt>
<totfact> 0.17476011E-01</totfact>
</mgrwt>
</event>
<event>
 4    1  0.2503484E+000  0.5102342E+02  0.7957747E-01  0.1439898E+00
         13   -1    0    0    0    0  0.00000000000E+00  0.00000000000E+00  0.99999944178E+02  0.99999999998E+02  0.10566000000E+00 0. -1.
         22   -1    0    0    0    0 -0.00000000000E+00 -0.00000000000E+00 -0.93731795365E+01  0.93731795365E+01  0.00000000000E+00 0. -1.
         13    1    1    2    0    0  0.20222520812E+01  0.99649527076E+01  0.13639056296E+02  0.17012489725E+02  0.10566000000E+00 0.  1.
        996    1    1    2    0    0 -0.20222520812E+01 -0.99649527076E+01  0.76987708345E+02  0.92360689810E+02  0.50000000000E+02 0.  0.
<mgrwt>
<rscale>  0 0.51023424E+02</rscale>
<asrwt>0</asrwt>
<pdfrwt beam="1">  1       13 0.10000000E+01 0.51023424E+02</pdfrwt>
<pdfrwt beam="2">  1       22 0.93732048E-01 0.51023424E+02</pdfrwt>
<totfact> 0.15434308E+00</totfact>
</mgrwt>
</event>
<event>
 4    1  0.2503484E+000  0.5247782E+02  0.7957747E-01  0.1432417E+00
         13   -1    0    0    0    0  0.00000000000E+00  0.00000000000E+00  0.99999944175E+02  0.99999999995E+02  0.10566000000E+00 0.  1.
         22   -1    0    0    0    0 -0.00000000000E+00 -0.00000000000E+00 -0.77674599800E+02  0.77674599800E+02  0.00000000000E+00 0. -1.
         13    1    1    2    0    0  0.60236098408E+01 -0.14752539567E+02 -0.69829892903E+02  0.71625040357E+02  0.10566000000E+00 0. -1.
        996    1    1    2    0    0 -0.60236098408E+01  0.14752539567E+02  0.92155237279E+02  0.10604955944E+03  0.50000000000E+02 0.  0.
<mgrwt>
<rscale>  0 0.52477817E+02</rscale>
<asrwt>0</asrwt>
<pdfrwt beam="1">  1       13 0.10000000E+01 0.52477817E+02</pdfrwt>
<pdfrwt beam="2">  1       22 0.77674606E+00 0.52477817E+02</pdfrwt>
<totfact> 0.38246563E-02</totfact>
</mgrwt>
</event>
<event>
 4    1  0.2503484E+000  0.5666777E+02  0.7957747E-01  0.1412373E+00
         13   -1    0    0    0    0  0.00000000000E+00  0.00000000000E+00  0.99999944181E+02  0.10000000000E+03  0.10566000000E+00 0.  1.
         22   -1    0    0    0    0 -0.00000000000E+00 -0.00000000000E+00 -0.18342606430E+02  0.18342606430E+02  0.00000000000E+00 0. -1.
         13    1    1    2    0    0 -0.26611763332E+02 -0.17465145586E+01  0.39727757126E+02  0.47849159983E+02  0.10566000000E+00 0. -1.
        996    1    1    2    0    0  0.26611763332E+02  0.17465145586E+01  0.41929580625E+02  0.70493446448E+02  0.50000000000E+02 0.  0.
<mgrwt>
<rscale>  0 0.56667771E+02</rscale>
<asrwt>0</asrwt>
<pdfrwt beam="1">  1       13 0.10000000E+01 0.56667771E+02</pdfrwt>
<pdfrwt beam="2">  1       22 0.18342629E+00 0.56667771E+02</pdfrwt>
<totfact> 0.53552209E-01</totfact>
</mgrwt>
</event>
<event>
 4    1  0.2503484E+000  0.5169499E+02  0.7957747E-01  0.1436408E+00
         13   -1    0    0    0    0  0.00000000000E+00  0.00000000000E+00  0.99999944176E+02  0.99999999997E+02  0.10566000000E+00 0. -1.
         22   -1    0    0    0    0 -0.00000000000E+00 -0.00000000000E+00 -0.39834094259E+02  0.39834094259E+02  0.00000000000E+00 0.  1.
         13    1    1    2    0    0  0.62164260307E+00  0.13114307179E+02 -0.31761601459E+02  0.34368328204E+02  0.10566000000E+00 0.  1.
        996    1    1    2    0    0 -0.62164260307E+00 -0.13114307179E+02  0.91927451376E+02  0.10546576605E+03  0.50000000000E+02 0.  0.
<mgrwt>
<rscale>  0 0.51694985E+02</rscale>
<asrwt>0</asrwt>
<pdfrwt beam="1">  1       13 0.10000000E+01 0.51694985E+02</pdfrwt>
<pdfrwt beam="2">  1       22 0.39834111E+00 0.51694985E+02</pdfrwt>
<totfact> 0.12462344E-01</totfact>
</mgrwt>
</event>
<event>
 4    1  0.2503484E+000  0.7213093E+02  0.7957747E-01  0.1352993E+00
         13   -1    0    0    0    0  0.00000000000E+00  0.00000000000E+00  0.99999944176E+02  0.99999999997E+02  0.10566000000E+00 0.  1.
         22   -1    0    0    0    0 -0.00000000000E+00 -0.00000000000E+00 -0.44518992303E+02  0.44518992303E+02  0.00000000000E+00 0. -1.
         13    1    1    2    0    0  0.51987137213E+02 -0.45729898891E+00  0.50079433528E+02  0.72186095507E+02  0.10566000000E+00 0. -1.
        996    1    1    2    0    0 -0.51987137213E+02  0.45729898891E+00  0.54015183451E+01  0.72332896793E+02  0.50000000000E+02 0.  0.
<mgrwt>
<rscale>  0 0.72130933E+02</rscale>
<asrwt>0</asrwt>
<pdfrwt beam="1">  1       13 0.10000000E+01 0.72130933E+02</pdfrwt>
<pdfrwt beam="2">  1       22 0.44519008E+00 0.72130933E+02</pdfrwt>
<totfact> 0.10008216E-01</totfact>
</mgrwt>
</event>
<event>
 4    1  0.2503484E+000  0.5587071E+02  0.7957747E-01  0.1416026E+00
         13   -1    0    0    0    0  0.00000000000E+00  0.00000000000E+00  0.99999944177E+02  0.99999999998E+02  0.10566000000E+00 0.  1.
         22   -1    0    0    0    0 -0.00000000000E+00 -0.00000000000E+00 -0.53538202934E+02  0.53538202934E+02  0.00000000000E+00 0. -1.
         13    1    1    2    0    0  0.22799385380E+02 -0.10085831762E+02 -0.42039959115E+02  0.48876428905E+02  0.10566000000E+00 0. -1.
        996    1    1    2    0    0 -0.22799385380E+02  0.10085831762E+02  0.88501700359E+02  0.10466177403E+03  0.50000000000E+02 0.  0.
<mgrwt>
<rscale>  0 0.55870708E+02</rscale>
<asrwt>0</asrwt>
<pdfrwt beam="1">  1       13 0.10000000E+01 0.55870708E+02</pdfrwt>
<pdfrwt beam="2">  1       22 0.53538216E+00 0.55870708E+02</pdfrwt>
<totfact> 0.61762254E-02</totfact>
</mgrwt>
</event>
<event>
 4    1  0.2503484E+000  0.5210881E+02  0.7957747E-01  0.1434288E+00
         13   -1    0    0    0    0  0.00000000000E+00  0.00000000000E+00  0.99999944177E+02  0.99999999997E+02  0.10566000000E+00 0. -1.
         22   -1    0    0    0    0 -0.00000000000E+00 -0.00000000000E+00 -0.11160488486E+02  0.11160488486E+02  0.00000000000E+00 0. -1.
         13    1    1    2    0    0 -0.10575551785E+02  0.10172810020E+02  0.18132082916E+02  0.23326207454E+02  0.10566000000E+00 0.  1.
        996    1    1    2    0    0  0.10575551785E+02 -0.10172810020E+02  0.70707372775E+02  0.87834281029E+02  0.50000000000E+02 0.  0.
<mgrwt>
<rscale>  0 0.52108813E+02</rscale>
<asrwt>0</asrwt>
<pdfrwt beam="1">  1       13 0.10000000E+01 0.52108813E+02</pdfrwt>
<pdfrwt beam="2">  1       22 0.11160513E+00 0.52108813E+02</pdfrwt>
<totfact> 0.11998333E+00</totfact>
</mgrwt>
</event>
<event>
 4    1  0.2503484E+000  0.5434790E+02  0.7957747E-01  0.1423208E+00
         13   -1    0    0    0    0  0.00000000000E+00  0.00000000000E+00  0.99999944173E+02  0.99999999993E+02  0.10566000000E+00 0.  1.
         22   -1    0    0    0    0 -0.00000000000E+00 -0.00000000000E+00 -0.16859051761E+02  0.16859051761E+02  0.00000000000E+00 0.  1.
         13    1    1    2    0    0 -0.12857446829E+02  0.16981773768E+02  0.53469084731E+01  0.21961219764E+02  0.10566000000E+00 0. -1.
        996    1    1    2    0    0  0.12857446829E+02 -0.16981773768E+02  0.77793983939E+02  0.94897831990E+02  0.50000000000E+02 0.  0.
<mgrwt>
<rscale>  0 0.54347903E+02</rscale>
<asrwt>0</asrwt>
<pdfrwt beam="1">  1       13 0.10000000E+01 0.54347903E+02</pdfrwt>
<pdfrwt beam="2">  1       22 0.16859075E+00 0.54347903E+02</pdfrwt>
<totfact> 0.61966007E-01</totfact>
</mgrwt>
</event>
<event>
 4    1  0.2503484E+000  0.5273239E+02  0.7957747E-01  0.1431137E+00
         13   -1    0    0    0    0  0.00000000000E+00  0.00000000000E+00  0.99999944174E+02  0.99999999994E+02  0.10566000000E+00 0. -1.
         22   -1    0    0    0    0 -0.00000000000E+00 -0.00000000000E+00 -0.15430859719E+02  0.15430859719E+02  0.00000000000E+00 0. -1.
         13    1    1    2    0    0 -0.16269892152E+02 -0.39995006066E+01  0.12168703592E+01  0.16798730108E+02  0.10566000000E+00 0.  1.
        996    1    1    2    0    0  0.16269892152E+02  0.39995006066E+01  0.83352214096E+02  0.98632129605E+02  0.50000000000E+02 0.  0.
<mgrwt>
<rscale>  0 0.52732394E+02</rscale>
<asrwt>0</asrwt>
<pdfrwt beam="1">  1       13 0.10000000E+01 0.52732394E+02</pdfrwt>
<pdfrwt beam="2">  1       22 0.15430883E+00 0.52732394E+02</pdfrwt>
<totfact> 0.71910787E-01</totfact>
</mgrwt>
</event>
<event>
 4    1  0.2503484E+000  0.5222075E+02  0.7957747E-01  0.1433719E+00
         13   -1    0    0    0    0  0.00000000000E+00  0.00000000000E+00  0.99999944174E+02  0.99999999994E+02  0.10566000000E+00 0.  1.
         22   -1    0    0    0    0 -0.00000000000E+00 -0.00000000000E+00 -0.14588411678E+02  0.14588411678E+02  0.00000000000E+00 0.  1.
         13    1    1    2    0    0 -0.15057434232E+02 -0.52924585935E+00  0.71120417100E+00  0.15083878886E+02  0.10566000000E+00 0. -1.
        996    1    1    2    0    0  0.15057434232E+02  0.52924585935E+00  0.84700328325E+02  0.99504532787E+02  0.50000000000E+02 0.  0.
<mgrwt>
<rscale>  0 0.52220747E+02</rscale>
<asrwt>0</asrwt>
<pdfrwt beam="1">  1       13 0.10000000E+01 0.52220747E+02</pdfrwt>
<pdfrwt beam="2">  1       22 0.14588436E+00 0.52220747E+02</pdfrwt>
<totfact> 0.78878371E-01</totfact>
</mgrwt>
</event>
<event>
 4    1  0.2503484E+000  0.7678053E+02  0.7957747E-01  0.1338444E+00
         13   -1    0    0    0    0  0.00000000000E+00  0.00000000000E+00  0.99999944174E+02  0.99999999994E+02  0.10566000000E+00 0.  1.
         22   -1    0    0    0    0 -0.00000000000E+00 -0.00000000000E+00 -0.45753214215E+02  0.45753214215E+02  0.00000000000E+00 0. -1.
         13    1    1    2    0    0 -0.42094036404E+02 -0.40290724892E+02  0.19184386821E+02  0.61345760039E+02  0.10566000000E+00 0. -1.
        996    1    1    2    0    0  0.42094036404E+02  0.40290724892E+02  0.35062343138E+02  0.84407454170E+02  0.50000000000E+02 0.  0.
<mgrwt>
<rscale>  0 0.76780534E+02</rscale>
<asrwt>0</asrwt>
<pdfrwt beam="1">  1       13 0.10000000E+01 0.76780534E+02</pdfrwt>
<pdfrwt beam="2">  1       22 0.45753229E+00 0.76780534E+02</pdfrwt>
<totfact> 0.93951484E-02</totfact>
</mgrwt>
</event>
<event>
 4    1  0.2503484E+000  0.6440242E+02  0.7957747E-01  0.1380234E+00
         13   -1    0    0    0    0  0.00000000000E+00  0.00000000000E+00  0.99999944181E+02  0.10000000000E+03  0.10566000000E+00 0. -1.
         22   -1    0    0    0    0 -0.00000000000E+00 -0.00000000000E+00 -0.30536699764E+02  0.30536699764E+02  0.00000000000E+00 0.  1.
         13    1    1    2    0    0 -0.24793436378E+02 -0.32139647268E+02  0.77216363559E+01  0.41319562510E+02  0.10566000000E+00 0.  1.
        996    1    1    2    0    0  0.24793436378E+02  0.32139647268E+02  0.61741608061E+02  0.89217137255E+02  0.50000000000E+02 0.  0.
<mgrwt>
<rscale>  0 0.64402418E+02</rscale>
<asrwt>0</asrwt>
<pdfrwt beam="1">  1       13 0.10000000E+01 0.64402418E+02</pdfrwt>
<pdfrwt beam="2">  1       22 0.30536719E+00 0.64402418E+02</pdfrwt>
<totfact> 0.20319839E-01</totfact>
</mgrwt>
</event>
<event>
 4    1  0.2503484E+000  0.5134358E+02  0.7957747E-01  0.1438227E+00
         13   -1    0    0    0    0  0.00000000000E+00  0.00000000000E+00  0.99999944179E+02  0.99999999999E+02  0.10566000000E+00 0. -1.
         22   -1    0    0    0    0 -0.00000000000E+00 -0.00000000000E+00 -0.13950243002E+02  0.13950243002E+02  0.00000000000E+00 0.  1.
         13    1    1    2    0    0  0.67793712397E+01 -0.94975371994E+01 -0.21775548390E+01  0.11870804369E+02  0.10566000000E+00 0.  1.
        996    1    1    2    0    0 -0.67793712397E+01  0.94975371994E+01  0.88227256016E+02  0.10207943863E+03  0.50000000000E+02 0.  0.
<mgrwt>
<rscale>  0 0.51343579E+02</rscale>
<asrwt>0</asrwt>
<pdfrwt beam="1">  1       13 0.10000000E+01 0.51343579E+02</pdfrwt>
<pdfrwt beam="2">  1       22 0.13950267E+00 0.51343579E+02</pdfrwt>
<totfact> 0.84697325E-01</totfact>
</mgrwt>
</event>
<event>
 4    1  0.2503484E+000  0.5240423E+02  0.7957747E-01  0.1432789E+00
         13   -1    0    0    0    0  0.00000000000E+00  0.00000000000E+00  0.99999944183E+02  0.10000000000E+03  0.10566000000E+00 0.  1.
         22   -1    0    0    0    0 -0.00000000000E+00 -0.00000000000E+00 -0.34319563954E+02  0.34319563954E+02  0.00000000000E+00 0. -1.
         13    1    1    2    0    0 -0.12253101783E+02 -0.98012874252E+01 -0.25040614929E+02  0.29550758003E+02  0.10566000000E+00 0. -1.
        996    1    1    2    0    0  0.12253101783E+02  0.98012874252E+01  0.90720995158E+02  0.10476880595E+03  0.50000000000E+02 0.  0.
<mgrwt>
<rscale>  0 0.52404234E+02</rscale>
<asrwt>0</asrwt>
<pdfrwt beam="1">  1       13 0.10000000E+01 0.52404234E+02</pdfrwt>
<pdfrwt beam="2">  1       22 0.34319582E+00 0.52404234E+02</pdfrwt>
<totfact> 0.16268693E-01</totfact>
</mgrwt>
</event>
<event>
 4    1  0.2503484E+000  0.5711543E+02  0.7957747E-01  0.1410352E+00
         13   -1    0    0    0    0  0.00000000000E+00  0.00000000000E+00  0.99999944180E+02  0.10000000000E+03  0.10566000000E+00 0. -1.
         22   -1    0    0    0    0 -0.00000000000E+00 -0.00000000000E+00 -0.20071872471E+02  0.20071872471E+02  0.00000000000E+00 0.  1.
         13    1    1    2    0    0  0.27580849368E+02  0.12118654198E+01  0.90672390736E+01  0.29058524707E+02  0.10566000000E+00 0.  1.
        996    1    1    2    0    0 -0.27580849368E+02 -0.12118654198E+01  0.70860832635E+02  0.91013347765E+02  0.50000000000E+02 0.  0.
<mgrwt>
<rscale>  0 0.57115426E+02</rscale>
<asrwt>0</asrwt>
<pdfrwt beam="1">  1       13 0.10000000E+01 0.57115426E+02</pdfrwt>
<pdfrwt beam="2">  1       22 0.20071895E+00 0.57115426E+02</pdfrwt>
<totfact> 0.45399309E-01</totfact>
</mgrwt>
</event>
<event>
 4    1  0.2503484E+000  0.5143312E+02  0.7957747E-01  0.1437761E+00
         13   -1    0    0    0    0  0.00000000000E+00  0.00000000000E+00  0.99999944175E+02  0.99999999995E+02  0.10566000000E+00 0.  1.
         22   -1    0    0    0    0 -0.00000000000E+00 -0.00000000000E+00 -0.16735015093E+02  0.16735015093E+02  0.00000000000E+00 0.  1.
         13    1    1    2    0    0  0.96521135377E+01  0.72251610081E+01  0.58354274362E+02  0.59586900806E+02  0.10566000000E+00 0. -1.
        996    1    1    2    0    0 -0.96521135377E+01 -0.72251610081E+01  0.24910654720E+02  0.57148114281E+02  0.50000000000E+02 0.  0.
<mgrwt>
<rscale>  0 0.51433124E+02</rscale>
<asrwt>0</asrwt>
<pdfrwt beam="1">  1       13 0.10000000E+01 0.51433124E+02</pdfrwt>
<pdfrwt beam="2">  1       22 0.16735038E+00 0.51433124E+02</pdfrwt>
<totfact> 0.62420390E-01</totfact>
</mgrwt>
</event>
<event>
 4    1  0.2503484E+000  0.5170389E+02  0.7957747E-01  0.1436362E+00
         13   -1    0    0    0    0  0.00000000000E+00  0.00000000000E+00  0.99999944182E+02  0.10000000000E+03  0.10566000000E+00 0. -1.
         22   -1    0    0    0    0 -0.00000000000E+00 -0.00000000000E+00 -0.18094516881E+02  0.18094516881E+02  0.00000000000E+00 0.  1.
         13    1    1    2    0    0 -0.13160929016E+02 -0.28672680442E+00 -0.72519872229E+01  0.15029795326E+02  0.10566000000E+00 0.  1.
        996    1    1    2    0    0  0.13160929016E+02  0.28672680442E+00  0.89157414524E+02  0.10306472156E+03  0.50000000000E+02 0.  0.
<mgrwt>
<rscale>  0 0.51703890E+02</rscale>
<asrwt>0</asrwt>
<pdfrwt beam="1">  1       13 0.10000000E+01 0.51703890E+02</pdfrwt>
<pdfrwt beam="2">  1       22 0.18094540E+00 0.51703890E+02</pdfrwt>
<totfact> 0.54395948E-01</totfact>
</mgrwt>
</event>
<event>
 4    1  0.2503484E+000  0.5813883E+02  0.7957747E-01  0.1405812E+00
         13   -1    0    0    0    0  0.00000000000E+00  0.00000000000E+00  0.99999944170E+02  0.99999999990E+02  0.10566000000E+00 0. -1.
         22   -1    0    0    0    0 -0.00000000000E+00 -0.00000000000E+00 -0.33227069704E+02  0.33227069704E+02  0.00000000000E+00 0. -1.
         13    1    1    2    0    0 -0.27104482472E+02  0.12061136473E+02 -0.14722294311E+02  0.33119195294E+02  0.10566000000E+00 0.  1.
        996    1    1    2    0    0  0.27104482472E+02 -0.12061136473E+02  0.81495168777E+02  0.10010787440E+03  0.50000000000E+02 0.  0.
<mgrwt>
<rscale>  0 0.58138834E+02</rscale>
<asrwt>0</asrwt>
<pdfrwt beam="1">  1       13 0.10000000E+01 0.58138834E+02</pdfrwt>
<pdfrwt beam="2">  1       22 0.33227088E+00 0.58138834E+02</pdfrwt>
<totfact> 0.17323220E-01</totfact>
</mgrwt>
</event>
<event>
 4    1  0.2503484E+000  0.5365274E+02  0.7957747E-01  0.1426580E+00
         13   -1    0    0    0    0  0.00000000000E+00  0.00000000000E+00  0.99999944175E+02  0.99999999995E+02  0.10566000000E+00 0. -1.
         22   -1    0    0    0    0 -0.00000000000E+00 -0.00000000000E+00 -0.34409590038E+02  0.34409590038E+02  0.00000000000E+00 0.  1.
         13    1    1    2    0    0 -0.19422944683E+02  0.11687277696E+01 -0.23438946687E+02  0.30463290869E+02  0.10566000000E+00 0.  1.
        996    1    1    2    0    0  0.19422944683E+02 -0.11687277696E+01  0.89029300824E+02  0.10394629916E+03  0.50000000000E+02 0.  0.
<mgrwt>
<rscale>  0 0.53652742E+02</rscale>
<asrwt>0</asrwt>
<pdfrwt beam="1">  1       13 0.10000000E+01 0.53652742E+02</pdfrwt>
<pdfrwt beam="2">  1       22 0.34409608E+00 0.53652742E+02</pdfrwt>
<totfact> 0.16215673E-01</totfact>
</mgrwt>
</event>
<event>
 4    1  0.2503484E+000  0.5653666E+02  0.7957747E-01  0.1412969E+00
         13   -1    0    0    0    0  0.00000000000E+00  0.00000000000E+00  0.99999944177E+02  0.99999999998E+02  0.10566000000E+00 0.  1.
         22   -1    0    0    0    0 -0.00000000000E+00 -0.00000000000E+00 -0.19872823656E+02  0.19872823656E+02  0.00000000000E+00 0.  1.
         13    1    1    2    0    0  0.19916891507E+02  0.17312158559E+02  0.67458690265E+01  0.27238049016E+02  0.10566000000E+00 0. -1.
        996    1    1    2    0    0 -0.19916891507E+02 -0.17312158559E+02  0.73381251494E+02  0.92634774638E+02  0.50000000000E+02 0.  0.
<mgrwt>
<rscale>  0 0.56536655E+02</rscale>
<asrwt>0</asrwt>
<pdfrwt beam="1">  1       13 0.10000000E+01 0.56536655E+02</pdfrwt>
<pdfrwt beam="2">  1       22 0.19872846E+00 0.56536655E+02</pdfrwt>
<totfact> 0.46209067E-01</totfact>
</mgrwt>
</event>
<event>
 4    1  0.2503484E+000  0.5357748E+02  0.7957747E-01  0.1426948E+00
         13   -1    0    0    0    0  0.00000000000E+00  0.00000000000E+00  0.99999944176E+02  0.99999999996E+02  0.10566000000E+00 0.  1.
         22   -1    0    0    0    0 -0.00000000000E+00 -0.00000000000E+00 -0.20992489243E+02  0.20992489243E+02  0.00000000000E+00 0. -1.
         13    1    1    2    0    0  0.11273606184E+01  0.19216527361E+02 -0.63009580673E+01  0.20254853798E+02  0.10566000000E+00 0. -1.
        996    1    1    2    0    0 -0.11273606184E+01 -0.19216527361E+02  0.85308413000E+02  0.10073763544E+03  0.50000000000E+02 0.  0.
<mgrwt>
<rscale>  0 0.53577475E+02</rscale>
<asrwt>0</asrwt>
<pdfrwt beam="1">  1       13 0.10000000E+01 0.53577475E+02</pdfrwt>
<pdfrwt beam="2">  1       22 0.20992511E+00 0.53577475E+02</pdfrwt>
<totfact> 0.41475395E-01</totfact>
</mgrwt>
</event>
<event>
 4    1  0.2503484E+000  0.5113012E+02  0.7957747E-01  0.1439340E+00
         13   -1    0    0    0    0  0.00000000000E+00  0.00000000000E+00  0.99999944178E+02  0.99999999998E+02  0.10566000000E+00 0.  1.
         22   -1    0    0    0    0 -0.00000000000E+00 -0.00000000000E+00 -0.11137607928E+02  0.11137607928E+02  0.00000000000E+00 0. -1.
         13    1    1    2    0    0  0.10414509526E+02 -0.24139820913E+01  0.28316215669E+01  0.11059772282E+02  0.10566000000E+00 0. -1.
        996    1    1    2    0    0 -0.10414509526E+02  0.24139820913E+01  0.86030714683E+02  0.10007783564E+03  0.50000000000E+02 0.  0.
<mgrwt>
<rscale>  0 0.51130121E+02</rscale>
<asrwt>0</asrwt>
<pdfrwt beam="1">  1       13 0.10000000E+01 0.51130121E+02</pdfrwt>
<pdfrwt beam="2">  1       22 0.11137633E+00 0.51130121E+02</pdfrwt>
<totfact> 0.12007910E+00</totfact>
</mgrwt>
</event>
<event>
 4    1  0.2503484E+000  0.5335838E+02  0.7957747E-01  0.1428026E+00
         13   -1    0    0    0    0  0.00000000000E+00  0.00000000000E+00  0.99999944181E+02  0.10000000000E+03  0.10566000000E+00 0. -1.
         22   -1    0    0    0    0 -0.00000000000E+00 -0.00000000000E+00 -0.52068701830E+02  0.52068701830E+02  0.00000000000E+00 0.  1.
         13    1    1    2    0    0  0.15258685794E+01  0.18568493663E+02 -0.42873713010E+02  0.46747017692E+02  0.10566000000E+00 0.  1.
        996    1    1    2    0    0 -0.15258685794E+01 -0.18568493663E+02  0.90804955361E+02  0.10532168414E+03  0.50000000000E+02 0.  0.
<mgrwt>
<rscale>  0 0.53358385E+02</rscale>
<asrwt>0</asrwt>
<pdfrwt beam="1">  1       13 0.10000000E+01 0.53358385E+02</pdfrwt>
<pdfrwt beam="2">  1       22 0.52068715E+00 0.53358385E+02</pdfrwt>
<totfact> 0.66106537E-02</totfact>
</mgrwt>
</event>
<event>
 4    1  0.2503484E+000  0.5119588E+02  0.7957747E-01  0.1438996E+00
         13   -1    0    0    0    0  0.00000000000E+00  0.00000000000E+00  0.99999944178E+02  0.99999999998E+02  0.10566000000E+00 0.  1.
         22   -1    0    0    0    0 -0.00000000000E+00 -0.00000000000E+00 -0.17915008475E+02  0.17915008475E+02  0.00000000000E+00 0. -1.
         13    1    1    2    0    0  0.85378815642E+01  0.69370745274E+01 -0.84738895622E+01  0.13886554394E+02  0.10566000000E+00 0. -1.
        996    1    1    2    0    0 -0.85378815642E+01 -0.69370745274E+01  0.90558825265E+02  0.10402845408E+03  0.50000000000E+02 0.  0.
<mgrwt>
<rscale>  0 0.51195883E+02</rscale>
<asrwt>0</asrwt>
<pdfrwt beam="1">  1       13 0.10000000E+01 0.51195883E+02</pdfrwt>
<pdfrwt beam="2">  1       22 0.17915031E+00 0.51195883E+02</pdfrwt>
<totfact> 0.55323186E-01</totfact>
</mgrwt>
</event>
<event>
 4    1  0.2503484E+000  0.5194802E+02  0.7957747E-01  0.1435109E+00
         13   -1    0    0    0    0  0.00000000000E+00  0.00000000000E+00  0.99999944177E+02  0.99999999998E+02  0.10566000000E+00 0.  1.
         22   -1    0    0    0    0 -0.00000000000E+00 -0.00000000000E+00 -0.12703711900E+02  0.12703711900E+02  0.00000000000E+00 0.  1.
         13    1    1    2    0    0 -0.91077193090E+01 -0.10753871363E+02  0.41991122787E+01  0.14705101437E+02  0.10566000000E+00 0. -1.
        996    1    1    2    0    0  0.91077193090E+01  0.10753871363E+02  0.83097119998E+02  0.97998610461E+02  0.50000000000E+02 0.  0.
<mgrwt>
<rscale>  0 0.51948015E+02</rscale>
<asrwt>0</asrwt>
<pdfrwt beam="1">  1       13 0.10000000E+01 0.51948015E+02</pdfrwt>
<pdfrwt beam="2">  1       22 0.12703736E+00 0.51948015E+02</pdfrwt>
<totfact> 0.98411859E-01</totfact>
</mgrwt>
</event>
<event>
 4    1  0.2503484E+000  0.5148981E+02  0.7957747E-01  0.1437468E+00
         13   -1    0    0    0    0  0.00000000000E+00  0.00000000000E+00  0.99999944177E+02  0.99999999998E+02  0.10566000000E+00 0. -1.
         22   -1    0    0    0    0 -0.00000000000E+00 -0.00000000000E+00 -0.10415142644E+02  0.10415142644E+02  0.00000000000E+00 0. -1.
         13    1    1    2    0    0 -0.50097136463E+01 -0.11229594051E+02  0.11208620848E+02  0.16638670581E+02  0.10566000000E+00 0.  1.
        996    1    1    2    0    0  0.50097136463E+01  0.11229594051E+02  0.78376180685E+02  0.93776472061E+02  0.50000000000E+02 0.  0.
<mgrwt>
<rscale>  0 0.51489815E+02</rscale>
<asrwt>0</asrwt>
<pdfrwt beam="1">  1       13 0.10000000E+01 0.51489815E+02</pdfrwt>
<pdfrwt beam="2">  1       22 0.10415168E+00 0.51489815E+02</pdfrwt>
<totfact> 0.13270713E+00</totfact>
</mgrwt>
</event>
<event>
 4    1  0.2503484E+000  0.5530950E+02  0.7957747E-01  0.1418641E+00
         13   -1    0    0    0    0  0.00000000000E+00  0.00000000000E+00  0.99999944175E+02  0.99999999995E+02  0.10566000000E+00 0.  1.
         22   -1    0    0    0    0 -0.00000000000E+00 -0.00000000000E+00 -0.19642714683E+02  0.19642714683E+02  0.00000000000E+00 0.  1.
         13    1    1    2    0    0  0.18772454687E+02 -0.14378307037E+02  0.19993248254E+01  0.23730765517E+02  0.10566000000E+00 0. -1.
        996    1    1    2    0    0 -0.18772454687E+02  0.14378307037E+02  0.78357904667E+02  0.95911949162E+02  0.50000000000E+02 0.  0.
<mgrwt>
<rscale>  0 0.55309500E+02</rscale>
<asrwt>0</asrwt>
<pdfrwt beam="1">  1       13 0.10000000E+01 0.55309500E+02</pdfrwt>
<pdfrwt beam="2">  1       22 0.19642737E+00 0.55309500E+02</pdfrwt>
<totfact> 0.47124750E-01</totfact>
</mgrwt>
</event>
<event>
 4    1  0.2503484E+000  0.8174872E+02  0.7957747E-01  0.1324161E+00
         13   -1    0    0    0    0  0.00000000000E+00  0.00000000000E+00  0.99999944180E+02  0.10000000000E+03  0.10566000000E+00 0. -1.
         22   -1    0    0    0    0 -0.00000000000E+00 -0.00000000000E+00 -0.58894800351E+02  0.58894800351E+02  0.00000000000E+00 0.  1.
         13    1    1    2    0    0 -0.35142444851E+02  0.54294217267E+02 -0.53024066195E+01  0.64892065299E+02  0.10566000000E+00 0.  1.
        996    1    1    2    0    0  0.35142444851E+02 -0.54294217267E+02  0.46407550448E+02  0.94002735053E+02  0.50000000000E+02 0.  0.
<mgrwt>
<rscale>  0 0.81748721E+02</rscale>
<asrwt>0</asrwt>
<pdfrwt beam="1">  1       13 0.10000000E+01 0.81748721E+02</pdfrwt>
<pdfrwt beam="2">  1       22 0.58894812E+00 0.81748721E+02</pdfrwt>
<totfact> 0.60377358E-02</totfact>
</mgrwt>
</event>
<event>
 4    1  0.2503484E+000  0.5450231E+02  0.7957747E-01  0.1422467E+00
         13   -1    0    0    0    0  0.00000000000E+00  0.00000000000E+00  0.99999944181E+02  0.10000000000E+03  0.10566000000E+00 0. -1.
         22   -1    0    0    0    0 -0.00000000000E+00 -0.00000000000E+00 -0.14786549641E+02  0.14786549641E+02  0.00000000000E+00 0.  1.
         13    1    1    2    0    0  0.54540389923E+01 -0.20994170312E+02  0.17545866808E+02  0.27899289139E+02  0.10566000000E+00 0.  1.
        996    1    1    2    0    0 -0.54540389923E+01  0.20994170312E+02  0.67667527731E+02  0.86887260503E+02  0.50000000000E+02 0.  0.
<mgrwt>
<rscale>  0 0.54502309E+02</rscale>
<asrwt>0</asrwt>
<pdfrwt beam="1">  1       13 0.10000000E+01 0.54502309E+02</pdfrwt>
<pdfrwt beam="2">  1       22 0.14786573E+00 0.54502309E+02</pdfrwt>
<totfact> 0.77493184E-01</totfact>
</mgrwt>
</event>
<event>
 4    1  0.2503484E+000  0.5135804E+02  0.7957747E-01  0.1438151E+00
         13   -1    0    0    0    0  0.00000000000E+00  0.00000000000E+00  0.99999944178E+02  0.99999999998E+02  0.10566000000E+00 0.  1.
         22   -1    0    0    0    0 -0.00000000000E+00 -0.00000000000E+00 -0.10099898656E+02  0.10099898656E+02  0.00000000000E+00 0.  1.
         13    1    1    2    0    0 -0.95961326387E+01 -0.67499925601E+01  0.11910226034E+02  0.16718636589E+02  0.10566000000E+00 0. -1.
        996    1    1    2    0    0  0.95961326387E+01  0.67499925601E+01  0.77989819487E+02  0.93381262065E+02  0.50000000000E+02 0.  0.
<mgrwt>
<rscale>  0 0.51358039E+02</rscale>
<asrwt>0</asrwt>
<pdfrwt beam="1">  1       13 0.10000000E+01 0.51358039E+02</pdfrwt>
<pdfrwt beam="2">  1       22 0.10099924E+00 0.51358039E+02</pdfrwt>
<totfact> 0.13874581E+00</totfact>
</mgrwt>
</event>
<event>
 4    1  0.2503484E+000  0.6766308E+02  0.7957747E-01  0.1368225E+00
         13   -1    0    0    0    0  0.00000000000E+00  0.00000000000E+00  0.99999944183E+02  0.10000000000E+03  0.10566000000E+00 0. -1.
         22   -1    0    0    0    0 -0.00000000000E+00 -0.00000000000E+00 -0.70373926262E+02  0.70373926262E+02  0.00000000000E+00 0.  1.
         13    1    1    2    0    0  0.73313804614E+01 -0.44994926089E+02 -0.48808099829E+02  0.66787231461E+02  0.10566000000E+00 0.  1.
        996    1    1    2    0    0 -0.73313804614E+01  0.44994926089E+02  0.78434117750E+02  0.10358669480E+03  0.50000000000E+02 0.  0.
<mgrwt>
<rscale>  0 0.67663081E+02</rscale>
<asrwt>0</asrwt>
<pdfrwt beam="1">  1       13 0.10000000E+01 0.67663081E+02</pdfrwt>
<pdfrwt beam="2">  1       22 0.70373935E+00 0.67663081E+02</pdfrwt>
<totfact> 0.72699372E-02</totfact>
</mgrwt>
</event>
<event>
 4    1  0.2503484E+000  0.5709839E+02  0.7957747E-01  0.1410428E+00
         13   -1    0    0    0    0  0.00000000000E+00  0.00000000000E+00  0.99999944181E+02  0.10000000000E+03  0.10566000000E+00 0. -1.
         22   -1    0    0    0    0 -0.00000000000E+00 -0.00000000000E+00 -0.18483760491E+02  0.18483760491E+02  0.00000000000E+00 0.  1.
         13    1    1    2    0    0 -0.21951468133E+02  0.16684083631E+02  0.17283752191E+02  0.32541740175E+02  0.10566000000E+00 0.  1.
        996    1    1    2    0    0  0.21951468133E+02 -0.16684083631E+02  0.64232431499E+02  0.85942020317E+02  0.50000000000E+02 0.  0.
<mgrwt>
<rscale>  0 0.57098385E+02</rscale>
<asrwt>0</asrwt>
<pdfrwt beam="1">  1       13 0.10000000E+01 0.57098385E+02</pdfrwt>
<pdfrwt beam="2">  1       22 0.18483783E+00 0.57098385E+02</pdfrwt>
<totfact> 0.52851650E-01</totfact>
</mgrwt>
</event>
<event>
 4    1  0.2503484E+000  0.5254306E+02  0.7957747E-01  0.1432088E+00
         13   -1    0    0    0    0  0.00000000000E+00  0.00000000000E+00  0.99999944181E+02  0.10000000000E+03  0.10566000000E+00 0. -1.
         22   -1    0    0    0    0 -0.00000000000E+00 -0.00000000000E+00 -0.82031473235E+02  0.82031473235E+02  0.00000000000E+00 0.  1.
         13    1    1    2    0    0 -0.12888712246E+02 -0.97290393904E+01 -0.74200618540E+02  0.75937580068E+02  0.10566000000E+00 0.  1.
        996    1    1    2    0    0  0.12888712246E+02  0.97290393904E+01  0.92169089486E+02  0.10609389317E+03  0.50000000000E+02 0.  0.
<mgrwt>
<rscale>  0 0.52543060E+02</rscale>
<asrwt>0</asrwt>
<pdfrwt beam="1">  1       13 0.10000000E+01 0.52543060E+02</pdfrwt>
<pdfrwt beam="2">  1       22 0.82031478E+00 0.52543060E+02</pdfrwt>
<totfact> 0.25535054E-02</totfact>
</mgrwt>
</event>
<event>
 4    1  0.2503484E+000  0.5273330E+02  0.7957747E-01  0.1431133E+00
         13   -1    0    0    0    0  0.00000000000E+00  0.00000000000E+00  0.99999944172E+02  0.99999999993E+02  0.10566000000E+00 0. -1.
         22   -1    0    0    0    0 -0.00000000000E+00 -0.00000000000E+00 -0.21794933634E+02  0.21794933634E+02  0.00000000000E+00 0.  1.
         13    1    1    2    0    0 -0.74209158694E+01 -0.15024338887E+02 -0.96436888156E+01  0.19334235163E+02  0.10566000000E+00 0.  1.
        996    1    1    2    0    0  0.74209158694E+01  0.15024338887E+02  0.87848699354E+02  0.10246069846E+03  0.50000000000E+02 0.  0.
<mgrwt>
<rscale>  0 0.52733298E+02</rscale>
<asrwt>0</asrwt>
<pdfrwt beam="1">  1       13 0.10000000E+01 0.52733298E+02</pdfrwt>
<pdfrwt beam="2">  1       22 0.21794955E+00 0.52733298E+02</pdfrwt>
<totfact> 0.38555361E-01</totfact>
</mgrwt>
</event>
<event>
 4    1  0.2503484E+000  0.5149428E+02  0.7957747E-01  0.1437445E+00
         13   -1    0    0    0    0  0.00000000000E+00  0.00000000000E+00  0.99999944182E+02  0.10000000000E+03  0.10566000000E+00 0. -1.
         22   -1    0    0    0    0 -0.00000000000E+00 -0.00000000000E+00 -0.17554611140E+02  0.17554611140E+02  0.00000000000E+00 0.  1.
         13    1    1    2    0    0 -0.29812711724E+01 -0.11948765173E+02 -0.71316161610E+01  0.14231376604E+02  0.10566000000E+00 0.  1.
        996    1    1    2    0    0  0.29812711724E+01  0.11948765173E+02  0.89576949203E+02  0.10332323454E+03  0.50000000000E+02 0.  0.
<mgrwt>
<rscale>  0 0.51494281E+02</rscale>
<asrwt>0</asrwt>
<pdfrwt beam="1">  1       13 0.10000000E+01 0.51494281E+02</pdfrwt>
<pdfrwt beam="2">  1       22 0.17554634E+00 0.51494281E+02</pdfrwt>
<totfact> 0.57396052E-01</totfact>
</mgrwt>
</event>
<event>
 4    1  0.2503484E+000  0.5217876E+02  0.7957747E-01  0.1433932E+00
         13   -1    0    0    0    0  0.00000000000E+00  0.00000000000E+00  0.99999944182E+02  0.10000000000E+03  0.10566000000E+00 0. -1.
         22   -1    0    0    0    0 -0.00000000000E+00 -0.00000000000E+00 -0.25548220856E+02  0.25548220856E+02  0.00000000000E+00 0.  1.
         13    1    1    2    0    0  0.78514648292E+01 -0.12687670388E+02 -0.15527379810E+02  0.21534464647E+02  0.10566000000E+00 0.  1.
        996    1    1    2    0    0 -0.78514648292E+01  0.12687670388E+02  0.89979103137E+02  0.10401375621E+03  0.50000000000E+02 0.  0.
<mgrwt>
<rscale>  0 0.52178755E+02</rscale>
<asrwt>0</asrwt>
<pdfrwt beam="1">  1       13 0.10000000E+01 0.52178755E+02</pdfrwt>
<pdfrwt beam="2">  1       22 0.25548242E+00 0.52178755E+02</pdfrwt>
<totfact> 0.28255231E-01</totfact>
</mgrwt>
</event>
<event>
 4    1  0.2503484E+000  0.5840182E+02  0.7957747E-01  0.1404664E+00
         13   -1    0    0    0    0  0.00000000000E+00  0.00000000000E+00  0.99999944182E+02  0.10000000000E+03  0.10566000000E+00 0. -1.
         22   -1    0    0    0    0 -0.00000000000E+00 -0.00000000000E+00 -0.36946248294E+02  0.36946248294E+02  0.00000000000E+00 0.  1.
         13    1    1    2    0    0  0.24897002052E+02  0.17056147820E+02 -0.19420602385E+02  0.35887934611E+02  0.10566000000E+00 0.  1.
        996    1    1    2    0    0 -0.24897002052E+02 -0.17056147820E+02  0.82474298272E+02  0.10105831369E+03  0.50000000000E+02 0.  0.
<mgrwt>
<rscale>  0 0.58401823E+02</rscale>
<asrwt>0</asrwt>
<pdfrwt beam="1">  1       13 0.10000000E+01 0.58401823E+02</pdfrwt>
<pdfrwt beam="2">  1       22 0.36946266E+00 0.58401823E+02</pdfrwt>
<totfact> 0.14373934E-01</totfact>
</mgrwt>
</event>
<event>
 4    1  0.2503484E+000  0.5291764E+02  0.7957747E-01  0.1430211E+00
         13   -1    0    0    0    0  0.00000000000E+00  0.00000000000E+00  0.99999944178E+02  0.99999999998E+02  0.10566000000E+00 0.  1.
         22   -1    0    0    0    0 -0.00000000000E+00 -0.00000000000E+00 -0.14737800555E+02  0.14737800555E+02  0.00000000000E+00 0.  1.
         13    1    1    2    0    0 -0.15548601861E+02  0.76496805626E+01  0.40325713611E+01  0.17791836003E+02  0.10566000000E+00 0. -1.
        996    1    1    2    0    0  0.15548601861E+02 -0.76496805626E+01  0.81229572262E+02  0.96945964550E+02  0.50000000000E+02 0.  0.
<mgrwt>
<rscale>  0 0.52917640E+02</rscale>
<asrwt>0</asrwt>
<pdfrwt beam="1">  1       13 0.10000000E+01 0.52917640E+02</pdfrwt>
<pdfrwt beam="2">  1       22 0.14737824E+00 0.52917640E+02</pdfrwt>
<totfact> 0.77673290E-01</totfact>
</mgrwt>
</event>
<event>
 4    1  0.2503484E+000  0.5190211E+02  0.7957747E-01  0.1435344E+00
         13   -1    0    0    0    0  0.00000000000E+00  0.00000000000E+00  0.99999944169E+02  0.99999999989E+02  0.10566000000E+00 0.  1.
         22   -1    0    0    0    0 -0.00000000000E+00 -0.00000000000E+00 -0.63761598967E+02  0.63761598967E+02  0.00000000000E+00 0. -1.
         13    1    1    2    0    0 -0.86812233909E+01 -0.10884203899E+02 -0.56118635810E+02  0.57819909921E+02  0.10566000000E+00 0. -1.
        996    1    1    2    0    0  0.86812233909E+01  0.10884203899E+02  0.92356981011E+02  0.10594168904E+03  0.50000000000E+02 0.  0.
<mgrwt>
<rscale>  0 0.51902115E+02</rscale>
<asrwt>0</asrwt>
<pdfrwt beam="1">  1       13 0.10000000E+01 0.51902115E+02</pdfrwt>
<pdfrwt beam="2">  1       22 0.63761609E+00 0.51902115E+02</pdfrwt>
<totfact> 0.82394493E-02</totfact>
</mgrwt>
</event>
<event>
 4    1  0.2503484E+000  0.5444325E+02  0.7957747E-01  0.1422750E+00
         13   -1    0    0    0    0  0.00000000000E+00  0.00000000000E+00  0.99999944190E+02  0.10000000001E+03  0.10566000000E+00 0. -1.
         22   -1    0    0    0    0 -0.00000000000E+00 -0.00000000000E+00 -0.27556295034E+02  0.27556295034E+02  0.00000000000E+00 0.  1.
         13    1    1    2    0    0 -0.83987601223E+01  0.19837537385E+02 -0.13787275289E+02  0.25576692222E+02  0.10566000000E+00 0.  1.
        996    1    1    2    0    0  0.83987601223E+01 -0.19837537385E+02  0.86230924445E+02  0.10197960282E+03  0.50000000000E+02 0.  0.
<mgrwt>
<rscale>  0 0.54443246E+02</rscale>
<asrwt>0</asrwt>
<pdfrwt beam="1">  1       13 0.10000000E+01 0.54443246E+02</pdfrwt>
<pdfrwt beam="2">  1       22 0.27556315E+00 0.54443246E+02</pdfrwt>
<totfact> 0.24438311E-01</totfact>
</mgrwt>
</event>
<event>
 4    1  0.2503484E+000  0.5233253E+02  0.7957747E-01  0.1433152E+00
         13   -1    0    0    0    0  0.00000000000E+00  0.00000000000E+00  0.99999944171E+02  0.99999999991E+02  0.10566000000E+00 0. -1.
         22   -1    0    0    0    0 -0.00000000000E+00 -0.00000000000E+00 -0.15506303401E+02  0.15506303401E+02  0.00000000000E+00 0. -1.
         13    1    1    2    0    0 -0.15024682671E+02  0.35990136596E+01 -0.76350089354E+00  0.15468939406E+02  0.10566000000E+00 0.  1.
        996    1    1    2    0    0  0.15024682671E+02 -0.35990136596E+01  0.85257141664E+02  0.10003736399E+03  0.50000000000E+02 0.  0.
<mgrwt>
<rscale>  0 0.52332533E+02</rscale>
<asrwt>0</asrwt>
<pdfrwt beam="1">  1       13 0.10000000E+01 0.52332533E+02</pdfrwt>
<pdfrwt beam="2">  1       22 0.15506327E+00 0.52332533E+02</pdfrwt>
<totfact> 0.71264911E-01</totfact>
</mgrwt>
</event>
<event>
 4    1  0.2503484E+000  0.5686740E+02  0.7957747E-01  0.1411469E+00
         13   -1    0    0    0    0  0.00000000000E+00  0.00000000000E+00  0.99999944186E+02  0.10000000001E+03  0.10566000000E+00 0.  1.
         22   -1    0    0    0    0 -0.00000000000E+00 -0.00000000000E+00 -0.21977318297E+02  0.21977318297E+02  0.00000000000E+00 0. -1.
         13    1    1    2    0    0  0.15062909747E+02  0.22516869130E+02  0.21738858566E+01  0.27177887873E+02  0.10566000000E+00 0. -1.
        996    1    1    2    0    0 -0.15062909747E+02 -0.22516869130E+02  0.75848740032E+02  0.94799430430E+02  0.50000000000E+02 0.  0.
<mgrwt>
<rscale>  0 0.56867395E+02</rscale>
<asrwt>0</asrwt>
<pdfrwt beam="1">  1       13 0.10000000E+01 0.56867395E+02</pdfrwt>
<pdfrwt beam="2">  1       22 0.21977340E+00 0.56867395E+02</pdfrwt>
<totfact> 0.38197224E-01</totfact>
</mgrwt>
</event>
<event>
 4    1  0.2503484E+000  0.5161155E+02  0.7957747E-01  0.1436838E+00
         13   -1    0    0    0    0  0.00000000000E+00  0.00000000000E+00  0.99999944177E+02  0.99999999997E+02  0.10566000000E+00 0. -1.
         22   -1    0    0    0    0 -0.00000000000E+00 -0.00000000000E+00 -0.11967802949E+02  0.11967802949E+02  0.00000000000E+00 0. -1.
         13    1    1    2    0    0 -0.10934384362E+02  0.66476636290E+01  0.41017348828E+01  0.13438288067E+02  0.10566000000E+00 0.  1.
        996    1    1    2    0    0  0.10934384362E+02 -0.66476636290E+01  0.83930406345E+02  0.98529514879E+02  0.50000000000E+02 0.  0.
<mgrwt>
<rscale>  0 0.51611551E+02</rscale>
<asrwt>0</asrwt>
<pdfrwt beam="1">  1       13 0.10000000E+01 0.51611551E+02</pdfrwt>
<pdfrwt beam="2">  1       22 0.11967828E+00 0.51611551E+02</pdfrwt>
<totfact> 0.10784292E+00</totfact>
</mgrwt>
</event>
<event>
 4    1  0.2503484E+000  0.5295693E+02  0.7957747E-01  0.1430015E+00
         13   -1    0    0    0    0  0.00000000000E+00  0.00000000000E+00  0.99999944183E+02  0.10000000000E+03  0.10566000000E+00 0. -1.
         22   -1    0    0    0    0 -0.00000000000E+00 -0.00000000000E+00 -0.12744534063E+02  0.12744534063E+02  0.00000000000E+00 0. -1.
         13    1    1    2    0    0 -0.71442092611E+01  0.15918428551E+02  0.14101478636E+02  0.22434325424E+02  0.10566000000E+00 0.  1.
        996    1    1    2    0    0  0.71442092611E+01 -0.15918428551E+02  0.73153931484E+02  0.90310208642E+02  0.50000000000E+02 0.  0.
<mgrwt>
<rscale>  0 0.52956927E+02</rscale>
<asrwt>0</asrwt>
<pdfrwt beam="1">  1       13 0.10000000E+01 0.52956927E+02</pdfrwt>
<pdfrwt beam="2">  1       22 0.12744558E+00 0.52956927E+02</pdfrwt>
<totfact> 0.98133400E-01</totfact>
</mgrwt>
</event>
<event>
 4    1  0.2503484E+000  0.5157645E+02  0.7957747E-01  0.1437019E+00
         13   -1    0    0    0    0  0.00000000000E+00  0.00000000000E+00  0.99999944178E+02  0.99999999998E+02  0.10566000000E+00 0. -1.
         22   -1    0    0    0    0 -0.00000000000E+00 -0.00000000000E+00 -0.16329013476E+02  0.16329013476E+02  0.00000000000E+00 0.  1.
         13    1    1    2    0    0  0.12613810232E+02 -0.10109476393E+01 -0.51151675643E+01  0.13649407568E+02  0.10566000000E+00 0.  1.
        996    1    1    2    0    0 -0.12613810232E+02  0.10109476393E+01  0.88786098267E+02  0.10267960591E+03  0.50000000000E+02 0.  0.
<mgrwt>
<rscale>  0 0.51576450E+02</rscale>
<asrwt>0</asrwt>
<pdfrwt beam="1">  1       13 0.10000000E+01 0.51576450E+02</pdfrwt>
<pdfrwt beam="2">  1       22 0.16329037E+00 0.51576450E+02</pdfrwt>
<totfact> 0.65151359E-01</totfact>
</mgrwt>
</event>
<event>
 4    1  0.2503484E+000  0.5387658E+02  0.7957747E-01  0.1425488E+00
         13   -1    0    0    0    0  0.00000000000E+00  0.00000000000E+00  0.99999944172E+02  0.99999999992E+02  0.10566000000E+00 0.  1.
         22   -1    0    0    0    0 -0.00000000000E+00 -0.00000000000E+00 -0.19204314062E+02  0.19204314062E+02  0.00000000000E+00 0. -1.
         13    1    1    2    0    0  0.23403656957E+01 -0.19930102860E+02 -0.22710536467E+01  0.20195424242E+02  0.10566000000E+00 0. -1.
        996    1    1    2    0    0 -0.23403656957E+01  0.19930102860E+02  0.83066683756E+02  0.99008889812E+02  0.50000000000E+02 0.  0.
<mgrwt>
<rscale>  0 0.53876584E+02</rscale>
<asrwt>0</asrwt>
<pdfrwt beam="1">  1       13 0.10000000E+01 0.53876584E+02</pdfrwt>
<pdfrwt beam="2">  1       22 0.19204337E+00 0.53876584E+02</pdfrwt>
<totfact> 0.49010505E-01</totfact>
</mgrwt>
</event>
<event>
 4    1  0.2503484E+000  0.5101195E+02  0.7957747E-01  0.1439959E+00
         13   -1    0    0    0    0  0.00000000000E+00  0.00000000000E+00  0.99999944182E+02  0.10000000000E+03  0.10566000000E+00 0. -1.
         22   -1    0    0    0    0 -0.00000000000E+00 -0.00000000000E+00 -0.17036490069E+02  0.17036490069E+02  0.00000000000E+00 0.  1.
         13    1    1    2    0    0  0.94787227514E+01  0.35175503490E+01 -0.79011263165E+01  0.12831925287E+02  0.10566000000E+00 0.  1.
        996    1    1    2    0    0 -0.94787227514E+01 -0.35175503490E+01  0.90864580430E+02  0.10420456479E+03  0.50000000000E+02 0.  0.
<mgrwt>
<rscale>  0 0.51011953E+02</rscale>
<asrwt>0</asrwt>
<pdfrwt beam="1">  1       13 0.10000000E+01 0.51011953E+02</pdfrwt>
<pdfrwt beam="2">  1       22 0.17036513E+00 0.51011953E+02</pdfrwt>
<totfact> 0.60453476E-01</totfact>
</mgrwt>
</event>
<event>
 4    1  0.2503484E+000  0.5221007E+02  0.7957747E-01  0.1433773E+00
         13   -1    0    0    0    0  0.00000000000E+00  0.00000000000E+00  0.99999944175E+02  0.99999999995E+02  0.10566000000E+00 0.  1.
         22   -1    0    0    0    0 -0.00000000000E+00 -0.00000000000E+00 -0.11605979284E+02  0.11605979284E+02  0.00000000000E+00 0.  1.
         13    1    1    2    0    0 -0.12513043679E+02  0.83255634166E+01  0.12841620688E+02  0.19768906248E+02  0.10566000000E+00 0. -1.
        996    1    1    2    0    0  0.12513043679E+02 -0.83255634166E+01  0.75552344204E+02  0.91837073031E+02  0.50000000000E+02 0.  0.
<mgrwt>
<rscale>  0 0.52210069E+02</rscale>
<asrwt>0</asrwt>
<pdfrwt beam="1">  1       13 0.10000000E+01 0.52210069E+02</pdfrwt>
<pdfrwt beam="2">  1       22 0.11606004E+00 0.52210069E+02</pdfrwt>
<totfact> 0.11315136E+00</totfact>
</mgrwt>
</event>
<event>
 4    1  0.2503484E+000  0.5535801E+02  0.7957747E-01  0.1418413E+00
         13   -1    0    0    0    0  0.00000000000E+00  0.00000000000E+00  0.99999944176E+02  0.99999999997E+02  0.10566000000E+00 0.  1.
         22   -1    0    0    0    0 -0.00000000000E+00 -0.00000000000E+00 -0.22854727057E+02  0.22854727057E+02  0.00000000000E+00 0. -1.
         13    1    1    2    0    0  0.22752914395E+02  0.68420566251E+01 -0.45292424225E+01  0.24187477199E+02  0.10566000000E+00 0. -1.
        996    1    1    2    0    0 -0.22752914395E+02 -0.68420566251E+01  0.81674459542E+02  0.98667249854E+02  0.50000000000E+02 0.  0.
<mgrwt>
<rscale>  0 0.55358006E+02</rscale>
<asrwt>0</asrwt>
<pdfrwt beam="1">  1       13 0.10000000E+01 0.55358006E+02</pdfrwt>
<pdfrwt beam="2">  1       22 0.22854749E+00 0.55358006E+02</pdfrwt>
<totfact> 0.35326697E-01</totfact>
</mgrwt>
</event>
<event>
 4    1  0.2503484E+000  0.8444171E+02  0.7957747E-01  0.1316899E+00
         13   -1    0    0    0    0  0.00000000000E+00  0.00000000000E+00  0.99999944177E+02  0.99999999997E+02  0.10566000000E+00 0. -1.
         22   -1    0    0    0    0 -0.00000000000E+00 -0.00000000000E+00 -0.58134755489E+02  0.58134755489E+02  0.00000000000E+00 0.  1.
         13    1    1    2    0    0  0.16544551783E+02 -0.66005150640E+02  0.18151934132E+02  0.70426599957E+02  0.10566000000E+00 0.  1.
        996    1    1    2    0    0 -0.16544551783E+02  0.66005150640E+02  0.23713254556E+02  0.87708155529E+02  0.50000000000E+02 0.  0.
<mgrwt>
<rscale>  0 0.84441708E+02</rscale>
<asrwt>0</asrwt>
<pdfrwt beam="1">  1       13 0.10000000E+01 0.84441708E+02</pdfrwt>
<pdfrwt beam="2">  1       22 0.58134767E+00 0.84441708E+02</pdfrwt>
<totfact> 0.58806754E-02</totfact>
</mgrwt>
</event>
<event>
 4    1  0.2503484E+000  0.5118933E+02  0.7957747E-01  0.1439030E+00
         13   -1    0    0    0    0  0.00000000000E+00  0.00000000000E+00  0.99999944174E+02  0.99999999994E+02  0.10566000000E+00 0. -1.
         22   -1    0    0    0    0 -0.00000000000E+00 -0.00000000000E+00 -0.10483224111E+02  0.10483224111E+02  0.00000000000E+00 0. -1.
         13    1    1    2    0    0 -0.67451909470E+01 -0.86515970172E+01  0.59391387951E+01  0.12475266150E+02  0.10566000000E+00 0.  1.
        996    1    1    2    0    0  0.67451909470E+01  0.86515970172E+01  0.83577581268E+02  0.98007957955E+02  0.50000000000E+02 0.  0.
<mgrwt>
<rscale>  0 0.51189332E+02</rscale>
<asrwt>0</asrwt>
<pdfrwt beam="1">  1       13 0.10000000E+01 0.51189332E+02</pdfrwt>
<pdfrwt beam="2">  1       22 0.10483249E+00 0.51189332E+02</pdfrwt>
<totfact> 0.13135171E+00</totfact>
</mgrwt>
</event>
<event>
 4    1  0.2503484E+000  0.5285408E+02  0.7957747E-01  0.1430528E+00
         13   -1    0    0    0    0  0.00000000000E+00  0.00000000000E+00  0.99999944176E+02  0.99999999997E+02  0.10566000000E+00 0.  1.
         22   -1    0    0    0    0 -0.00000000000E+00 -0.00000000000E+00 -0.25834560913E+02  0.25834560913E+02  0.00000000000E+00 0. -1.
         13    1    1    2    0    0 -0.16368381055E+02 -0.50625894516E+01 -0.14609641475E+02  0.22516804799E+02  0.10566000000E+00 0. -1.
        996    1    1    2    0    0  0.16368381055E+02  0.50625894516E+01  0.88775024738E+02  0.10331775611E+03  0.50000000000E+02 0.  0.
<mgrwt>
<rscale>  0 0.52854079E+02</rscale>
<asrwt>0</asrwt>
<pdfrwt beam="1">  1       13 0.10000000E+01 0.52854079E+02</pdfrwt>
<pdfrwt beam="2">  1       22 0.25834582E+00 0.52854079E+02</pdfrwt>
<totfact> 0.27670540E-01</totfact>
</mgrwt>
</event>
<event>
 4    1  0.2503484E+000  0.5296726E+02  0.7957747E-01  0.1429964E+00
         13   -1    0    0    0    0  0.00000000000E+00  0.00000000000E+00  0.99999944177E+02  0.99999999997E+02  0.10566000000E+00 0. -1.
         22   -1    0    0    0    0 -0.00000000000E+00 -0.00000000000E+00 -0.13846356743E+02  0.13846356743E+02  0.00000000000E+00 0. -1.
         13    1    1    2    0    0 -0.16191875259E+02  0.65843721011E+01  0.75004474781E+01  0.19021005672E+02  0.10566000000E+00 0.  1.
        996    1    1    2    0    0  0.16191875259E+02 -0.65843721011E+01  0.78653139956E+02  0.94825351069E+02  0.50000000000E+02 0.  0.
<mgrwt>
<rscale>  0 0.52967261E+02</rscale>
<asrwt>0</asrwt>
<pdfrwt beam="1">  1       13 0.10000000E+01 0.52967261E+02</pdfrwt>
<pdfrwt beam="2">  1       22 0.13846381E+00 0.52967261E+02</pdfrwt>
<totfact> 0.86019802E-01</totfact>
</mgrwt>
</event>
<event>
 4    1  0.2503484E+000  0.5214458E+02  0.7957747E-01  0.1434106E+00
         13   -1    0    0    0    0  0.00000000000E+00  0.00000000000E+00  0.99999944178E+02  0.99999999999E+02  0.10566000000E+00 0.  1.
         22   -1    0    0    0    0 -0.00000000000E+00 -0.00000000000E+00 -0.28068915157E+02  0.28068915157E+02  0.00000000000E+00 0.  1.
         13    1    1    2    0    0 -0.70858683387E+01  0.12994123140E+02 -0.18493257320E+02  0.23686884486E+02  0.10566000000E+00 0. -1.
        996    1    1    2    0    0  0.70858683387E+01 -0.12994123140E+02  0.90424286342E+02  0.10438203067E+03  0.50000000000E+02 0.  0.
<mgrwt>
<rscale>  0 0.52144576E+02</rscale>
<asrwt>0</asrwt>
<pdfrwt beam="1">  1       13 0.10000000E+01 0.52144576E+02</pdfrwt>
<pdfrwt beam="2">  1       22 0.28068935E+00 0.52144576E+02</pdfrwt>
<totfact> 0.23503607E-01</totfact>
</mgrwt>
</event>
<event>
 4    1  0.2503484E+000  0.5139784E+02  0.7957747E-01  0.1437945E+00
         13   -1    0    0    0    0  0.00000000000E+00  0.00000000000E+00  0.99999944182E+02  0.10000000000E+03  0.10566000000E+00 0. -1.
         22   -1    0    0    0    0 -0.00000000000E+00 -0.00000000000E+00 -0.10153732181E+02  0.10153732181E+02  0.00000000000E+00 0. -1.
         13    1    1    2    0    0 -0.11892924268E+02 -0.54425747258E+00  0.12280268472E+02  0.17104210640E+02  0.10566000000E+00 0.  1.
        996    1    1    2    0    0  0.11892924268E+02  0.54425747258E+00  0.77565943529E+02  0.93049521543E+02  0.50000000000E+02 0.  0.
<mgrwt>
<rscale>  0 0.51397839E+02</rscale>
<asrwt>0</asrwt>
<pdfrwt beam="1">  1       13 0.10000000E+01 0.51397839E+02</pdfrwt>
<pdfrwt beam="2">  1       22 0.10153757E+00 0.51397839E+02</pdfrwt>
<totfact> 0.13769147E+00</totfact>
</mgrwt>
</event>
<event>
 4    1  0.2503484E+000  0.5109169E+02  0.7957747E-01  0.1439541E+00
         13   -1    0    0    0    0  0.00000000000E+00  0.00000000000E+00  0.99999944175E+02  0.99999999995E+02  0.10566000000E+00 0. -1.
         22   -1    0    0    0    0 -0.00000000000E+00 -0.00000000000E+00 -0.10275194087E+02  0.10275194087E+02  0.00000000000E+00 0. -1.
         13    1    1    2    0    0  0.67664047665E-01  0.10505048506E+02  0.57427650685E+01  0.11972933526E+02  0.10566000000E+00 0.  1.
        996    1    1    2    0    0 -0.67664047665E-01 -0.10505048506E+02  0.83981985020E+02  0.98302260556E+02  0.50000000000E+02 0.  0.
<mgrwt>
<rscale>  0 0.51091688E+02</rscale>
<asrwt>0</asrwt>
<pdfrwt beam="1">  1       13 0.10000000E+01 0.51091688E+02</pdfrwt>
<pdfrwt beam="2">  1       22 0.10275219E+00 0.51091688E+02</pdfrwt>
<totfact> 0.13522762E+00</totfact>
</mgrwt>
</event>
<event>
 4    1  0.2503484E+000  0.5509860E+02  0.7957747E-01  0.1419633E+00
         13   -1    0    0    0    0  0.00000000000E+00  0.00000000000E+00  0.99999944181E+02  0.10000000000E+03  0.10566000000E+00 0.  1.
         22   -1    0    0    0    0 -0.00000000000E+00 -0.00000000000E+00 -0.15326472108E+02  0.15326472108E+02  0.00000000000E+00 0.  1.
         13    1    1    2    0    0  0.10372066623E+02 -0.20694833788E+02  0.26967088824E+02  0.35539990929E+02  0.10566000000E+00 0. -1.
        996    1    1    2    0    0 -0.10372066623E+02  0.20694833788E+02  0.57706383249E+02  0.79786481181E+02  0.50000000000E+02 0.  0.
<mgrwt>
<rscale>  0 0.55098602E+02</rscale>
<asrwt>0</asrwt>
<pdfrwt beam="1">  1       13 0.10000000E+01 0.55098602E+02</pdfrwt>
<pdfrwt beam="2">  1       22 0.15326496E+00 0.55098602E+02</pdfrwt>
<totfact> 0.73072644E-01</totfact>
</mgrwt>
</event>
<event>
 4    1  0.2503484E+000  0.5153451E+02  0.7957747E-01  0.1437236E+00
         13   -1    0    0    0    0  0.00000000000E+00  0.00000000000E+00  0.99999944173E+02  0.99999999994E+02  0.10566000000E+00 0.  1.
         22   -1    0    0    0    0 -0.00000000000E+00 -0.00000000000E+00 -0.13514747095E+02  0.13514747095E+02  0.00000000000E+00 0. -1.
         13    1    1    2    0    0 -0.52468488982E+01  0.11325920050E+02 -0.40744604991E+00  0.12489318022E+02  0.10566000000E+00 0. -1.
        996    1    1    2    0    0  0.52468488982E+01 -0.11325920050E+02  0.86892643128E+02  0.10102542907E+03  0.50000000000E+02 0.  0.
<mgrwt>
<rscale>  0 0.51534512E+02</rscale>
<asrwt>0</asrwt>
<pdfrwt beam="1">  1       13 0.10000000E+01 0.51534512E+02</pdfrwt>
<pdfrwt beam="2">  1       22 0.13514771E+00 0.51534512E+02</pdfrwt>
<totfact> 0.89164916E-01</totfact>
</mgrwt>
</event>
<event>
 4    1  0.2503484E+000  0.5457053E+02  0.7957747E-01  0.1422141E+00
         13   -1    0    0    0    0  0.00000000000E+00  0.00000000000E+00  0.99999944176E+02  0.99999999996E+02  0.10566000000E+00 0.  1.
         22   -1    0    0    0    0 -0.00000000000E+00 -0.00000000000E+00 -0.21614002048E+02  0.21614002048E+02  0.00000000000E+00 0. -1.
         13    1    1    2    0    0  0.15193208827E+02  0.15719692338E+02 -0.45542636405E+01  0.22331475612E+02  0.10566000000E+00 0. -1.
        996    1    1    2    0    0 -0.15193208827E+02 -0.15719692338E+02  0.82940205768E+02  0.99282526431E+02  0.50000000000E+02 0.  0.
<mgrwt>
<rscale>  0 0.54570526E+02</rscale>
<asrwt>0</asrwt>
<pdfrwt beam="1">  1       13 0.10000000E+01 0.54570526E+02</pdfrwt>
<pdfrwt beam="2">  1       22 0.21614024E+00 0.54570526E+02</pdfrwt>
<totfact> 0.39296234E-01</totfact>
</mgrwt>
</event>
<event>
 4    1  0.2503484E+000  0.5122711E+02  0.7957747E-01  0.1438833E+00
         13   -1    0    0    0    0  0.00000000000E+00  0.00000000000E+00  0.99999944184E+02  0.10000000000E+03  0.10566000000E+00 0. -1.
         22   -1    0    0    0    0 -0.00000000000E+00 -0.00000000000E+00 -0.97333807106E+01  0.97333807106E+01  0.00000000000E+00 0. -1.
         13    1    1    2    0    0 -0.63813634103E+01  0.91375341867E+01  0.14987066245E+02  0.18677249494E+02  0.10566000000E+00 0.  1.
        996    1    1    2    0    0  0.63813634103E+01 -0.91375341867E+01  0.75279497228E+02  0.91056131221E+02  0.50000000000E+02 0.  0.
<mgrwt>
<rscale>  0 0.51227105E+02</rscale>
<asrwt>0</asrwt>
<pdfrwt beam="1">  1       13 0.10000000E+01 0.51227105E+02</pdfrwt>
<pdfrwt beam="2">  1       22 0.97334059E-01 0.51227105E+02</pdfrwt>
<totfact> 0.14631065E+00</totfact>
</mgrwt>
</event>
<event>
 4    1  0.2503484E+000  0.5129452E+02  0.7957747E-01  0.1438482E+00
         13   -1    0    0    0    0  0.00000000000E+00  0.00000000000E+00  0.99999944177E+02  0.99999999997E+02  0.10566000000E+00 0. -1.
         22   -1    0    0    0    0 -0.00000000000E+00 -0.00000000000E+00 -0.14222642061E+02  0.14222642061E+02  0.00000000000E+00 0.  1.
         13    1    1    2    0    0 -0.67779139086E+01 -0.92296950100E+01 -0.28689020030E+01  0.11805471175E+02  0.10566000000E+00 0.  1.
        996    1    1    2    0    0  0.67779139086E+01  0.92296950100E+01  0.88646204119E+02  0.10241717088E+03  0.50000000000E+02 0.  0.
<mgrwt>
<rscale>  0 0.51294516E+02</rscale>
<asrwt>0</asrwt>
<pdfrwt beam="1">  1       13 0.10000000E+01 0.51294516E+02</pdfrwt>
<pdfrwt beam="2">  1       22 0.14222666E+00 0.51294516E+02</pdfrwt>
<totfact> 0.82070348E-01</totfact>
</mgrwt>
</event>
<event>
 4    1  0.2503484E+000  0.5160389E+02  0.7957747E-01  0.1436878E+00
         13   -1    0    0    0    0  0.00000000000E+00  0.00000000000E+00  0.99999944183E+02  0.10000000000E+03  0.10566000000E+00 0.  1.
         22   -1    0    0    0    0 -0.00000000000E+00 -0.00000000000E+00 -0.11440801553E+02  0.11440801553E+02  0.00000000000E+00 0.  1.
         13    1    1    2    0    0 -0.73087752612E+01 -0.10466302719E+02  0.60593929500E+01  0.14131139210E+02  0.10566000000E+00 0. -1.
        996    1    1    2    0    0  0.73087752612E+01  0.10466302719E+02  0.82499749681E+02  0.97309662346E+02  0.50000000000E+02 0.  0.
<mgrwt>
<rscale>  0 0.51603892E+02</rscale>
<asrwt>0</asrwt>
<pdfrwt beam="1">  1       13 0.10000000E+01 0.51603892E+02</pdfrwt>
<pdfrwt beam="2">  1       22 0.11440826E+00 0.51603892E+02</pdfrwt>
<totfact> 0.11546682E+00</totfact>
</mgrwt>
</event>
<event>
 4    1  0.2503484E+000  0.5341257E+02  0.7957747E-01  0.1427759E+00
         13   -1    0    0    0    0  0.00000000000E+00  0.00000000000E+00  0.99999944185E+02  0.10000000001E+03  0.10566000000E+00 0. -1.
         22   -1    0    0    0    0 -0.00000000000E+00 -0.00000000000E+00 -0.16293545393E+02  0.16293545393E+02  0.00000000000E+00 0.  1.
         13    1    1    2    0    0 -0.17688793042E+02 -0.63253148943E+01  0.22965574207E+01  0.18925864519E+02  0.10566000000E+00 0.  1.
        996    1    1    2    0    0  0.17688793042E+02  0.63253148943E+01  0.81409841371E+02  0.97367680879E+02  0.50000000000E+02 0.  0.
<mgrwt>
<rscale>  0 0.53412573E+02</rscale>
<asrwt>0</asrwt>
<pdfrwt beam="1">  1       13 0.10000000E+01 0.53412573E+02</pdfrwt>
<pdfrwt beam="2">  1       22 0.16293569E+00 0.53412573E+02</pdfrwt>
<totfact> 0.65630905E-01</totfact>
</mgrwt>
</event>
<event>
 4    1  0.2503484E+000  0.5973990E+02  0.7957747E-01  0.1398927E+00
         13   -1    0    0    0    0  0.00000000000E+00  0.00000000000E+00  0.99999944184E+02  0.10000000000E+03  0.10566000000E+00 0. -1.
         22   -1    0    0    0    0 -0.00000000000E+00 -0.00000000000E+00 -0.25165450982E+02  0.25165450982E+02  0.00000000000E+00 0. -1.
         13    1    1    2    0    0 -0.91231584345E+01 -0.31394645516E+02  0.51560408859E+02  0.61051967312E+02  0.10566000000E+00 0.  1.
        996    1    1    2    0    0  0.91231584345E+01  0.31394645516E+02  0.23274084343E+02  0.64113483675E+02  0.50000000000E+02 0.  0.
<mgrwt>
<rscale>  0 0.59739901E+02</rscale>
<asrwt>0</asrwt>
<pdfrwt beam="1">  1       13 0.10000000E+01 0.59739901E+02</pdfrwt>
<pdfrwt beam="2">  1       22 0.25165472E+00 0.59739901E+02</pdfrwt>
<totfact> 0.29427369E-01</totfact>
</mgrwt>
</event>
<event>
 4    1  0.2503484E+000  0.5133843E+02  0.7957747E-01  0.1438253E+00
         13   -1    0    0    0    0  0.00000000000E+00  0.00000000000E+00  0.99999944185E+02  0.10000000000E+03  0.10566000000E+00 0.  1.
         22   -1    0    0    0    0 -0.00000000000E+00 -0.00000000000E+00 -0.18787200545E+02  0.18787200545E+02  0.00000000000E+00 0. -1.
         13    1    1    2    0    0 -0.11621882237E+02 -0.75243261008E+00 -0.91822439019E+01  0.14831017115E+02  0.10566000000E+00 0. -1.
        996    1    1    2    0    0  0.11621882237E+02  0.75243261008E+00  0.90394987542E+02  0.10395618343E+03  0.50000000000E+02 0.  0.
<mgrwt>
<rscale>  0 0.51338429E+02</rscale>
<asrwt>0</asrwt>
<pdfrwt beam="1">  1       13 0.10000000E+01 0.51338429E+02</pdfrwt>
<pdfrwt beam="2">  1       22 0.18787223E+00 0.51338429E+02</pdfrwt>
<totfact> 0.50786315E-01</totfact>
</mgrwt>
</event>
<event>
 4    1  0.2503484E+000  0.5689433E+02  0.7957747E-01  0.1411347E+00
         13   -1    0    0    0    0  0.00000000000E+00  0.00000000000E+00  0.99999944182E+02  0.10000000000E+03  0.10566000000E+00 0.  1.
         22   -1    0    0    0    0 -0.00000000000E+00 -0.00000000000E+00 -0.28448025393E+02  0.28448025393E+02  0.00000000000E+00 0. -1.
         13    1    1    2    0    0  0.26482453717E+02  0.59702727468E+01 -0.10069136594E+02  0.28954502022E+02  0.10566000000E+00 0. -1.
        996    1    1    2    0    0 -0.26482453717E+02 -0.59702727468E+01  0.81621055383E+02  0.99493523374E+02  0.50000000000E+02 0.  0.
<mgrwt>
<rscale>  0 0.56894328E+02</rscale>
<asrwt>0</asrwt>
<pdfrwt beam="1">  1       13 0.10000000E+01 0.56894328E+02</pdfrwt>
<pdfrwt beam="2">  1       22 0.28448045E+00 0.56894328E+02</pdfrwt>
<totfact> 0.23048743E-01</totfact>
</mgrwt>
</event>
<event>
 4    1  0.2503484E+000  0.5244214E+02  0.7957747E-01  0.1432597E+00
         13   -1    0    0    0    0  0.00000000000E+00  0.00000000000E+00  0.99999944180E+02  0.10000000000E+03  0.10566000000E+00 0.  1.
         22   -1    0    0    0    0 -0.00000000000E+00 -0.00000000000E+00 -0.11708243713E+02  0.11708243713E+02  0.00000000000E+00 0.  1.
         13    1    1    2    0    0  0.87081993066E-01 -0.15816776076E+02  0.17206572163E+02  0.23372104705E+02  0.10566000000E+00 0. -1.
        996    1    1    2    0    0 -0.87081993066E-01  0.15816776076E+02  0.71085128304E+02  0.88336139008E+02  0.50000000000E+02 0.  0.
<mgrwt>
<rscale>  0 0.52442139E+02</rscale>
<asrwt>0</asrwt>
<pdfrwt beam="1">  1       13 0.10000000E+01 0.52442139E+02</pdfrwt>
<pdfrwt beam="2">  1       22 0.11708268E+00 0.52442139E+02</pdfrwt>
<totfact> 0.11171529E+00</totfact>
</mgrwt>
</event>
<event>
 4    1  0.2503484E+000  0.5671211E+02  0.7957747E-01  0.1412171E+00
         13   -1    0    0    0    0  0.00000000000E+00  0.00000000000E+00  0.99999944180E+02  0.10000000000E+03  0.10566000000E+00 0. -1.
         22   -1    0    0    0    0 -0.00000000000E+00 -0.00000000000E+00 -0.25817957452E+02  0.25817957452E+02  0.00000000000E+00 0.  1.
         13    1    1    2    0    0 -0.25189053532E+02 -0.90429365293E+01 -0.61726286531E+01  0.27465899356E+02  0.10566000000E+00 0.  1.
        996    1    1    2    0    0  0.25189053532E+02  0.90429365293E+01  0.80354615381E+02  0.98352058097E+02  0.50000000000E+02 0.  0.
<mgrwt>
<rscale>  0 0.56712107E+02</rscale>
<asrwt>0</asrwt>
<pdfrwt beam="1">  1       13 0.10000000E+01 0.56712107E+02</pdfrwt>
<pdfrwt beam="2">  1       22 0.25817978E+00 0.56712107E+02</pdfrwt>
<totfact> 0.27860902E-01</totfact>
</mgrwt>
</event>
<event>
 4    1  0.2503484E+000  0.6154584E+02  0.7957747E-01  0.1391457E+00
         13   -1    0    0    0    0  0.00000000000E+00  0.00000000000E+00  0.99999944183E+02  0.10000000000E+03  0.10566000000E+00 0.  1.
         22   -1    0    0    0    0 -0.00000000000E+00 -0.00000000000E+00 -0.35747715978E+02  0.35747715978E+02  0.00000000000E+00 0. -1.
         13    1    1    2    0    0  0.24168227999E+01 -0.35805721632E+02 -0.11923182374E+02  0.37816189337E+02  0.10566000000E+00 0. -1.
        996    1    1    2    0    0 -0.24168227999E+01  0.35805721632E+02  0.76175410579E+02  0.97931526645E+02  0.50000000000E+02 0.  0.
<mgrwt>
<rscale>  0 0.61545843E+02</rscale>
<asrwt>0</asrwt>
<pdfrwt beam="1">  1       13 0.10000000E+01 0.61545843E+02</pdfrwt>
<pdfrwt beam="2">  1       22 0.35747734E+00 0.61545843E+02</pdfrwt>
<totfact> 0.15278072E-01</totfact>
</mgrwt>
</event>
<event>
 4    1  0.2503484E+000  0.5219699E+02  0.7957747E-01  0.1433839E+00
         13   -1    0    0    0    0  0.00000000000E+00  0.00000000000E+00  0.99999944180E+02  0.10000000000E+03  0.10566000000E+00 0.  1.
         22   -1    0    0    0    0 -0.00000000000E+00 -0.00000000000E+00 -0.48684196371E+02  0.48684196371E+02  0.00000000000E+00 0. -1.
         13    1    1    2    0    0  0.45418210032E+01  0.14279279725E+02 -0.40436583202E+02  0.43123710329E+02  0.10566000000E+00 0. -1.
        996    1    1    2    0    0 -0.45418210032E+01 -0.14279279725E+02  0.91752331011E+02  0.10556048604E+03  0.50000000000E+02 0.  0.
<mgrwt>
<rscale>  0 0.52196992E+02</rscale>
<asrwt>0</asrwt>
<pdfrwt beam="1">  1       13 0.10000000E+01 0.52196992E+02</pdfrwt>
<pdfrwt beam="2">  1       22 0.48684211E+00 0.52196992E+02</pdfrwt>
<totfact> 0.79209374E-02</totfact>
</mgrwt>
</event>
<event>
 4    1  0.2503484E+000  0.5105603E+02  0.7957747E-01  0.1439727E+00
         13   -1    0    0    0    0  0.00000000000E+00  0.00000000000E+00  0.99999944177E+02  0.99999999997E+02  0.10566000000E+00 0. -1.
         22   -1    0    0    0    0 -0.00000000000E+00 -0.00000000000E+00 -0.15313455585E+02  0.15313455585E+02  0.00000000000E+00 0. -1.
         13    1    1    2    0    0  0.76776790704E+01  0.69116794445E+01 -0.54806821544E+01  0.11694747093E+02  0.10566000000E+00 0.  1.
        996    1    1    2    0    0 -0.76776790704E+01 -0.69116794445E+01  0.90167170746E+02  0.10361870849E+03  0.50000000000E+02 0.  0.
<mgrwt>
<rscale>  0 0.51056029E+02</rscale>
<asrwt>0</asrwt>
<pdfrwt beam="1">  1       13 0.10000000E+01 0.51056029E+02</pdfrwt>
<pdfrwt beam="2">  1       22 0.15313479E+00 0.51056029E+02</pdfrwt>
<totfact> 0.72593075E-01</totfact>
</mgrwt>
</event>
<event>
 4    1  0.2503484E+000  0.5100690E+02  0.7957747E-01  0.1439985E+00
         13   -1    0    0    0    0  0.00000000000E+00  0.00000000000E+00  0.99999944174E+02  0.99999999994E+02  0.10566000000E+00 0. -1.
         22   -1    0    0    0    0 -0.00000000000E+00 -0.00000000000E+00 -0.23514026338E+02  0.23514026338E+02  0.00000000000E+00 0.  1.
         13    1    1    2    0    0 -0.95355453265E+01  0.32828218506E+01 -0.15406772704E+02  0.18414216062E+02  0.10566000000E+00 0.  1.
        996    1    1    2    0    0  0.95355453265E+01 -0.32828218506E+01  0.91892690541E+02  0.10509981027E+03  0.50000000000E+02 0.  0.
<mgrwt>
<rscale>  0 0.51006897E+02</rscale>
<asrwt>0</asrwt>
<pdfrwt beam="1">  1       13 0.10000000E+01 0.51006897E+02</pdfrwt>
<pdfrwt beam="2">  1       22 0.23514048E+00 0.51006897E+02</pdfrwt>
<totfact> 0.33188768E-01</totfact>
</mgrwt>
</event>
<event>
 4    1  0.2503484E+000  0.5099386E+02  0.7957747E-01  0.1440054E+00
         13   -1    0    0    0    0  0.00000000000E+00  0.00000000000E+00  0.99999944178E+02  0.99999999998E+02  0.10566000000E+00 0.  1.
         22   -1    0    0    0    0 -0.00000000000E+00 -0.00000000000E+00 -0.98535598952E+01  0.98535598952E+01  0.00000000000E+00 0.  1.
         13    1    1    2    0    0  0.10000320759E+02  0.60579486426E+00  0.66780614735E+01  0.12040808601E+02  0.10566000000E+00 0. -1.
        996    1    1    2    0    0 -0.10000320759E+02 -0.60579486426E+00  0.83468322809E+02  0.97812751292E+02  0.50000000000E+02 0.  0.
<mgrwt>
<rscale>  0 0.50993857E+02</rscale>
<asrwt>0</asrwt>
<pdfrwt beam="1">  1       13 0.10000000E+01 0.50993857E+02</pdfrwt>
<pdfrwt beam="2">  1       22 0.98535851E-01 0.50993857E+02</pdfrwt>
<totfact> 0.14366550E+00</totfact>
</mgrwt>
</event>
<event>
 4    1  0.2503484E+000  0.5101612E+02  0.7957747E-01  0.1439937E+00
         13   -1    0    0    0    0  0.00000000000E+00  0.00000000000E+00  0.99999944182E+02  0.10000000000E+03  0.10566000000E+00 0. -1.
         22   -1    0    0    0    0 -0.00000000000E+00 -0.00000000000E+00 -0.11036971917E+02  0.11036971917E+02  0.00000000000E+00 0. -1.
         13    1    1    2    0    0  0.37038360397E+01  0.94300762770E+01  0.21711732845E+01  0.10361944676E+02  0.10566000000E+00 0.  1.
        996    1    1    2    0    0 -0.37038360397E+01 -0.94300762770E+01  0.86791798981E+02  0.10067502724E+03  0.50000000000E+02 0.  0.
<mgrwt>
<rscale>  0 0.51016122E+02</rscale>
<asrwt>0</asrwt>
<pdfrwt beam="1">  1       13 0.10000000E+01 0.51016122E+02</pdfrwt>
<pdfrwt beam="2">  1       22 0.11036997E+00 0.51016122E+02</pdfrwt>
<totfact> 0.12168229E+00</totfact>
</mgrwt>
</event>
<event>
 4    1  0.2503484E+000  0.8127405E+02  0.7957747E-01  0.1325474E+00
         13   -1    0    0    0    0  0.00000000000E+00  0.00000000000E+00  0.99999944174E+02  0.99999999994E+02  0.10566000000E+00 0.  1.
         22   -1    0    0    0    0 -0.00000000000E+00 -0.00000000000E+00 -0.68134869856E+02  0.68134869856E+02  0.00000000000E+00 0. -1.
         13    1    1    2    0    0 -0.48205818423E+02  0.42209839346E+02 -0.25174847123E+02  0.68842251264E+02  0.10566000000E+00 0. -1.
        996    1    1    2    0    0  0.48205818423E+02 -0.42209839346E+02  0.57039921441E+02  0.99292618585E+02  0.50000000000E+02 0.  0.
<mgrwt>
<rscale>  0 0.81274052E+02</rscale>
<asrwt>0</asrwt>
<pdfrwt beam="1">  1       13 0.10000000E+01 0.81274052E+02</pdfrwt>
<pdfrwt beam="2">  1       22 0.68134879E+00 0.81274052E+02</pdfrwt>
<totfact> 0.82975807E-02</totfact>
</mgrwt>
</event>
<event>
 4    1  0.2503484E+000  0.7894911E+02  0.7957747E-01  0.1332060E+00
         13   -1    0    0    0    0  0.00000000000E+00  0.00000000000E+00  0.99999944181E+02  0.10000000000E+03  0.10566000000E+00 0. -1.
         22   -1    0    0    0    0 -0.00000000000E+00 -0.00000000000E+00 -0.52438347422E+02  0.52438347422E+02  0.00000000000E+00 0.  1.
         13    1    1    2    0    0 -0.43166881091E+02 -0.43238658960E+02  0.16713719139E+01  0.61120912132E+02  0.10566000000E+00 0.  1.
        996    1    1    2    0    0  0.43166881091E+02  0.43238658960E+02  0.45890224845E+02  0.91317435291E+02  0.50000000000E+02 0.  0.
<mgrwt>
<rscale>  0 0.78949105E+02</rscale>
<asrwt>0</asrwt>
<pdfrwt beam="1">  1       13 0.10000000E+01 0.78949105E+02</pdfrwt>
<pdfrwt beam="2">  1       22 0.52438361E+00 0.78949105E+02</pdfrwt>
<totfact> 0.65416677E-02</totfact>
</mgrwt>
</event>
<event>
 4    1  0.2503484E+000  0.5555189E+02  0.7957747E-01  0.1417507E+00
         13   -1    0    0    0    0  0.00000000000E+00  0.00000000000E+00  0.99999944175E+02  0.99999999995E+02  0.10566000000E+00 0.  1.
         22   -1    0    0    0    0 -0.00000000000E+00 -0.00000000000E+00 -0.16397636380E+02  0.16397636380E+02  0.00000000000E+00 0. -1.
         13    1    1    2    0    0 -0.19382710363E+02 -0.14502532589E+02  0.16558230351E+02  0.29329150498E+02  0.10566000000E+00 0. -1.
        996    1    1    2    0    0  0.19382710363E+02  0.14502532589E+02  0.67044077445E+02  0.87068485877E+02  0.50000000000E+02 0.  0.
<mgrwt>
<rscale>  0 0.55551894E+02</rscale>
<asrwt>0</asrwt>
<pdfrwt beam="1">  1       13 0.10000000E+01 0.55551894E+02</pdfrwt>
<pdfrwt beam="2">  1       22 0.16397660E+00 0.55551894E+02</pdfrwt>
<totfact> 0.65173929E-01</totfact>
</mgrwt>
</event>
<event>
 4    1  0.2503484E+000  0.5323511E+02  0.7957747E-01  0.1428634E+00
         13   -1    0    0    0    0  0.00000000000E+00  0.00000000000E+00  0.99999944181E+02  0.10000000000E+03  0.10566000000E+00 0. -1.
         22   -1    0    0    0    0 -0.00000000000E+00 -0.00000000000E+00 -0.18508838016E+02  0.18508838016E+02  0.00000000000E+00 0.  1.
         13    1    1    2    0    0  0.96787980042E+01 -0.15501527999E+02 -0.31239636480E+01  0.18540410298E+02  0.10566000000E+00 0.  1.
        996    1    1    2    0    0 -0.96787980042E+01  0.15501527999E+02  0.84615069813E+02  0.99968427719E+02  0.50000000000E+02 0.  0.
<mgrwt>
<rscale>  0 0.53235106E+02</rscale>
<asrwt>0</asrwt>
<pdfrwt beam="1">  1       13 0.10000000E+01 0.53235106E+02</pdfrwt>
<pdfrwt beam="2">  1       22 0.18508861E+00 0.53235106E+02</pdfrwt>
<totfact> 0.52366610E-01</totfact>
</mgrwt>
</event>
<event>
 4    1  0.2503484E+000  0.5219804E+02  0.7957747E-01  0.1433834E+00
         13   -1    0    0    0    0  0.00000000000E+00  0.00000000000E+00  0.99999944172E+02  0.99999999992E+02  0.10566000000E+00 0.  1.
         22   -1    0    0    0    0 -0.00000000000E+00 -0.00000000000E+00 -0.57292152901E+02  0.57292152901E+02  0.00000000000E+00 0. -1.
         13    1    1    2    0    0  0.93571165566E+01  0.11708103736E+02 -0.49289605357E+02  0.51518071428E+02  0.10566000000E+00 0. -1.
        996    1    1    2    0    0 -0.93571165566E+01 -0.11708103736E+02  0.91997396628E+02  0.10577408146E+03  0.50000000000E+02 0.  0.
<mgrwt>
<rscale>  0 0.52198039E+02</rscale>
<asrwt>0</asrwt>
<pdfrwt beam="1">  1       13 0.10000000E+01 0.52198039E+02</pdfrwt>
<pdfrwt beam="2">  1       22 0.57292165E+00 0.52198039E+02</pdfrwt>
<totfact> 0.57803354E-02</totfact>
</mgrwt>
</event>
<event>
 4    1  0.2503484E+000  0.5501932E+02  0.7957747E-01  0.1420008E+00
         13   -1    0    0    0    0  0.00000000000E+00  0.00000000000E+00  0.99999944172E+02  0.99999999992E+02  0.10566000000E+00 0. -1.
         22   -1    0    0    0    0 -0.00000000000E+00 -0.00000000000E+00 -0.15312924439E+02  0.15312924439E+02  0.00000000000E+00 0. -1.
         13    1    1    2    0    0  0.22598289380E+02 -0.40549239115E+01  0.29543735046E+02  0.37416153401E+02  0.10566000000E+00 0.  1.
        996    1    1    2    0    0 -0.22598289380E+02  0.40549239115E+01  0.55143284687E+02  0.77896771030E+02  0.50000000000E+02 0.  0.
<mgrwt>
<rscale>  0 0.55019316E+02</rscale>
<asrwt>0</asrwt>
<pdfrwt beam="1">  1       13 0.10000000E+01 0.55019316E+02</pdfrwt>
<pdfrwt beam="2">  1       22 0.15312948E+00 0.55019316E+02</pdfrwt>
<totfact> 0.73170358E-01</totfact>
</mgrwt>
</event>
<event>
 4    1  0.2503484E+000  0.5156748E+02  0.7957747E-01  0.1437066E+00
         13   -1    0    0    0    0  0.00000000000E+00  0.00000000000E+00  0.99999944180E+02  0.10000000000E+03  0.10566000000E+00 0.  1.
         22   -1    0    0    0    0 -0.00000000000E+00 -0.00000000000E+00 -0.34356714639E+02  0.34356714639E+02  0.00000000000E+00 0. -1.
         13    1    1    2    0    0 -0.32627912199E+01  0.12188496104E+02 -0.26169912009E+02  0.29053067006E+02  0.10566000000E+00 0. -1.
        996    1    1    2    0    0  0.32627912199E+01 -0.12188496104E+02  0.91813141550E+02  0.10530364763E+03  0.50000000000E+02 0.  0.
<mgrwt>
<rscale>  0 0.51567482E+02</rscale>
<asrwt>0</asrwt>
<pdfrwt beam="1">  1       13 0.10000000E+01 0.51567482E+02</pdfrwt>
<pdfrwt beam="2">  1       22 0.34356733E+00 0.51567482E+02</pdfrwt>
<totfact> 0.16223394E-01</totfact>
</mgrwt>
</event>
<event>
 4    1  0.2503484E+000  0.5226548E+02  0.7957747E-01  0.1433492E+00
         13   -1    0    0    0    0  0.00000000000E+00  0.00000000000E+00  0.99999944175E+02  0.99999999996E+02  0.10566000000E+00 0. -1.
         22   -1    0    0    0    0 -0.00000000000E+00 -0.00000000000E+00 -0.12471140613E+02  0.12471140613E+02  0.00000000000E+00 0.  1.
         13    1    1    2    0    0 -0.10416172683E+02 -0.11098820619E+02  0.77093375564E+01  0.17062400830E+02  0.10566000000E+00 0.  1.
        996    1    1    2    0    0  0.10416172683E+02  0.11098820619E+02  0.79819466007E+02  0.95408739778E+02  0.50000000000E+02 0.  0.
<mgrwt>
<rscale>  0 0.52265481E+02</rscale>
<asrwt>0</asrwt>
<pdfrwt beam="1">  1       13 0.10000000E+01 0.52265481E+02</pdfrwt>
<pdfrwt beam="2">  1       22 0.12471165E+00 0.52265481E+02</pdfrwt>
<totfact> 0.10135549E+00</totfact>
</mgrwt>
</event>
<event>
 4    1  0.2503484E+000  0.5118776E+02  0.7957747E-01  0.1439038E+00
         13   -1    0    0    0    0  0.00000000000E+00  0.00000000000E+00  0.99999944181E+02  0.10000000000E+03  0.10566000000E+00 0.  1.
         22   -1    0    0    0    0 -0.00000000000E+00 -0.00000000000E+00 -0.10429514587E+02  0.10429514587E+02  0.00000000000E+00 0.  1.
         13    1    1    2    0    0 -0.49982971389E+01  0.97572603481E+01  0.61894506205E+01  0.12589978825E+02  0.10566000000E+00 0. -1.
        996    1    1    2    0    0  0.49982971389E+01 -0.97572603481E+01  0.83380978974E+02  0.97839535764E+02  0.50000000000E+02 0.  0.
<mgrwt>
<rscale>  0 0.51187763E+02</rscale>
<asrwt>0</asrwt>
<pdfrwt beam="1">  1       13 0.10000000E+01 0.51187763E+02</pdfrwt>
<pdfrwt beam="2">  1       22 0.10429540E+00 0.51187763E+02</pdfrwt>
<totfact> 0.13234382E+00</totfact>
</mgrwt>
</event>
<event>
 4    1  0.2503484E+000  0.5146769E+02  0.7957747E-01  0.1437582E+00
         13   -1    0    0    0    0  0.00000000000E+00  0.00000000000E+00  0.99999944176E+02  0.99999999996E+02  0.10566000000E+00 0. -1.
         22   -1    0    0    0    0 -0.00000000000E+00 -0.00000000000E+00 -0.23245055827E+02  0.23245055827E+02  0.00000000000E+00 0. -1.
         13    1    1    2    0    0 -0.11722288443E+02  0.33928479372E+01 -0.14208845248E+02  0.18730347321E+02  0.10566000000E+00 0.  1.
        996    1    1    2    0    0  0.11722288443E+02 -0.33928479372E+01  0.90963733596E+02  0.10451470850E+03  0.50000000000E+02 0.  0.
<mgrwt>
<rscale>  0 0.51467693E+02</rscale>
<asrwt>0</asrwt>
<pdfrwt beam="1">  1       13 0.10000000E+01 0.51467693E+02</pdfrwt>
<pdfrwt beam="2">  1       22 0.23245077E+00 0.51467693E+02</pdfrwt>
<totfact> 0.33967660E-01</totfact>
</mgrwt>
</event>
<event>
 4    1  0.2503484E+000  0.5135040E+02  0.7957747E-01  0.1438191E+00
         13   -1    0    0    0    0  0.00000000000E+00  0.00000000000E+00  0.99999944185E+02  0.10000000001E+03  0.10566000000E+00 0. -1.
         22   -1    0    0    0    0 -0.00000000000E+00 -0.00000000000E+00 -0.21277013673E+02  0.21277013673E+02  0.00000000000E+00 0. -1.
         13    1    1    2    0    0 -0.58267488875E+01  0.10144575034E+02 -0.12170134759E+02  0.16881550560E+02  0.10566000000E+00 0.  1.
        996    1    1    2    0    0  0.58267488875E+01 -0.10144575034E+02  0.90893065272E+02  0.10439546312E+03  0.50000000000E+02 0.  0.
<mgrwt>
<rscale>  0 0.51350398E+02</rscale>
<asrwt>0</asrwt>
<pdfrwt beam="1">  1       13 0.10000000E+01 0.51350398E+02</pdfrwt>
<pdfrwt beam="2">  1       22 0.21277036E+00 0.51350398E+02</pdfrwt>
<totfact> 0.40272389E-01</totfact>
</mgrwt>
</event>
<event>
 4    1  0.2503484E+000  0.5208732E+02  0.7957747E-01  0.1434398E+00
         13   -1    0    0    0    0  0.00000000000E+00  0.00000000000E+00  0.99999944184E+02  0.10000000000E+03  0.10566000000E+00 0. -1.
         22   -1    0    0    0    0 -0.00000000000E+00 -0.00000000000E+00 -0.14896692562E+02  0.14896692562E+02  0.00000000000E+00 0.  1.
         13    1    1    2    0    0  0.57412080421E+01  0.13421149831E+02 -0.59571915197E+00  0.14610091646E+02  0.10566000000E+00 0.  1.
        996    1    1    2    0    0 -0.57412080421E+01 -0.13421149831E+02  0.85698970773E+02  0.10028660092E+03  0.50000000000E+02 0.  0.
<mgrwt>
<rscale>  0 0.52087318E+02</rscale>
<asrwt>0</asrwt>
<pdfrwt beam="1">  1       13 0.10000000E+01 0.52087318E+02</pdfrwt>
<pdfrwt beam="2">  1       22 0.14896716E+00 0.52087318E+02</pdfrwt>
<totfact> 0.76176276E-01</totfact>
</mgrwt>
</event>
<event>
 4    1  0.2503484E+000  0.5122365E+02  0.7957747E-01  0.1438851E+00
         13   -1    0    0    0    0  0.00000000000E+00  0.00000000000E+00  0.99999944187E+02  0.10000000001E+03  0.10566000000E+00 0. -1.
         22   -1    0    0    0    0 -0.00000000000E+00 -0.00000000000E+00 -0.21462985033E+02  0.21462985033E+02  0.00000000000E+00 0.  1.
         13    1    1    2    0    0  0.10738582172E+02 -0.29231902507E+01 -0.12665076019E+02  0.16860530920E+02  0.10566000000E+00 0.  1.
        996    1    1    2    0    0 -0.10738582172E+02  0.29231902507E+01  0.91202035173E+02  0.10460245412E+03  0.50000000000E+02 0.  0.
<mgrwt>
<rscale>  0 0.51223649E+02</rscale>
<asrwt>0</asrwt>
<pdfrwt beam="1">  1       13 0.10000000E+01 0.51223649E+02</pdfrwt>
<pdfrwt beam="2">  1       22 0.21463007E+00 0.51223649E+02</pdfrwt>
<totfact> 0.39601138E-01</totfact>
</mgrwt>
</event>
<event>
 4    1  0.2503484E+000  0.5294624E+02  0.7957747E-01  0.1430069E+00
         13   -1    0    0    0    0  0.00000000000E+00  0.00000000000E+00  0.99999944178E+02  0.99999999998E+02  0.10566000000E+00 0.  1.
         22   -1    0    0    0    0 -0.00000000000E+00 -0.00000000000E+00 -0.12564768718E+02  0.12564768718E+02  0.00000000000E+00 0.  1.
         13    1    1    2    0    0 -0.17415349430E+02 -0.99736249280E-01  0.27924287861E+02  0.32910201453E+02  0.10566000000E+00 0. -1.
        996    1    1    2    0    0  0.17415349430E+02  0.99736249280E-01  0.59510887598E+02  0.79654567263E+02  0.50000000000E+02 0.  0.
<mgrwt>
<rscale>  0 0.52946240E+02</rscale>
<asrwt>0</asrwt>
<pdfrwt beam="1">  1       13 0.10000000E+01 0.52946240E+02</pdfrwt>
<pdfrwt beam="2">  1       22 0.12564793E+00 0.52946240E+02</pdfrwt>
<totfact> 0.10033174E+00</totfact>
</mgrwt>
</event>
<event>
 4    1  0.2503484E+000  0.5241618E+02  0.7957747E-01  0.1432729E+00
         13   -1    0    0    0    0  0.00000000000E+00  0.00000000000E+00  0.99999944183E+02  0.10000000000E+03  0.10566000000E+00 0. -1.
         22   -1    0    0    0    0 -0.00000000000E+00 -0.00000000000E+00 -0.30512666260E+02  0.30512666260E+02  0.00000000000E+00 0.  1.
         13    1    1    2    0    0 -0.13026223537E+02  0.88189457839E+01 -0.20820647734E+02  0.26095341355E+02  0.10566000000E+00 0.  1.
        996    1    1    2    0    0  0.13026223537E+02 -0.88189457839E+01  0.90307925657E+02  0.10441732491E+03  0.50000000000E+02 0.  0.
<mgrwt>
<rscale>  0 0.52416184E+02</rscale>
<asrwt>0</asrwt>
<pdfrwt beam="1">  1       13 0.10000000E+01 0.52416184E+02</pdfrwt>
<pdfrwt beam="2">  1       22 0.30512686E+00 0.52416184E+02</pdfrwt>
<totfact> 0.20072316E-01</totfact>
</mgrwt>
</event>
<event>
 4    1  0.2503484E+000  0.5246193E+02  0.7957747E-01  0.1432498E+00
         13   -1    0    0    0    0  0.00000000000E+00  0.00000000000E+00  0.99999944177E+02  0.99999999997E+02  0.10566000000E+00 0. -1.
         22   -1    0    0    0    0 -0.00000000000E+00 -0.00000000000E+00 -0.14616969712E+02  0.14616969712E+02  0.00000000000E+00 0.  1.
         13    1    1    2    0    0 -0.45193276411E+00  0.15876068116E+02  0.18692755165E+01  0.15992471261E+02  0.10566000000E+00 0.  1.
        996    1    1    2    0    0  0.45193276411E+00 -0.15876068116E+02  0.83513698949E+02  0.98624498448E+02  0.50000000000E+02 0.  0.
<mgrwt>
<rscale>  0 0.52461927E+02</rscale>
<asrwt>0</asrwt>
<pdfrwt beam="1">  1       13 0.10000000E+01 0.52461927E+02</pdfrwt>
<pdfrwt beam="2">  1       22 0.14616994E+00 0.52461927E+02</pdfrwt>
<totfact> 0.78663528E-01</totfact>
</mgrwt>
</event>
<event>
 4    1  0.2503484E+000  0.5410027E+02  0.7957747E-01  0.1424402E+00
         13   -1    0    0    0    0  0.00000000000E+00  0.00000000000E+00  0.99999944179E+02  0.99999999999E+02  0.10566000000E+00 0. -1.
         22   -1    0    0    0    0 -0.00000000000E+00 -0.00000000000E+00 -0.15608581270E+02  0.15608581270E+02  0.00000000000E+00 0. -1.
         13    1    1    2    0    0 -0.18407927304E+02  0.93801500176E+01  0.83455417543E+01  0.22282240309E+02  0.10566000000E+00 0.  1.
        996    1    1    2    0    0  0.18407927304E+02 -0.93801500176E+01  0.76045821154E+02  0.93326340960E+02  0.50000000000E+02 0.  0.
<mgrwt>
<rscale>  0 0.54100268E+02</rscale>
<asrwt>0</asrwt>
<pdfrwt beam="1">  1       13 0.10000000E+01 0.54100268E+02</pdfrwt>
<pdfrwt beam="2">  1       22 0.15608605E+00 0.54100268E+02</pdfrwt>
<totfact> 0.70721965E-01</totfact>
</mgrwt>
</event>
<event>
 4    1  0.2503484E+000  0.5421631E+02  0.7957747E-01  0.1423842E+00
         13   -1    0    0    0    0  0.00000000000E+00  0.00000000000E+00  0.99999944176E+02  0.99999999996E+02  0.10566000000E+00 0.  1.
         22   -1    0    0    0    0 -0.00000000000E+00 -0.00000000000E+00 -0.20026456495E+02  0.20026456495E+02  0.00000000000E+00 0. -1.
         13    1    1    2    0    0  0.13134122909E+02 -0.16337156661E+02 -0.27267838240E+01  0.21138930588E+02  0.10566000000E+00 0. -1.
        996    1    1    2    0    0 -0.13134122909E+02  0.16337156661E+02  0.82700271504E+02  0.98887525903E+02  0.50000000000E+02 0.  0.
<mgrwt>
<rscale>  0 0.54216306E+02</rscale>
<asrwt>0</asrwt>
<pdfrwt beam="1">  1       13 0.10000000E+01 0.54216306E+02</pdfrwt>
<pdfrwt beam="2">  1       22 0.20026479E+00 0.54216306E+02</pdfrwt>
<totfact> 0.45372370E-01</totfact>
</mgrwt>
</event>
<event>
 4    1  0.2503484E+000  0.5140750E+02  0.7957747E-01  0.1437894E+00
         13   -1    0    0    0    0  0.00000000000E+00  0.00000000000E+00  0.99999944180E+02  0.10000000000E+03  0.10566000000E+00 0.  1.
         22   -1    0    0    0    0 -0.00000000000E+00 -0.00000000000E+00 -0.11094037020E+02  0.11094037020E+02  0.00000000000E+00 0.  1.
         13    1    1    2    0    0 -0.11561027200E+02  0.30123187000E+01  0.55801998005E+01  0.13186402380E+02  0.10566000000E+00 0. -1.
        996    1    1    2    0    0  0.11561027200E+02 -0.30123187000E+01  0.83325707359E+02  0.97907634640E+02  0.50000000000E+02 0.  0.
<mgrwt>
<rscale>  0 0.51407503E+02</rscale>
<asrwt>0</asrwt>
<pdfrwt beam="1">  1       13 0.10000000E+01 0.51407503E+02</pdfrwt>
<pdfrwt beam="2">  1       22 0.11094062E+00 0.51407503E+02</pdfrwt>
<totfact> 0.12086171E+00</totfact>
</mgrwt>
</event>
<event>
 4    1  0.2503484E+000  0.5849731E+02  0.7957747E-01  0.1404248E+00
         13   -1    0    0    0    0  0.00000000000E+00  0.00000000000E+00  0.99999944178E+02  0.99999999998E+02  0.10566000000E+00 0.  1.
         22   -1    0    0    0    0 -0.00000000000E+00 -0.00000000000E+00 -0.27781207733E+02  0.27781207733E+02  0.00000000000E+00 0. -1.
         13    1    1    2    0    0 -0.18754030933E+02 -0.23879323188E+02 -0.51394976125E+01  0.30795476159E+02  0.10566000000E+00 0. -1.
        996    1    1    2    0    0  0.18754030933E+02  0.23879323188E+02  0.77358234057E+02  0.96985731572E+02  0.50000000000E+02 0.  0.
<mgrwt>
<rscale>  0 0.58497314E+02</rscale>
<asrwt>0</asrwt>
<pdfrwt beam="1">  1       13 0.10000000E+01 0.58497314E+02</pdfrwt>
<pdfrwt beam="2">  1       22 0.27781228E+00 0.58497314E+02</pdfrwt>
<totfact> 0.24183268E-01</totfact>
</mgrwt>
</event>
<event>
 4    1  0.2503484E+000  0.5226615E+02  0.7957747E-01  0.1433488E+00
         13   -1    0    0    0    0  0.00000000000E+00  0.00000000000E+00  0.99999944175E+02  0.99999999995E+02  0.10566000000E+00 0.  1.
         22   -1    0    0    0    0 -0.00000000000E+00 -0.00000000000E+00 -0.18315374187E+02  0.18315374187E+02  0.00000000000E+00 0.  1.
         13    1    1    2    0    0  0.15149875396E+02 -0.14939884120E+01 -0.58952374323E+01  0.16325309011E+02  0.10566000000E+00 0. -1.
        996    1    1    2    0    0 -0.15149875396E+02  0.14939884120E+01  0.87579807421E+02  0.10199006517E+03  0.50000000000E+02 0.  0.
<mgrwt>
<rscale>  0 0.52266153E+02</rscale>
<asrwt>0</asrwt>
<pdfrwt beam="1">  1       13 0.10000000E+01 0.52266153E+02</pdfrwt>
<pdfrwt beam="2">  1       22 0.18315397E+00 0.52266153E+02</pdfrwt>
<totfact> 0.53276690E-01</totfact>
</mgrwt>
</event>
<event>
 4    1  0.2503484E+000  0.5431354E+02  0.7957747E-01  0.1423373E+00
         13   -1    0    0    0    0  0.00000000000E+00  0.00000000000E+00  0.99999944183E+02  0.10000000000E+03  0.10566000000E+00 0.  1.
         22   -1    0    0    0    0 -0.00000000000E+00 -0.00000000000E+00 -0.62693241991E+02  0.62693241991E+02  0.00000000000E+00 0. -1.
         13    1    1    2    0    0  0.15570542792E+02 -0.14405501917E+02 -0.53125633667E+02  0.57204059339E+02  0.10566000000E+00 0. -1.
        996    1    1    2    0    0 -0.15570542792E+02  0.14405501917E+02  0.90432335858E+02  0.10548918265E+03  0.50000000000E+02 0.  0.
<mgrwt>
<rscale>  0 0.54313537E+02</rscale>
<asrwt>0</asrwt>
<pdfrwt beam="1">  1       13 0.10000000E+01 0.54313537E+02</pdfrwt>
<pdfrwt beam="2">  1       22 0.62693252E+00 0.54313537E+02</pdfrwt>
<totfact> 0.76987979E-02</totfact>
</mgrwt>
</event>
<event>
 4    1  0.2503484E+000  0.5370088E+02  0.7957747E-01  0.1426344E+00
         13   -1    0    0    0    0  0.00000000000E+00  0.00000000000E+00  0.99999944173E+02  0.99999999993E+02  0.10566000000E+00 0.  1.
         22   -1    0    0    0    0 -0.00000000000E+00 -0.00000000000E+00 -0.42572646902E+02  0.42572646902E+02  0.00000000000E+00 0. -1.
         13    1    1    2    0    0  0.96554299611E+01  0.17045743670E+02 -0.32432106557E+02  0.37889806079E+02  0.10566000000E+00 0. -1.
        996    1    1    2    0    0 -0.96554299611E+01 -0.17045743670E+02  0.89859403828E+02  0.10468284082E+03  0.50000000000E+02 0.  0.
<mgrwt>
<rscale>  0 0.53700882E+02</rscale>
<asrwt>0</asrwt>
<pdfrwt beam="1">  1       13 0.10000000E+01 0.53700882E+02</pdfrwt>
<pdfrwt beam="2">  1       22 0.42572663E+00 0.53700882E+02</pdfrwt>
<totfact> 0.10936955E-01</totfact>
</mgrwt>
</event>
<event>
 4    1  0.2503484E+000  0.6521385E+02  0.7957747E-01  0.1377169E+00
         13   -1    0    0    0    0  0.00000000000E+00  0.00000000000E+00  0.99999944179E+02  0.99999999999E+02  0.10566000000E+00 0.  1.
         22   -1    0    0    0    0 -0.00000000000E+00 -0.00000000000E+00 -0.41138238704E+02  0.41138238704E+02  0.00000000000E+00 0. -1.
         13    1    1    2    0    0  0.15152593361E+02  0.39028780615E+02 -0.13248273114E+02  0.43913263445E+02  0.10566000000E+00 0. -1.
        996    1    1    2    0    0 -0.15152593361E+02 -0.39028780615E+02  0.72109978589E+02  0.97224975258E+02  0.50000000000E+02 0.  0.
<mgrwt>
<rscale>  0 0.65213854E+02</rscale>
<asrwt>0</asrwt>
<pdfrwt beam="1">  1       13 0.10000000E+01 0.65213854E+02</pdfrwt>
<pdfrwt beam="2">  1       22 0.41138255E+00 0.65213854E+02</pdfrwt>
<totfact> 0.11815797E-01</totfact>
</mgrwt>
</event>
<event>
 4    1  0.2503484E+000  0.5194706E+02  0.7957747E-01  0.1435114E+00
         13   -1    0    0    0    0  0.00000000000E+00  0.00000000000E+00  0.99999944178E+02  0.99999999998E+02  0.10566000000E+00 0. -1.
         22   -1    0    0    0    0 -0.00000000000E+00 -0.00000000000E+00 -0.21615692408E+02  0.21615692408E+02  0.00000000000E+00 0.  1.
         13    1    1    2    0    0 -0.50138190977E+01  0.13166575099E+02 -0.11241111331E+02  0.18024173484E+02  0.10566000000E+00 0.  1.
        996    1    1    2    0    0  0.50138190977E+01 -0.13166575099E+02  0.89625363101E+02  0.10359151892E+03  0.50000000000E+02 0.  0.
<mgrwt>
<rscale>  0 0.51947060E+02</rscale>
<asrwt>0</asrwt>
<pdfrwt beam="1">  1       13 0.10000000E+01 0.51947060E+02</pdfrwt>
<pdfrwt beam="2">  1       22 0.21615714E+00 0.51947060E+02</pdfrwt>
<totfact> 0.39117560E-01</totfact>
</mgrwt>
</event>
<event>
 4    1  0.2503484E+000  0.6199645E+02  0.7957747E-01  0.1389640E+00
         13   -1    0    0    0    0  0.00000000000E+00  0.00000000000E+00  0.99999944177E+02  0.99999999998E+02  0.10566000000E+00 0.  1.
         22   -1    0    0    0    0 -0.00000000000E+00 -0.00000000000E+00 -0.46326176886E+02  0.46326176886E+02  0.00000000000E+00 0. -1.
         13    1    1    2    0    0 -0.36652598394E+02 -0.38272454462E+00 -0.26316438115E+02  0.45123447632E+02  0.10566000000E+00 0. -1.
        996    1    1    2    0    0  0.36652598394E+02  0.38272454462E+00  0.79990205406E+02  0.10120272925E+03  0.50000000000E+02 0.  0.
<mgrwt>
<rscale>  0 0.61996447E+02</rscale>
<asrwt>0</asrwt>
<pdfrwt beam="1">  1       13 0.10000000E+01 0.61996447E+02</pdfrwt>
<pdfrwt beam="2">  1       22 0.46326192E+00 0.61996447E+02</pdfrwt>
<totfact> 0.90545735E-02</totfact>
</mgrwt>
</event>
<event>
 4    1  0.2503484E+000  0.5604178E+02  0.7957747E-01  0.1415236E+00
         13   -1    0    0    0    0  0.00000000000E+00  0.00000000000E+00  0.99999944179E+02  0.99999999999E+02  0.10566000000E+00 0. -1.
         22   -1    0    0    0    0 -0.00000000000E+00 -0.00000000000E+00 -0.16870896125E+02  0.16870896125E+02  0.00000000000E+00 0.  1.
         13    1    1    2    0    0  0.22176507384E+02  0.12201783750E+02  0.18646459569E+02  0.31438553162E+02  0.10566000000E+00 0.  1.
        996    1    1    2    0    0 -0.22176507384E+02 -0.12201783750E+02  0.64482588484E+02  0.85432342963E+02  0.50000000000E+02 0.  0.
<mgrwt>
<rscale>  0 0.56041779E+02</rscale>
<asrwt>0</asrwt>
<pdfrwt beam="1">  1       13 0.10000000E+01 0.56041779E+02</pdfrwt>
<pdfrwt beam="2">  1       22 0.16870919E+00 0.56041779E+02</pdfrwt>
<totfact> 0.62081221E-01</totfact>
</mgrwt>
</event>
<event>
 4    1  0.2503484E+000  0.5367219E+02  0.7957747E-01  0.1426485E+00
         13   -1    0    0    0    0  0.00000000000E+00  0.00000000000E+00  0.99999944183E+02  0.10000000000E+03  0.10566000000E+00 0. -1.
         22   -1    0    0    0    0 -0.00000000000E+00 -0.00000000000E+00 -0.13464203939E+02  0.13464203939E+02  0.00000000000E+00 0.  1.
         13    1    1    2    0    0  0.18236110038E+02 -0.69388830479E+01  0.19449735686E+02  0.27550085110E+02  0.10566000000E+00 0.  1.
        996    1    1    2    0    0 -0.18236110038E+02  0.69388830479E+01  0.67086004558E+02  0.85914118833E+02  0.50000000000E+02 0.  0.
<mgrwt>
<rscale>  0 0.53672188E+02</rscale>
<asrwt>0</asrwt>
<pdfrwt beam="1">  1       13 0.10000000E+01 0.53672188E+02</pdfrwt>
<pdfrwt beam="2">  1       22 0.13464228E+00 0.53672188E+02</pdfrwt>
<totfact> 0.90105329E-01</totfact>
</mgrwt>
</event>
<event>
 4    1  0.2503484E+000  0.5128963E+02  0.7957747E-01  0.1438507E+00
         13   -1    0    0    0    0  0.00000000000E+00  0.00000000000E+00  0.99999944178E+02  0.99999999999E+02  0.10566000000E+00 0. -1.
         22   -1    0    0    0    0 -0.00000000000E+00 -0.00000000000E+00 -0.13786225931E+02  0.13786225931E+02  0.00000000000E+00 0. -1.
         13    1    1    2    0    0  0.25942712676E+01 -0.11130874794E+02 -0.21364321834E+01  0.11627644800E+02  0.10566000000E+00 0.  1.
        996    1    1    2    0    0 -0.25942712676E+01  0.11130874794E+02  0.88350150431E+02  0.10215858113E+03  0.50000000000E+02 0.  0.
<mgrwt>
<rscale>  0 0.51289635E+02</rscale>
<asrwt>0</asrwt>
<pdfrwt beam="1">  1       13 0.10000000E+01 0.51289635E+02</pdfrwt>
<pdfrwt beam="2">  1       22 0.13786250E+00 0.51289635E+02</pdfrwt>
<totfact> 0.86319805E-01</totfact>
</mgrwt>
</event>
<event>
 4    1  0.2503484E+000  0.5115252E+02  0.7957747E-01  0.1439222E+00
         13   -1    0    0    0    0  0.00000000000E+00  0.00000000000E+00  0.99999944181E+02  0.10000000000E+03  0.10566000000E+00 0.  1.
         22   -1    0    0    0    0 -0.00000000000E+00 -0.00000000000E+00 -0.25023046387E+02  0.25023046387E+02  0.00000000000E+00 0. -1.
         13    1    1    2    0    0 -0.86775393588E+01  0.64249886849E+01 -0.16790017056E+02  0.19962364733E+02  0.10566000000E+00 0. -1.
        996    1    1    2    0    0  0.86775393588E+01 -0.64249886849E+01  0.91766914851E+02  0.10506068166E+03  0.50000000000E+02 0.  0.
<mgrwt>
<rscale>  0 0.51152519E+02</rscale>
<asrwt>0</asrwt>
<pdfrwt beam="1">  1       13 0.10000000E+01 0.51152519E+02</pdfrwt>
<pdfrwt beam="2">  1       22 0.25023067E+00 0.51152519E+02</pdfrwt>
<totfact> 0.29386496E-01</totfact>
</mgrwt>
</event>
<event>
 4    1  0.2503484E+000  0.5226197E+02  0.7957747E-01  0.1433509E+00
         13   -1    0    0    0    0  0.00000000000E+00  0.00000000000E+00  0.99999944173E+02  0.99999999994E+02  0.10566000000E+00 0.  1.
         22   -1    0    0    0    0 -0.00000000000E+00 -0.00000000000E+00 -0.69246736975E+02  0.69246736975E+02  0.00000000000E+00 0. -1.
         13    1    1    2    0    0  0.11846862508E+02 -0.95375924861E+01 -0.61427097814E+02  0.63282014282E+02  0.10566000000E+00 0. -1.
        996    1    1    2    0    0 -0.11846862508E+02  0.95375924861E+01  0.92180305013E+02  0.10596472269E+03  0.50000000000E+02 0.  0.
<mgrwt>
<rscale>  0 0.52261973E+02</rscale>
<asrwt>0</asrwt>
<pdfrwt beam="1">  1       13 0.10000000E+01 0.52261973E+02</pdfrwt>
<pdfrwt beam="2">  1       22 0.69246746E+00 0.52261973E+02</pdfrwt>
<totfact> 0.78332098E-02</totfact>
</mgrwt>
</event>
<event>
 4    1  0.2503484E+000  0.5271793E+02  0.7957747E-01  0.1431210E+00
         13   -1    0    0    0    0  0.00000000000E+00  0.00000000000E+00  0.99999944171E+02  0.99999999991E+02  0.10566000000E+00 0.  1.
         22   -1    0    0    0    0 -0.00000000000E+00 -0.00000000000E+00 -0.18866407612E+02  0.18866407612E+02  0.00000000000E+00 0.  1.
         13    1    1    2    0    0 -0.15459658729E+02  0.63387253371E+01 -0.53820033114E+01  0.17554418549E+02  0.10566000000E+00 0. -1.
        996    1    1    2    0    0  0.15459658729E+02 -0.63387253371E+01  0.86515539871E+02  0.10131198905E+03  0.50000000000E+02 0.  0.
<mgrwt>
<rscale>  0 0.52717933E+02</rscale>
<asrwt>0</asrwt>
<pdfrwt beam="1">  1       13 0.10000000E+01 0.52717933E+02</pdfrwt>
<pdfrwt beam="2">  1       22 0.18866430E+00 0.52717933E+02</pdfrwt>
<totfact> 0.50526668E-01</totfact>
</mgrwt>
</event>
<event>
 4    1  0.2503484E+000  0.5490816E+02  0.7957747E-01  0.1420534E+00
         13   -1    0    0    0    0  0.00000000000E+00  0.00000000000E+00  0.99999944183E+02  0.10000000000E+03  0.10566000000E+00 0.  1.
         22   -1    0    0    0    0 -0.00000000000E+00 -0.00000000000E+00 -0.21664413236E+02  0.21664413236E+02  0.00000000000E+00 0.  1.
         13    1    1    2    0    0 -0.22680381782E+02 -0.71134501413E+00 -0.36571547617E+01  0.22984596461E+02  0.10566000000E+00 0. -1.
        996    1    1    2    0    0  0.22680381782E+02  0.71134501413E+00  0.81992685709E+02  0.98679816778E+02  0.50000000000E+02 0.  0.
<mgrwt>
<rscale>  0 0.54908157E+02</rscale>
<asrwt>0</asrwt>
<pdfrwt beam="1">  1       13 0.10000000E+01 0.54908157E+02</pdfrwt>
<pdfrwt beam="2">  1       22 0.21664435E+00 0.54908157E+02</pdfrwt>
<totfact> 0.39142734E-01</totfact>
</mgrwt>
</event>
<event>
 4    1  0.2503484E+000  0.5099646E+02  0.7957747E-01  0.1440040E+00
         13   -1    0    0    0    0  0.00000000000E+00  0.00000000000E+00  0.99999944173E+02  0.99999999993E+02  0.10566000000E+00 0.  1.
         22   -1    0    0    0    0 -0.00000000000E+00 -0.00000000000E+00 -0.10815516203E+02  0.10815516203E+02  0.00000000000E+00 0.  1.
         13    1    1    2    0    0 -0.99768124614E+01 -0.10498715103E+01  0.26570606068E+01  0.10378350167E+02  0.10566000000E+00 0. -1.
        996    1    1    2    0    0  0.99768124614E+01  0.10498715103E+01  0.86527367364E+02  0.10043716603E+03  0.50000000000E+02 0.  0.
<mgrwt>
<rscale>  0 0.50996461E+02</rscale>
<asrwt>0</asrwt>
<pdfrwt beam="1">  1       13 0.10000000E+01 0.50996461E+02</pdfrwt>
<pdfrwt beam="2">  1       22 0.10815541E+00 0.50996461E+02</pdfrwt>
<totfact> 0.12539244E+00</totfact>
</mgrwt>
</event>
<event>
 4    1  0.2503484E+000  0.5953150E+02  0.7957747E-01  0.1399808E+00
         13   -1    0    0    0    0  0.00000000000E+00  0.00000000000E+00  0.99999944167E+02  0.99999999987E+02  0.10566000000E+00 0.  1.
         22   -1    0    0    0    0 -0.00000000000E+00 -0.00000000000E+00 -0.21785779715E+02  0.21785779715E+02  0.00000000000E+00 0.  1.
         13    1    1    2    0    0 -0.29171831755E+02 -0.13892585401E+02  0.38314661853E+02  0.50120097506E+02  0.10566000000E+00 0. -1.
        996    1    1    2    0    0  0.29171831755E+02  0.13892585401E+02  0.39899502599E+02  0.71665682196E+02  0.50000000000E+02 0.  0.
<mgrwt>
<rscale>  0 0.59531502E+02</rscale>
<asrwt>0</asrwt>
<pdfrwt beam="1">  1       13 0.10000000E+01 0.59531502E+02</pdfrwt>
<pdfrwt beam="2">  1       22 0.21785802E+00 0.59531502E+02</pdfrwt>
<totfact> 0.39003518E-01</totfact>
</mgrwt>
</event>
<event>
 4    1  0.2503484E+000  0.5406749E+02  0.7957747E-01  0.1424561E+00
         13   -1    0    0    0    0  0.00000000000E+00  0.00000000000E+00  0.99999944173E+02  0.99999999994E+02  0.10566000000E+00 0. -1.
         22   -1    0    0    0    0 -0.00000000000E+00 -0.00000000000E+00 -0.14205340088E+02  0.14205340088E+02  0.00000000000E+00 0. -1.
         13    1    1    2    0    0 -0.16720820110E+02 -0.11987799732E+02  0.16882054589E+02  0.26614058292E+02  0.10566000000E+00 0.  1.
        996    1    1    2    0    0  0.16720820110E+02  0.11987799732E+02  0.68912549496E+02  0.87591281790E+02  0.50000000000E+02 0.  0.
<mgrwt>
<rscale>  0 0.54067487E+02</rscale>
<asrwt>0</asrwt>
<pdfrwt beam="1">  1       13 0.10000000E+01 0.54067487E+02</pdfrwt>
<pdfrwt beam="2">  1       22 0.14205364E+00 0.54067487E+02</pdfrwt>
<totfact> 0.82704587E-01</totfact>
</mgrwt>
</event>
<event>
 4    1  0.2503484E+000  0.5100826E+02  0.7957747E-01  0.1439978E+00
         13   -1    0    0    0    0  0.00000000000E+00  0.00000000000E+00  0.99999944176E+02  0.99999999997E+02  0.10566000000E+00 0.  1.
         22   -1    0    0    0    0 -0.00000000000E+00 -0.00000000000E+00 -0.10066270222E+02  0.10066270222E+02  0.00000000000E+00 0.  1.
         13    1    1    2    0    0  0.47080947803E+01  0.89261738410E+01  0.56959940327E+01  0.11588712092E+02  0.10566000000E+00 0. -1.
        996    1    1    2    0    0 -0.47080947803E+01 -0.89261738410E+01  0.84237679922E+02  0.98477558126E+02  0.50000000000E+02 0.  0.
<mgrwt>
<rscale>  0 0.51008261E+02</rscale>
<asrwt>0</asrwt>
<pdfrwt beam="1">  1       13 0.10000000E+01 0.51008261E+02</pdfrwt>
<pdfrwt beam="2">  1       22 0.10066295E+00 0.51008261E+02</pdfrwt>
<totfact> 0.13930056E+00</totfact>
</mgrwt>
</event>
<event>
 4    1  0.2503484E+000  0.5127898E+02  0.7957747E-01  0.1438563E+00
         13   -1    0    0    0    0  0.00000000000E+00  0.00000000000E+00  0.99999944187E+02  0.10000000001E+03  0.10566000000E+00 0.  1.
         22   -1    0    0    0    0 -0.00000000000E+00 -0.00000000000E+00 -0.70283758740E+02  0.70283758740E+02  0.00000000000E+00 0. -1.
         13    1    1    2    0    0 -0.48454964860E+01 -0.10298310987E+02 -0.63167735634E+02  0.64184951776E+02  0.10566000000E+00 0. -1.
        996    1    1    2    0    0  0.48454964860E+01  0.10298310987E+02  0.92883921081E+02  0.10609880697E+03  0.50000000000E+02 0.  0.
<mgrwt>
<rscale>  0 0.51278982E+02</rscale>
<asrwt>0</asrwt>
<pdfrwt beam="1">  1       13 0.10000000E+01 0.51278982E+02</pdfrwt>
<pdfrwt beam="2">  1       22 0.70283767E+00 0.51278982E+02</pdfrwt>
<totfact> 0.73189134E-02</totfact>
</mgrwt>
</event>
<event>
 4    1  0.2503484E+000  0.5298276E+02  0.7957747E-01  0.1429887E+00
         13   -1    0    0    0    0  0.00000000000E+00  0.00000000000E+00  0.99999944173E+02  0.99999999994E+02  0.10566000000E+00 0.  1.
         22   -1    0    0    0    0 -0.00000000000E+00 -0.00000000000E+00 -0.37029608864E+02  0.37029608864E+02  0.00000000000E+00 0.  1.
         13    1    1    2    0    0 -0.13692483350E+02  0.10940222749E+02 -0.27251453293E+02  0.32401009933E+02  0.10566000000E+00 0. -1.
        996    1    1    2    0    0  0.13692483350E+02 -0.10940222749E+02  0.90221788603E+02  0.10462859892E+03  0.50000000000E+02 0.  0.
<mgrwt>
<rscale>  0 0.52982757E+02</rscale>
<asrwt>0</asrwt>
<pdfrwt beam="1">  1       13 0.10000000E+01 0.52982757E+02</pdfrwt>
<pdfrwt beam="2">  1       22 0.37029626E+00 0.52982757E+02</pdfrwt>
<totfact> 0.14249313E-01</totfact>
</mgrwt>
</event>
<event>
 4    1  0.2503484E+000  0.5887540E+02  0.7957747E-01  0.1402613E+00
         13   -1    0    0    0    0  0.00000000000E+00  0.00000000000E+00  0.99999944174E+02  0.99999999994E+02  0.10566000000E+00 0. -1.
         22   -1    0    0    0    0 -0.00000000000E+00 -0.00000000000E+00 -0.72376160738E+02  0.72376160738E+02  0.00000000000E+00 0.  1.
         13    1    1    2    0    0  0.24919173056E+02  0.18583544232E+02 -0.59554516402E+02  0.67179348686E+02  0.10566000000E+00 0.  1.
        996    1    1    2    0    0 -0.24919173056E+02 -0.18583544232E+02  0.87178299837E+02  0.10519681205E+03  0.50000000000E+02 0.  0.
<mgrwt>
<rscale>  0 0.58875405E+02</rscale>
<asrwt>0</asrwt>
<pdfrwt beam="1">  1       13 0.10000000E+01 0.58875405E+02</pdfrwt>
<pdfrwt beam="2">  1       22 0.72376168E+00 0.58875405E+02</pdfrwt>
<totfact> 0.62027460E-02</totfact>
</mgrwt>
</event>
<event>
 4    1  0.2503484E+000  0.5188423E+02  0.7957747E-01  0.1435436E+00
         13   -1    0    0    0    0  0.00000000000E+00  0.00000000000E+00  0.99999944184E+02  0.10000000000E+03  0.10566000000E+00 0.  1.
         22   -1    0    0    0    0 -0.00000000000E+00 -0.00000000000E+00 -0.19383341493E+02  0.19383341493E+02  0.00000000000E+00 0. -1.
         13    1    1    2    0    0  0.72161497768E+01 -0.11827950844E+02 -0.85057780967E+01  0.16258310608E+02  0.10566000000E+00 0. -1.
        996    1    1    2    0    0 -0.72161497768E+01  0.11827950844E+02  0.89122380788E+02  0.10312503089E+03  0.50000000000E+02 0.  0.
<mgrwt>
<rscale>  0 0.51884229E+02</rscale>
<asrwt>0</asrwt>
<pdfrwt beam="1">  1       13 0.10000000E+01 0.51884229E+02</pdfrwt>
<pdfrwt beam="2">  1       22 0.19383364E+00 0.51884229E+02</pdfrwt>
<totfact> 0.48007840E-01</totfact>
</mgrwt>
</event>
<event>
 4    1  0.2503484E+000  0.5157686E+02  0.7957747E-01  0.1437017E+00
         13   -1    0    0    0    0  0.00000000000E+00  0.00000000000E+00  0.99999944185E+02  0.10000000001E+03  0.10566000000E+00 0.  1.
         22   -1    0    0    0    0 -0.00000000000E+00 -0.00000000000E+00 -0.24949395722E+02  0.24949395722E+02  0.00000000000E+00 0. -1.
         13    1    1    2    0    0  0.17829468303E+01  0.12529710020E+02 -0.15942420256E+02  0.20355452838E+02  0.10566000000E+00 0. -1.
        996    1    1    2    0    0 -0.17829468303E+01 -0.12529710020E+02  0.90992968720E+02  0.10459394289E+03  0.50000000000E+02 0.  0.
<mgrwt>
<rscale>  0 0.51576860E+02</rscale>
<asrwt>0</asrwt>
<pdfrwt beam="1">  1       13 0.10000000E+01 0.51576860E+02</pdfrwt>
<pdfrwt beam="2">  1       22 0.24949417E+00 0.51576860E+02</pdfrwt>
<totfact> 0.29577275E-01</totfact>
</mgrwt>
</event>
<event>
 4    1  0.2503484E+000  0.5192791E+02  0.7957747E-01  0.1435212E+00
         13   -1    0    0    0    0  0.00000000000E+00  0.00000000000E+00  0.99999944185E+02  0.10000000000E+03  0.10566000000E+00 0.  1.
         22   -1    0    0    0    0 -0.00000000000E+00 -0.00000000000E+00 -0.19444915234E+02  0.19444915234E+02  0.00000000000E+00 0. -1.
         13    1    1    2    0    0 -0.12302664695E+02 -0.67195726396E+01 -0.84724252853E+01  0.16379907488E+02  0.10566000000E+00 0. -1.
        996    1    1    2    0    0  0.12302664695E+02  0.67195726396E+01  0.89027454235E+02  0.10306500775E+03  0.50000000000E+02 0.  0.
<mgrwt>
<rscale>  0 0.51927914E+02</rscale>
<asrwt>0</asrwt>
<pdfrwt beam="1">  1       13 0.10000000E+01 0.51927914E+02</pdfrwt>
<pdfrwt beam="2">  1       22 0.19444938E+00 0.51927914E+02</pdfrwt>
<totfact> 0.47731481E-01</totfact>
</mgrwt>
</event>
<event>
 4    1  0.2503484E+000  0.5238683E+02  0.7957747E-01  0.1432877E+00
         13   -1    0    0    0    0  0.00000000000E+00  0.00000000000E+00  0.99999944179E+02  0.99999999999E+02  0.10566000000E+00 0. -1.
         22   -1    0    0    0    0 -0.00000000000E+00 -0.00000000000E+00 -0.13289755427E+02  0.13289755427E+02  0.00000000000E+00 0. -1.
         13    1    1    2    0    0 -0.12515251003E+02 -0.93674058849E+01  0.53507816778E+01  0.16523372213E+02  0.10566000000E+00 0.  1.
        996    1    1    2    0    0  0.12515251003E+02  0.93674058849E+01  0.81359407074E+02  0.96766383213E+02  0.50000000000E+02 0.  0.
<mgrwt>
<rscale>  0 0.52386829E+02</rscale>
<asrwt>0</asrwt>
<pdfrwt beam="1">  1       13 0.10000000E+01 0.52386829E+02</pdfrwt>
<pdfrwt beam="2">  1       22 0.13289780E+00 0.52386829E+02</pdfrwt>
<totfact> 0.91749258E-01</totfact>
</mgrwt>
</event>
<event>
 4    1  0.2503484E+000  0.5182202E+02  0.7957747E-01  0.1435755E+00
         13   -1    0    0    0    0  0.00000000000E+00  0.00000000000E+00  0.99999944178E+02  0.99999999998E+02  0.10566000000E+00 0. -1.
         22   -1    0    0    0    0 -0.00000000000E+00 -0.00000000000E+00 -0.28104779899E+02  0.28104779899E+02  0.00000000000E+00 0.  1.
         13    1    1    2    0    0  0.80625569636E+01 -0.10978008635E+02 -0.19057473975E+02  0.23424772714E+02  0.10566000000E+00 0.  1.
        996    1    1    2    0    0 -0.80625569636E+01  0.10978008635E+02  0.90952638254E+02  0.10468000718E+03  0.50000000000E+02 0.  0.
<mgrwt>
<rscale>  0 0.51822018E+02</rscale>
<asrwt>0</asrwt>
<pdfrwt beam="1">  1       13 0.10000000E+01 0.51822018E+02</pdfrwt>
<pdfrwt beam="2">  1       22 0.28104800E+00 0.51822018E+02</pdfrwt>
<totfact> 0.23434912E-01</totfact>
</mgrwt>
</event>
<event>
 4    1  0.2503484E+000  0.6136888E+02  0.7957747E-01  0.1392175E+00
         13   -1    0    0    0    0  0.00000000000E+00  0.00000000000E+00  0.99999944174E+02  0.99999999994E+02  0.10566000000E+00 0.  1.
         22   -1    0    0    0    0 -0.00000000000E+00 -0.00000000000E+00 -0.68120859218E+02  0.68120859218E+02  0.00000000000E+00 0. -1.
         13    1    1    2    0    0  0.31143500049E+02  0.17211097427E+02 -0.52721452424E+02  0.63605834478E+02  0.10566000000E+00 0. -1.
        996    1    1    2    0    0 -0.31143500049E+02 -0.17211097427E+02  0.84600537381E+02  0.10451502473E+03  0.50000000000E+02 0.  0.
<mgrwt>
<rscale>  0 0.61368880E+02</rscale>
<asrwt>0</asrwt>
<pdfrwt beam="1">  1       13 0.10000000E+01 0.61368880E+02</pdfrwt>
<pdfrwt beam="2">  1       22 0.68120868E+00 0.61368880E+02</pdfrwt>
<totfact> 0.83038000E-02</totfact>
</mgrwt>
</event>
<event>
 4    1  0.2503484E+000  0.5542069E+02  0.7957747E-01  0.1418120E+00
         13   -1    0    0    0    0  0.00000000000E+00  0.00000000000E+00  0.99999944182E+02  0.10000000000E+03  0.10566000000E+00 0.  1.
         22   -1    0    0    0    0 -0.00000000000E+00 -0.00000000000E+00 -0.71222287454E+02  0.71222287454E+02  0.00000000000E+00 0. -1.
         13    1    1    2    0    0  0.84028030809E+01 -0.22379581556E+02 -0.61111970213E+02  0.65621161507E+02  0.10566000000E+00 0. -1.
        996    1    1    2    0    0 -0.84028030809E+01  0.22379581556E+02  0.89889626941E+02  0.10560112595E+03  0.50000000000E+02 0.  0.
<mgrwt>
<rscale>  0 0.55420689E+02</rscale>
<asrwt>0</asrwt>
<pdfrwt beam="1">  1       13 0.10000000E+01 0.55420689E+02</pdfrwt>
<pdfrwt beam="2">  1       22 0.71222296E+00 0.55420689E+02</pdfrwt>
<totfact> 0.68221230E-02</totfact>
</mgrwt>
</event>
<event>
 4    1  0.2503484E+000  0.5824432E+02  0.7957747E-01  0.1405351E+00
         13   -1    0    0    0    0  0.00000000000E+00  0.00000000000E+00  0.99999944175E+02  0.99999999995E+02  0.10566000000E+00 0.  1.
         22   -1    0    0    0    0 -0.00000000000E+00 -0.00000000000E+00 -0.47989925792E+02  0.47989925792E+02  0.00000000000E+00 0.  1.
         13    1    1    2    0    0 -0.29204958363E+02  0.62826464192E+01 -0.33272832230E+02  0.44715699343E+02  0.10566000000E+00 0. -1.
        996    1    1    2    0    0  0.29204958363E+02 -0.62826464192E+01  0.85282850613E+02  0.10327422644E+03  0.50000000000E+02 0.  0.
<mgrwt>
<rscale>  0 0.58244324E+02</rscale>
<asrwt>0</asrwt>
<pdfrwt beam="1">  1       13 0.10000000E+01 0.58244324E+02</pdfrwt>
<pdfrwt beam="2">  1       22 0.47989940E+00 0.58244324E+02</pdfrwt>
<totfact> 0.82545527E-02</totfact>
</mgrwt>
</event>
<event>
 4    1  0.2503484E+000  0.5395110E+02  0.7957747E-01  0.1425125E+00
         13   -1    0    0    0    0  0.00000000000E+00  0.00000000000E+00  0.99999944180E+02  0.10000000000E+03  0.10566000000E+00 0. -1.
         22   -1    0    0    0    0 -0.00000000000E+00 -0.00000000000E+00 -0.26329317111E+02  0.26329317111E+02  0.00000000000E+00 0.  1.
         13    1    1    2    0    0 -0.17622456034E+02  0.10008512348E+02 -0.13115726770E+02  0.24140313355E+02  0.10566000000E+00 0.  1.
        996    1    1    2    0    0  0.17622456034E+02 -0.10008512348E+02  0.86786353839E+02  0.10218900376E+03  0.50000000000E+02 0.  0.
<mgrwt>
<rscale>  0 0.53951101E+02</rscale>
<asrwt>0</asrwt>
<pdfrwt beam="1">  1       13 0.10000000E+01 0.53951101E+02</pdfrwt>
<pdfrwt beam="2">  1       22 0.26329338E+00 0.53951101E+02</pdfrwt>
<totfact> 0.26699940E-01</totfact>
</mgrwt>
</event>
<event>
 4    1  0.2503484E+000  0.5263650E+02  0.7957747E-01  0.1431618E+00
         13   -1    0    0    0    0  0.00000000000E+00  0.00000000000E+00  0.99999944178E+02  0.99999999998E+02  0.10566000000E+00 0.  1.
         22   -1    0    0    0    0 -0.00000000000E+00 -0.00000000000E+00 -0.30771358732E+02  0.30771358732E+02  0.00000000000E+00 0. -1.
         13    1    1    2    0    0 -0.15446640309E+02 -0.56571084163E+01 -0.20779114734E+02  0.26502534702E+02  0.10566000000E+00 0. -1.
        996    1    1    2    0    0  0.15446640309E+02  0.56571084163E+01  0.90007700180E+02  0.10426882403E+03  0.50000000000E+02 0.  0.
<mgrwt>
<rscale>  0 0.52636504E+02</rscale>
<asrwt>0</asrwt>
<pdfrwt beam="1">  1       13 0.10000000E+01 0.52636504E+02</pdfrwt>
<pdfrwt beam="2">  1       22 0.30771378E+00 0.52636504E+02</pdfrwt>
<totfact> 0.19768156E-01</totfact>
</mgrwt>
</event>
<event>
 4    1  0.2503484E+000  0.5322284E+02  0.7957747E-01  0.1428695E+00
         13   -1    0    0    0    0  0.00000000000E+00  0.00000000000E+00  0.99999944174E+02  0.99999999994E+02  0.10566000000E+00 0. -1.
         22   -1    0    0    0    0 -0.00000000000E+00 -0.00000000000E+00 -0.12971501187E+02  0.12971501187E+02  0.00000000000E+00 0. -1.
         13    1    1    2    0    0  0.13664483741E+02 -0.12081096380E+02  0.28745292608E+02  0.34043707448E+02  0.10566000000E+00 0.  1.
        996    1    1    2    0    0 -0.13664483741E+02  0.12081096380E+02  0.58283150379E+02  0.78927793734E+02  0.50000000000E+02 0.  0.
<mgrwt>
<rscale>  0 0.53222843E+02</rscale>
<asrwt>0</asrwt>
<pdfrwt beam="1">  1       13 0.10000000E+01 0.53222843E+02</pdfrwt>
<pdfrwt beam="2">  1       22 0.12971525E+00 0.53222843E+02</pdfrwt>
<totfact> 0.95504776E-01</totfact>
</mgrwt>
</event>
<event>
 4    1  0.2503484E+000  0.6404701E+02  0.7957747E-01  0.1381593E+00
         13   -1    0    0    0    0  0.00000000000E+00  0.00000000000E+00  0.99999944181E+02  0.10000000000E+03  0.10566000000E+00 0.  1.
         22   -1    0    0    0    0 -0.00000000000E+00 -0.00000000000E+00 -0.41184425527E+02  0.41184425527E+02  0.00000000000E+00 0. -1.
         13    1    1    2    0    0 -0.18688692460E+01  0.39981580214E+02 -0.15639675543E+02  0.42972433533E+02  0.10566000000E+00 0. -1.
        996    1    1    2    0    0  0.18688692460E+01 -0.39981580214E+02  0.74455194198E+02  0.98211991995E+02  0.50000000000E+02 0.  0.
<mgrwt>
<rscale>  0 0.64047010E+02</rscale>
<asrwt>0</asrwt>
<pdfrwt beam="1">  1       13 0.10000000E+01 0.64047010E+02</pdfrwt>
<pdfrwt beam="2">  1       22 0.41184442E+00 0.64047010E+02</pdfrwt>
<totfact> 0.11781253E-01</totfact>
</mgrwt>
</event>
<event>
 4    1  0.2503484E+000  0.5118841E+02  0.7957747E-01  0.1439035E+00
         13   -1    0    0    0    0  0.00000000000E+00  0.00000000000E+00  0.99999944182E+02  0.10000000000E+03  0.10566000000E+00 0.  1.
         22   -1    0    0    0    0 -0.00000000000E+00 -0.00000000000E+00 -0.28104924350E+02  0.28104924350E+02  0.00000000000E+00 0. -1.
         13    1    1    2    0    0  0.81358764033E+01 -0.73526185684E+01 -0.20060289846E+02  0.22862193189E+02  0.10566000000E+00 0. -1.
        996    1    1    2    0    0 -0.81358764033E+01  0.73526185684E+01  0.91955309678E+02  0.10524273116E+03  0.50000000000E+02 0.  0.
<mgrwt>
<rscale>  0 0.51188412E+02</rscale>
<asrwt>0</asrwt>
<pdfrwt beam="1">  1       13 0.10000000E+01 0.51188412E+02</pdfrwt>
<pdfrwt beam="2">  1       22 0.28104944E+00 0.51188412E+02</pdfrwt>
<totfact> 0.23413421E-01</totfact>
</mgrwt>
</event>
<event>
 4    1  0.2503484E+000  0.5273876E+02  0.7957747E-01  0.1431105E+00
         13   -1    0    0    0    0  0.00000000000E+00  0.00000000000E+00  0.99999944182E+02  0.10000000000E+03  0.10566000000E+00 0.  1.
         22   -1    0    0    0    0 -0.00000000000E+00 -0.00000000000E+00 -0.15738038472E+02  0.15738038472E+02  0.00000000000E+00 0. -1.
         13    1    1    2    0    0 -0.16135320097E+02 -0.45856607239E+01  0.53191150658E+00  0.16783054930E+02  0.10566000000E+00 0. -1.
        996    1    1    2    0    0  0.16135320097E+02  0.45856607239E+01  0.83729994204E+02  0.98954983545E+02  0.50000000000E+02 0.  0.
<mgrwt>
<rscale>  0 0.52738760E+02</rscale>
<asrwt>0</asrwt>
<pdfrwt beam="1">  1       13 0.10000000E+01 0.52738760E+02</pdfrwt>
<pdfrwt beam="2">  1       22 0.15738062E+00 0.52738760E+02</pdfrwt>
<totfact> 0.69553100E-01</totfact>
</mgrwt>
</event>
<event>
 4    1  0.2503484E+000  0.5454201E+02  0.7957747E-01  0.1422277E+00
         13   -1    0    0    0    0  0.00000000000E+00  0.00000000000E+00  0.99999944179E+02  0.99999999999E+02  0.10566000000E+00 0.  1.
         22   -1    0    0    0    0 -0.00000000000E+00 -0.00000000000E+00 -0.67444765377E+02  0.67444765377E+02  0.00000000000E+00 0. -1.
         13    1    1    2    0    0  0.13686299691E+02 -0.16956310340E+02 -0.57874005299E+02  0.61840463395E+02  0.10566000000E+00 0. -1.
        996    1    1    2    0    0 -0.13686299691E+02  0.16956310340E+02  0.90429184101E+02  0.10560430198E+03  0.50000000000E+02 0.  0.
<mgrwt>
<rscale>  0 0.54542014E+02</rscale>
<asrwt>0</asrwt>
<pdfrwt beam="1">  1       13 0.10000000E+01 0.54542014E+02</pdfrwt>
<pdfrwt beam="2">  1       22 0.67444774E+00 0.54542014E+02</pdfrwt>
<totfact> 0.85206867E-02</totfact>
</mgrwt>
</event>
<event>
 4    1  0.2503484E+000  0.5144068E+02  0.7957747E-01  0.1437722E+00
         13   -1    0    0    0    0  0.00000000000E+00  0.00000000000E+00  0.99999944179E+02  0.99999999999E+02  0.10566000000E+00 0. -1.
         22   -1    0    0    0    0 -0.00000000000E+00 -0.00000000000E+00 -0.11921594189E+02  0.11921594189E+02  0.00000000000E+00 0. -1.
         13    1    1    2    0    0  0.11226569890E+02  0.44841270985E+01  0.29274329192E+01  0.12438822085E+02  0.10566000000E+00 0.  1.
        996    1    1    2    0    0 -0.11226569890E+02 -0.44841270985E+01  0.85150917071E+02  0.99482772103E+02  0.50000000000E+02 0.  0.
<mgrwt>
<rscale>  0 0.51440677E+02</rscale>
<asrwt>0</asrwt>
<pdfrwt beam="1">  1       13 0.10000000E+01 0.51440677E+02</pdfrwt>
<pdfrwt beam="2">  1       22 0.11921619E+00 0.51440677E+02</pdfrwt>
<totfact> 0.10844083E+00</totfact>
</mgrwt>
</event>
<event>
 4    1  0.2503484E+000  0.5255237E+02  0.7957747E-01  0.1432042E+00
         13   -1    0    0    0    0  0.00000000000E+00  0.00000000000E+00  0.99999944183E+02  0.10000000000E+03  0.10566000000E+00 0.  1.
         22   -1    0    0    0    0 -0.00000000000E+00 -0.00000000000E+00 -0.29574774016E+02  0.29574774016E+02  0.00000000000E+00 0. -1.
         13    1    1    2    0    0  0.15734911889E+02  0.37635785637E+01 -0.19550004858E+02  0.25376481824E+02  0.10566000000E+00 0. -1.
        996    1    1    2    0    0 -0.15734911889E+02 -0.37635785637E+01  0.89975175025E+02  0.10419829220E+03  0.50000000000E+02 0.  0.
<mgrwt>
<rscale>  0 0.52552374E+02</rscale>
<asrwt>0</asrwt>
<pdfrwt beam="1">  1       13 0.10000000E+01 0.52552374E+02</pdfrwt>
<pdfrwt beam="2">  1       22 0.29574794E+00 0.52552374E+02</pdfrwt>
<totfact> 0.21281367E-01</totfact>
</mgrwt>
</event>
<event>
 4    1  0.2503484E+000  0.5149677E+02  0.7957747E-01  0.1437432E+00
         13   -1    0    0    0    0  0.00000000000E+00  0.00000000000E+00  0.99999944182E+02  0.10000000000E+03  0.10566000000E+00 0. -1.
         22   -1    0    0    0    0 -0.00000000000E+00 -0.00000000000E+00 -0.11900210455E+02  0.11900210455E+02  0.00000000000E+00 0. -1.
         13    1    1    2    0    0  0.59714393869E+01 -0.10782365145E+02  0.38409484857E+02  0.40338780069E+02  0.10566000000E+00 0.  1.
        996    1    1    2    0    0 -0.59714393869E+01  0.10782365145E+02  0.49690248870E+02  0.71561430388E+02  0.50000000000E+02 0.  0.
<mgrwt>
<rscale>  0 0.51496772E+02</rscale>
<asrwt>0</asrwt>
<pdfrwt beam="1">  1       13 0.10000000E+01 0.51496772E+02</pdfrwt>
<pdfrwt beam="2">  1       22 0.11900235E+00 0.51496772E+02</pdfrwt>
<totfact> 0.10875244E+00</totfact>
</mgrwt>
</event>
<event>
 4    1  0.2503484E+000  0.6112078E+02  0.7957747E-01  0.1393188E+00
         13   -1    0    0    0    0  0.00000000000E+00  0.00000000000E+00  0.99999944178E+02  0.99999999998E+02  0.10566000000E+00 0.  1.
         22   -1    0    0    0    0 -0.00000000000E+00 -0.00000000000E+00 -0.34652898092E+02  0.34652898092E+02  0.00000000000E+00 0. -1.
         13    1    1    2    0    0 -0.66139674063E+00  0.35147017062E+02 -0.11018314717E+02  0.36839716031E+02  0.10566000000E+00 0. -1.
        996    1    1    2    0    0  0.66139674063E+00 -0.35147017062E+02  0.76365360803E+02  0.97813182059E+02  0.50000000000E+02 0.  0.
<mgrwt>
<rscale>  0 0.61120784E+02</rscale>
<asrwt>0</asrwt>
<pdfrwt beam="1">  1       13 0.10000000E+01 0.61120784E+02</pdfrwt>
<pdfrwt beam="2">  1       22 0.34652916E+00 0.61120784E+02</pdfrwt>
<totfact> 0.16131860E-01</totfact>
</mgrwt>
</event>
<event>
 4    1  0.2503484E+000  0.6209491E+02  0.7957747E-01  0.1389245E+00
         13   -1    0    0    0    0  0.00000000000E+00  0.00000000000E+00  0.99999944184E+02  0.10000000000E+03  0.10566000000E+00 0.  1.
         22   -1    0    0    0    0 -0.00000000000E+00 -0.00000000000E+00 -0.67927793885E+02  0.67927793885E+02  0.00000000000E+00 0. -1.
         13    1    1    2    0    0  0.20905547855E+02  0.30310652549E+02 -0.51810975522E+02  0.63562299656E+02  0.10566000000E+00 0. -1.
        996    1    1    2    0    0 -0.20905547855E+02 -0.30310652549E+02  0.83883125820E+02  0.10436549423E+03  0.50000000000E+02 0.  0.
<mgrwt>
<rscale>  0 0.62094908E+02</rscale>
<asrwt>0</asrwt>
<pdfrwt beam="1">  1       13 0.10000000E+01 0.62094908E+02</pdfrwt>
<pdfrwt beam="2">  1       22 0.67927803E+00 0.62094908E+02</pdfrwt>
<totfact> 0.83716470E-02</totfact>
</mgrwt>
</event>
<event>
 4    1  0.2503484E+000  0.5377935E+02  0.7957747E-01  0.1425961E+00
         13   -1    0    0    0    0  0.00000000000E+00  0.00000000000E+00  0.99999944172E+02  0.99999999992E+02  0.10566000000E+00 0. -1.
         22   -1    0    0    0    0 -0.00000000000E+00 -0.00000000000E+00 -0.29364796761E+02  0.29364796761E+02  0.00000000000E+00 0. -1.
         13    1    1    2    0    0  0.34692288008E+01 -0.19498287289E+02 -0.17294252950E+02  0.26292985848E+02  0.10566000000E+00 0.  1.
        996    1    1    2    0    0 -0.34692288008E+01  0.19498287289E+02  0.87929400360E+02  0.10307181091E+03  0.50000000000E+02 0.  0.
<mgrwt>
<rscale>  0 0.53779353E+02</rscale>
<asrwt>0</asrwt>
<pdfrwt beam="1">  1       13 0.10000000E+01 0.53779353E+02</pdfrwt>
<pdfrwt beam="2">  1       22 0.29364816E+00 0.53779353E+02</pdfrwt>
<totfact> 0.21604959E-01</totfact>
</mgrwt>
</event>
<event>
 4    1  0.2503484E+000  0.5331583E+02  0.7957747E-01  0.1428235E+00
         13   -1    0    0    0    0  0.00000000000E+00  0.00000000000E+00  0.99999944191E+02  0.10000000001E+03  0.10566000000E+00 0. -1.
         22   -1    0    0    0    0 -0.00000000000E+00 -0.00000000000E+00 -0.17026688730E+02  0.17026688730E+02  0.00000000000E+00 0.  1.
         13    1    1    2    0    0 -0.15114688954E+02  0.10682896653E+02  0.12982326207E+00  0.18509622394E+02  0.10566000000E+00 0.  1.
        996    1    1    2    0    0  0.15114688954E+02 -0.10682896653E+02  0.82843432199E+02  0.98517066347E+02  0.50000000000E+02 0.  0.
<mgrwt>
<rscale>  0 0.53315834E+02</rscale>
<asrwt>0</asrwt>
<pdfrwt beam="1">  1       13 0.10000000E+01 0.53315834E+02</pdfrwt>
<pdfrwt beam="2">  1       22 0.17026712E+00 0.53315834E+02</pdfrwt>
<totfact> 0.60784147E-01</totfact>
</mgrwt>
</event>
<event>
 4    1  0.2503484E+000  0.5193606E+02  0.7957747E-01  0.1435170E+00
         13   -1    0    0    0    0  0.00000000000E+00  0.00000000000E+00  0.99999944178E+02  0.99999999998E+02  0.10566000000E+00 0. -1.
         22   -1    0    0    0    0 -0.00000000000E+00 -0.00000000000E+00 -0.49023235933E+02  0.49023235933E+02  0.00000000000E+00 0.  1.
         13    1    1    2    0    0 -0.12713692339E+02  0.59762965581E+01 -0.41030875984E+02  0.43369321432E+02  0.10566000000E+00 0.  1.
        996    1    1    2    0    0  0.12713692339E+02 -0.59762965581E+01  0.92007584229E+02  0.10565391450E+03  0.50000000000E+02 0.  0.
<mgrwt>
<rscale>  0 0.51936058E+02</rscale>
<asrwt>0</asrwt>
<pdfrwt beam="1">  1       13 0.10000000E+01 0.51936058E+02</pdfrwt>
<pdfrwt beam="2">  1       22 0.49023250E+00 0.51936058E+02</pdfrwt>
<totfact> 0.77714256E-02</totfact>
</mgrwt>
</event>
<event>
 4    1  0.2503484E+000  0.5186823E+02  0.7957747E-01  0.1435518E+00
         13   -1    0    0    0    0  0.00000000000E+00  0.00000000000E+00  0.99999944177E+02  0.99999999997E+02  0.10566000000E+00 0.  1.
         22   -1    0    0    0    0 -0.00000000000E+00 -0.00000000000E+00 -0.10780317355E+02  0.10780317355E+02  0.00000000000E+00 0.  1.
         13    1    1    2    0    0  0.49157253065E+01  0.12889867108E+02  0.18327854396E+02  0.22939800351E+02  0.10566000000E+00 0. -1.
        996    1    1    2    0    0 -0.49157253065E+01 -0.12889867108E+02  0.70891772426E+02  0.87840517001E+02  0.50000000000E+02 0.  0.
<mgrwt>
<rscale>  0 0.51868228E+02</rscale>
<asrwt>0</asrwt>
<pdfrwt beam="1">  1       13 0.10000000E+01 0.51868228E+02</pdfrwt>
<pdfrwt beam="2">  1       22 0.10780342E+00 0.51868228E+02</pdfrwt>
<totfact> 0.12625744E+00</totfact>
</mgrwt>
</event>
<event>
 4    1  0.2503484E+000  0.5580118E+02  0.7957747E-01  0.1416348E+00
         13   -1    0    0    0    0  0.00000000000E+00  0.00000000000E+00  0.99999944185E+02  0.10000000001E+03  0.10566000000E+00 0. -1.
         22   -1    0    0    0    0 -0.00000000000E+00 -0.00000000000E+00 -0.74240559349E+02  0.74240559349E+02  0.00000000000E+00 0.  1.
         13    1    1    2    0    0 -0.98566610009E+01  0.22729236010E+02 -0.63956235460E+02  0.68587048004E+02  0.10566000000E+00 0.  1.
        996    1    1    2    0    0  0.98566610009E+01 -0.22729236010E+02  0.89715620296E+02  0.10565351135E+03  0.50000000000E+02 0.  0.
<mgrwt>
<rscale>  0 0.55801182E+02</rscale>
<asrwt>0</asrwt>
<pdfrwt beam="1">  1       13 0.10000000E+01 0.55801182E+02</pdfrwt>
<pdfrwt beam="2">  1       22 0.74240567E+00 0.55801182E+02</pdfrwt>
<totfact> 0.52557710E-02</totfact>
</mgrwt>
</event>
<event>
 4    1  0.2503484E+000  0.5115234E+02  0.7957747E-01  0.1439223E+00
         13   -1    0    0    0    0  0.00000000000E+00  0.00000000000E+00  0.99999944174E+02  0.99999999994E+02  0.10566000000E+00 0.  1.
         22   -1    0    0    0    0 -0.00000000000E+00 -0.00000000000E+00 -0.16192237793E+02  0.16192237793E+02  0.00000000000E+00 0. -1.
         13    1    1    2    0    0  0.18694900673E+01  0.10633272297E+02 -0.63561695786E+01  0.12528907718E+02  0.10566000000E+00 0. -1.
        996    1    1    2    0    0 -0.18694900673E+01 -0.10633272297E+02  0.90163875960E+02  0.10366333007E+03  0.50000000000E+02 0.  0.
<mgrwt>
<rscale>  0 0.51152336E+02</rscale>
<asrwt>0</asrwt>
<pdfrwt beam="1">  1       13 0.10000000E+01 0.51152336E+02</pdfrwt>
<pdfrwt beam="2">  1       22 0.16192261E+00 0.51152336E+02</pdfrwt>
<totfact> 0.66044915E-01</totfact>
</mgrwt>
</event>
<event>
 4    1  0.2503484E+000  0.5125872E+02  0.7957747E-01  0.1438668E+00
         13   -1    0    0    0    0  0.00000000000E+00  0.00000000000E+00  0.99999944177E+02  0.99999999997E+02  0.10566000000E+00 0.  1.
         22   -1    0    0    0    0 -0.00000000000E+00 -0.00000000000E+00 -0.27783692094E+02  0.27783692094E+02  0.00000000000E+00 0. -1.
         13    1    1    2    0    0 -0.10697871949E+02  0.36072232210E+01 -0.19605171300E+02  0.22623669670E+02  0.10566000000E+00 0. -1.
        996    1    1    2    0    0  0.10697871949E+02 -0.36072232210E+01  0.91821423382E+02  0.10516002242E+03  0.50000000000E+02 0.  0.
<mgrwt>
<rscale>  0 0.51258721E+02</rscale>
<asrwt>0</asrwt>
<pdfrwt beam="1">  1       13 0.10000000E+01 0.51258721E+02</pdfrwt>
<pdfrwt beam="2">  1       22 0.27783712E+00 0.51258721E+02</pdfrwt>
<totfact> 0.23942692E-01</totfact>
</mgrwt>
</event>
<event>
 4    1  0.2503484E+000  0.5237181E+02  0.7957747E-01  0.1432953E+00
         13   -1    0    0    0    0  0.00000000000E+00  0.00000000000E+00  0.99999944186E+02  0.10000000001E+03  0.10566000000E+00 0. -1.
         22   -1    0    0    0    0 -0.00000000000E+00 -0.00000000000E+00 -0.23271761691E+02  0.23271761691E+02  0.00000000000E+00 0.  1.
         13    1    1    2    0    0 -0.61268530913E+01  0.14327182741E+02 -0.12387404793E+02  0.19906417448E+02  0.10566000000E+00 0.  1.
        996    1    1    2    0    0  0.61268530913E+01 -0.14327182741E+02  0.89115587288E+02  0.10336534425E+03  0.50000000000E+02 0.  0.
<mgrwt>
<rscale>  0 0.52371810E+02</rscale>
<asrwt>0</asrwt>
<pdfrwt beam="1">  1       13 0.10000000E+01 0.52371810E+02</pdfrwt>
<pdfrwt beam="2">  1       22 0.23271783E+00 0.52371810E+02</pdfrwt>
<totfact> 0.33942428E-01</totfact>
</mgrwt>
</event>
<event>
 4    1  0.2503484E+000  0.5243215E+02  0.7957747E-01  0.1432648E+00
         13   -1    0    0    0    0  0.00000000000E+00  0.00000000000E+00  0.99999944176E+02  0.99999999996E+02  0.10566000000E+00 0. -1.
         22   -1    0    0    0    0 -0.00000000000E+00 -0.00000000000E+00 -0.11764632930E+02  0.11764632930E+02  0.00000000000E+00 0. -1.
         13    1    1    2    0    0  0.13867860204E+02  0.75374586919E+01  0.15695915509E+02  0.22259913699E+02  0.10566000000E+00 0.  1.
        996    1    1    2    0    0 -0.13867860204E+02 -0.75374586919E+01  0.72539395737E+02  0.89504719227E+02  0.50000000000E+02 0.  0.
<mgrwt>
<rscale>  0 0.52432155E+02</rscale>
<asrwt>0</asrwt>
<pdfrwt beam="1">  1       13 0.10000000E+01 0.52432155E+02</pdfrwt>
<pdfrwt beam="2">  1       22 0.11764658E+00 0.52432155E+02</pdfrwt>
<totfact> 0.11090055E+00</totfact>
</mgrwt>
</event>
<event>
 4    1  0.2503484E+000  0.6106270E+02  0.7957747E-01  0.1393425E+00
         13   -1    0    0    0    0  0.00000000000E+00  0.00000000000E+00  0.99999944183E+02  0.10000000000E+03  0.10566000000E+00 0.  1.
         22   -1    0    0    0    0 -0.00000000000E+00 -0.00000000000E+00 -0.28424310732E+02  0.28424310732E+02  0.00000000000E+00 0. -1.
         13    1    1    2    0    0  0.15053159652E+02 -0.31655257292E+02  0.95517765613E+00  0.35065317025E+02  0.10566000000E+00 0. -1.
        996    1    1    2    0    0 -0.15053159652E+02  0.31655257292E+02  0.70620455795E+02  0.93358993709E+02  0.50000000000E+02 0.  0.
<mgrwt>
<rscale>  0 0.61062697E+02</rscale>
<asrwt>0</asrwt>
<pdfrwt beam="1">  1       13 0.10000000E+01 0.61062697E+02</pdfrwt>
<pdfrwt beam="2">  1       22 0.28424331E+00 0.61062697E+02</pdfrwt>
<totfact> 0.23204158E-01</totfact>
</mgrwt>
</event>
<event>
 4    1  0.2503484E+000  0.5101975E+02  0.7957747E-01  0.1439918E+00
         13   -1    0    0    0    0  0.00000000000E+00  0.00000000000E+00  0.99999944176E+02  0.99999999996E+02  0.10566000000E+00 0. -1.
         22   -1    0    0    0    0 -0.00000000000E+00 -0.00000000000E+00 -0.12624646646E+02  0.12624646646E+02  0.00000000000E+00 0. -1.
         13    1    1    2    0    0 -0.21018936516E+01  0.99296110487E+01 -0.13866637163E+01  0.10244468400E+02  0.10566000000E+00 0.  1.
        996    1    1    2    0    0  0.21018936516E+01 -0.99296110487E+01  0.88761961247E+02  0.10238017824E+03  0.50000000000E+02 0.  0.
<mgrwt>
<rscale>  0 0.51019752E+02</rscale>
<asrwt>0</asrwt>
<pdfrwt beam="1">  1       13 0.10000000E+01 0.51019752E+02</pdfrwt>
<pdfrwt beam="2">  1       22 0.12624671E+00 0.51019752E+02</pdfrwt>
<totfact> 0.99171466E-01</totfact>
</mgrwt>
</event>
<event>
 4    1  0.2503484E+000  0.5290816E+02  0.7957747E-01  0.1430258E+00
         13   -1    0    0    0    0  0.00000000000E+00  0.00000000000E+00  0.99999944173E+02  0.99999999993E+02  0.10566000000E+00 0. -1.
         22   -1    0    0    0    0 -0.00000000000E+00 -0.00000000000E+00 -0.17330696542E+02  0.17330696542E+02  0.00000000000E+00 0. -1.
         13    1    1    2    0    0  0.99744404246E+01  0.14134486213E+02 -0.20776939260E+01  0.17424153879E+02  0.10566000000E+00 0.  1.
        996    1    1    2    0    0 -0.99744404246E+01 -0.14134486213E+02  0.84746941557E+02  0.99906542657E+02  0.50000000000E+02 0.  0.
<mgrwt>
<rscale>  0 0.52908158E+02</rscale>
<asrwt>0</asrwt>
<pdfrwt beam="1">  1       13 0.10000000E+01 0.52908158E+02</pdfrwt>
<pdfrwt beam="2">  1       22 0.17330720E+00 0.52908158E+02</pdfrwt>
<totfact> 0.58874262E-01</totfact>
</mgrwt>
</event>
<event>
 4    1  0.2503484E+000  0.7899250E+02  0.7957747E-01  0.1331935E+00
         13   -1    0    0    0    0  0.00000000000E+00  0.00000000000E+00  0.99999944181E+02  0.10000000000E+03  0.10566000000E+00 0. -1.
         22   -1    0    0    0    0 -0.00000000000E+00 -0.00000000000E+00 -0.64665697835E+02  0.64665697835E+02  0.00000000000E+00 0.  1.
         13    1    1    2    0    0 -0.52705807128E+02 -0.31014726718E+02 -0.24182052840E+02  0.65761677457E+02  0.10566000000E+00 0.  1.
        996    1    1    2    0    0  0.52705807128E+02  0.31014726718E+02  0.59516299186E+02  0.98904020379E+02  0.50000000000E+02 0.  0.
<mgrwt>
<rscale>  0 0.78992502E+02</rscale>
<asrwt>0</asrwt>
<pdfrwt beam="1">  1       13 0.10000000E+01 0.78992502E+02</pdfrwt>
<pdfrwt beam="2">  1       22 0.64665708E+00 0.78992502E+02</pdfrwt>
<totfact> 0.85599784E-02</totfact>
</mgrwt>
</event>
<event>
 4    1  0.2503484E+000  0.5360006E+02  0.7957747E-01  0.1426838E+00
         13   -1    0    0    0    0  0.00000000000E+00  0.00000000000E+00  0.99999944180E+02  0.10000000000E+03  0.10566000000E+00 0.  1.
         22   -1    0    0    0    0 -0.00000000000E+00 -0.00000000000E+00 -0.17222784387E+02  0.17222784387E+02  0.00000000000E+00 0. -1.
         13    1    1    2    0    0 -0.97031700983E+01 -0.16697751257E+02  0.86474523163E+00  0.19331977534E+02  0.10566000000E+00 0. -1.
        996    1    1    2    0    0  0.97031700983E+01  0.16697751257E+02  0.81912414562E+02  0.97890806853E+02  0.50000000000E+02 0.  0.
<mgrwt>
<rscale>  0 0.53600060E+02</rscale>
<asrwt>0</asrwt>
<pdfrwt beam="1">  1       13 0.10000000E+01 0.53600060E+02</pdfrwt>
<pdfrwt beam="2">  1       22 0.17222807E+00 0.53600060E+02</pdfrwt>
<totfact> 0.59604073E-01</totfact>
</mgrwt>
</event>
<event>
 4    1  0.2503484E+000  0.5393804E+02  0.7957747E-01  0.1425189E+00
         13   -1    0    0    0    0  0.00000000000E+00  0.00000000000E+00  0.99999944182E+02  0.10000000000E+03  0.10566000000E+00 0. -1.
         22   -1    0    0    0    0 -0.00000000000E+00 -0.00000000000E+00 -0.14875915479E+02  0.14875915479E+02  0.00000000000E+00 0.  1.
         13    1    1    2    0    0  0.83857291741E+01  0.18411730193E+02  0.10484598810E+02  0.22787062968E+02  0.10566000000E+00 0.  1.
        996    1    1    2    0    0 -0.83857291741E+01 -0.18411730193E+02  0.74639429894E+02  0.92088852514E+02  0.50000000000E+02 0.  0.
<mgrwt>
<rscale>  0 0.53938041E+02</rscale>
<asrwt>0</asrwt>
<pdfrwt beam="1">  1       13 0.10000000E+01 0.53938041E+02</pdfrwt>
<pdfrwt beam="2">  1       22 0.14875939E+00 0.53938041E+02</pdfrwt>
<totfact> 0.76637334E-01</totfact>
</mgrwt>
</event>
<event>
 4    1  0.2503484E+000  0.5102276E+02  0.7957747E-01  0.1439902E+00
         13   -1    0    0    0    0  0.00000000000E+00  0.00000000000E+00  0.99999944179E+02  0.10000000000E+03  0.10566000000E+00 0.  1.
         22   -1    0    0    0    0 -0.00000000000E+00 -0.00000000000E+00 -0.18543959797E+02  0.18543959797E+02  0.00000000000E+00 0. -1.
         13    1    1    2    0    0  0.94366865990E+01 -0.37777034794E+01 -0.97186661075E+01  0.14063631554E+02  0.10566000000E+00 0. -1.
        996    1    1    2    0    0 -0.94366865990E+01  0.37777034794E+01  0.91174650490E+02  0.10448032824E+03  0.50000000000E+02 0.  0.
<mgrwt>
<rscale>  0 0.51022761E+02</rscale>
<asrwt>0</asrwt>
<pdfrwt beam="1">  1       13 0.10000000E+01 0.51022761E+02</pdfrwt>
<pdfrwt beam="2">  1       22 0.18543983E+00 0.51022761E+02</pdfrwt>
<totfact> 0.51972722E-01</totfact>
</mgrwt>
</event>
<event>
 4    1  0.2503484E+000  0.5178749E+02  0.7957747E-01  0.1435932E+00
         13   -1    0    0    0    0  0.00000000000E+00  0.00000000000E+00  0.99999944174E+02  0.99999999994E+02  0.10566000000E+00 0.  1.
         22   -1    0    0    0    0 -0.00000000000E+00 -0.00000000000E+00 -0.10734068328E+02  0.10734068328E+02  0.00000000000E+00 0.  1.
         13    1    1    2    0    0  0.13301313680E+02 -0.22404482651E+01  0.22560061676E+02  0.26285206884E+02  0.10566000000E+00 0. -1.
        996    1    1    2    0    0 -0.13301313680E+02  0.22404482651E+01  0.66705814171E+02  0.84448861438E+02  0.50000000000E+02 0.  0.
<mgrwt>
<rscale>  0 0.51787494E+02</rscale>
<asrwt>0</asrwt>
<pdfrwt beam="1">  1       13 0.10000000E+01 0.51787494E+02</pdfrwt>
<pdfrwt beam="2">  1       22 0.10734093E+00 0.51787494E+02</pdfrwt>
<totfact> 0.12703835E+00</totfact>
</mgrwt>
</event>
<event>
 4    1  0.2503484E+000  0.5759021E+02  0.7957747E-01  0.1408232E+00
         13   -1    0    0    0    0  0.00000000000E+00  0.00000000000E+00  0.99999944190E+02  0.10000000001E+03  0.10566000000E+00 0. -1.
         22   -1    0    0    0    0 -0.00000000000E+00 -0.00000000000E+00 -0.20140739129E+02  0.20140739129E+02  0.00000000000E+00 0.  1.
         13    1    1    2    0    0 -0.66342193545E+00 -0.28569077558E+02  0.11623284028E+02  0.30850351972E+02  0.10566000000E+00 0.  1.
        996    1    1    2    0    0  0.66342193545E+00  0.28569077558E+02  0.68235921033E+02  0.89290387167E+02  0.50000000000E+02 0.  0.
<mgrwt>
<rscale>  0 0.57590210E+02</rscale>
<asrwt>0</asrwt>
<pdfrwt beam="1">  1       13 0.10000000E+01 0.57590210E+02</pdfrwt>
<pdfrwt beam="2">  1       22 0.20140761E+00 0.57590210E+02</pdfrwt>
<totfact> 0.45143409E-01</totfact>
</mgrwt>
</event>
<event>
 4    1  0.2503484E+000  0.5154893E+02  0.7957747E-01  0.1437162E+00
         13   -1    0    0    0    0  0.00000000000E+00  0.00000000000E+00  0.99999944179E+02  0.99999999999E+02  0.10566000000E+00 0.  1.
         22   -1    0    0    0    0 -0.00000000000E+00 -0.00000000000E+00 -0.20640931614E+02  0.20640931614E+02  0.00000000000E+00 0. -1.
         13    1    1    2    0    0  0.12459788650E+02  0.14304404789E+01 -0.10953798409E+02  0.16652007590E+02  0.10566000000E+00 0. -1.
        996    1    1    2    0    0 -0.12459788650E+02 -0.14304404789E+01  0.90312810974E+02  0.10398892402E+03  0.50000000000E+02 0.  0.
<mgrwt>
<rscale>  0 0.51548933E+02</rscale>
<asrwt>0</asrwt>
<pdfrwt beam="1">  1       13 0.10000000E+01 0.51548933E+02</pdfrwt>
<pdfrwt beam="2">  1       22 0.20640954E+00 0.51548933E+02</pdfrwt>
<totfact> 0.42670837E-01</totfact>
</mgrwt>
</event>
<event>
 4    1  0.2503484E+000  0.5309256E+02  0.7957747E-01  0.1429341E+00
         13   -1    0    0    0    0  0.00000000000E+00  0.00000000000E+00  0.99999944184E+02  0.10000000000E+03  0.10566000000E+00 0. -1.
         22   -1    0    0    0    0 -0.00000000000E+00 -0.00000000000E+00 -0.12591889438E+02  0.12591889438E+02  0.00000000000E+00 0.  1.
         13    1    1    2    0    0  0.13448822634E+02  0.11745169283E+02  0.20801187510E+02  0.27413872356E+02  0.10566000000E+00 0.  1.
        996    1    1    2    0    0 -0.13448822634E+02 -0.11745169283E+02  0.66606867235E+02  0.85178017086E+02  0.50000000000E+02 0.  0.
<mgrwt>
<rscale>  0 0.53092559E+02</rscale>
<asrwt>0</asrwt>
<pdfrwt beam="1">  1       13 0.10000000E+01 0.53092559E+02</pdfrwt>
<pdfrwt beam="2">  1       22 0.12591914E+00 0.53092559E+02</pdfrwt>
<totfact> 0.10002672E+00</totfact>
</mgrwt>
</event>
<event>
 4    1  0.2503484E+000  0.5161454E+02  0.7957747E-01  0.1436823E+00
         13   -1    0    0    0    0  0.00000000000E+00  0.00000000000E+00  0.99999944182E+02  0.10000000000E+03  0.10566000000E+00 0. -1.
         22   -1    0    0    0    0 -0.00000000000E+00 -0.00000000000E+00 -0.14136539705E+02  0.14136539705E+02  0.00000000000E+00 0. -1.
         13    1    1    2    0    0  0.21856036783E+01  0.12620782607E+02 -0.12609450057E+01  0.12870981446E+02  0.10566000000E+00 0.  1.
        996    1    1    2    0    0 -0.21856036783E+01 -0.12620782607E+02  0.87124349483E+02  0.10126555826E+03  0.50000000000E+02 0.  0.
<mgrwt>
<rscale>  0 0.51614543E+02</rscale>
<asrwt>0</asrwt>
<pdfrwt beam="1">  1       13 0.10000000E+01 0.51614543E+02</pdfrwt>
<pdfrwt beam="2">  1       22 0.14136564E+00 0.51614543E+02</pdfrwt>
<totfact> 0.82941867E-01</totfact>
</mgrwt>
</event>
<event>
 4    1  0.2503484E+000  0.5112587E+02  0.7957747E-01  0.1439362E+00
         13   -1    0    0    0    0  0.00000000000E+00  0.00000000000E+00  0.99999944175E+02  0.99999999995E+02  0.10566000000E+00 0.  1.
         22   -1    0    0    0    0 -0.00000000000E+00 -0.00000000000E+00 -0.96170922279E+01  0.96170922279E+01  0.00000000000E+00 0. -1.
         13    1    1    2    0    0  0.10668870129E+02 -0.17166038335E+00  0.12276632730E+02  0.16265950090E+02  0.10566000000E+00 0. -1.
        996    1    1    2    0    0 -0.10668870129E+02  0.17166038335E+00  0.78106219217E+02  0.93351142133E+02  0.50000000000E+02 0.  0.
<mgrwt>
<rscale>  0 0.51125867E+02</rscale>
<asrwt>0</asrwt>
<pdfrwt beam="1">  1       13 0.10000000E+01 0.51125867E+02</pdfrwt>
<pdfrwt beam="2">  1       22 0.96171175E-01 0.51125867E+02</pdfrwt>
<totfact> 0.14881979E+00</totfact>
</mgrwt>
</event>
<event>
 4    1  0.2503484E+000  0.5143519E+02  0.7957747E-01  0.1437751E+00
         13   -1    0    0    0    0  0.00000000000E+00  0.00000000000E+00  0.99999944181E+02  0.10000000000E+03  0.10566000000E+00 0.  1.
         22   -1    0    0    0    0 -0.00000000000E+00 -0.00000000000E+00 -0.10081746408E+02  0.10081746408E+02  0.00000000000E+00 0. -1.
         13    1    1    2    0    0 -0.54949393557E+01  0.10741711926E+02  0.16715574339E+02  0.20615535966E+02  0.10566000000E+00 0. -1.
        996    1    1    2    0    0  0.54949393557E+01 -0.10741711926E+02  0.73202623433E+02  0.89466210443E+02  0.50000000000E+02 0.  0.
<mgrwt>
<rscale>  0 0.51435190E+02</rscale>
<asrwt>0</asrwt>
<pdfrwt beam="1">  1       13 0.10000000E+01 0.51435190E+02</pdfrwt>
<pdfrwt beam="2">  1       22 0.10081772E+00 0.51435190E+02</pdfrwt>
<totfact> 0.13913453E+00</totfact>
</mgrwt>
</event>
<event>
 4    1  0.2503484E+000  0.5154172E+02  0.7957747E-01  0.1437199E+00
         13   -1    0    0    0    0  0.00000000000E+00  0.00000000000E+00  0.99999944180E+02  0.10000000000E+03  0.10566000000E+00 0.  1.
         22   -1    0    0    0    0 -0.00000000000E+00 -0.00000000000E+00 -0.25759573762E+02  0.25759573762E+02  0.00000000000E+00 0. -1.
         13    1    1    2    0    0  0.12450844324E+02  0.12348663330E+01 -0.16916035106E+02  0.21040718310E+02  0.10566000000E+00 0. -1.
        996    1    1    2    0    0 -0.12450844324E+02 -0.12348663330E+01  0.91156405524E+02  0.10471885545E+03  0.50000000000E+02 0.  0.
<mgrwt>
<rscale>  0 0.51541715E+02</rscale>
<asrwt>0</asrwt>
<pdfrwt beam="1">  1       13 0.10000000E+01 0.51541715E+02</pdfrwt>
<pdfrwt beam="2">  1       22 0.25759594E+00 0.51541715E+02</pdfrwt>
<totfact> 0.27773558E-01</totfact>
</mgrwt>
</event>
<event>
 4    1  0.2503484E+000  0.5176367E+02  0.7957747E-01  0.1436055E+00
         13   -1    0    0    0    0  0.00000000000E+00  0.00000000000E+00  0.99999944179E+02  0.99999999999E+02  0.10566000000E+00 0. -1.
         22   -1    0    0    0    0 -0.00000000000E+00 -0.00000000000E+00 -0.10649153412E+02  0.10649153412E+02  0.00000000000E+00 0. -1.
         13    1    1    2    0    0  0.12889610150E+02  0.36517107734E+01  0.20995324871E+02  0.24905659435E+02  0.10566000000E+00 0.  1.
        996    1    1    2    0    0 -0.12889610150E+02 -0.36517107734E+01  0.68355465896E+02  0.85743493977E+02  0.50000000000E+02 0.  0.
<mgrwt>
<rscale>  0 0.51763665E+02</rscale>
<asrwt>0</asrwt>
<pdfrwt beam="1">  1       13 0.10000000E+01 0.51763665E+02</pdfrwt>
<pdfrwt beam="2">  1       22 0.10649178E+00 0.51763665E+02</pdfrwt>
<totfact> 0.12852861E+00</totfact>
</mgrwt>
</event>
<event>
 4    1  0.2503484E+000  0.5109690E+02  0.7957747E-01  0.1439513E+00
         13   -1    0    0    0    0  0.00000000000E+00  0.00000000000E+00  0.99999944176E+02  0.99999999996E+02  0.10566000000E+00 0.  1.
         22   -1    0    0    0    0 -0.00000000000E+00 -0.00000000000E+00 -0.10168566199E+02  0.10168566199E+02  0.00000000000E+00 0.  1.
         13    1    1    2    0    0  0.80815713042E-01 -0.10530280551E+02  0.63694076139E+01  0.12307471594E+02  0.10566000000E+00 0. -1.
        996    1    1    2    0    0 -0.80815713042E-01  0.10530280551E+02  0.83461970363E+02  0.97861094601E+02  0.50000000000E+02 0.  0.
<mgrwt>
<rscale>  0 0.51096901E+02</rscale>
<asrwt>0</asrwt>
<pdfrwt beam="1">  1       13 0.10000000E+01 0.51096901E+02</pdfrwt>
<pdfrwt beam="2">  1       22 0.10168591E+00 0.51096901E+02</pdfrwt>
<totfact> 0.13729952E+00</totfact>
</mgrwt>
</event>
<event>
 4    1  0.2503484E+000  0.5188353E+02  0.7957747E-01  0.1435439E+00
         13   -1    0    0    0    0  0.00000000000E+00  0.00000000000E+00  0.99999944179E+02  0.99999999999E+02  0.10566000000E+00 0. -1.
         22   -1    0    0    0    0 -0.00000000000E+00 -0.00000000000E+00 -0.54001449138E+02  0.54001449138E+02  0.00000000000E+00 0.  1.
         13    1    1    2    0    0  0.12866622420E+01  0.13792924303E+02 -0.46186195706E+02  0.48219042903E+02  0.10566000000E+00 0.  1.
        996    1    1    2    0    0 -0.12866622420E+01 -0.13792924303E+02  0.92184690747E+02  0.10578240623E+03  0.50000000000E+02 0.  0.
<mgrwt>
<rscale>  0 0.51883526E+02</rscale>
<asrwt>0</asrwt>
<pdfrwt beam="1">  1       13 0.10000000E+01 0.51883526E+02</pdfrwt>
<pdfrwt beam="2">  1       22 0.54001462E+00 0.51883526E+02</pdfrwt>
<totfact> 0.60601109E-02</totfact>
</mgrwt>
</event>
<event>
 4    1  0.2503484E+000  0.5633087E+02  0.7957747E-01  0.1413908E+00
         13   -1    0    0    0    0  0.00000000000E+00  0.00000000000E+00  0.99999944171E+02  0.99999999992E+02  0.10566000000E+00 0. -1.
         22   -1    0    0    0    0 -0.00000000000E+00 -0.00000000000E+00 -0.26756100697E+02  0.26756100697E+02  0.00000000000E+00 0.  1.
         13    1    1    2    0    0 -0.25078676744E+02  0.66503351119E+01 -0.86583091170E+01  0.27352229619E+02  0.10566000000E+00 0.  1.
        996    1    1    2    0    0  0.25078676744E+02 -0.66503351119E+01  0.81902152592E+02  0.99403871069E+02  0.50000000000E+02 0.  0.
<mgrwt>
<rscale>  0 0.56330871E+02</rscale>
<asrwt>0</asrwt>
<pdfrwt beam="1">  1       13 0.10000000E+01 0.56330871E+02</pdfrwt>
<pdfrwt beam="2">  1       22 0.26756121E+00 0.56330871E+02</pdfrwt>
<totfact> 0.25956047E-01</totfact>
</mgrwt>
</event>
<event>
 4    1  0.2503484E+000  0.5589580E+02  0.7957747E-01  0.1415909E+00
         13   -1    0    0    0    0  0.00000000000E+00  0.00000000000E+00  0.99999944179E+02  0.10000000000E+03  0.10566000000E+00 0. -1.
         22   -1    0    0    0    0 -0.00000000000E+00 -0.00000000000E+00 -0.33428613313E+02  0.33428613313E+02  0.00000000000E+00 0.  1.
         13    1    1    2    0    0 -0.23277045022E+02 -0.90840392261E+01 -0.18881165107E+02  0.31318527319E+02  0.10566000000E+00 0.  1.
        996    1    1    2    0    0  0.23277045022E+02  0.90840392261E+01  0.85452495973E+02  0.10211008599E+03  0.50000000000E+02 0.  0.
<mgrwt>
<rscale>  0 0.55895801E+02</rscale>
<asrwt>0</asrwt>
<pdfrwt beam="1">  1       13 0.10000000E+01 0.55895801E+02</pdfrwt>
<pdfrwt beam="2">  1       22 0.33428632E+00 0.55895801E+02</pdfrwt>
<totfact> 0.17099713E-01</totfact>
</mgrwt>
</event>
<event>
 4    1  0.2503484E+000  0.5389798E+02  0.7957747E-01  0.1425383E+00
         13   -1    0    0    0    0  0.00000000000E+00  0.00000000000E+00  0.99999944171E+02  0.99999999992E+02  0.10566000000E+00 0. -1.
         22   -1    0    0    0    0 -0.00000000000E+00 -0.00000000000E+00 -0.18844458613E+02  0.18844458613E+02  0.00000000000E+00 0. -1.
         13    1    1    2    0    0 -0.99387787185E+01 -0.17498938665E+02 -0.14869458677E+01  0.20179552742E+02  0.10566000000E+00 0.  1.
        996    1    1    2    0    0  0.99387787185E+01  0.17498938665E+02  0.82642431426E+02  0.98664905863E+02  0.50000000000E+02 0.  0.
<mgrwt>
<rscale>  0 0.53897979E+02</rscale>
<asrwt>0</asrwt>
<pdfrwt beam="1">  1       13 0.10000000E+01 0.53897979E+02</pdfrwt>
<pdfrwt beam="2">  1       22 0.18844481E+00 0.53897979E+02</pdfrwt>
<totfact> 0.50741860E-01</totfact>
</mgrwt>
</event>
<event>
 4    1  0.2503484E+000  0.5115781E+02  0.7957747E-01  0.1439195E+00
         13   -1    0    0    0    0  0.00000000000E+00  0.00000000000E+00  0.99999944173E+02  0.99999999993E+02  0.10566000000E+00 0. -1.
         22   -1    0    0    0    0 -0.00000000000E+00 -0.00000000000E+00 -0.10558752444E+02  0.10558752444E+02  0.00000000000E+00 0.  1.
         13    1    1    2    0    0 -0.25708180806E+01 -0.10512476493E+02  0.52155134929E+01  0.12013909133E+02  0.10566000000E+00 0.  1.
        996    1    1    2    0    0  0.25708180806E+01  0.10512476493E+02  0.84225678236E+02  0.98544843304E+02  0.50000000000E+02 0.  0.
<mgrwt>
<rscale>  0 0.51157807E+02</rscale>
<asrwt>0</asrwt>
<pdfrwt beam="1">  1       13 0.10000000E+01 0.51157807E+02</pdfrwt>
<pdfrwt beam="2">  1       22 0.10558777E+00 0.51157807E+02</pdfrwt>
<totfact> 0.12996475E+00</totfact>
</mgrwt>
</event>
<event>
 4    1  0.2503484E+000  0.5769990E+02  0.7957747E-01  0.1407746E+00
         13   -1    0    0    0    0  0.00000000000E+00  0.00000000000E+00  0.99999944187E+02  0.10000000001E+03  0.10566000000E+00 0. -1.
         22   -1    0    0    0    0 -0.00000000000E+00 -0.00000000000E+00 -0.30688221808E+02  0.30688221808E+02  0.00000000000E+00 0.  1.
         13    1    1    2    0    0  0.15624003489E+02 -0.24190268268E+02 -0.11821865362E+02  0.31129507361E+02  0.10566000000E+00 0.  1.
        996    1    1    2    0    0 -0.15624003489E+02  0.24190268268E+02  0.81133587742E+02  0.99558714454E+02  0.50000000000E+02 0.  0.
<mgrwt>
<rscale>  0 0.57699901E+02</rscale>
<asrwt>0</asrwt>
<pdfrwt beam="1">  1       13 0.10000000E+01 0.57699901E+02</pdfrwt>
<pdfrwt beam="2">  1       22 0.30688241E+00 0.57699901E+02</pdfrwt>
<totfact> 0.19988186E-01</totfact>
</mgrwt>
</event>
<event>
 4    1  0.2503484E+000  0.5141871E+02  0.7957747E-01  0.1437836E+00
         13   -1    0    0    0    0  0.00000000000E+00  0.00000000000E+00  0.99999944174E+02  0.99999999995E+02  0.10566000000E+00 0. -1.
         22   -1    0    0    0    0 -0.00000000000E+00 -0.00000000000E+00 -0.10178056005E+02  0.10178056005E+02  0.00000000000E+00 0. -1.
         13    1    1    2    0    0  0.68772729515E+01  0.98278604380E+01  0.12539474690E+02  0.17353193181E+02  0.10566000000E+00 0.  1.
        996    1    1    2    0    0 -0.68772729515E+01 -0.98278604380E+01  0.77282413480E+02  0.92824862819E+02  0.50000000000E+02 0.  0.
<mgrwt>
<rscale>  0 0.51418710E+02</rscale>
<asrwt>0</asrwt>
<pdfrwt beam="1">  1       13 0.10000000E+01 0.51418710E+02</pdfrwt>
<pdfrwt beam="2">  1       22 0.10178081E+00 0.51418710E+02</pdfrwt>
<totfact> 0.13722000E+00</totfact>
</mgrwt>
</event>
<event>
 4    1  0.2503484E+000  0.5476684E+02  0.7957747E-01  0.1421205E+00
         13   -1    0    0    0    0  0.00000000000E+00  0.00000000000E+00  0.99999944183E+02  0.10000000000E+03  0.10566000000E+00 0.  1.
         22   -1    0    0    0    0 -0.00000000000E+00 -0.00000000000E+00 -0.14925105510E+02  0.14925105510E+02  0.00000000000E+00 0.  1.
         13    1    1    2    0    0  0.36939183256E+01 -0.22039993927E+02  0.27990726052E+02  0.35817569346E+02  0.10566000000E+00 0. -1.
        996    1    1    2    0    0 -0.36939183256E+01  0.22039993927E+02  0.57084112621E+02  0.79107536168E+02  0.50000000000E+02 0.  0.
<mgrwt>
<rscale>  0 0.54766836E+02</rscale>
<asrwt>0</asrwt>
<pdfrwt beam="1">  1       13 0.10000000E+01 0.54766836E+02</pdfrwt>
<pdfrwt beam="2">  1       22 0.14925129E+00 0.54766836E+02</pdfrwt>
<totfact> 0.76341277E-01</totfact>
</mgrwt>
</event>
<event>
 4    1  0.2503484E+000  0.5102973E+02  0.7957747E-01  0.1439865E+00
         13   -1    0    0    0    0  0.00000000000E+00  0.00000000000E+00  0.99999944176E+02  0.99999999996E+02  0.10566000000E+00 0.  1.
         22   -1    0    0    0    0 -0.00000000000E+00 -0.00000000000E+00 -0.14656415158E+02  0.14656415158E+02  0.00000000000E+00 0. -1.
         13    1    1    2    0    0 -0.71530449904E+01  0.72710092081E+01 -0.46434617971E+01  0.11207431866E+02  0.10566000000E+00 0. -1.
        996    1    1    2    0    0  0.71530449904E+01 -0.72710092081E+01  0.89986990814E+02  0.10344898329E+03  0.50000000000E+02 0.  0.
<mgrwt>
<rscale>  0 0.51029733E+02</rscale>
<asrwt>0</asrwt>
<pdfrwt beam="1">  1       13 0.10000000E+01 0.51029733E+02</pdfrwt>
<pdfrwt beam="2">  1       22 0.14656439E+00 0.51029733E+02</pdfrwt>
<totfact> 0.78082369E-01</totfact>
</mgrwt>
</event>
<event>
 4    1  0.2503484E+000  0.5367850E+02  0.7957747E-01  0.1426454E+00
         13   -1    0    0    0    0  0.00000000000E+00  0.00000000000E+00  0.99999944186E+02  0.10000000001E+03  0.10566000000E+00 0. -1.
         22   -1    0    0    0    0 -0.00000000000E+00 -0.00000000000E+00 -0.16789745554E+02  0.16789745554E+02  0.00000000000E+00 0.  1.
         13    1    1    2    0    0  0.14306264911E+02 -0.13293309169E+02  0.22603699823E+01  0.19659647018E+02  0.10566000000E+00 0.  1.
        996    1    1    2    0    0 -0.14306264911E+02  0.13293309169E+02  0.80949828650E+02  0.97130098542E+02  0.50000000000E+02 0.  0.
<mgrwt>
<rscale>  0 0.53678499E+02</rscale>
<asrwt>0</asrwt>
<pdfrwt beam="1">  1       13 0.10000000E+01 0.53678499E+02</pdfrwt>
<pdfrwt beam="2">  1       22 0.16789769E+00 0.53678499E+02</pdfrwt>
<totfact> 0.62335452E-01</totfact>
</mgrwt>
</event>
<event>
 4    1  0.2503484E+000  0.5501051E+02  0.7957747E-01  0.1420049E+00
         13   -1    0    0    0    0  0.00000000000E+00  0.00000000000E+00  0.99999944184E+02  0.10000000000E+03  0.10566000000E+00 0.  1.
         22   -1    0    0    0    0 -0.00000000000E+00 -0.00000000000E+00 -0.16938486394E+02  0.16938486394E+02  0.00000000000E+00 0.  1.
         13    1    1    2    0    0  0.94354649693E+01 -0.20907603913E+02  0.89060900497E+01  0.24606615057E+02  0.10566000000E+00 0. -1.
        996    1    1    2    0    0 -0.94354649693E+01  0.20907603913E+02  0.74155367740E+02  0.92331871341E+02  0.50000000000E+02 0.  0.
<mgrwt>
<rscale>  0 0.55010507E+02</rscale>
<asrwt>0</asrwt>
<pdfrwt beam="1">  1       13 0.10000000E+01 0.55010507E+02</pdfrwt>
<pdfrwt beam="2">  1       22 0.16938510E+00 0.55010507E+02</pdfrwt>
<totfact> 0.61533248E-01</totfact>
</mgrwt>
</event>
<event>
 4    1  0.2503484E+000  0.5202392E+02  0.7957747E-01  0.1434721E+00
         13   -1    0    0    0    0  0.00000000000E+00  0.00000000000E+00  0.99999944178E+02  0.99999999998E+02  0.10566000000E+00 0. -1.
         22   -1    0    0    0    0 -0.00000000000E+00 -0.00000000000E+00 -0.24383304412E+02  0.24383304412E+02  0.00000000000E+00 0.  1.
         13    1    1    2    0    0  0.81194233373E+01 -0.11855921312E+02 -0.14445172324E+02  0.20375526324E+02  0.10566000000E+00 0.  1.
        996    1    1    2    0    0 -0.81194233373E+01  0.11855921312E+02  0.90061812090E+02  0.10400777809E+03  0.50000000000E+02 0.  0.
<mgrwt>
<rscale>  0 0.52023917E+02</rscale>
<asrwt>0</asrwt>
<pdfrwt beam="1">  1       13 0.10000000E+01 0.52023917E+02</pdfrwt>
<pdfrwt beam="2">  1       22 0.24383326E+00 0.52023917E+02</pdfrwt>
<totfact> 0.30963631E-01</totfact>
</mgrwt>
</event>
<event>
 4    1  0.2503484E+000  0.5145788E+02  0.7957747E-01  0.1437633E+00
         13   -1    0    0    0    0  0.00000000000E+00  0.00000000000E+00  0.99999944177E+02  0.99999999998E+02  0.10566000000E+00 0.  1.
         22   -1    0    0    0    0 -0.00000000000E+00 -0.00000000000E+00 -0.10954127732E+02  0.10954127732E+02  0.00000000000E+00 0.  1.
         13    1    1    2    0    0 -0.10131029192E+02  0.67286833052E+01  0.67919247532E+01  0.13930338740E+02  0.10566000000E+00 0. -1.
        996    1    1    2    0    0  0.10131029192E+02 -0.67286833052E+01  0.82253891692E+02  0.97023788990E+02  0.50000000000E+02 0.  0.
<mgrwt>
<rscale>  0 0.51457875E+02</rscale>
<asrwt>0</asrwt>
<pdfrwt beam="1">  1       13 0.10000000E+01 0.51457875E+02</pdfrwt>
<pdfrwt beam="2">  1       22 0.10954153E+00 0.51457875E+02</pdfrwt>
<totfact> 0.12318102E+00</totfact>
</mgrwt>
</event>
<event>
 4    1  0.2503484E+000  0.5943838E+02  0.7957747E-01  0.1400204E+00
         13   -1    0    0    0    0  0.00000000000E+00  0.00000000000E+00  0.99999944176E+02  0.99999999996E+02  0.10566000000E+00 0.  1.
         22   -1    0    0    0    0 -0.00000000000E+00 -0.00000000000E+00 -0.66530834532E+02  0.66530834532E+02  0.00000000000E+00 0. -1.
         13    1    1    2    0    0  0.26856052805E+02  0.17654290217E+02 -0.52773450169E+02  0.61789721978E+02  0.10566000000E+00 0. -1.
        996    1    1    2    0    0 -0.26856052805E+02 -0.17654290217E+02  0.86242559812E+02  0.10474111255E+03  0.50000000000E+02 0.  0.
<mgrwt>
<rscale>  0 0.59438384E+02</rscale>
<asrwt>0</asrwt>
<pdfrwt beam="1">  1       13 0.10000000E+01 0.59438384E+02</pdfrwt>
<pdfrwt beam="2">  1       22 0.66530844E+00 0.59438384E+02</pdfrwt>
<totfact> 0.86965473E-02</totfact>
</mgrwt>
</event>
<event>
 4    1  0.2503484E+000  0.5185577E+02  0.7957747E-01  0.1435582E+00
         13   -1    0    0    0    0  0.00000000000E+00  0.00000000000E+00  0.99999944180E+02  0.10000000000E+03  0.10566000000E+00 0.  1.
         22   -1    0    0    0    0 -0.00000000000E+00 -0.00000000000E+00 -0.11974887046E+02  0.11974887046E+02  0.00000000000E+00 0. -1.
         13    1    1    2    0    0  0.45406942559E+01 -0.12977018243E+02  0.61544756357E+01  0.15063520213E+02  0.10566000000E+00 0. -1.
        996    1    1    2    0    0 -0.45406942559E+01  0.12977018243E+02  0.81870581497E+02  0.96911366834E+02  0.50000000000E+02 0.  0.
<mgrwt>
<rscale>  0 0.51855770E+02</rscale>
<asrwt>0</asrwt>
<pdfrwt beam="1">  1       13 0.10000000E+01 0.51855770E+02</pdfrwt>
<pdfrwt beam="2">  1       22 0.11974912E+00 0.51855770E+02</pdfrwt>
<totfact> 0.10780448E+00</totfact>
</mgrwt>
</event>
<event>
 4    1  0.2503484E+000  0.5101468E+02  0.7957747E-01  0.1439944E+00
         13   -1    0    0    0    0  0.00000000000E+00  0.00000000000E+00  0.99999944187E+02  0.10000000001E+03  0.10566000000E+00 0. -1.
         22   -1    0    0    0    0 -0.00000000000E+00 -0.00000000000E+00 -0.18142772267E+02  0.18142772267E+02  0.00000000000E+00 0.  1.
         13    1    1    2    0    0 -0.92133658578E+01 -0.41965688589E+01 -0.92573531213E+01  0.13718857513E+02  0.10566000000E+00 0.  1.
        996    1    1    2    0    0  0.92133658578E+01  0.41965688589E+01  0.91114525041E+02  0.10442391476E+03  0.50000000000E+02 0.  0.
<mgrwt>
<rscale>  0 0.51014677E+02</rscale>
<asrwt>0</asrwt>
<pdfrwt beam="1">  1       13 0.10000000E+01 0.51014677E+02</pdfrwt>
<pdfrwt beam="2">  1       22 0.18142795E+00 0.51014677E+02</pdfrwt>
<totfact> 0.54065129E-01</totfact>
</mgrwt>
</event>
<event>
 4    1  0.2503484E+000  0.5665925E+02  0.7957747E-01  0.1412411E+00
         13   -1    0    0    0    0  0.00000000000E+00  0.00000000000E+00  0.99999944169E+02  0.99999999989E+02  0.10566000000E+00 0.  1.
         22   -1    0    0    0    0 -0.00000000000E+00 -0.00000000000E+00 -0.17905034129E+02  0.17905034129E+02  0.00000000000E+00 0. -1.
         13    1    1    2    0    0 -0.25476249941E+02 -0.78250302521E+01  0.17027586854E+02  0.31626259463E+02  0.10566000000E+00 0. -1.
        996    1    1    2    0    0  0.25476249941E+02  0.78250302521E+01  0.65067323186E+02  0.86278774656E+02  0.50000000000E+02 0.  0.
<mgrwt>
<rscale>  0 0.56659248E+02</rscale>
<asrwt>0</asrwt>
<pdfrwt beam="1">  1       13 0.10000000E+01 0.56659248E+02</pdfrwt>
<pdfrwt beam="2">  1       22 0.17905057E+00 0.56659248E+02</pdfrwt>
<totfact> 0.55932139E-01</totfact>
</mgrwt>
</event>
<event>
 4    1  0.2503484E+000  0.5191078E+02  0.7957747E-01  0.1435300E+00
         13   -1    0    0    0    0  0.00000000000E+00  0.00000000000E+00  0.99999944181E+02  0.10000000000E+03  0.10566000000E+00 0. -1.
         22   -1    0    0    0    0 -0.00000000000E+00 -0.00000000000E+00 -0.30310733538E+02  0.30310733538E+02  0.00000000000E+00 0.  1.
         13    1    1    2    0    0  0.10261233573E+02 -0.94570529248E+01 -0.21353186425E+02  0.25508792582E+02  0.10566000000E+00 0.  1.
        996    1    1    2    0    0 -0.10261233573E+02  0.94570529248E+01  0.91042397067E+02  0.10480194096E+03  0.50000000000E+02 0.  0.
<mgrwt>
<rscale>  0 0.51910777E+02</rscale>
<asrwt>0</asrwt>
<pdfrwt beam="1">  1       13 0.10000000E+01 0.51910777E+02</pdfrwt>
<pdfrwt beam="2">  1       22 0.30310753E+00 0.51910777E+02</pdfrwt>
<totfact> 0.20307144E-01</totfact>
</mgrwt>
</event>
<event>
 4    1  0.2503484E+000  0.5208436E+02  0.7957747E-01  0.1434413E+00
         13   -1    0    0    0    0  0.00000000000E+00  0.00000000000E+00  0.99999944173E+02  0.99999999994E+02  0.10566000000E+00 0. -1.
         22   -1    0    0    0    0 -0.00000000000E+00 -0.00000000000E+00 -0.12352249811E+02  0.12352249811E+02  0.00000000000E+00 0.  1.
         13    1    1    2    0    0 -0.99268009215E+01 -0.10688280210E+02  0.65984466652E+01  0.16010352051E+02  0.10566000000E+00 0.  1.
        996    1    1    2    0    0  0.99268009215E+01  0.10688280210E+02  0.81049247697E+02  0.96341897753E+02  0.50000000000E+02 0.  0.
<mgrwt>
<rscale>  0 0.52084361E+02</rscale>
<asrwt>0</asrwt>
<pdfrwt beam="1">  1       13 0.10000000E+01 0.52084361E+02</pdfrwt>
<pdfrwt beam="2">  1       22 0.12352274E+00 0.52084361E+02</pdfrwt>
<totfact> 0.10283052E+00</totfact>
</mgrwt>
</event>
<event>
 4    1  0.2503484E+000  0.5110321E+02  0.7957747E-01  0.1439480E+00
         13   -1    0    0    0    0  0.00000000000E+00  0.00000000000E+00  0.99999944171E+02  0.99999999991E+02  0.10566000000E+00 0.  1.
         22   -1    0    0    0    0 -0.00000000000E+00 -0.00000000000E+00 -0.44314649427E+02  0.44314649427E+02  0.00000000000E+00 0. -1.
         13    1    1    2    0    0  0.46699806773E+01  0.94725698506E+01 -0.36998234853E+02  0.38476211422E+02  0.10566000000E+00 0. -1.
        996    1    1    2    0    0 -0.46699806773E+01 -0.94725698506E+01  0.92683529597E+02  0.10583843800E+03  0.50000000000E+02 0.  0.
<mgrwt>
<rscale>  0 0.51103212E+02</rscale>
<asrwt>0</asrwt>
<pdfrwt beam="1">  1       13 0.10000000E+01 0.51103212E+02</pdfrwt>
<pdfrwt beam="2">  1       22 0.44314665E+00 0.51103212E+02</pdfrwt>
<totfact> 0.10004022E-01</totfact>
</mgrwt>
</event>
<event>
 4    1  0.2503484E+000  0.5115269E+02  0.7957747E-01  0.1439222E+00
         13   -1    0    0    0    0  0.00000000000E+00  0.00000000000E+00  0.99999944172E+02  0.99999999992E+02  0.10566000000E+00 0. -1.
         22   -1    0    0    0    0 -0.00000000000E+00 -0.00000000000E+00 -0.10339428125E+02  0.10339428125E+02  0.00000000000E+00 0. -1.
         13    1    1    2    0    0 -0.18895412235E+01  0.10631412751E+02  0.62039803801E+01  0.12453828315E+02  0.10566000000E+00 0.  1.
        996    1    1    2    0    0  0.18895412235E+01 -0.10631412751E+02  0.83456535667E+02  0.97885599802E+02  0.50000000000E+02 0.  0.
<mgrwt>
<rscale>  0 0.51152686E+02</rscale>
<asrwt>0</asrwt>
<pdfrwt beam="1">  1       13 0.10000000E+01 0.51152686E+02</pdfrwt>
<pdfrwt beam="2">  1       22 0.10339453E+00 0.51152686E+02</pdfrwt>
<totfact> 0.13402272E+00</totfact>
</mgrwt>
</event>
<event>
 4    1  0.2503484E+000  0.5541136E+02  0.7957747E-01  0.1418164E+00
         13   -1    0    0    0    0  0.00000000000E+00  0.00000000000E+00  0.99999944170E+02  0.99999999991E+02  0.10566000000E+00 0. -1.
         22   -1    0    0    0    0 -0.00000000000E+00 -0.00000000000E+00 -0.25075858932E+02  0.25075858932E+02  0.00000000000E+00 0.  1.
         13    1    1    2    0    0  0.15785277254E+02 -0.17923268600E+02 -0.81339050594E+01  0.25230737422E+02  0.10566000000E+00 0.  1.
        996    1    1    2    0    0 -0.15785277254E+02  0.17923268600E+02  0.83057990298E+02  0.99845121501E+02  0.50000000000E+02 0.  0.
<mgrwt>
<rscale>  0 0.55411357E+02</rscale>
<asrwt>0</asrwt>
<pdfrwt beam="1">  1       13 0.10000000E+01 0.55411357E+02</pdfrwt>
<pdfrwt beam="2">  1       22 0.25075880E+00 0.55411357E+02</pdfrwt>
<totfact> 0.29455861E-01</totfact>
</mgrwt>
</event>
<event>
 4    1  0.2503484E+000  0.5662599E+02  0.7957747E-01  0.1412562E+00
         13   -1    0    0    0    0  0.00000000000E+00  0.00000000000E+00  0.99999944174E+02  0.99999999994E+02  0.10566000000E+00 0.  1.
         22   -1    0    0    0    0 -0.00000000000E+00 -0.00000000000E+00 -0.61987140981E+02  0.61987140981E+02  0.00000000000E+00 0. -1.
         13    1    1    2    0    0 -0.14007549037E+02 -0.22589640117E+02 -0.50408983366E+02  0.56987542838E+02  0.10566000000E+00 0. -1.
        996    1    1    2    0    0  0.14007549037E+02  0.22589640117E+02  0.88421786559E+02  0.10499959814E+03  0.50000000000E+02 0.  0.
<mgrwt>
<rscale>  0 0.56625995E+02</rscale>
<asrwt>0</asrwt>
<pdfrwt beam="1">  1       13 0.10000000E+01 0.56625995E+02</pdfrwt>
<pdfrwt beam="2">  1       22 0.61987152E+00 0.56625995E+02</pdfrwt>
<totfact> 0.72858090E-02</totfact>
</mgrwt>
</event>
<event>
 4    1  0.2503484E+000  0.5145039E+02  0.7957747E-01  0.1437672E+00
         13   -1    0    0    0    0  0.00000000000E+00  0.00000000000E+00  0.99999944177E+02  0.99999999997E+02  0.10566000000E+00 0. -1.
         22   -1    0    0    0    0 -0.00000000000E+00 -0.00000000000E+00 -0.10179537548E+02  0.10179537548E+02  0.00000000000E+00 0. -1.
         13    1    1    2    0    0 -0.11975379608E+02 -0.19319901899E+01  0.21015411329E+02  0.24265221619E+02  0.10566000000E+00 0.  1.
        996    1    1    2    0    0  0.11975379608E+02  0.19319901899E+01  0.68804995300E+02  0.85914315927E+02  0.50000000000E+02 0.  0.
<mgrwt>
<rscale>  0 0.51450387E+02</rscale>
<asrwt>0</asrwt>
<pdfrwt beam="1">  1       13 0.10000000E+01 0.51450387E+02</pdfrwt>
<pdfrwt beam="2">  1       22 0.10179563E+00 0.51450387E+02</pdfrwt>
<totfact> 0.13720140E+00</totfact>
</mgrwt>
</event>
<event>
 4    1  0.2503484E+000  0.6232080E+02  0.7957747E-01  0.1388343E+00
         13   -1    0    0    0    0  0.00000000000E+00  0.00000000000E+00  0.99999944175E+02  0.99999999995E+02  0.10566000000E+00 0.  1.
         22   -1    0    0    0    0 -0.00000000000E+00 -0.00000000000E+00 -0.32750237198E+02  0.32750237198E+02  0.00000000000E+00 0. -1.
         13    1    1    2    0    0 -0.30792885795E+02 -0.20872968473E+02 -0.47752254456E+01  0.37505953802E+02  0.10566000000E+00 0. -1.
        996    1    1    2    0    0  0.30792885795E+02  0.20872968473E+02  0.72024932422E+02  0.95244283392E+02  0.50000000000E+02 0.  0.
<mgrwt>
<rscale>  0 0.62320804E+02</rscale>
<asrwt>0</asrwt>
<pdfrwt beam="1">  1       13 0.10000000E+01 0.62320804E+02</pdfrwt>
<pdfrwt beam="2">  1       22 0.32750256E+00 0.62320804E+02</pdfrwt>
<totfact> 0.17847865E-01</totfact>
</mgrwt>
</event>
<event>
 4    1  0.2503484E+000  0.5130762E+02  0.7957747E-01  0.1438414E+00
         13   -1    0    0    0    0  0.00000000000E+00  0.00000000000E+00  0.99999944184E+02  0.10000000000E+03  0.10566000000E+00 0.  1.
         22   -1    0    0    0    0 -0.00000000000E+00 -0.00000000000E+00 -0.10107161322E+02  0.10107161322E+02  0.00000000000E+00 0.  1.
         13    1    1    2    0    0  0.11508804371E+02 -0.14031703923E+00  0.10509062252E+02  0.15586013614E+02  0.10566000000E+00 0. -1.
        996    1    1    2    0    0 -0.11508804371E+02  0.14031703923E+00  0.79383720610E+02  0.94521147712E+02  0.50000000000E+02 0.  0.
<mgrwt>
<rscale>  0 0.51307624E+02</rscale>
<asrwt>0</asrwt>
<pdfrwt beam="1">  1       13 0.10000000E+01 0.51307624E+02</pdfrwt>
<pdfrwt beam="2">  1       22 0.10107186E+00 0.51307624E+02</pdfrwt>
<totfact> 0.13858416E+00</totfact>
</mgrwt>
</event>
<event>
 4    1  0.2503484E+000  0.5110075E+02  0.7957747E-01  0.1439493E+00
         13   -1    0    0    0    0  0.00000000000E+00  0.00000000000E+00  0.99999944183E+02  0.10000000000E+03  0.10566000000E+00 0. -1.
         22   -1    0    0    0    0 -0.00000000000E+00 -0.00000000000E+00 -0.12353294384E+02  0.12353294384E+02  0.00000000000E+00 0. -1.
         13    1    1    2    0    0  0.10209453930E+02  0.26558687984E+01 -0.39408998479E+00  0.10557133113E+02  0.10566000000E+00 0.  1.
        996    1    1    2    0    0 -0.10209453930E+02 -0.26558687984E+01  0.88040739784E+02  0.10179616127E+03  0.50000000000E+02 0.  0.
<mgrwt>
<rscale>  0 0.51100749E+02</rscale>
<asrwt>0</asrwt>
<pdfrwt beam="1">  1       13 0.10000000E+01 0.51100749E+02</pdfrwt>
<pdfrwt beam="2">  1       22 0.12353319E+00 0.51100749E+02</pdfrwt>
<totfact> 0.10259200E+00</totfact>
</mgrwt>
</event>
<event>
 4    1  0.2503484E+000  0.5681610E+02  0.7957747E-01  0.1411701E+00
         13   -1    0    0    0    0  0.00000000000E+00  0.00000000000E+00  0.99999944175E+02  0.99999999995E+02  0.10566000000E+00 0. -1.
         22   -1    0    0    0    0 -0.00000000000E+00 -0.00000000000E+00 -0.31866783583E+02  0.31866783583E+02  0.00000000000E+00 0.  1.
         13    1    1    2    0    0 -0.25381388415E+02 -0.91571926914E+01 -0.15229133005E+02  0.30983975084E+02  0.10566000000E+00 0.  1.
        996    1    1    2    0    0  0.25381388415E+02  0.91571926914E+01  0.83362293598E+02  0.10088280849E+03  0.50000000000E+02 0.  0.
<mgrwt>
<rscale>  0 0.56816099E+02</rscale>
<asrwt>0</asrwt>
<pdfrwt beam="1">  1       13 0.10000000E+01 0.56816099E+02</pdfrwt>
<pdfrwt beam="2">  1       22 0.31866803E+00 0.56816099E+02</pdfrwt>
<totfact> 0.18640153E-01</totfact>
</mgrwt>
</event>
<event>
 4    1  0.2503484E+000  0.5245726E+02  0.7957747E-01  0.1432521E+00
         13   -1    0    0    0    0  0.00000000000E+00  0.00000000000E+00  0.99999944171E+02  0.99999999991E+02  0.10566000000E+00 0. -1.
         22   -1    0    0    0    0 -0.00000000000E+00 -0.00000000000E+00 -0.33293606356E+02  0.33293606356E+02  0.00000000000E+00 0.  1.
         13    1    1    2    0    0  0.69716215822E+01  0.14253454818E+02 -0.23846873808E+02  0.28643481565E+02  0.10566000000E+00 0.  1.
        996    1    1    2    0    0 -0.69716215822E+01 -0.14253454818E+02  0.90553211623E+02  0.10465012478E+03  0.50000000000E+02 0.  0.
<mgrwt>
<rscale>  0 0.52457263E+02</rscale>
<asrwt>0</asrwt>
<pdfrwt beam="1">  1       13 0.10000000E+01 0.52457263E+02</pdfrwt>
<pdfrwt beam="2">  1       22 0.33293625E+00 0.52457263E+02</pdfrwt>
<totfact> 0.17158009E-01</totfact>
</mgrwt>
</event>
<event>
 4    1  0.2503484E+000  0.5113903E+02  0.7957747E-01  0.1439293E+00
         13   -1    0    0    0    0  0.00000000000E+00  0.00000000000E+00  0.99999944179E+02  0.10000000000E+03  0.10566000000E+00 0.  1.
         22   -1    0    0    0    0 -0.00000000000E+00 -0.00000000000E+00 -0.16089387049E+02  0.16089387049E+02  0.00000000000E+00 0.  1.
         13    1    1    2    0    0  0.17966230043E+01 -0.10581731064E+02 -0.62607589767E+01  0.12426147977E+02  0.10566000000E+00 0. -1.
        996    1    1    2    0    0 -0.17966230043E+01  0.10581731064E+02  0.90171316107E+02  0.10366323907E+03  0.50000000000E+02 0.  0.
<mgrwt>
<rscale>  0 0.51139035E+02</rscale>
<asrwt>0</asrwt>
<pdfrwt beam="1">  1       13 0.10000000E+01 0.51139035E+02</pdfrwt>
<pdfrwt beam="2">  1       22 0.16089410E+00 0.51139035E+02</pdfrwt>
<totfact> 0.66768808E-01</totfact>
</mgrwt>
</event>
<event>
 4    1  0.2503484E+000  0.5124140E+02  0.7957747E-01  0.1438759E+00
         13   -1    0    0    0    0  0.00000000000E+00  0.00000000000E+00  0.99999944172E+02  0.99999999992E+02  0.10566000000E+00 0. -1.
         22   -1    0    0    0    0 -0.00000000000E+00 -0.00000000000E+00 -0.18862884301E+02  0.18862884301E+02  0.00000000000E+00 0.  1.
         13    1    1    2    0    0 -0.54384262307E+01  0.98032918362E+01 -0.95322561510E+01  0.14715844592E+02  0.10566000000E+00 0.  1.
        996    1    1    2    0    0  0.54384262307E+01 -0.98032918362E+01  0.90669316022E+02  0.10414703970E+03  0.50000000000E+02 0.  0.
<mgrwt>
<rscale>  0 0.51241399E+02</rscale>
<asrwt>0</asrwt>
<pdfrwt beam="1">  1       13 0.10000000E+01 0.51241399E+02</pdfrwt>
<pdfrwt beam="2">  1       22 0.18862907E+00 0.51241399E+02</pdfrwt>
<totfact> 0.50406121E-01</totfact>
</mgrwt>
</event>
<event>
 4    1  0.2503484E+000  0.5393091E+02  0.7957747E-01  0.1425223E+00
         13   -1    0    0    0    0  0.00000000000E+00  0.00000000000E+00  0.99999944183E+02  0.10000000000E+03  0.10566000000E+00 0.  1.
         22   -1    0    0    0    0 -0.00000000000E+00 -0.00000000000E+00 -0.14084066488E+02  0.14084066488E+02  0.00000000000E+00 0.  1.
         13    1    1    2    0    0 -0.12861563189E+00  0.20212051722E+02  0.15966397429E+02  0.25758116929E+02  0.10566000000E+00 0. -1.
        996    1    1    2    0    0  0.12861563189E+00 -0.20212051722E+02  0.69949480265E+02  0.88325949563E+02  0.50000000000E+02 0.  0.
<mgrwt>
<rscale>  0 0.53930915E+02</rscale>
<asrwt>0</asrwt>
<pdfrwt beam="1">  1       13 0.10000000E+01 0.53930915E+02</pdfrwt>
<pdfrwt beam="2">  1       22 0.14084090E+00 0.53930915E+02</pdfrwt>
<totfact> 0.83844616E-01</totfact>
</mgrwt>
</event>
<event>
 4    1  0.2503484E+000  0.5249819E+02  0.7957747E-01  0.1432315E+00
         13   -1    0    0    0    0  0.00000000000E+00  0.00000000000E+00  0.99999944185E+02  0.10000000001E+03  0.10566000000E+00 0.  1.
         22   -1    0    0    0    0 -0.00000000000E+00 -0.00000000000E+00 -0.17077298889E+02  0.17077298889E+02  0.00000000000E+00 0. -1.
         13    1    1    2    0    0 -0.10869820261E+02 -0.11743396002E+02 -0.31007635621E+01  0.16299884690E+02  0.10566000000E+00 0. -1.
        996    1    1    2    0    0  0.10869820261E+02  0.11743396002E+02  0.86023408858E+02  0.10077741420E+03  0.50000000000E+02 0.  0.
<mgrwt>
<rscale>  0 0.52498194E+02</rscale>
<asrwt>0</asrwt>
<pdfrwt beam="1">  1       13 0.10000000E+01 0.52498194E+02</pdfrwt>
<pdfrwt beam="2">  1       22 0.17077322E+00 0.52498194E+02</pdfrwt>
<totfact> 0.60374494E-01</totfact>
</mgrwt>
</event>
<event>
 4    1  0.2503484E+000  0.5372971E+02  0.7957747E-01  0.1426203E+00
         13   -1    0    0    0    0  0.00000000000E+00  0.00000000000E+00  0.99999944181E+02  0.10000000000E+03  0.10566000000E+00 0.  1.
         22   -1    0    0    0    0 -0.00000000000E+00 -0.00000000000E+00 -0.36498749568E+02  0.36498749568E+02  0.00000000000E+00 0. -1.
         13    1    1    2    0    0  0.14326291304E+02  0.13477361332E+02 -0.25701330068E+02  0.32364354193E+02  0.10566000000E+00 0. -1.
        996    1    1    2    0    0 -0.14326291304E+02 -0.13477361332E+02  0.89202524681E+02  0.10413439538E+03  0.50000000000E+02 0.  0.
<mgrwt>
<rscale>  0 0.53729711E+02</rscale>
<asrwt>0</asrwt>
<pdfrwt beam="1">  1       13 0.10000000E+01 0.53729711E+02</pdfrwt>
<pdfrwt beam="2">  1       22 0.36498767E+00 0.53729711E+02</pdfrwt>
<totfact> 0.14627396E-01</totfact>
</mgrwt>
</event>
<event>
 4    1  0.2503484E+000  0.5655567E+02  0.7957747E-01  0.1412882E+00
         13   -1    0    0    0    0  0.00000000000E+00  0.00000000000E+00  0.99999944185E+02  0.10000000000E+03  0.10566000000E+00 0. -1.
         22   -1    0    0    0    0 -0.00000000000E+00 -0.00000000000E+00 -0.18762011113E+02  0.18762011113E+02  0.00000000000E+00 0.  1.
         13    1    1    2    0    0 -0.20653389483E+02 -0.16491871718E+02  0.11109426457E+02  0.28670103769E+02  0.10566000000E+00 0.  1.
        996    1    1    2    0    0  0.20653389483E+02  0.16491871718E+02  0.70128506614E+02  0.90091907349E+02  0.50000000000E+02 0.  0.
<mgrwt>
<rscale>  0 0.56555675E+02</rscale>
<asrwt>0</asrwt>
<pdfrwt beam="1">  1       13 0.10000000E+01 0.56555675E+02</pdfrwt>
<pdfrwt beam="2">  1       22 0.18762034E+00 0.56555675E+02</pdfrwt>
<totfact> 0.51386057E-01</totfact>
</mgrwt>
</event>
<event>
 4    1  0.2503484E+000  0.5514578E+02  0.7957747E-01  0.1419411E+00
         13   -1    0    0    0    0  0.00000000000E+00  0.00000000000E+00  0.99999944175E+02  0.99999999996E+02  0.10566000000E+00 0.  1.
         22   -1    0    0    0    0 -0.00000000000E+00 -0.00000000000E+00 -0.16698458127E+02  0.16698458127E+02  0.00000000000E+00 0. -1.
         13    1    1    2    0    0 -0.64285838862E+01  0.22354645457E+02  0.10902148539E+02  0.25689002921E+02  0.10566000000E+00 0. -1.
        996    1    1    2    0    0  0.64285838862E+01 -0.22354645457E+02  0.72399337509E+02  0.91009455201E+02  0.50000000000E+02 0.  0.
<mgrwt>
<rscale>  0 0.55145778E+02</rscale>
<asrwt>0</asrwt>
<pdfrwt beam="1">  1       13 0.10000000E+01 0.55145778E+02</pdfrwt>
<pdfrwt beam="2">  1       22 0.16698481E+00 0.55145778E+02</pdfrwt>
<totfact> 0.63102439E-01</totfact>
</mgrwt>
</event>
<event>
 4    1  0.2503484E+000  0.5243888E+02  0.7957747E-01  0.1432614E+00
         13   -1    0    0    0    0  0.00000000000E+00  0.00000000000E+00  0.99999944183E+02  0.10000000000E+03  0.10566000000E+00 0. -1.
         22   -1    0    0    0    0 -0.00000000000E+00 -0.00000000000E+00 -0.11673316992E+02  0.11673316992E+02  0.00000000000E+00 0. -1.
         13    1    1    2    0    0  0.77044530483E+01  0.13801378124E+02  0.18139106989E+02  0.24059821306E+02  0.10566000000E+00 0.  1.
        996    1    1    2    0    0 -0.77044530483E+01 -0.13801378124E+02  0.70187520202E+02  0.87613495690E+02  0.50000000000E+02 0.  0.
<mgrwt>
<rscale>  0 0.52438885E+02</rscale>
<asrwt>0</asrwt>
<pdfrwt beam="1">  1       13 0.10000000E+01 0.52438885E+02</pdfrwt>
<pdfrwt beam="2">  1       22 0.11673342E+00 0.52438885E+02</pdfrwt>
<totfact> 0.11222189E+00</totfact>
</mgrwt>
</event>
<event>
 4    1  0.2503484E+000  0.5127034E+02  0.7957747E-01  0.1438608E+00
         13   -1    0    0    0    0  0.00000000000E+00  0.00000000000E+00  0.99999944173E+02  0.99999999994E+02  0.10566000000E+00 0. -1.
         22   -1    0    0    0    0 -0.00000000000E+00 -0.00000000000E+00 -0.99760304280E+01  0.99760304280E+01  0.00000000000E+00 0. -1.
         13    1    1    2    0    0  0.11504652652E+01  0.11283819464E+02  0.22456366394E+02  0.25158452013E+02  0.10566000000E+00 0.  1.
        996    1    1    2    0    0 -0.11504652652E+01 -0.11283819464E+02  0.67567547352E+02  0.84817578409E+02  0.50000000000E+02 0.  0.
<mgrwt>
<rscale>  0 0.51270344E+02</rscale>
<asrwt>0</asrwt>
<pdfrwt beam="1">  1       13 0.10000000E+01 0.51270344E+02</pdfrwt>
<pdfrwt beam="2">  1       22 0.99760556E-01 0.51270344E+02</pdfrwt>
<totfact> 0.14121992E+00</totfact>
</mgrwt>
</event>
<event>
 4    1  0.2503484E+000  0.5212211E+02  0.7957747E-01  0.1434220E+00
         13   -1    0    0    0    0  0.00000000000E+00  0.00000000000E+00  0.99999944178E+02  0.99999999999E+02  0.10566000000E+00 0. -1.
         22   -1    0    0    0    0 -0.00000000000E+00 -0.00000000000E+00 -0.14544739573E+02  0.14544739573E+02  0.00000000000E+00 0.  1.
         13    1    1    2    0    0 -0.99661118641E+01 -0.10834723691E+02  0.32454890199E+00  0.14725186558E+02  0.10566000000E+00 0.  1.
        996    1    1    2    0    0  0.99661118641E+01  0.10834723691E+02  0.85130655704E+02  0.99819553013E+02  0.50000000000E+02 0.  0.
<mgrwt>
<rscale>  0 0.52122113E+02</rscale>
<asrwt>0</asrwt>
<pdfrwt beam="1">  1       13 0.10000000E+01 0.52122113E+02</pdfrwt>
<pdfrwt beam="2">  1       22 0.14544763E+00 0.52122113E+02</pdfrwt>
<totfact> 0.79252468E-01</totfact>
</mgrwt>
</event>
<event>
 4    1  0.2503484E+000  0.5182251E+02  0.7957747E-01  0.1435752E+00
         13   -1    0    0    0    0  0.00000000000E+00  0.00000000000E+00  0.99999944181E+02  0.10000000000E+03  0.10566000000E+00 0. -1.
         22   -1    0    0    0    0 -0.00000000000E+00 -0.00000000000E+00 -0.21620532461E+02  0.21620532461E+02  0.00000000000E+00 0.  1.
         13    1    1    2    0    0  0.11459236070E+02 -0.73660186235E+01 -0.11528786883E+02  0.17846467793E+02  0.10566000000E+00 0.  1.
        996    1    1    2    0    0 -0.11459236070E+02  0.73660186235E+01  0.89908198603E+02  0.10377406467E+03  0.50000000000E+02 0.  0.
<mgrwt>
<rscale>  0 0.51822508E+02</rscale>
<asrwt>0</asrwt>
<pdfrwt beam="1">  1       13 0.10000000E+01 0.51822508E+02</pdfrwt>
<pdfrwt beam="2">  1       22 0.21620554E+00 0.51822508E+02</pdfrwt>
<totfact> 0.39092395E-01</totfact>
</mgrwt>
</event>
<event>
 4    1  0.2503484E+000  0.5294442E+02  0.7957747E-01  0.1430078E+00
         13   -1    0    0    0    0  0.00000000000E+00  0.00000000000E+00  0.99999944172E+02  0.99999999992E+02  0.10566000000E+00 0. -1.
         22   -1    0    0    0    0 -0.00000000000E+00 -0.00000000000E+00 -0.21621690128E+02  0.21621690128E+02  0.00000000000E+00 0.  1.
         13    1    1    2    0    0  0.14144366588E+02 -0.10151297273E+02 -0.88900626411E+01  0.19548818898E+02  0.10566000000E+00 0.  1.
        996    1    1    2    0    0 -0.14144366588E+02  0.10151297273E+02  0.87268316685E+02  0.10207287122E+03  0.50000000000E+02 0.  0.
<mgrwt>
<rscale>  0 0.52944423E+02</rscale>
<asrwt>0</asrwt>
<pdfrwt beam="1">  1       13 0.10000000E+01 0.52944423E+02</pdfrwt>
<pdfrwt beam="2">  1       22 0.21621712E+00 0.52944423E+02</pdfrwt>
<totfact> 0.39163454E-01</totfact>
</mgrwt>
</event>
<event>
 4    1  0.2503484E+000  0.6113739E+02  0.7957747E-01  0.1393120E+00
         13   -1    0    0    0    0  0.00000000000E+00  0.00000000000E+00  0.99999944187E+02  0.10000000001E+03  0.10566000000E+00 0. -1.
         22   -1    0    0    0    0 -0.00000000000E+00 -0.00000000000E+00 -0.25139388663E+02  0.25139388663E+02  0.00000000000E+00 0. -1.
         13    1    1    2    0    0 -0.20013356925E+02 -0.28935207836E+02  0.11310727385E+02  0.36955708976E+02  0.10566000000E+00 0.  1.
        996    1    1    2    0    0  0.20013356925E+02  0.28935207836E+02  0.63549828139E+02  0.88183679694E+02  0.50000000000E+02 0.  0.
<mgrwt>
<rscale>  0 0.61137392E+02</rscale>
<asrwt>0</asrwt>
<pdfrwt beam="1">  1       13 0.10000000E+01 0.61137392E+02</pdfrwt>
<pdfrwt beam="2">  1       22 0.25139410E+00 0.61137392E+02</pdfrwt>
<totfact> 0.29542528E-01</totfact>
</mgrwt>
</event>
<event>
 4    1  0.2503484E+000  0.5168814E+02  0.7957747E-01  0.1436443E+00
         13   -1    0    0    0    0  0.00000000000E+00  0.00000000000E+00  0.99999944176E+02  0.99999999997E+02  0.10566000000E+00 0. -1.
         22   -1    0    0    0    0 -0.00000000000E+00 -0.00000000000E+00 -0.38859620069E+02  0.38859620069E+02  0.00000000000E+00 0.  1.
         13    1    1    2    0    0 -0.10580013475E+02 -0.77283386126E+01 -0.30752492606E+02  0.33427396972E+02  0.10566000000E+00 0.  1.
        996    1    1    2    0    0  0.10580013475E+02  0.77283386126E+01  0.91892816713E+02  0.10543222309E+03  0.50000000000E+02 0.  0.
<mgrwt>
<rscale>  0 0.51688141E+02</rscale>
<asrwt>0</asrwt>
<pdfrwt beam="1">  1       13 0.10000000E+01 0.51688141E+02</pdfrwt>
<pdfrwt beam="2">  1       22 0.38859637E+00 0.51688141E+02</pdfrwt>
<totfact> 0.13049795E-01</totfact>
</mgrwt>
</event>
<event>
 4    1  0.2503484E+000  0.6021029E+02  0.7957747E-01  0.1396951E+00
         13   -1    0    0    0    0  0.00000000000E+00  0.00000000000E+00  0.99999944180E+02  0.10000000000E+03  0.10566000000E+00 0.  1.
         22   -1    0    0    0    0 -0.00000000000E+00 -0.00000000000E+00 -0.34337516886E+02  0.34337516886E+02  0.00000000000E+00 0. -1.
         13    1    1    2    0    0 -0.32436893719E+02 -0.85514505783E+01 -0.12389986666E+02  0.35760345563E+02  0.10566000000E+00 0. -1.
        996    1    1    2    0    0  0.32436893719E+02  0.85514505783E+01  0.78052413960E+02  0.98577171324E+02  0.50000000000E+02 0.  0.
<mgrwt>
<rscale>  0 0.60210293E+02</rscale>
<asrwt>0</asrwt>
<pdfrwt beam="1">  1       13 0.10000000E+01 0.60210293E+02</pdfrwt>
<pdfrwt beam="2">  1       22 0.34337535E+00 0.60210293E+02</pdfrwt>
<totfact> 0.16379987E-01</totfact>
</mgrwt>
</event>
<event>
 4    1  0.2503484E+000  0.5120197E+02  0.7957747E-01  0.1438964E+00
         13   -1    0    0    0    0  0.00000000000E+00  0.00000000000E+00  0.99999944176E+02  0.99999999996E+02  0.10566000000E+00 0.  1.
         22   -1    0    0    0    0 -0.00000000000E+00 -0.00000000000E+00 -0.11117284631E+02  0.11117284631E+02  0.00000000000E+00 0.  1.
         13    1    1    2    0    0 -0.68196854322E+01  0.86679791125E+01  0.35227241218E+01  0.11578545702E+02  0.10566000000E+00 0. -1.
        996    1    1    2    0    0  0.68196854322E+01 -0.86679791125E+01  0.85359935424E+02  0.99538738925E+02  0.50000000000E+02 0.  0.
<mgrwt>
<rscale>  0 0.51201972E+02</rscale>
<asrwt>0</asrwt>
<pdfrwt beam="1">  1       13 0.10000000E+01 0.51201972E+02</pdfrwt>
<pdfrwt beam="2">  1       22 0.11117309E+00 0.51201972E+02</pdfrwt>
<totfact> 0.12042710E+00</totfact>
</mgrwt>
</event>
<event>
 4    1  0.2503484E+000  0.5140855E+02  0.7957747E-01  0.1437889E+00
         13   -1    0    0    0    0  0.00000000000E+00  0.00000000000E+00  0.99999944185E+02  0.10000000001E+03  0.10566000000E+00 0. -1.
         22   -1    0    0    0    0 -0.00000000000E+00 -0.00000000000E+00 -0.15304035215E+02  0.15304035215E+02  0.00000000000E+00 0.  1.
         13    1    1    2    0    0  0.29355868611E+01 -0.11585392036E+02 -0.41541195041E+01  0.12653333621E+02  0.10566000000E+00 0.  1.
        996    1    1    2    0    0 -0.29355868611E+01  0.11585392036E+02  0.88850028474E+02  0.10265070160E+03  0.50000000000E+02 0.  0.
<mgrwt>
<rscale>  0 0.51408550E+02</rscale>
<asrwt>0</asrwt>
<pdfrwt beam="1">  1       13 0.10000000E+01 0.51408550E+02</pdfrwt>
<pdfrwt beam="2">  1       22 0.15304059E+00 0.51408550E+02</pdfrwt>
<totfact> 0.72720814E-01</totfact>
</mgrwt>
</event>
<event>
 4    1  0.2503484E+000  0.5232036E+02  0.7957747E-01  0.1433213E+00
         13   -1    0    0    0    0  0.00000000000E+00  0.00000000000E+00  0.99999944179E+02  0.99999999999E+02  0.10566000000E+00 0. -1.
         22   -1    0    0    0    0 -0.00000000000E+00 -0.00000000000E+00 -0.11747121871E+02  0.11747121871E+02  0.00000000000E+00 0. -1.
         13    1    1    2    0    0 -0.11246029485E+02  0.10533148429E+02  0.13392969638E+02  0.20415758491E+02  0.10566000000E+00 0.  1.
        996    1    1    2    0    0  0.11246029485E+02 -0.10533148429E+02  0.74859852670E+02  0.91331363380E+02  0.50000000000E+02 0.  0.
<mgrwt>
<rscale>  0 0.52320363E+02</rscale>
<asrwt>0</asrwt>
<pdfrwt beam="1">  1       13 0.10000000E+01 0.52320363E+02</pdfrwt>
<pdfrwt beam="2">  1       22 0.11747147E+00 0.52320363E+02</pdfrwt>
<totfact> 0.11112409E+00</totfact>
</mgrwt>
</event>
<event>
 4    1  0.2503484E+000  0.5670236E+02  0.7957747E-01  0.1412216E+00
         13   -1    0    0    0    0  0.00000000000E+00  0.00000000000E+00  0.99999944175E+02  0.99999999995E+02  0.10566000000E+00 0.  1.
         22   -1    0    0    0    0 -0.00000000000E+00 -0.00000000000E+00 -0.17442952193E+02  0.17442952193E+02  0.00000000000E+00 0. -1.
         13    1    1    2    0    0  0.22396621957E+02  0.14613304875E+02  0.24021878018E+02  0.35947449729E+02  0.10566000000E+00 0. -1.
        996    1    1    2    0    0 -0.22396621957E+02 -0.14613304875E+02  0.58535113963E+02  0.81495502460E+02  0.50000000000E+02 0.  0.
<mgrwt>
<rscale>  0 0.56702358E+02</rscale>
<asrwt>0</asrwt>
<pdfrwt beam="1">  1       13 0.10000000E+01 0.56702358E+02</pdfrwt>
<pdfrwt beam="2">  1       22 0.17442975E+00 0.56702358E+02</pdfrwt>
<totfact> 0.58606735E-01</totfact>
</mgrwt>
</event>
<event>
 4    1  0.2503484E+000  0.5580211E+02  0.7957747E-01  0.1416343E+00
         13   -1    0    0    0    0  0.00000000000E+00  0.00000000000E+00  0.99999944185E+02  0.10000000001E+03  0.10566000000E+00 0. -1.
         22   -1    0    0    0    0 -0.00000000000E+00 -0.00000000000E+00 -0.17320600461E+02  0.17320600461E+02  0.00000000000E+00 0.  1.
         13    1    1    2    0    0 -0.18254069045E+02 -0.16753050352E+02  0.40066735441E+02  0.47108706050E+02  0.10566000000E+00 0.  1.
        996    1    1    2    0    0  0.18254069045E+02  0.16753050352E+02  0.42612608283E+02  0.70211894416E+02  0.50000000000E+02 0.  0.
<mgrwt>
<rscale>  0 0.55802112E+02</rscale>
<asrwt>0</asrwt>
<pdfrwt beam="1">  1       13 0.10000000E+01 0.55802112E+02</pdfrwt>
<pdfrwt beam="2">  1       22 0.17320624E+00 0.55802112E+02</pdfrwt>
<totfact> 0.59248130E-01</totfact>
</mgrwt>
</event>
<event>
 4    1  0.2503484E+000  0.5122435E+02  0.7957747E-01  0.1438847E+00
         13   -1    0    0    0    0  0.00000000000E+00  0.00000000000E+00  0.99999944175E+02  0.99999999995E+02  0.10566000000E+00 0.  1.
         22   -1    0    0    0    0 -0.00000000000E+00 -0.00000000000E+00 -0.12261493697E+02  0.12261493697E+02  0.00000000000E+00 0.  1.
         13    1    1    2    0    0 -0.44050025825E+01  0.10224010651E+02  0.55944251539E+00  0.11147133332E+02  0.10566000000E+00 0. -1.
        996    1    1    2    0    0  0.44050025825E+01 -0.10224010651E+02  0.87179007963E+02  0.10111436036E+03  0.50000000000E+02 0.  0.
<mgrwt>
<rscale>  0 0.51224354E+02</rscale>
<asrwt>0</asrwt>
<pdfrwt beam="1">  1       13 0.10000000E+01 0.51224354E+02</pdfrwt>
<pdfrwt beam="2">  1       22 0.12261518E+00 0.51224354E+02</pdfrwt>
<totfact> 0.10380959E+00</totfact>
</mgrwt>
</event>
<event>
 4    1  0.2503484E+000  0.5114272E+02  0.7957747E-01  0.1439274E+00
         13   -1    0    0    0    0  0.00000000000E+00  0.00000000000E+00  0.99999944180E+02  0.10000000000E+03  0.10566000000E+00 0.  1.
         22   -1    0    0    0    0 -0.00000000000E+00 -0.00000000000E+00 -0.98417470228E+01  0.98417470228E+01  0.00000000000E+00 0.  1.
         13    1    1    2    0    0  0.95568570787E+01 -0.49238248897E+01  0.23343200107E+02  0.25700072452E+02  0.10566000000E+00 0. -1.
        996    1    1    2    0    0 -0.95568570787E+01  0.49238248897E+01  0.66814997050E+02  0.84141674571E+02  0.50000000000E+02 0.  0.
<mgrwt>
<rscale>  0 0.51142718E+02</rscale>
<asrwt>0</asrwt>
<pdfrwt beam="1">  1       13 0.10000000E+01 0.51142718E+02</pdfrwt>
<pdfrwt beam="2">  1       22 0.98417722E-01 0.51142718E+02</pdfrwt>
<totfact> 0.14396686E+00</totfact>
</mgrwt>
</event>
<event>
 4    1  0.2503484E+000  0.5131846E+02  0.7957747E-01  0.1438357E+00
         13   -1    0    0    0    0  0.00000000000E+00  0.00000000000E+00  0.99999944174E+02  0.99999999994E+02  0.10566000000E+00 0.  1.
         22   -1    0    0    0    0 -0.00000000000E+00 -0.00000000000E+00 -0.11054319394E+02  0.11054319394E+02  0.00000000000E+00 0.  1.
         13    1    1    2    0    0  0.88845484740E+01  0.73925021864E+01  0.33812040812E+02  0.35733031750E+02  0.10566000000E+00 0. -1.
        996    1    1    2    0    0 -0.88845484740E+01 -0.73925021864E+01  0.55133583969E+02  0.75321287638E+02  0.50000000000E+02 0.  0.
<mgrwt>
<rscale>  0 0.51318460E+02</rscale>
<asrwt>0</asrwt>
<pdfrwt beam="1">  1       13 0.10000000E+01 0.51318460E+02</pdfrwt>
<pdfrwt beam="2">  1       22 0.11054344E+00 0.51318460E+02</pdfrwt>
<totfact> 0.12148423E+00</totfact>
</mgrwt>
</event>
<event>
 4    1  0.2503484E+000  0.6408173E+02  0.7957747E-01  0.1381459E+00
         13   -1    0    0    0    0  0.00000000000E+00  0.00000000000E+00  0.99999944180E+02  0.10000000000E+03  0.10566000000E+00 0.  1.
         22   -1    0    0    0    0 -0.00000000000E+00 -0.00000000000E+00 -0.27205890278E+02  0.27205890278E+02  0.00000000000E+00 0. -1.
         13    1    1    2    0    0 -0.63109663785E+01  0.39580805590E+02  0.24652634855E+02  0.47055627051E+02  0.10566000000E+00 0. -1.
        996    1    1    2    0    0  0.63109663785E+01 -0.39580805590E+02  0.48141419046E+02  0.80150263228E+02  0.50000000000E+02 0.  0.
<mgrwt>
<rscale>  0 0.64081733E+02</rscale>
<asrwt>0</asrwt>
<pdfrwt beam="1">  1       13 0.10000000E+01 0.64081733E+02</pdfrwt>
<pdfrwt beam="2">  1       22 0.27205911E+00 0.64081733E+02</pdfrwt>
<totfact> 0.25366538E-01</totfact>
</mgrwt>
</event>
<event>
 4    1  0.2503484E+000  0.5157718E+02  0.7957747E-01  0.1437016E+00
         13   -1    0    0    0    0  0.00000000000E+00  0.00000000000E+00  0.99999944177E+02  0.99999999997E+02  0.10566000000E+00 0. -1.
         22   -1    0    0    0    0 -0.00000000000E+00 -0.00000000000E+00 -0.28487591526E+02  0.28487591526E+02  0.00000000000E+00 0.  1.
         13    1    1    2    0    0 -0.12417686184E+02  0.24508059983E+01 -0.19867327491E+02  0.23556893808E+02  0.10566000000E+00 0.  1.
        996    1    1    2    0    0  0.12417686184E+02 -0.24508059983E+01  0.91379680142E+02  0.10493069772E+03  0.50000000000E+02 0.  0.
<mgrwt>
<rscale>  0 0.51577179E+02</rscale>
<asrwt>0</asrwt>
<pdfrwt beam="1">  1       13 0.10000000E+01 0.51577179E+02</pdfrwt>
<pdfrwt beam="2">  1       22 0.28487611E+00 0.51577179E+02</pdfrwt>
<totfact> 0.22823980E-01</totfact>
</mgrwt>
</event>
<event>
 4    1  0.2503484E+000  0.5232776E+02  0.7957747E-01  0.1433176E+00
         13   -1    0    0    0    0  0.00000000000E+00  0.00000000000E+00  0.99999944175E+02  0.99999999995E+02  0.10566000000E+00 0.  1.
         22   -1    0    0    0    0 -0.00000000000E+00 -0.00000000000E+00 -0.17958225888E+02  0.17958225888E+02  0.00000000000E+00 0. -1.
         13    1    1    2    0    0  0.14132021426E+02 -0.62032907174E+01 -0.51491922251E+01  0.16270224028E+02  0.10566000000E+00 0. -1.
        996    1    1    2    0    0 -0.14132021426E+02  0.62032907174E+01  0.87190910512E+02  0.10168800185E+03  0.50000000000E+02 0.  0.
<mgrwt>
<rscale>  0 0.52327764E+02</rscale>
<asrwt>0</asrwt>
<pdfrwt beam="1">  1       13 0.10000000E+01 0.52327764E+02</pdfrwt>
<pdfrwt beam="2">  1       22 0.17958249E+00 0.52327764E+02</pdfrwt>
<totfact> 0.55203719E-01</totfact>
</mgrwt>
</event>
<event>
 4    1  0.2503484E+000  0.5327435E+02  0.7957747E-01  0.1428440E+00
         13   -1    0    0    0    0  0.00000000000E+00  0.00000000000E+00  0.99999944187E+02  0.10000000001E+03  0.10566000000E+00 0. -1.
         22   -1    0    0    0    0 -0.00000000000E+00 -0.00000000000E+00 -0.14759363828E+02  0.14759363828E+02  0.00000000000E+00 0. -1.
         13    1    1    2    0    0  0.87708582946E+01 -0.16162573195E+02  0.61321134288E+01  0.19384806077E+02  0.10566000000E+00 0.  1.
        996    1    1    2    0    0 -0.87708582946E+01  0.16162573195E+02  0.79108466930E+02  0.95374557758E+02  0.50000000000E+02 0.  0.
<mgrwt>
<rscale>  0 0.53274353E+02</rscale>
<asrwt>0</asrwt>
<pdfrwt beam="1">  1       13 0.10000000E+01 0.53274353E+02</pdfrwt>
<pdfrwt beam="2">  1       22 0.14759388E+00 0.53274353E+02</pdfrwt>
<totfact> 0.77541218E-01</totfact>
</mgrwt>
</event>
<event>
 4    1  0.2503484E+000  0.5143447E+02  0.7957747E-01  0.1437754E+00
         13   -1    0    0    0    0  0.00000000000E+00  0.00000000000E+00  0.99999944168E+02  0.99999999988E+02  0.10566000000E+00 0.  1.
         22   -1    0    0    0    0 -0.00000000000E+00 -0.00000000000E+00 -0.18755555395E+02  0.18755555395E+02  0.00000000000E+00 0. -1.
         13    1    1    2    0    0 -0.59092749852E+01  0.10515965939E+02 -0.88854779804E+01  0.14982254619E+02  0.10566000000E+00 0. -1.
        996    1    1    2    0    0  0.59092749852E+01 -0.10515965939E+02  0.90129866754E+02  0.10377330076E+03  0.50000000000E+02 0.  0.
<mgrwt>
<rscale>  0 0.51434474E+02</rscale>
<asrwt>0</asrwt>
<pdfrwt beam="1">  1       13 0.10000000E+01 0.51434474E+02</pdfrwt>
<pdfrwt beam="2">  1       22 0.18755578E+00 0.51434474E+02</pdfrwt>
<totfact> 0.50951711E-01</totfact>
</mgrwt>
</event>
<event>
 4    1  0.2503484E+000  0.5146441E+02  0.7957747E-01  0.1437599E+00
         13   -1    0    0    0    0  0.00000000000E+00  0.00000000000E+00  0.99999944188E+02  0.10000000001E+03  0.10566000000E+00 0. -1.
         22   -1    0    0    0    0 -0.00000000000E+00 -0.00000000000E+00 -0.18100195193E+02  0.18100195193E+02  0.00000000000E+00 0. -1.
         13    1    1    2    0    0  0.20094386368E+01  0.12022809160E+02 -0.79513313799E+01  0.14554058488E+02  0.10566000000E+00 0.  1.
        996    1    1    2    0    0 -0.20094386368E+01 -0.12022809160E+02  0.89851080374E+02  0.10354613671E+03  0.50000000000E+02 0.  0.
<mgrwt>
<rscale>  0 0.51464413E+02</rscale>
<asrwt>0</asrwt>
<pdfrwt beam="1">  1       13 0.10000000E+01 0.51464413E+02</pdfrwt>
<pdfrwt beam="2">  1       22 0.18100218E+00 0.51464413E+02</pdfrwt>
<totfact> 0.54340580E-01</totfact>
</mgrwt>
</event>
<event>
 4    1  0.2503484E+000  0.5267165E+02  0.7957747E-01  0.1431442E+00
         13   -1    0    0    0    0  0.00000000000E+00  0.00000000000E+00  0.99999944181E+02  0.10000000000E+03  0.10566000000E+00 0. -1.
         22   -1    0    0    0    0 -0.00000000000E+00 -0.00000000000E+00 -0.12506483776E+02  0.12506483776E+02  0.00000000000E+00 0. -1.
         13    1    1    2    0    0  0.16548920423E+02  0.66040003904E+00  0.11992357330E+02  0.20448244271E+02  0.10566000000E+00 0.  1.
        996    1    1    2    0    0 -0.16548920423E+02 -0.66040003904E+00  0.75501103075E+02  0.92058239506E+02  0.50000000000E+02 0.  0.
<mgrwt>
<rscale>  0 0.52671652E+02</rscale>
<asrwt>0</asrwt>
<pdfrwt beam="1">  1       13 0.10000000E+01 0.52671652E+02</pdfrwt>
<pdfrwt beam="2">  1       22 0.12506508E+00 0.52671652E+02</pdfrwt>
<totfact> 0.10100023E+00</totfact>
</mgrwt>
</event>
<event>
 4    1  0.2503484E+000  0.5334555E+02  0.7957747E-01  0.1428089E+00
         13   -1    0    0    0    0  0.00000000000E+00  0.00000000000E+00  0.99999944180E+02  0.10000000000E+03  0.10566000000E+00 0.  1.
         22   -1    0    0    0    0 -0.00000000000E+00 -0.00000000000E+00 -0.15271718115E+02  0.15271718115E+02  0.00000000000E+00 0.  1.
         13    1    1    2    0    0 -0.70037578627E+00  0.18581088471E+02  0.45205746692E+02  0.48880651316E+02  0.10566000000E+00 0. -1.
        996    1    1    2    0    0  0.70037578627E+00 -0.18581088471E+02  0.39522479372E+02  0.66391066799E+02  0.50000000000E+02 0.  0.
<mgrwt>
<rscale>  0 0.53345547E+02</rscale>
<asrwt>0</asrwt>
<pdfrwt beam="1">  1       13 0.10000000E+01 0.53345547E+02</pdfrwt>
<pdfrwt beam="2">  1       22 0.15271742E+00 0.53345547E+02</pdfrwt>
<totfact> 0.73264221E-01</totfact>
</mgrwt>
</event>
<event>
 4    1  0.2503484E+000  0.5566436E+02  0.7957747E-01  0.1416983E+00
         13   -1    0    0    0    0  0.00000000000E+00  0.00000000000E+00  0.99999944182E+02  0.10000000000E+03  0.10566000000E+00 0.  1.
         22   -1    0    0    0    0 -0.00000000000E+00 -0.00000000000E+00 -0.36139563616E+02  0.36139563616E+02  0.00000000000E+00 0. -1.
         13    1    1    2    0    0 -0.22696643214E+02  0.91314672663E+01 -0.22602606017E+02  0.33307810952E+02  0.10566000000E+00 0. -1.
        996    1    1    2    0    0  0.22696643214E+02 -0.91314672663E+01  0.86462986582E+02  0.10283175267E+03  0.50000000000E+02 0.  0.
<mgrwt>
<rscale>  0 0.55664363E+02</rscale>
<asrwt>0</asrwt>
<pdfrwt beam="1">  1       13 0.10000000E+01 0.55664363E+02</pdfrwt>
<pdfrwt beam="2">  1       22 0.36139581E+00 0.55664363E+02</pdfrwt>
<totfact> 0.14910738E-01</totfact>
</mgrwt>
</event>
<event>
 4    1  0.2503484E+000  0.5165918E+02  0.7957747E-01  0.1436592E+00
         13   -1    0    0    0    0  0.00000000000E+00  0.00000000000E+00  0.99999944177E+02  0.99999999997E+02  0.10566000000E+00 0.  1.
         22   -1    0    0    0    0 -0.00000000000E+00 -0.00000000000E+00 -0.21224469150E+02  0.21224469150E+02  0.00000000000E+00 0. -1.
         13    1    1    2    0    0 -0.93694240161E+01 -0.89936023290E+01 -0.11412288976E+02  0.17289375146E+02  0.10566000000E+00 0. -1.
        996    1    1    2    0    0  0.93694240161E+01  0.89936023290E+01  0.90187764002E+02  0.10393509400E+03  0.50000000000E+02 0.  0.
<mgrwt>
<rscale>  0 0.51659181E+02</rscale>
<asrwt>0</asrwt>
<pdfrwt beam="1">  1       13 0.10000000E+01 0.51659181E+02</pdfrwt>
<pdfrwt beam="2">  1       22 0.21224491E+00 0.51659181E+02</pdfrwt>
<totfact> 0.40484257E-01</totfact>
</mgrwt>
</event>
<event>
 4    1  0.2503484E+000  0.5175243E+02  0.7957747E-01  0.1436112E+00
         13   -1    0    0    0    0  0.00000000000E+00  0.00000000000E+00  0.99999944175E+02  0.99999999995E+02  0.10566000000E+00 0. -1.
         22   -1    0    0    0    0 -0.00000000000E+00 -0.00000000000E+00 -0.10800901478E+02  0.10800901478E+02  0.00000000000E+00 0. -1.
         13    1    1    2    0    0  0.10976013667E+02 -0.76053042105E+01  0.24969347356E+02  0.28315949562E+02  0.10566000000E+00 0.  1.
        996    1    1    2    0    0 -0.10976013667E+02  0.76053042105E+01  0.64229695341E+02  0.82484951911E+02  0.50000000000E+02 0.  0.
<mgrwt>
<rscale>  0 0.51752425E+02</rscale>
<asrwt>0</asrwt>
<pdfrwt beam="1">  1       13 0.10000000E+01 0.51752425E+02</pdfrwt>
<pdfrwt beam="2">  1       22 0.10800926E+00 0.51752425E+02</pdfrwt>
<totfact> 0.12586755E+00</totfact>
</mgrwt>
</event>
<event>
 4    1  0.2503484E+000  0.6473254E+02  0.7957747E-01  0.1378980E+00
         13   -1    0    0    0    0  0.00000000000E+00  0.00000000000E+00  0.99999944169E+02  0.99999999990E+02  0.10566000000E+00 0. -1.
         22   -1    0    0    0    0 -0.00000000000E+00 -0.00000000000E+00 -0.40452799476E+02  0.40452799476E+02  0.00000000000E+00 0.  1.
         13    1    1    2    0    0  0.27082939255E+02 -0.30932436622E+02 -0.13099638640E+02  0.43149889114E+02  0.10566000000E+00 0.  1.
        996    1    1    2    0    0 -0.27082939255E+02  0.30932436622E+02  0.72646783334E+02  0.97302910351E+02  0.50000000000E+02 0.  0.
<mgrwt>
<rscale>  0 0.64732536E+02</rscale>
<asrwt>0</asrwt>
<pdfrwt beam="1">  1       13 0.10000000E+01 0.64732536E+02</pdfrwt>
<pdfrwt beam="2">  1       22 0.40452816E+00 0.64732536E+02</pdfrwt>
<totfact> 0.12210102E-01</totfact>
</mgrwt>
</event>
<event>
 4    1  0.2503484E+000  0.5150098E+02  0.7957747E-01  0.1437410E+00
         13   -1    0    0    0    0  0.00000000000E+00  0.00000000000E+00  0.99999944182E+02  0.10000000000E+03  0.10566000000E+00 0.  1.
         22   -1    0    0    0    0 -0.00000000000E+00 -0.00000000000E+00 -0.10327597823E+02  0.10327597823E+02  0.00000000000E+00 0.  1.
         13    1    1    2    0    0 -0.60450565760E+01 -0.10761412810E+02  0.22747004639E+02  0.25880264658E+02  0.10566000000E+00 0. -1.
        996    1    1    2    0    0  0.60450565760E+01  0.10761412810E+02  0.66925341720E+02  0.84447333167E+02  0.50000000000E+02 0.  0.
<mgrwt>
<rscale>  0 0.51500978E+02</rscale>
<asrwt>0</asrwt>
<pdfrwt beam="1">  1       13 0.10000000E+01 0.51500978E+02</pdfrwt>
<pdfrwt beam="2">  1       22 0.10327623E+00 0.51500978E+02</pdfrwt>
<totfact> 0.13435927E+00</totfact>
</mgrwt>
</event>
<event>
 4    1  0.2503484E+000  0.5354254E+02  0.7957747E-01  0.1427120E+00
         13   -1    0    0    0    0  0.00000000000E+00  0.00000000000E+00  0.99999944173E+02  0.99999999993E+02  0.10566000000E+00 0.  1.
         22   -1    0    0    0    0 -0.00000000000E+00 -0.00000000000E+00 -0.21427498948E+02  0.21427498948E+02  0.00000000000E+00 0.  1.
         13    1    1    2    0    0  0.16048002564E+02  0.10453011872E+02 -0.70781052547E+01  0.20418486269E+02  0.10566000000E+00 0. -1.
        996    1    1    2    0    0 -0.16048002564E+02 -0.10453011872E+02  0.85650550480E+02  0.10100901267E+03  0.50000000000E+02 0.  0.
<mgrwt>
<rscale>  0 0.53542542E+02</rscale>
<asrwt>0</asrwt>
<pdfrwt beam="1">  1       13 0.10000000E+01 0.53542542E+02</pdfrwt>
<pdfrwt beam="2">  1       22 0.21427521E+00 0.53542542E+02</pdfrwt>
<totfact> 0.39884960E-01</totfact>
</mgrwt>
</event>
<event>
 4    1  0.2503484E+000  0.5897025E+02  0.7957747E-01  0.1402205E+00
         13   -1    0    0    0    0  0.00000000000E+00  0.00000000000E+00  0.99999944170E+02  0.99999999990E+02  0.10566000000E+00 0. -1.
         22   -1    0    0    0    0 -0.00000000000E+00 -0.00000000000E+00 -0.30777395317E+02  0.30777395317E+02  0.00000000000E+00 0.  1.
         13    1    1    2    0    0  0.26345775059E+02  0.16834192552E+02 -0.92615472409E+01  0.32607933446E+02  0.10566000000E+00 0.  1.
        996    1    1    2    0    0 -0.26345775059E+02 -0.16834192552E+02  0.78484096094E+02  0.98169461860E+02  0.50000000000E+02 0.  0.
<mgrwt>
<rscale>  0 0.58970246E+02</rscale>
<asrwt>0</asrwt>
<pdfrwt beam="1">  1       13 0.10000000E+01 0.58970246E+02</pdfrwt>
<pdfrwt beam="2">  1       22 0.30777415E+00 0.58970246E+02</pdfrwt>
<totfact> 0.19909910E-01</totfact>
</mgrwt>
</event>
<event>
 4    1  0.2503484E+000  0.5116525E+02  0.7957747E-01  0.1439156E+00
         13   -1    0    0    0    0  0.00000000000E+00  0.00000000000E+00  0.99999944178E+02  0.99999999998E+02  0.10566000000E+00 0.  1.
         22   -1    0    0    0    0 -0.00000000000E+00 -0.00000000000E+00 -0.96306187275E+01  0.96306187275E+01  0.00000000000E+00 0.  1.
         13    1    1    2    0    0  0.26964131182E+01  0.10517250806E+02  0.14303013657E+02  0.17957465632E+02  0.10566000000E+00 0. -1.
        996    1    1    2    0    0 -0.26964131182E+01 -0.10517250806E+02  0.76066311793E+02  0.91673153093E+02  0.50000000000E+02 0.  0.
<mgrwt>
<rscale>  0 0.51165254E+02</rscale>
<asrwt>0</asrwt>
<pdfrwt beam="1">  1       13 0.10000000E+01 0.51165254E+02</pdfrwt>
<pdfrwt beam="2">  1       22 0.96306440E-01 0.51165254E+02</pdfrwt>
<totfact> 0.14853472E+00</totfact>
</mgrwt>
</event>
<event>
 4    1  0.2503484E+000  0.5162799E+02  0.7957747E-01  0.1436753E+00
         13   -1    0    0    0    0  0.00000000000E+00  0.00000000000E+00  0.99999944170E+02  0.99999999991E+02  0.10566000000E+00 0. -1.
         22   -1    0    0    0    0 -0.00000000000E+00 -0.00000000000E+00 -0.65799169452E+02  0.65799169452E+02  0.00000000000E+00 0.  1.
         13    1    1    2    0    0 -0.10877646371E+02 -0.68648845178E+01 -0.58388538289E+02  0.59788647732E+02  0.10566000000E+00 0.  1.
        996    1    1    2    0    0  0.10877646371E+02  0.68648845178E+01  0.92589313008E+02  0.10601052171E+03  0.50000000000E+02 0.  0.
<mgrwt>
<rscale>  0 0.51627995E+02</rscale>
<asrwt>0</asrwt>
<pdfrwt beam="1">  1       13 0.10000000E+01 0.51627995E+02</pdfrwt>
<pdfrwt beam="2">  1       22 0.65799179E+00 0.51627995E+02</pdfrwt>
<totfact> 0.87245871E-02</totfact>
</mgrwt>
</event>
<event>
 4    1  0.2503484E+000  0.5370745E+02  0.7957747E-01  0.1426312E+00
         13   -1    0    0    0    0  0.00000000000E+00  0.00000000000E+00  0.99999944176E+02  0.99999999996E+02  0.10566000000E+00 0. -1.
         22   -1    0    0    0    0 -0.00000000000E+00 -0.00000000000E+00 -0.15702741359E+02  0.15702741359E+02  0.00000000000E+00 0.  1.
         13    1    1    2    0    0  0.19327157347E+02  0.33093019763E+01  0.55405246379E+01  0.20376434133E+02  0.10566000000E+00 0.  1.
        996    1    1    2    0    0 -0.19327157347E+02 -0.33093019763E+01  0.78756678179E+02  0.95326307222E+02  0.50000000000E+02 0.  0.
<mgrwt>
<rscale>  0 0.53707453E+02</rscale>
<asrwt>0</asrwt>
<pdfrwt beam="1">  1       13 0.10000000E+01 0.53707453E+02</pdfrwt>
<pdfrwt beam="2">  1       22 0.15702765E+00 0.53707453E+02</pdfrwt>
<totfact> 0.69951130E-01</totfact>
</mgrwt>
</event>
<event>
 4    1  0.2503484E+000  0.5216946E+02  0.7957747E-01  0.1433979E+00
         13   -1    0    0    0    0  0.00000000000E+00  0.00000000000E+00  0.99999944176E+02  0.99999999997E+02  0.10566000000E+00 0.  1.
         22   -1    0    0    0    0 -0.00000000000E+00 -0.00000000000E+00 -0.12671153840E+02  0.12671153840E+02  0.00000000000E+00 0. -1.
         13    1    1    2    0    0  0.65264958111E+00  0.14873702526E+02  0.60082853455E+01  0.16055019002E+02  0.10566000000E+00 0. -1.
        996    1    1    2    0    0 -0.65264958111E+00 -0.14873702526E+02  0.81320504991E+02  0.96616134835E+02  0.50000000000E+02 0.  0.
<mgrwt>
<rscale>  0 0.52169464E+02</rscale>
<asrwt>0</asrwt>
<pdfrwt beam="1">  1       13 0.10000000E+01 0.52169464E+02</pdfrwt>
<pdfrwt beam="2">  1       22 0.12671178E+00 0.52169464E+02</pdfrwt>
<totfact> 0.98854893E-01</totfact>
</mgrwt>
</event>
<event>
 4    1  0.2503484E+000  0.5144062E+02  0.7957747E-01  0.1437723E+00
         13   -1    0    0    0    0  0.00000000000E+00  0.00000000000E+00  0.99999944179E+02  0.99999999999E+02  0.10566000000E+00 0.  1.
         22   -1    0    0    0    0 -0.00000000000E+00 -0.00000000000E+00 -0.11750275675E+02  0.11750275675E+02  0.00000000000E+00 0. -1.
         13    1    1    2    0    0 -0.11994070676E+02 -0.15099815753E+01  0.34566166425E+01  0.12573668454E+02  0.10566000000E+00 0. -1.
        996    1    1    2    0    0  0.11994070676E+02  0.15099815753E+01  0.84793051861E+02  0.99176607220E+02  0.50000000000E+02 0.  0.
<mgrwt>
<rscale>  0 0.51440624E+02</rscale>
<asrwt>0</asrwt>
<pdfrwt beam="1">  1       13 0.10000000E+01 0.51440624E+02</pdfrwt>
<pdfrwt beam="2">  1       22 0.11750300E+00 0.51440624E+02</pdfrwt>
<totfact> 0.11085827E+00</totfact>
</mgrwt>
</event>
<event>
 4    1  0.2503484E+000  0.5360355E+02  0.7957747E-01  0.1426821E+00
         13   -1    0    0    0    0  0.00000000000E+00  0.00000000000E+00  0.99999944176E+02  0.99999999997E+02  0.10566000000E+00 0. -1.
         22   -1    0    0    0    0 -0.00000000000E+00 -0.00000000000E+00 -0.13765484085E+02  0.13765484085E+02  0.00000000000E+00 0.  1.
         13    1    1    2    0    0 -0.67755138180E+01 -0.18095111110E+02  0.14218287820E+02  0.23989820886E+02  0.10566000000E+00 0.  1.
        996    1    1    2    0    0  0.67755138180E+01  0.18095111110E+02  0.72016172271E+02  0.89775663195E+02  0.50000000000E+02 0.  0.
<mgrwt>
<rscale>  0 0.53603551E+02</rscale>
<asrwt>0</asrwt>
<pdfrwt beam="1">  1       13 0.10000000E+01 0.53603551E+02</pdfrwt>
<pdfrwt beam="2">  1       22 0.13765508E+00 0.53603551E+02</pdfrwt>
<totfact> 0.86950270E-01</totfact>
</mgrwt>
</event>
<event>
 4    1  0.2503484E+000  0.5120431E+02  0.7957747E-01  0.1438952E+00
         13   -1    0    0    0    0  0.00000000000E+00  0.00000000000E+00  0.99999944173E+02  0.99999999993E+02  0.10566000000E+00 0. -1.
         22   -1    0    0    0    0 -0.00000000000E+00 -0.00000000000E+00 -0.35798463857E+02  0.35798463857E+02  0.00000000000E+00 0.  1.
         13    1    1    2    0    0 -0.46876069116E+01  0.99953599707E+01 -0.28130096052E+02  0.30219105669E+02  0.10566000000E+00 0.  1.
        996    1    1    2    0    0  0.46876069116E+01 -0.99953599707E+01  0.92331576367E+02  0.10557935818E+03  0.50000000000E+02 0.  0.
<mgrwt>
<rscale>  0 0.51204305E+02</rscale>
<asrwt>0</asrwt>
<pdfrwt beam="1">  1       13 0.10000000E+01 0.51204305E+02</pdfrwt>
<pdfrwt beam="2">  1       22 0.35798482E+00 0.51204305E+02</pdfrwt>
<totfact> 0.15096033E-01</totfact>
</mgrwt>
</event>
<event>
 4    1  0.2503484E+000  0.5182104E+02  0.7957747E-01  0.1435760E+00
         13   -1    0    0    0    0  0.00000000000E+00  0.00000000000E+00  0.99999944177E+02  0.99999999997E+02  0.10566000000E+00 0.  1.
         22   -1    0    0    0    0 -0.00000000000E+00 -0.00000000000E+00 -0.52445938272E+02  0.52445938272E+02  0.00000000000E+00 0. -1.
         13    1    1    2    0    0 -0.76905474548E+01  0.11237240592E+02 -0.44648355069E+02  0.46678762523E+02  0.10566000000E+00 0. -1.
        996    1    1    2    0    0  0.76905474548E+01 -0.11237240592E+02  0.92202360973E+02  0.10576717575E+03  0.50000000000E+02 0.  0.
<mgrwt>
<rscale>  0 0.51821039E+02</rscale>
<asrwt>0</asrwt>
<pdfrwt beam="1">  1       13 0.10000000E+01 0.51821039E+02</pdfrwt>
<pdfrwt beam="2">  1       22 0.52445952E+00 0.51821039E+02</pdfrwt>
<totfact> 0.64846057E-02</totfact>
</mgrwt>
</event>
<event>
 4    1  0.2503484E+000  0.5514962E+02  0.7957747E-01  0.1419393E+00
         13   -1    0    0    0    0  0.00000000000E+00  0.00000000000E+00  0.99999944175E+02  0.99999999996E+02  0.10566000000E+00 0. -1.
         22   -1    0    0    0    0 -0.00000000000E+00 -0.00000000000E+00 -0.15728615434E+02  0.15728615434E+02  0.00000000000E+00 0.  1.
         13    1    1    2    0    0  0.89997802679E+01  0.21458898325E+02  0.17437327125E+02  0.29078375187E+02  0.10566000000E+00 0.  1.
        996    1    1    2    0    0 -0.89997802679E+01 -0.21458898325E+02  0.66834001616E+02  0.86650240243E+02  0.50000000000E+02 0.  0.
<mgrwt>
<rscale>  0 0.55149618E+02</rscale>
<asrwt>0</asrwt>
<pdfrwt beam="1">  1       13 0.10000000E+01 0.55149618E+02</pdfrwt>
<pdfrwt beam="2">  1       22 0.15728639E+00 0.55149618E+02</pdfrwt>
<totfact> 0.69947799E-01</totfact>
</mgrwt>
</event>
<event>
 4    1  0.2503484E+000  0.5145781E+02  0.7957747E-01  0.1437633E+00
         13   -1    0    0    0    0  0.00000000000E+00  0.00000000000E+00  0.99999944190E+02  0.10000000001E+03  0.10566000000E+00 0.  1.
         22   -1    0    0    0    0 -0.00000000000E+00 -0.00000000000E+00 -0.18751899393E+02  0.18751899393E+02  0.00000000000E+00 0. -1.
         13    1    1    2    0    0  0.11315475930E+02  0.44571052095E+01 -0.88180000240E+01  0.15022452224E+02  0.10566000000E+00 0. -1.
        996    1    1    2    0    0 -0.11315475930E+02 -0.44571052095E+01  0.90066044820E+02  0.10372944718E+03  0.50000000000E+02 0.  0.
<mgrwt>
<rscale>  0 0.51457806E+02</rscale>
<asrwt>0</asrwt>
<pdfrwt beam="1">  1       13 0.10000000E+01 0.51457806E+02</pdfrwt>
<pdfrwt beam="2">  1       22 0.18751922E+00 0.51457806E+02</pdfrwt>
<totfact> 0.50972032E-01</totfact>
</mgrwt>
</event>
<event>
 4    1  0.2503484E+000  0.5246189E+02  0.7957747E-01  0.1432498E+00
         13   -1    0    0    0    0  0.00000000000E+00  0.00000000000E+00  0.99999944185E+02  0.10000000001E+03  0.10566000000E+00 0. -1.
         22   -1    0    0    0    0 -0.00000000000E+00 -0.00000000000E+00 -0.68901865545E+02  0.68901865545E+02  0.00000000000E+00 0.  1.
         13    1    1    2    0    0  0.15858764224E+02  0.86577544271E+00 -0.60932507075E+02  0.62968496507E+02  0.10566000000E+00 0.  1.
        996    1    1    2    0    0 -0.15858764224E+02 -0.86577544271E+00  0.92030585715E+02  0.10593336904E+03  0.50000000000E+02 0.  0.
<mgrwt>
<rscale>  0 0.52461891E+02</rscale>
<asrwt>0</asrwt>
<pdfrwt beam="1">  1       13 0.10000000E+01 0.52461891E+02</pdfrwt>
<pdfrwt beam="2">  1       22 0.68901874E+00 0.52461891E+02</pdfrwt>
<totfact> 0.79891410E-02</totfact>
</mgrwt>
</event>
<event>
 4    1  0.2503484E+000  0.5167743E+02  0.7957747E-01  0.1436498E+00
         13   -1    0    0    0    0  0.00000000000E+00  0.00000000000E+00  0.99999944184E+02  0.10000000000E+03  0.10566000000E+00 0. -1.
         22   -1    0    0    0    0 -0.00000000000E+00 -0.00000000000E+00 -0.11409800183E+02  0.11409800183E+02  0.00000000000E+00 0. -1.
         13    1    1    2    0    0  0.80869522085E+01 -0.10254637924E+02  0.69652791882E+01  0.14801441591E+02  0.10566000000E+00 0.  1.
        996    1    1    2    0    0 -0.80869522085E+01  0.10254637924E+02  0.81624864813E+02  0.96608358596E+02  0.50000000000E+02 0.  0.
<mgrwt>
<rscale>  0 0.51677426E+02</rscale>
<asrwt>0</asrwt>
<pdfrwt beam="1">  1       13 0.10000000E+01 0.51677426E+02</pdfrwt>
<pdfrwt beam="2">  1       22 0.11409825E+00 0.51677426E+02</pdfrwt>
<totfact> 0.11595888E+00</totfact>
</mgrwt>
</event>
<event>
 4    1  0.2503484E+000  0.5554828E+02  0.7957747E-01  0.1417524E+00
         13   -1    0    0    0    0  0.00000000000E+00  0.00000000000E+00  0.99999944165E+02  0.99999999986E+02  0.10566000000E+00 0. -1.
         22   -1    0    0    0    0 -0.00000000000E+00 -0.00000000000E+00 -0.19561081176E+02  0.19561081176E+02  0.00000000000E+00 0.  1.
         13    1    1    2    0    0 -0.85067055476E+01  0.22654951503E+02  0.31828634631E+01  0.24408044796E+02  0.10566000000E+00 0.  1.
        996    1    1    2    0    0  0.85067055476E+01 -0.22654951503E+02  0.77255999526E+02  0.95153036366E+02  0.50000000000E+02 0.  0.
<mgrwt>
<rscale>  0 0.55548275E+02</rscale>
<asrwt>0</asrwt>
<pdfrwt beam="1">  1       13 0.10000000E+01 0.55548275E+02</pdfrwt>
<pdfrwt beam="2">  1       22 0.19561104E+00 0.55548275E+02</pdfrwt>
<totfact> 0.47509404E-01</totfact>
</mgrwt>
</event>
<event>
 4    1  0.2503484E+000  0.5888732E+02  0.7957747E-01  0.1402561E+00
         13   -1    0    0    0    0  0.00000000000E+00  0.00000000000E+00  0.99999944174E+02  0.99999999994E+02  0.10566000000E+00 0. -1.
         22   -1    0    0    0    0 -0.00000000000E+00 -0.00000000000E+00 -0.20494302217E+02  0.20494302217E+02  0.00000000000E+00 0. -1.
         13    1    1    2    0    0  0.29500629515E+02  0.98706197906E+01  0.33915746124E+02  0.46021791316E+02  0.10566000000E+00 0.  1.
        996    1    1    2    0    0 -0.29500629515E+02 -0.98706197906E+01  0.45589895833E+02  0.74472510894E+02  0.50000000000E+02 0.  0.
<mgrwt>
<rscale>  0 0.58887318E+02</rscale>
<asrwt>0</asrwt>
<pdfrwt beam="1">  1       13 0.10000000E+01 0.58887318E+02</pdfrwt>
<pdfrwt beam="2">  1       22 0.20494324E+00 0.58887318E+02</pdfrwt>
<totfact> 0.43778981E-01</totfact>
</mgrwt>
</event>
<event>
 4    1  0.2503484E+000  0.5130273E+02  0.7957747E-01  0.1438439E+00
         13   -1    0    0    0    0  0.00000000000E+00  0.00000000000E+00  0.99999944178E+02  0.99999999998E+02  0.10566000000E+00 0. -1.
         22   -1    0    0    0    0 -0.00000000000E+00 -0.00000000000E+00 -0.17569801327E+02  0.17569801327E+02  0.00000000000E+00 0.  1.
         13    1    1    2    0    0 -0.17841107415E+01  0.11348439066E+02 -0.77220196440E+01  0.13842357884E+02  0.10566000000E+00 0.  1.
        996    1    1    2    0    0  0.17841107415E+01 -0.11348439066E+02  0.90152162495E+02  0.10372744344E+03  0.50000000000E+02 0.  0.
<mgrwt>
<rscale>  0 0.51302730E+02</rscale>
<asrwt>0</asrwt>
<pdfrwt beam="1">  1       13 0.10000000E+01 0.51302730E+02</pdfrwt>
<pdfrwt beam="2">  1       22 0.17569824E+00 0.51302730E+02</pdfrwt>
<totfact> 0.57286797E-01</totfact>
</mgrwt>
</event>
<event>
 4    1  0.2503484E+000  0.5480082E+02  0.7957747E-01  0.1421043E+00
         13   -1    0    0    0    0  0.00000000000E+00  0.00000000000E+00  0.99999944178E+02  0.99999999998E+02  0.10566000000E+00 0. -1.
         22   -1    0    0    0    0 -0.00000000000E+00 -0.00000000000E+00 -0.20716611622E+02  0.20716611622E+02  0.00000000000E+00 0.  1.
         13    1    1    2    0    0 -0.65495713459E+01  0.21453033510E+02 -0.21796341458E+01  0.22536448271E+02  0.10566000000E+00 0.  1.
        996    1    1    2    0    0  0.65495713459E+01 -0.21453033510E+02  0.81462966701E+02  0.98180163350E+02  0.50000000000E+02 0.  0.
<mgrwt>
<rscale>  0 0.54800817E+02</rscale>
<asrwt>0</asrwt>
<pdfrwt beam="1">  1       13 0.10000000E+01 0.54800817E+02</pdfrwt>
<pdfrwt beam="2">  1       22 0.20716634E+00 0.54800817E+02</pdfrwt>
<totfact> 0.42615251E-01</totfact>
</mgrwt>
</event>
<event>
 4    1  0.2503484E+000  0.5196202E+02  0.7957747E-01  0.1435037E+00
         13   -1    0    0    0    0  0.00000000000E+00  0.00000000000E+00  0.99999944176E+02  0.99999999996E+02  0.10566000000E+00 0. -1.
         22   -1    0    0    0    0 -0.00000000000E+00 -0.00000000000E+00 -0.11718832458E+02  0.11718832458E+02  0.00000000000E+00 0. -1.
         13    1    1    2    0    0 -0.66488927505E+01 -0.12483736419E+02  0.84807120117E+01  0.16491970472E+02  0.10566000000E+00 0.  1.
        996    1    1    2    0    0  0.66488927505E+01  0.12483736419E+02  0.79800399706E+02  0.95226861983E+02  0.50000000000E+02 0.  0.
<mgrwt>
<rscale>  0 0.51962019E+02</rscale>
<asrwt>0</asrwt>
<pdfrwt beam="1">  1       13 0.10000000E+01 0.51962019E+02</pdfrwt>
<pdfrwt beam="2">  1       22 0.11718857E+00 0.51962019E+02</pdfrwt>
<totfact> 0.11144183E+00</totfact>
</mgrwt>
</event>
<event>
 4    1  0.2503484E+000  0.5211243E+02  0.7957747E-01  0.1434270E+00
         13   -1    0    0    0    0  0.00000000000E+00  0.00000000000E+00  0.99999944177E+02  0.99999999998E+02  0.10566000000E+00 0. -1.
         22   -1    0    0    0    0 -0.00000000000E+00 -0.00000000000E+00 -0.13968062524E+02  0.13968062524E+02  0.00000000000E+00 0.  1.
         13    1    1    2    0    0  0.79553327939E+01 -0.12345781293E+02  0.16341538172E+01  0.14777931463E+02  0.10566000000E+00 0.  1.
        996    1    1    2    0    0 -0.79553327939E+01  0.12345781293E+02  0.84397727836E+02  0.99190131059E+02  0.50000000000E+02 0.  0.
<mgrwt>
<rscale>  0 0.52112433E+02</rscale>
<asrwt>0</asrwt>
<pdfrwt beam="1">  1       13 0.10000000E+01 0.52112433E+02</pdfrwt>
<pdfrwt beam="2">  1       22 0.13968087E+00 0.52112433E+02</pdfrwt>
<totfact> 0.84660143E-01</totfact>
</mgrwt>
</event>
<event>
 4    1  0.2503484E+000  0.6345932E+02  0.7957747E-01  0.1383862E+00
         13   -1    0    0    0    0  0.00000000000E+00  0.00000000000E+00  0.99999944179E+02  0.99999999999E+02  0.10566000000E+00 0.  1.
         22   -1    0    0    0    0 -0.00000000000E+00 -0.00000000000E+00 -0.35175979786E+02  0.35175979786E+02  0.00000000000E+00 0. -1.
         13    1    1    2    0    0 -0.25126383522E+02  0.29929081203E+02 -0.66015964353E+01  0.39631771220E+02  0.10566000000E+00 0. -1.
        996    1    1    2    0    0  0.25126383522E+02 -0.29929081203E+02  0.71425560828E+02  0.95544208564E+02  0.50000000000E+02 0.  0.
<mgrwt>
<rscale>  0 0.63459318E+02</rscale>
<asrwt>0</asrwt>
<pdfrwt beam="1">  1       13 0.10000000E+01 0.63459318E+02</pdfrwt>
<pdfrwt beam="2">  1       22 0.35175998E+00 0.63459318E+02</pdfrwt>
<totfact> 0.15743591E-01</totfact>
</mgrwt>
</event>
<event>
 4    1  0.2503484E+000  0.7549417E+02  0.7957747E-01  0.1342348E+00
         13   -1    0    0    0    0  0.00000000000E+00  0.00000000000E+00  0.99999944177E+02  0.99999999997E+02  0.10566000000E+00 0. -1.
         22   -1    0    0    0    0 -0.00000000000E+00 -0.00000000000E+00 -0.59716367135E+02  0.59716367135E+02  0.00000000000E+00 0.  1.
         13    1    1    2    0    0  0.35917427334E+01  0.56448819249E+02 -0.23143159038E+02  0.61114538244E+02  0.10566000000E+00 0.  1.
        996    1    1    2    0    0 -0.35917427334E+01 -0.56448819249E+02  0.63426736080E+02  0.98601828889E+02  0.50000000000E+02 0.  0.
<mgrwt>
<rscale>  0 0.75494171E+02</rscale>
<asrwt>0</asrwt>
<pdfrwt beam="1">  1       13 0.10000000E+01 0.75494171E+02</pdfrwt>
<pdfrwt beam="2">  1       22 0.59716378E+00 0.75494171E+02</pdfrwt>
<totfact> 0.62768621E-02</totfact>
</mgrwt>
</event>
<event>
 4    1  0.2503484E+000  0.5382184E+02  0.7957747E-01  0.1425754E+00
         13   -1    0    0    0    0  0.00000000000E+00  0.00000000000E+00  0.99999944179E+02  0.99999999999E+02  0.10566000000E+00 0. -1.
         22   -1    0    0    0    0 -0.00000000000E+00 -0.00000000000E+00 -0.15888769093E+02  0.15888769093E+02  0.00000000000E+00 0.  1.
         13    1    1    2    0    0 -0.76491478296E+01  0.18392424014E+02  0.55846971088E+01  0.20687936810E+02  0.10566000000E+00 0.  1.
        996    1    1    2    0    0  0.76491478296E+01 -0.18392424014E+02  0.78526477977E+02  0.95200832282E+02  0.50000000000E+02 0.  0.
<mgrwt>
<rscale>  0 0.53821842E+02</rscale>
<asrwt>0</asrwt>
<pdfrwt beam="1">  1       13 0.10000000E+01 0.53821842E+02</pdfrwt>
<pdfrwt beam="2">  1       22 0.15888793E+00 0.53821842E+02</pdfrwt>
<totfact> 0.68577962E-01</totfact>
</mgrwt>
</event>
<event>
 4    1  0.2503484E+000  0.5175317E+02  0.7957747E-01  0.1436108E+00
         13   -1    0    0    0    0  0.00000000000E+00  0.00000000000E+00  0.99999944175E+02  0.99999999995E+02  0.10566000000E+00 0. -1.
         22   -1    0    0    0    0 -0.00000000000E+00 -0.00000000000E+00 -0.14533115855E+02  0.14533115855E+02  0.00000000000E+00 0. -1.
         13    1    1    2    0    0  0.84069492945E+01  0.10378504222E+02  0.50099679544E+02  0.51849582455E+02  0.10566000000E+00 0.  1.
        996    1    1    2    0    0 -0.84069492945E+01 -0.10378504222E+02  0.35367148776E+02  0.62683533395E+02  0.50000000000E+02 0.  0.
<mgrwt>
<rscale>  0 0.51753166E+02</rscale>
<asrwt>0</asrwt>
<pdfrwt beam="1">  1       13 0.10000000E+01 0.51753166E+02</pdfrwt>
<pdfrwt beam="2">  1       22 0.14533140E+00 0.51753166E+02</pdfrwt>
<totfact> 0.79296054E-01</totfact>
</mgrwt>
</event>
<event>
 4    1  0.2503484E+000  0.5489948E+02  0.7957747E-01  0.1420575E+00
         13   -1    0    0    0    0  0.00000000000E+00  0.00000000000E+00  0.99999944171E+02  0.99999999991E+02  0.10566000000E+00 0.  1.
         22   -1    0    0    0    0 -0.00000000000E+00 -0.00000000000E+00 -0.35990189400E+02  0.35990189400E+02  0.00000000000E+00 0. -1.
         13    1    1    2    0    0 -0.20543465373E+02  0.95874615615E+01 -0.23520618576E+02  0.32667783074E+02  0.10566000000E+00 0. -1.
        996    1    1    2    0    0  0.20543465373E+02 -0.95874615615E+01  0.87530373348E+02  0.10332240632E+03  0.50000000000E+02 0.  0.
<mgrwt>
<rscale>  0 0.54899484E+02</rscale>
<asrwt>0</asrwt>
<pdfrwt beam="1">  1       13 0.10000000E+01 0.54899484E+02</pdfrwt>
<pdfrwt beam="2">  1       22 0.35990207E+00 0.54899484E+02</pdfrwt>
<totfact> 0.15009131E-01</totfact>
</mgrwt>
</event>
<event>
 4    1  0.2503484E+000  0.5363186E+02  0.7957747E-01  0.1426682E+00
         13   -1    0    0    0    0  0.00000000000E+00  0.00000000000E+00  0.99999944180E+02  0.10000000000E+03  0.10566000000E+00 0.  1.
         22   -1    0    0    0    0 -0.00000000000E+00 -0.00000000000E+00 -0.16096251317E+02  0.16096251317E+02  0.00000000000E+00 0.  1.
         13    1    1    2    0    0 -0.14961978974E+02  0.12349731782E+02  0.39151561157E+01  0.19791824104E+02  0.10566000000E+00 0. -1.
        996    1    1    2    0    0  0.14961978974E+02 -0.12349731782E+02  0.79988536747E+02  0.96304427213E+02  0.50000000000E+02 0.  0.
<mgrwt>
<rscale>  0 0.53631863E+02</rscale>
<asrwt>0</asrwt>
<pdfrwt beam="1">  1       13 0.10000000E+01 0.53631863E+02</pdfrwt>
<pdfrwt beam="2">  1       22 0.16096275E+00 0.53631863E+02</pdfrwt>
<totfact> 0.67048246E-01</totfact>
</mgrwt>
</event>
<event>
 4    1  0.2503484E+000  0.5337112E+02  0.7957747E-01  0.1427963E+00
         13   -1    0    0    0    0  0.00000000000E+00  0.00000000000E+00  0.99999944176E+02  0.99999999996E+02  0.10566000000E+00 0. -1.
         22   -1    0    0    0    0 -0.00000000000E+00 -0.00000000000E+00 -0.24133465796E+02  0.24133465796E+02  0.00000000000E+00 0.  1.
         13    1    1    2    0    0 -0.11808311963E+02  0.14458214296E+02 -0.11375797615E+02  0.21860835470E+02  0.10566000000E+00 0.  1.
        996    1    1    2    0    0  0.11808311963E+02 -0.14458214296E+02  0.87242275995E+02  0.10227263032E+03  0.50000000000E+02 0.  0.
<mgrwt>
<rscale>  0 0.53371118E+02</rscale>
<asrwt>0</asrwt>
<pdfrwt beam="1">  1       13 0.10000000E+01 0.53371118E+02</pdfrwt>
<pdfrwt beam="2">  1       22 0.24133487E+00 0.53371118E+02</pdfrwt>
<totfact> 0.31663217E-01</totfact>
</mgrwt>
</event>
<event>
 4    1  0.2503484E+000  0.5521204E+02  0.7957747E-01  0.1419099E+00
         13   -1    0    0    0    0  0.00000000000E+00  0.00000000000E+00  0.99999944176E+02  0.99999999997E+02  0.10566000000E+00 0. -1.
         22   -1    0    0    0    0 -0.00000000000E+00 -0.00000000000E+00 -0.16132483236E+02  0.16132483236E+02  0.00000000000E+00 0. -1.
         13    1    1    2    0    0 -0.22413842225E+02  0.67815035838E+01  0.36603517875E+02  0.43453398014E+02  0.10566000000E+00 0.  1.
        996    1    1    2    0    0  0.22413842225E+02 -0.67815035838E+01  0.47263943065E+02  0.72679085219E+02  0.50000000000E+02 0.  0.
<mgrwt>
<rscale>  0 0.55212038E+02</rscale>
<asrwt>0</asrwt>
<pdfrwt beam="1">  1       13 0.10000000E+01 0.55212038E+02</pdfrwt>
<pdfrwt beam="2">  1       22 0.16132507E+00 0.55212038E+02</pdfrwt>
<totfact> 0.66989416E-01</totfact>
</mgrwt>
</event>
<event>
 4    1  0.2503484E+000  0.5112235E+02  0.7957747E-01  0.1439380E+00
         13   -1    0    0    0    0  0.00000000000E+00  0.00000000000E+00  0.99999944182E+02  0.10000000000E+03  0.10566000000E+00 0. -1.
         22   -1    0    0    0    0 -0.00000000000E+00 -0.00000000000E+00 -0.17132162379E+02  0.17132162379E+02  0.00000000000E+00 0.  1.
         13    1    1    2    0    0  0.21735696243E+01  0.10429274392E+02 -0.76910156920E+01  0.13139903183E+02  0.10566000000E+00 0.  1.
        996    1    1    2    0    0 -0.21735696243E+01 -0.10429274392E+02  0.90558797496E+02  0.10399225920E+03  0.50000000000E+02 0.  0.
<mgrwt>
<rscale>  0 0.51122345E+02</rscale>
<asrwt>0</asrwt>
<pdfrwt beam="1">  1       13 0.10000000E+01 0.51122345E+02</pdfrwt>
<pdfrwt beam="2">  1       22 0.17132186E+00 0.51122345E+02</pdfrwt>
<totfact> 0.59875304E-01</totfact>
</mgrwt>
</event>
<event>
 4    1  0.2503484E+000  0.5338513E+02  0.7957747E-01  0.1427894E+00
         13   -1    0    0    0    0  0.00000000000E+00  0.00000000000E+00  0.99999944184E+02  0.10000000000E+03  0.10566000000E+00 0. -1.
         22   -1    0    0    0    0 -0.00000000000E+00 -0.00000000000E+00 -0.17669019611E+02  0.17669019611E+02  0.00000000000E+00 0. -1.
         13    1    1    2    0    0 -0.86191946440E+01  0.16603653069E+02 -0.96619732372E+00  0.18732765755E+02  0.10566000000E+00 0.  1.
        996    1    1    2    0    0  0.86191946440E+01 -0.16603653069E+02  0.83297121897E+02  0.98936253860E+02  0.50000000000E+02 0.  0.
<mgrwt>
<rscale>  0 0.53385127E+02</rscale>
<asrwt>0</asrwt>
<pdfrwt beam="1">  1       13 0.10000000E+01 0.53385127E+02</pdfrwt>
<pdfrwt beam="2">  1       22 0.17669043E+00 0.53385127E+02</pdfrwt>
<totfact> 0.56940209E-01</totfact>
</mgrwt>
</event>
<event>
 4    1  0.2503484E+000  0.5466160E+02  0.7957747E-01  0.1421706E+00
         13   -1    0    0    0    0  0.00000000000E+00  0.00000000000E+00  0.99999944178E+02  0.99999999998E+02  0.10566000000E+00 0.  1.
         22   -1    0    0    0    0 -0.00000000000E+00 -0.00000000000E+00 -0.16882628526E+02  0.16882628526E+02  0.00000000000E+00 0. -1.
         13    1    1    2    0    0  0.83451931043E+01 -0.20451125051E+02  0.69988938307E+01  0.23170810143E+02  0.10566000000E+00 0. -1.
        996    1    1    2    0    0 -0.83451931043E+01  0.20451125051E+02  0.76118421821E+02  0.93711818381E+02  0.50000000000E+02 0.  0.
<mgrwt>
<rscale>  0 0.54661602E+02</rscale>
<asrwt>0</asrwt>
<pdfrwt beam="1">  1       13 0.10000000E+01 0.54661602E+02</pdfrwt>
<pdfrwt beam="2">  1       22 0.16882652E+00 0.54661602E+02</pdfrwt>
<totfact> 0.61850569E-01</totfact>
</mgrwt>
</event>
<event>
 4    1  0.2503484E+000  0.5228100E+02  0.7957747E-01  0.1433413E+00
         13   -1    0    0    0    0  0.00000000000E+00  0.00000000000E+00  0.99999944178E+02  0.99999999998E+02  0.10566000000E+00 0. -1.
         22   -1    0    0    0    0 -0.00000000000E+00 -0.00000000000E+00 -0.15889708760E+02  0.15889708760E+02  0.00000000000E+00 0.  1.
         13    1    1    2    0    0 -0.12267047364E+02 -0.91007129261E+01 -0.17397788019E+01  0.15373399790E+02  0.10566000000E+00 0.  1.
        996    1    1    2    0    0  0.12267047364E+02  0.91007129261E+01  0.85850014220E+02  0.10051630897E+03  0.50000000000E+02 0.  0.
<mgrwt>
<rscale>  0 0.52281004E+02</rscale>
<asrwt>0</asrwt>
<pdfrwt beam="1">  1       13 0.10000000E+01 0.52281004E+02</pdfrwt>
<pdfrwt beam="2">  1       22 0.15889732E+00 0.52281004E+02</pdfrwt>
<totfact> 0.68365071E-01</totfact>
</mgrwt>
</event>
<event>
 4    1  0.2503484E+000  0.5112958E+02  0.7957747E-01  0.1439342E+00
         13   -1    0    0    0    0  0.00000000000E+00  0.00000000000E+00  0.99999944184E+02  0.10000000000E+03  0.10566000000E+00 0. -1.
         22   -1    0    0    0    0 -0.00000000000E+00 -0.00000000000E+00 -0.17180027186E+02  0.17180027186E+02  0.00000000000E+00 0.  1.
         13    1    1    2    0    0  0.27229096870E+01 -0.10335385953E+02 -0.77307499446E+01  0.13191288743E+02  0.10566000000E+00 0.  1.
        996    1    1    2    0    0 -0.27229096870E+01  0.10335385953E+02  0.90550666943E+02  0.10398873845E+03  0.50000000000E+02 0.  0.
<mgrwt>
<rscale>  0 0.51129585E+02</rscale>
<asrwt>0</asrwt>
<pdfrwt beam="1">  1       13 0.10000000E+01 0.51129585E+02</pdfrwt>
<pdfrwt beam="2">  1       22 0.17180050E+00 0.51129585E+02</pdfrwt>
<totfact> 0.59583209E-01</totfact>
</mgrwt>
</event>
<event>
 4    1  0.2503484E+000  0.5133982E+02  0.7957747E-01  0.1438246E+00
         13   -1    0    0    0    0  0.00000000000E+00  0.00000000000E+00  0.99999944177E+02  0.99999999997E+02  0.10566000000E+00 0.  1.
         22   -1    0    0    0    0 -0.00000000000E+00 -0.00000000000E+00 -0.19391467886E+02  0.19391467886E+02  0.00000000000E+00 0. -1.
         13    1    1    2    0    0  0.11239695690E+02  0.30735697272E+01 -0.99299218751E+01  0.15309869449E+02  0.10566000000E+00 0. -1.
        996    1    1    2    0    0 -0.11239695690E+02 -0.30735697272E+01  0.90538398166E+02  0.10408159843E+03  0.50000000000E+02 0.  0.
<mgrwt>
<rscale>  0 0.51339825E+02</rscale>
<asrwt>0</asrwt>
<pdfrwt beam="1">  1       13 0.10000000E+01 0.51339825E+02</pdfrwt>
<pdfrwt beam="2">  1       22 0.19391490E+00 0.51339825E+02</pdfrwt>
<totfact> 0.47922780E-01</totfact>
</mgrwt>
</event>
<event>
 4    1  0.2503484E+000  0.5138423E+02  0.7957747E-01  0.1438015E+00
         13   -1    0    0    0    0  0.00000000000E+00  0.00000000000E+00  0.99999944177E+02  0.99999999997E+02  0.10566000000E+00 0. -1.
         22   -1    0    0    0    0 -0.00000000000E+00 -0.00000000000E+00 -0.26321441851E+02  0.26321441851E+02  0.00000000000E+00 0.  1.
         13    1    1    2    0    0 -0.84181437781E+01 -0.83350967428E+01 -0.17810148308E+02  0.21390454160E+02  0.10566000000E+00 0.  1.
        996    1    1    2    0    0  0.84181437781E+01  0.83350967428E+01  0.91488650634E+02  0.10493098769E+03  0.50000000000E+02 0.  0.
<mgrwt>
<rscale>  0 0.51384229E+02</rscale>
<asrwt>0</asrwt>
<pdfrwt beam="1">  1       13 0.10000000E+01 0.51384229E+02</pdfrwt>
<pdfrwt beam="2">  1       22 0.26321462E+00 0.51384229E+02</pdfrwt>
<totfact> 0.26613837E-01</totfact>
</mgrwt>
</event>
<event>
 4    1  0.2503484E+000  0.5261877E+02  0.7957747E-01  0.1431708E+00
         13   -1    0    0    0    0  0.00000000000E+00  0.00000000000E+00  0.99999944182E+02  0.10000000000E+03  0.10566000000E+00 0. -1.
         22   -1    0    0    0    0 -0.00000000000E+00 -0.00000000000E+00 -0.11916368211E+02  0.11916368211E+02  0.00000000000E+00 0. -1.
         13    1    1    2    0    0  0.98758309632E+01 -0.13084434981E+02  0.19585271195E+02  0.25540722147E+02  0.10566000000E+00 0.  1.
        996    1    1    2    0    0 -0.98758309632E+01  0.13084434981E+02  0.68498304777E+02  0.86375646066E+02  0.50000000000E+02 0.  0.
<mgrwt>
<rscale>  0 0.52618765E+02</rscale>
<asrwt>0</asrwt>
<pdfrwt beam="1">  1       13 0.10000000E+01 0.52618765E+02</pdfrwt>
<pdfrwt beam="2">  1       22 0.11916393E+00 0.52618765E+02</pdfrwt>
<totfact> 0.10880020E+00</totfact>
</mgrwt>
</event>
<event>
 4    1  0.2503484E+000  0.5134986E+02  0.7957747E-01  0.1438194E+00
         13   -1    0    0    0    0  0.00000000000E+00  0.00000000000E+00  0.99999944179E+02  0.99999999999E+02  0.10566000000E+00 0. -1.
         22   -1    0    0    0    0 -0.00000000000E+00 -0.00000000000E+00 -0.13707247876E+02  0.13707247876E+02  0.00000000000E+00 0.  1.
         13    1    1    2    0    0  0.10129219422E+02 -0.58486973020E+01 -0.17073686176E+01  0.11820939805E+02  0.10566000000E+00 0.  1.
        996    1    1    2    0    0 -0.10129219422E+02  0.58486973020E+01  0.88000064921E+02  0.10188630807E+03  0.50000000000E+02 0.  0.
<mgrwt>
<rscale>  0 0.51349862E+02</rscale>
<asrwt>0</asrwt>
<pdfrwt beam="1">  1       13 0.10000000E+01 0.51349862E+02</pdfrwt>
<pdfrwt beam="2">  1       22 0.13707272E+00 0.51349862E+02</pdfrwt>
<totfact> 0.87132583E-01</totfact>
</mgrwt>
</event>
<event>
 4    1  0.2503484E+000  0.5332149E+02  0.7957747E-01  0.1428208E+00
         13   -1    0    0    0    0  0.00000000000E+00  0.00000000000E+00  0.99999944181E+02  0.10000000000E+03  0.10566000000E+00 0. -1.
         22   -1    0    0    0    0 -0.00000000000E+00 -0.00000000000E+00 -0.32615650723E+02  0.32615650723E+02  0.00000000000E+00 0.  1.
         13    1    1    2    0    0 -0.17888618404E+02 -0.48143832127E+01 -0.21860889742E+02  0.28654678823E+02  0.10566000000E+00 0.  1.
        996    1    1    2    0    0  0.17888618404E+02  0.48143832127E+01  0.89245183200E+02  0.10396097190E+03  0.50000000000E+02 0.  0.
<mgrwt>
<rscale>  0 0.53321487E+02</rscale>
<asrwt>0</asrwt>
<pdfrwt beam="1">  1       13 0.10000000E+01 0.53321487E+02</pdfrwt>
<pdfrwt beam="2">  1       22 0.32615670E+00 0.53321487E+02</pdfrwt>
<totfact> 0.17810787E-01</totfact>
</mgrwt>
</event>
<event>
 4    1  0.2503484E+000  0.5625765E+02  0.7957747E-01  0.1414243E+00
         13   -1    0    0    0    0  0.00000000000E+00  0.00000000000E+00  0.99999944173E+02  0.99999999993E+02  0.10566000000E+00 0.  1.
         22   -1    0    0    0    0 -0.00000000000E+00 -0.00000000000E+00 -0.23506185021E+02  0.23506185021E+02  0.00000000000E+00 0. -1.
         13    1    1    2    0    0 -0.21904665426E+01  0.25692906155E+02 -0.31701717518E+01  0.25980468112E+02  0.10566000000E+00 0. -1.
        996    1    1    2    0    0  0.21904665426E+01 -0.25692906155E+02  0.79663930904E+02  0.97525716903E+02  0.50000000000E+02 0.  0.
<mgrwt>
<rscale>  0 0.56257653E+02</rscale>
<asrwt>0</asrwt>
<pdfrwt beam="1">  1       13 0.10000000E+01 0.56257653E+02</pdfrwt>
<pdfrwt beam="2">  1       22 0.23506206E+00 0.56257653E+02</pdfrwt>
<totfact> 0.33488130E-01</totfact>
</mgrwt>
</event>
<event>
 4    1  0.2503484E+000  0.5156138E+02  0.7957747E-01  0.1437097E+00
         13   -1    0    0    0    0  0.00000000000E+00  0.00000000000E+00  0.99999944175E+02  0.99999999995E+02  0.10566000000E+00 0.  1.
         22   -1    0    0    0    0 -0.00000000000E+00 -0.00000000000E+00 -0.63622250574E+02  0.63622250574E+02  0.00000000000E+00 0. -1.
         13    1    1    2    0    0  0.52194493254E+01  0.11460075715E+02 -0.56232802317E+02  0.57625647130E+02  0.10566000000E+00 0. -1.
        996    1    1    2    0    0 -0.52194493254E+01 -0.11460075715E+02  0.92610495918E+02  0.10599660344E+03  0.50000000000E+02 0.  0.
<mgrwt>
<rscale>  0 0.51561381E+02</rscale>
<asrwt>0</asrwt>
<pdfrwt beam="1">  1       13 0.10000000E+01 0.51561381E+02</pdfrwt>
<pdfrwt beam="2">  1       22 0.63622261E+00 0.51561381E+02</pdfrwt>
<totfact> 0.81793291E-02</totfact>
</mgrwt>
</event>
<event>
 4    1  0.2503484E+000  0.5126626E+02  0.7957747E-01  0.1438629E+00
         13   -1    0    0    0    0  0.00000000000E+00  0.00000000000E+00  0.99999944177E+02  0.99999999997E+02  0.10566000000E+00 0. -1.
         22   -1    0    0    0    0 -0.00000000000E+00 -0.00000000000E+00 -0.27366192541E+02  0.27366192541E+02  0.00000000000E+00 0.  1.
         13    1    1    2    0    0  0.50569124085E+01 -0.10131983966E+02 -0.19142858864E+02  0.22241620258E+02  0.10566000000E+00 0.  1.
        996    1    1    2    0    0 -0.50569124085E+01  0.10131983966E+02  0.91776610500E+02  0.10512457228E+03  0.50000000000E+02 0.  0.
<mgrwt>
<rscale>  0 0.51266260E+02</rscale>
<asrwt>0</asrwt>
<pdfrwt beam="1">  1       13 0.10000000E+01 0.51266260E+02</pdfrwt>
<pdfrwt beam="2">  1       22 0.27366213E+00 0.51266260E+02</pdfrwt>
<totfact> 0.24658113E-01</totfact>
</mgrwt>
</event>
<event>
 4    1  0.2503484E+000  0.5329364E+02  0.7957747E-01  0.1428345E+00
         13   -1    0    0    0    0  0.00000000000E+00  0.00000000000E+00  0.99999944181E+02  0.10000000000E+03  0.10566000000E+00 0.  1.
         22   -1    0    0    0    0 -0.00000000000E+00 -0.00000000000E+00 -0.13006275943E+02  0.13006275943E+02  0.00000000000E+00 0. -1.
         13    1    1    2    0    0 -0.22252588937E+01 -0.18310119664E+02  0.17459494555E+02  0.25397979711E+02  0.10566000000E+00 0. -1.
        996    1    1    2    0    0  0.22252588937E+01  0.18310119664E+02  0.69534173683E+02  0.87608296234E+02  0.50000000000E+02 0.  0.
<mgrwt>
<rscale>  0 0.53293642E+02</rscale>
<asrwt>0</asrwt>
<pdfrwt beam="1">  1       13 0.10000000E+01 0.53293642E+02</pdfrwt>
<pdfrwt beam="2">  1       22 0.13006300E+00 0.53293642E+02</pdfrwt>
<totfact> 0.95116848E-01</totfact>
</mgrwt>
</event>
<event>
 4    1  0.2503484E+000  0.6630197E+02  0.7957747E-01  0.1373140E+00
         13   -1    0    0    0    0  0.00000000000E+00  0.00000000000E+00  0.99999944175E+02  0.99999999996E+02  0.10566000000E+00 0.  1.
         22   -1    0    0    0    0 -0.00000000000E+00 -0.00000000000E+00 -0.84591944821E+02  0.84591944821E+02  0.00000000000E+00 0. -1.
         13    1    1    2    0    0 -0.30192113694E+02  0.31374943289E+02 -0.66329604131E+02  0.79344680628E+02  0.10566000000E+00 0. -1.
        996    1    1    2    0    0  0.30192113694E+02 -0.31374943289E+02  0.81737603485E+02  0.10524726419E+03  0.50000000000E+02 0.  0.
<mgrwt>
<rscale>  0 0.66301967E+02</rscale>
<asrwt>0</asrwt>
<pdfrwt beam="1">  1       13 0.10000000E+01 0.66301967E+02</pdfrwt>
<pdfrwt beam="2">  1       22 0.84591949E+00 0.66301967E+02</pdfrwt>
<totfact> 0.19811574E-02</totfact>
</mgrwt>
</event>
<event>
 4    1  0.2503484E+000  0.5210510E+02  0.7957747E-01  0.1434307E+00
         13   -1    0    0    0    0  0.00000000000E+00  0.00000000000E+00  0.99999944179E+02  0.99999999999E+02  0.10566000000E+00 0. -1.
         22   -1    0    0    0    0 -0.00000000000E+00 -0.00000000000E+00 -0.11227588031E+02  0.11227588031E+02  0.00000000000E+00 0. -1.
         13    1    1    2    0    0  0.14392570780E+02 -0.27919704396E+01  0.15706554693E+02  0.21486000487E+02  0.10566000000E+00 0.  1.
        996    1    1    2    0    0 -0.14392570780E+02  0.27919704396E+01  0.73065801455E+02  0.89741587543E+02  0.50000000000E+02 0.  0.
<mgrwt>
<rscale>  0 0.52105098E+02</rscale>
<asrwt>0</asrwt>
<pdfrwt beam="1">  1       13 0.10000000E+01 0.52105098E+02</pdfrwt>
<pdfrwt beam="2">  1       22 0.11227613E+00 0.52105098E+02</pdfrwt>
<totfact> 0.11891124E+00</totfact>
</mgrwt>
</event>
<event>
 4    1  0.2503484E+000  0.5260561E+02  0.7957747E-01  0.1431774E+00
         13   -1    0    0    0    0  0.00000000000E+00  0.00000000000E+00  0.99999944184E+02  0.10000000000E+03  0.10566000000E+00 0.  1.
         22   -1    0    0    0    0 -0.00000000000E+00 -0.00000000000E+00 -0.11918975119E+02  0.11918975119E+02  0.00000000000E+00 0.  1.
         13    1    1    2    0    0 -0.13821030771E+02  0.87366630874E+01  0.18502507528E+02  0.24692187476E+02  0.10566000000E+00 0. -1.
        996    1    1    2    0    0  0.13821030771E+02 -0.87366630874E+01  0.69578461537E+02  0.87226787647E+02  0.50000000000E+02 0.  0.
<mgrwt>
<rscale>  0 0.52605610E+02</rscale>
<asrwt>0</asrwt>
<pdfrwt beam="1">  1       13 0.10000000E+01 0.52605610E+02</pdfrwt>
<pdfrwt beam="2">  1       22 0.11919000E+00 0.52605610E+02</pdfrwt>
<totfact> 0.10876065E+00</totfact>
</mgrwt>
</event>
<event>
 4    1  0.2503484E+000  0.6266974E+02  0.7957747E-01  0.1386958E+00
         13   -1    0    0    0    0  0.00000000000E+00  0.00000000000E+00  0.99999944179E+02  0.99999999999E+02  0.10566000000E+00 0.  1.
         22   -1    0    0    0    0 -0.00000000000E+00 -0.00000000000E+00 -0.29281240482E+02  0.29281240482E+02  0.00000000000E+00 0.  1.
         13    1    1    2    0    0  0.23155303524E+02  0.29855115485E+02  0.51221521641E+02  0.63648656271E+02  0.10566000000E+00 0. -1.
        996    1    1    2    0    0 -0.23155303524E+02 -0.29855115485E+02  0.19497182056E+02  0.65632584210E+02  0.50000000000E+02 0.  0.
<mgrwt>
<rscale>  0 0.62669738E+02</rscale>
<asrwt>0</asrwt>
<pdfrwt beam="1">  1       13 0.10000000E+01 0.62669738E+02</pdfrwt>
<pdfrwt beam="2">  1       22 0.29281260E+00 0.62669738E+02</pdfrwt>
<totfact> 0.21956170E-01</totfact>
</mgrwt>
</event>
<event>
 4    1  0.2503484E+000  0.7907596E+02  0.7957747E-01  0.1331694E+00
         13   -1    0    0    0    0  0.00000000000E+00  0.00000000000E+00  0.99999944174E+02  0.99999999994E+02  0.10566000000E+00 0.  1.
         22   -1    0    0    0    0 -0.00000000000E+00 -0.00000000000E+00 -0.70721938914E+02  0.70721938914E+02  0.00000000000E+00 0. -1.
         13    1    1    2    0    0  0.61129502370E+02  0.40238812441E+01 -0.33439192755E+02  0.69793971490E+02  0.10566000000E+00 0. -1.
        996    1    1    2    0    0 -0.61129502370E+02 -0.40238812441E+01  0.62717198015E+02  0.10092796742E+03  0.50000000000E+02 0.  0.
<mgrwt>
<rscale>  0 0.79075961E+02</rscale>
<asrwt>0</asrwt>
<pdfrwt beam="1">  1       13 0.10000000E+01 0.79075961E+02</pdfrwt>
<pdfrwt beam="2">  1       22 0.70721947E+00 0.79075961E+02</pdfrwt>
<totfact> 0.70854894E-02</totfact>
</mgrwt>
</event>
<event>
 4    1  0.2503484E+000  0.5694472E+02  0.7957747E-01  0.1411120E+00
         13   -1    0    0    0    0  0.00000000000E+00  0.00000000000E+00  0.99999944178E+02  0.99999999998E+02  0.10566000000E+00 0.  1.
         22   -1    0    0    0    0 -0.00000000000E+00 -0.00000000000E+00 -0.31199002149E+02  0.31199002149E+02  0.00000000000E+00 0. -1.
         13    1    1    2    0    0 -0.18703687705E+02  0.19821031468E+02 -0.14053300922E+02  0.30662805694E+02  0.10566000000E+00 0. -1.
        996    1    1    2    0    0  0.18703687705E+02 -0.19821031468E+02  0.82854242951E+02  0.10053619645E+03  0.50000000000E+02 0.  0.
<mgrwt>
<rscale>  0 0.56944721E+02</rscale>
<asrwt>0</asrwt>
<pdfrwt beam="1">  1       13 0.10000000E+01 0.56944721E+02</pdfrwt>
<pdfrwt beam="2">  1       22 0.31199021E+00 0.56944721E+02</pdfrwt>
<totfact> 0.19374062E-01</totfact>
</mgrwt>
</event>
<event>
 4    1  0.2503484E+000  0.5672978E+02  0.7957747E-01  0.1412091E+00
         13   -1    0    0    0    0  0.00000000000E+00  0.00000000000E+00  0.99999944176E+02  0.99999999996E+02  0.10566000000E+00 0.  1.
         22   -1    0    0    0    0 -0.00000000000E+00 -0.00000000000E+00 -0.46839348418E+02  0.46839348418E+02  0.00000000000E+00 0. -1.
         13    1    1    2    0    0  0.11068610740E+02  0.24408063138E+02 -0.33722580746E+02  0.43075414172E+02  0.10566000000E+00 0. -1.
        996    1    1    2    0    0 -0.11068610740E+02 -0.24408063138E+02  0.86883176504E+02  0.10376393424E+03  0.50000000000E+02 0.  0.
<mgrwt>
<rscale>  0 0.56729778E+02</rscale>
<asrwt>0</asrwt>
<pdfrwt beam="1">  1       13 0.10000000E+01 0.56729778E+02</pdfrwt>
<pdfrwt beam="2">  1       22 0.46839363E+00 0.56729778E+02</pdfrwt>
<totfact> 0.87851969E-02</totfact>
</mgrwt>
</event>
<event>
 4    1  0.2503484E+000  0.5355010E+02  0.7957747E-01  0.1427083E+00
         13   -1    0    0    0    0  0.00000000000E+00  0.00000000000E+00  0.99999944182E+02  0.10000000000E+03  0.10566000000E+00 0. -1.
         22   -1    0    0    0    0 -0.00000000000E+00 -0.00000000000E+00 -0.14115349093E+02  0.14115349093E+02  0.00000000000E+00 0.  1.
         13    1    1    2    0    0 -0.43396107574E+00  0.19168320139E+02  0.36693835240E+02  0.41401226163E+02  0.10566000000E+00 0.  1.
        996    1    1    2    0    0  0.43396107574E+00 -0.19168320139E+02  0.49190759850E+02  0.72714122932E+02  0.50000000000E+02 0.  0.
<mgrwt>
<rscale>  0 0.53550096E+02</rscale>
<asrwt>0</asrwt>
<pdfrwt beam="1">  1       13 0.10000000E+01 0.53550096E+02</pdfrwt>
<pdfrwt beam="2">  1       22 0.14115373E+00 0.53550096E+02</pdfrwt>
<totfact> 0.83478285E-01</totfact>
</mgrwt>
</event>
<event>
 4    1  0.2503484E+000  0.5930724E+02  0.7957747E-01  0.1400762E+00
         13   -1    0    0    0    0  0.00000000000E+00  0.00000000000E+00  0.99999944176E+02  0.99999999997E+02  0.10566000000E+00 0.  1.
         22   -1    0    0    0    0 -0.00000000000E+00 -0.00000000000E+00 -0.42081445300E+02  0.42081445300E+02  0.00000000000E+00 0. -1.
         13    1    1    2    0    0 -0.31381668152E+02 -0.57043629495E+01 -0.24726967908E+02  0.40358183292E+02  0.10566000000E+00 0. -1.
        996    1    1    2    0    0  0.31381668152E+02  0.57043629495E+01  0.82645466785E+02  0.10172326200E+03  0.50000000000E+02 0.  0.
<mgrwt>
<rscale>  0 0.59307241E+02</rscale>
<asrwt>0</asrwt>
<pdfrwt beam="1">  1       13 0.10000000E+01 0.59307241E+02</pdfrwt>
<pdfrwt beam="2">  1       22 0.42081461E+00 0.59307241E+02</pdfrwt>
<totfact> 0.11244374E-01</totfact>
</mgrwt>
</event>
<event>
 4    1  0.2503484E+000  0.5161788E+02  0.7957747E-01  0.1436806E+00
         13   -1    0    0    0    0  0.00000000000E+00  0.00000000000E+00  0.99999944178E+02  0.99999999998E+02  0.10566000000E+00 0. -1.
         22   -1    0    0    0    0 -0.00000000000E+00 -0.00000000000E+00 -0.12377077432E+02  0.12377077432E+02  0.00000000000E+00 0. -1.
         13    1    1    2    0    0  0.74962884770E+01  0.10402440348E+02  0.28653042569E+01  0.13138730481E+02  0.10566000000E+00 0.  1.
        996    1    1    2    0    0 -0.74962884770E+01 -0.10402440348E+02  0.84757562490E+02  0.99238346950E+02  0.50000000000E+02 0.  0.
<mgrwt>
<rscale>  0 0.51617876E+02</rscale>
<asrwt>0</asrwt>
<pdfrwt beam="1">  1       13 0.10000000E+01 0.51617876E+02</pdfrwt>
<pdfrwt beam="2">  1       22 0.12377102E+00 0.51617876E+02</pdfrwt>
<totfact> 0.10240558E+00</totfact>
</mgrwt>
</event>
<event>
 4    1  0.2503484E+000  0.5102091E+02  0.7957747E-01  0.1439912E+00
         13   -1    0    0    0    0  0.00000000000E+00  0.00000000000E+00  0.99999944179E+02  0.99999999999E+02  0.10566000000E+00 0.  1.
         22   -1    0    0    0    0 -0.00000000000E+00 -0.00000000000E+00 -0.12944317885E+02  0.12944317885E+02  0.00000000000E+00 0.  1.
         13    1    1    2    0    0  0.93791171259E+01  0.38942862185E+01  0.46982333022E+02  0.48067495082E+02  0.10566000000E+00 0. -1.
        996    1    1    2    0    0 -0.93791171259E+01 -0.38942862185E+01  0.40073293272E+02  0.64876822802E+02  0.50000000000E+02 0.  0.
<mgrwt>
<rscale>  0 0.51020910E+02</rscale>
<asrwt>0</asrwt>
<pdfrwt beam="1">  1       13 0.10000000E+01 0.51020910E+02</pdfrwt>
<pdfrwt beam="2">  1       22 0.12944342E+00 0.51020910E+02</pdfrwt>
<totfact> 0.95365312E-01</totfact>
</mgrwt>
</event>
<event>
 4    1  0.2503484E+000  0.5670981E+02  0.7957747E-01  0.1412182E+00
         13   -1    0    0    0    0  0.00000000000E+00  0.00000000000E+00  0.99999944180E+02  0.10000000000E+03  0.10566000000E+00 0.  1.
         22   -1    0    0    0    0 -0.00000000000E+00 -0.00000000000E+00 -0.30492138980E+02  0.30492138980E+02  0.00000000000E+00 0. -1.
         13    1    1    2    0    0 -0.11259623084E+02  0.24273925758E+02 -0.13492949941E+02  0.29967873562E+02  0.10566000000E+00 0. -1.
        996    1    1    2    0    0  0.11259623084E+02 -0.24273925758E+02  0.83000755141E+02  0.10052426542E+03  0.50000000000E+02 0.  0.
<mgrwt>
<rscale>  0 0.56709810E+02</rscale>
<asrwt>0</asrwt>
<pdfrwt beam="1">  1       13 0.10000000E+01 0.56709810E+02</pdfrwt>
<pdfrwt beam="2">  1       22 0.30492158E+00 0.56709810E+02</pdfrwt>
<totfact> 0.20203526E-01</totfact>
</mgrwt>
</event>
<event>
 4    1  0.2503484E+000  0.5626541E+02  0.7957747E-01  0.1414208E+00
         13   -1    0    0    0    0  0.00000000000E+00  0.00000000000E+00  0.99999944184E+02  0.10000000000E+03  0.10566000000E+00 0.  1.
         22   -1    0    0    0    0 -0.00000000000E+00 -0.00000000000E+00 -0.17025883005E+02  0.17025883005E+02  0.00000000000E+00 0.  1.
         13    1    1    2    0    0  0.21528946042E+02  0.14223260955E+02  0.20547275696E+02  0.32984820333E+02  0.10566000000E+00 0. -1.
        996    1    1    2    0    0 -0.21528946042E+02 -0.14223260955E+02  0.62426785484E+02  0.84041062676E+02  0.50000000000E+02 0.  0.
<mgrwt>
<rscale>  0 0.56265413E+02</rscale>
<asrwt>0</asrwt>
<pdfrwt beam="1">  1       13 0.10000000E+01 0.56265413E+02</pdfrwt>
<pdfrwt beam="2">  1       22 0.17025906E+00 0.56265413E+02</pdfrwt>
<totfact> 0.61118103E-01</totfact>
</mgrwt>
</event>
<event>
 4    1  0.2503484E+000  0.5402773E+02  0.7957747E-01  0.1424754E+00
         13   -1    0    0    0    0  0.00000000000E+00  0.00000000000E+00  0.99999944170E+02  0.99999999991E+02  0.10566000000E+00 0. -1.
         22   -1    0    0    0    0 -0.00000000000E+00 -0.00000000000E+00 -0.42452446996E+02  0.42452446996E+02  0.00000000000E+00 0.  1.
         13    1    1    2    0    0  0.14594125353E+02 -0.14352941136E+02 -0.31930413597E+02  0.37928325703E+02  0.10566000000E+00 0.  1.
        996    1    1    2    0    0 -0.14594125353E+02  0.14352941136E+02  0.89477910772E+02  0.10452412128E+03  0.50000000000E+02 0.  0.
<mgrwt>
<rscale>  0 0.54027728E+02</rscale>
<asrwt>0</asrwt>
<pdfrwt beam="1">  1       13 0.10000000E+01 0.54027728E+02</pdfrwt>
<pdfrwt beam="2">  1       22 0.42452463E+00 0.54027728E+02</pdfrwt>
<totfact> 0.11004286E-01</totfact>
</mgrwt>
</event>
<event>
 4    1  0.2503484E+000  0.5802399E+02  0.7957747E-01  0.1406316E+00
         13   -1    0    0    0    0  0.00000000000E+00  0.00000000000E+00  0.99999944183E+02  0.10000000000E+03  0.10566000000E+00 0.  1.
         22   -1    0    0    0    0 -0.00000000000E+00 -0.00000000000E+00 -0.26287491344E+02  0.26287491344E+02  0.00000000000E+00 0. -1.
         13    1    1    2    0    0  0.87859130679E+01 -0.28099662699E+02 -0.35592307408E+01  0.29655734686E+02  0.10566000000E+00 0. -1.
        996    1    1    2    0    0 -0.87859130679E+01  0.28099662699E+02  0.77271683580E+02  0.96631756662E+02  0.50000000000E+02 0.  0.
<mgrwt>
<rscale>  0 0.58023989E+02</rscale>
<asrwt>0</asrwt>
<pdfrwt beam="1">  1       13 0.10000000E+01 0.58023989E+02</pdfrwt>
<pdfrwt beam="2">  1       22 0.26287512E+00 0.58023989E+02</pdfrwt>
<totfact> 0.26936154E-01</totfact>
</mgrwt>
</event>
<event>
 4    1  0.2503484E+000  0.5116288E+02  0.7957747E-01  0.1439168E+00
         13   -1    0    0    0    0  0.00000000000E+00  0.00000000000E+00  0.99999944184E+02  0.10000000000E+03  0.10566000000E+00 0.  1.
         22   -1    0    0    0    0 -0.00000000000E+00 -0.00000000000E+00 -0.10833857179E+02  0.10833857179E+02  0.00000000000E+00 0.  1.
         13    1    1    2    0    0  0.95350621548E+01 -0.51694023088E+01  0.41570604447E+01  0.11616042618E+02  0.10566000000E+00 0. -1.
        996    1    1    2    0    0 -0.95350621548E+01  0.51694023088E+01  0.85009026560E+02  0.99217814566E+02  0.50000000000E+02 0.  0.
<mgrwt>
<rscale>  0 0.51162878E+02</rscale>
<asrwt>0</asrwt>
<pdfrwt beam="1">  1       13 0.10000000E+01 0.51162878E+02</pdfrwt>
<pdfrwt beam="2">  1       22 0.10833882E+00 0.51162878E+02</pdfrwt>
<totfact> 0.12512770E+00</totfact>
</mgrwt>
</event>
<event>
 4    1  0.2503484E+000  0.5647290E+02  0.7957747E-01  0.1413259E+00
         13   -1    0    0    0    0  0.00000000000E+00  0.00000000000E+00  0.99999944180E+02  0.10000000000E+03  0.10566000000E+00 0.  1.
         22   -1    0    0    0    0 -0.00000000000E+00 -0.00000000000E+00 -0.71262302277E+02  0.71262302277E+02  0.00000000000E+00 0. -1.
         13    1    1    2    0    0 -0.83330159736E+01 -0.24894754522E+02 -0.60333331102E+02  0.65797492079E+02  0.10566000000E+00 0. -1.
        996    1    1    2    0    0  0.83330159736E+01  0.24894754522E+02  0.89070973005E+02  0.10546481020E+03  0.50000000000E+02 0.  0.
<mgrwt>
<rscale>  0 0.56472896E+02</rscale>
<asrwt>0</asrwt>
<pdfrwt beam="1">  1       13 0.10000000E+01 0.56472896E+02</pdfrwt>
<pdfrwt beam="2">  1       22 0.71262310E+00 0.56472896E+02</pdfrwt>
<totfact> 0.68005672E-02</totfact>
</mgrwt>
</event>
<event>
 4    1  0.2503484E+000  0.5100084E+02  0.7957747E-01  0.1440017E+00
         13   -1    0    0    0    0  0.00000000000E+00  0.00000000000E+00  0.99999944187E+02  0.10000000001E+03  0.10566000000E+00 0.  1.
         22   -1    0    0    0    0 -0.00000000000E+00 -0.00000000000E+00 -0.10329776526E+02  0.10329776526E+02  0.00000000000E+00 0.  1.
         13    1    1    2    0    0  0.80798502439E+01 -0.59834364038E+01  0.44084790902E+01  0.10978676746E+02  0.10566000000E+00 0. -1.
        996    1    1    2    0    0 -0.80798502439E+01  0.59834364038E+01  0.85261688571E+02  0.99351099788E+02  0.50000000000E+02 0.  0.
<mgrwt>
<rscale>  0 0.51000838E+02</rscale>
<asrwt>0</asrwt>
<pdfrwt beam="1">  1       13 0.10000000E+01 0.51000838E+02</pdfrwt>
<pdfrwt beam="2">  1       22 0.10329802E+00 0.51000838E+02</pdfrwt>
<totfact> 0.13415654E+00</totfact>
</mgrwt>
</event>
<event>
 4    1  0.2503484E+000  0.5187476E+02  0.7957747E-01  0.1435484E+00
         13   -1    0    0    0    0  0.00000000000E+00  0.00000000000E+00  0.99999944181E+02  0.10000000000E+03  0.10566000000E+00 0. -1.
         22   -1    0    0    0    0 -0.00000000000E+00 -0.00000000000E+00 -0.26343095467E+02  0.26343095467E+02  0.00000000000E+00 0.  1.
         13    1    1    2    0    0  0.11183359885E+02 -0.81193400213E+01 -0.16990779092E+02  0.21901802640E+02  0.10566000000E+00 0.  1.
        996    1    1    2    0    0 -0.11183359885E+02  0.81193400213E+01  0.90647627806E+02  0.10444129283E+03  0.50000000000E+02 0.  0.
<mgrwt>
<rscale>  0 0.51874765E+02</rscale>
<asrwt>0</asrwt>
<pdfrwt beam="1">  1       13 0.10000000E+01 0.51874765E+02</pdfrwt>
<pdfrwt beam="2">  1       22 0.26343116E+00 0.51874765E+02</pdfrwt>
<totfact> 0.26590684E-01</totfact>
</mgrwt>
</event>
<event>
 4    1  0.2503484E+000  0.6026859E+02  0.7957747E-01  0.1396708E+00
         13   -1    0    0    0    0  0.00000000000E+00  0.00000000000E+00  0.99999944178E+02  0.99999999998E+02  0.10566000000E+00 0. -1.
         22   -1    0    0    0    0 -0.00000000000E+00 -0.00000000000E+00 -0.27506341634E+02  0.27506341634E+02  0.00000000000E+00 0.  1.
         13    1    1    2    0    0 -0.32181458743E+02  0.98313905589E+01  0.54993395039E+00  0.33654362548E+02  0.10566000000E+00 0.  1.
        996    1    1    2    0    0  0.32181458743E+02 -0.98313905589E+01  0.71943668594E+02  0.93851979084E+02  0.50000000000E+02 0.  0.
<mgrwt>
<rscale>  0 0.60268587E+02</rscale>
<asrwt>0</asrwt>
<pdfrwt beam="1">  1       13 0.10000000E+01 0.60268587E+02</pdfrwt>
<pdfrwt beam="2">  1       22 0.27506362E+00 0.60268587E+02</pdfrwt>
<totfact> 0.24712189E-01</totfact>
</mgrwt>
</event>
<event>
 4    1  0.2503484E+000  0.5178841E+02  0.7957747E-01  0.1435927E+00
         13   -1    0    0    0    0  0.00000000000E+00  0.00000000000E+00  0.99999944180E+02  0.10000000000E+03  0.10566000000E+00 0.  1.
         22   -1    0    0    0    0 -0.00000000000E+00 -0.00000000000E+00 -0.15226606560E+02  0.15226606560E+02  0.00000000000E+00 0. -1.
         13    1    1    2    0    0 -0.73878390469E+01  0.11289774689E+02 -0.25210592483E+01  0.13726109502E+02  0.10566000000E+00 0. -1.
        996    1    1    2    0    0  0.73878390469E+01 -0.11289774689E+02  0.87294396869E+02  0.10150049706E+03  0.50000000000E+02 0.  0.
<mgrwt>
<rscale>  0 0.51788408E+02</rscale>
<asrwt>0</asrwt>
<pdfrwt beam="1">  1       13 0.10000000E+01 0.51788408E+02</pdfrwt>
<pdfrwt beam="2">  1       22 0.15226630E+00 0.51788408E+02</pdfrwt>
<totfact> 0.73398798E-01</totfact>
</mgrwt>
</event>
<event>
 4    1  0.2503484E+000  0.5205144E+02  0.7957747E-01  0.1434581E+00
         13   -1    0    0    0    0  0.00000000000E+00  0.00000000000E+00  0.99999944176E+02  0.99999999996E+02  0.10566000000E+00 0. -1.
         22   -1    0    0    0    0 -0.00000000000E+00 -0.00000000000E+00 -0.11684483992E+02  0.11684483992E+02  0.00000000000E+00 0. -1.
         13    1    1    2    0    0  0.65160736595E+01 -0.12918705997E+02  0.97757607787E+01  0.17462211870E+02  0.10566000000E+00 0.  1.
        996    1    1    2    0    0 -0.65160736595E+01  0.12918705997E+02  0.78539699405E+02  0.94222272119E+02  0.50000000000E+02 0.  0.
<mgrwt>
<rscale>  0 0.52051438E+02</rscale>
<asrwt>0</asrwt>
<pdfrwt beam="1">  1       13 0.10000000E+01 0.52051438E+02</pdfrwt>
<pdfrwt beam="2">  1       22 0.11684509E+00 0.52051438E+02</pdfrwt>
<totfact> 0.11196177E+00</totfact>
</mgrwt>
</event>
<event>
 4    1  0.2503484E+000  0.5190031E+02  0.7957747E-01  0.1435353E+00
         13   -1    0    0    0    0  0.00000000000E+00  0.00000000000E+00  0.99999944177E+02  0.99999999997E+02  0.10566000000E+00 0.  1.
         22   -1    0    0    0    0 -0.00000000000E+00 -0.00000000000E+00 -0.19164677765E+02  0.19164677765E+02  0.00000000000E+00 0. -1.
         13    1    1    2    0    0  0.77209663575E+01  0.11577078572E+02 -0.81669074591E+01  0.16135414814E+02  0.10566000000E+00 0. -1.
        996    1    1    2    0    0 -0.77209663575E+01 -0.11577078572E+02  0.89002173872E+02  0.10302926295E+03  0.50000000000E+02 0.  0.
<mgrwt>
<rscale>  0 0.51900309E+02</rscale>
<asrwt>0</asrwt>
<pdfrwt beam="1">  1       13 0.10000000E+01 0.51900309E+02</pdfrwt>
<pdfrwt beam="2">  1       22 0.19164700E+00 0.51900309E+02</pdfrwt>
<totfact> 0.49022251E-01</totfact>
</mgrwt>
</event>
<event>
 4    1  0.2503484E+000  0.5828672E+02  0.7957747E-01  0.1405166E+00
         13   -1    0    0    0    0  0.00000000000E+00  0.00000000000E+00  0.99999944185E+02  0.10000000001E+03  0.10566000000E+00 0. -1.
         22   -1    0    0    0    0 -0.00000000000E+00 -0.00000000000E+00 -0.32734618461E+02  0.32734618461E+02  0.00000000000E+00 0.  1.
         13    1    1    2    0    0 -0.14964648462E+02 -0.25949962008E+02 -0.13725484290E+02  0.32950588990E+02  0.10566000000E+00 0.  1.
        996    1    1    2    0    0  0.14964648462E+02  0.25949962008E+02  0.80990810014E+02  0.99784029476E+02  0.50000000000E+02 0.  0.
<mgrwt>
<rscale>  0 0.58286716E+02</rscale>
<asrwt>0</asrwt>
<pdfrwt beam="1">  1       13 0.10000000E+01 0.58286716E+02</pdfrwt>
<pdfrwt beam="2">  1       22 0.32734637E+00 0.58286716E+02</pdfrwt>
<totfact> 0.17791421E-01</totfact>
</mgrwt>
</event>
<event>
 4    1  0.2503484E+000  0.8543438E+02  0.7957747E-01  0.1314300E+00
         13   -1    0    0    0    0  0.00000000000E+00  0.00000000000E+00  0.99999944187E+02  0.10000000001E+03  0.10566000000E+00 0.  1.
         22   -1    0    0    0    0 -0.00000000000E+00 -0.00000000000E+00 -0.66002298763E+02  0.66002298763E+02  0.00000000000E+00 0. -1.
         13    1    1    2    0    0  0.90407791340E+01 -0.68682586541E+02 -0.98516363407E+01  0.69972132195E+02  0.10566000000E+00 0. -1.
        996    1    1    2    0    0 -0.90407791340E+01  0.68682586541E+02  0.43849281764E+02  0.96030166576E+02  0.50000000000E+02 0.  0.
<mgrwt>
<rscale>  0 0.85434381E+02</rscale>
<asrwt>0</asrwt>
<pdfrwt beam="1">  1       13 0.10000000E+01 0.85434381E+02</pdfrwt>
<pdfrwt beam="2">  1       22 0.66002308E+00 0.85434381E+02</pdfrwt>
<totfact> 0.87276591E-02</totfact>
</mgrwt>
</event>
<event>
 4    1  0.2503484E+000  0.5211226E+02  0.7957747E-01  0.1434271E+00
         13   -1    0    0    0    0  0.00000000000E+00  0.00000000000E+00  0.99999944181E+02  0.10000000000E+03  0.10566000000E+00 0.  1.
         22   -1    0    0    0    0 -0.00000000000E+00 -0.00000000000E+00 -0.11155490950E+02  0.11155490950E+02  0.00000000000E+00 0.  1.
         13    1    1    2    0    0  0.30792836069E+01  0.14359851299E+02  0.19307048999E+02  0.24258207311E+02  0.10566000000E+00 0. -1.
        996    1    1    2    0    0 -0.30792836069E+01 -0.14359851299E+02  0.69537404231E+02  0.86897283641E+02  0.50000000000E+02 0.  0.
<mgrwt>
<rscale>  0 0.52112257E+02</rscale>
<asrwt>0</asrwt>
<pdfrwt beam="1">  1       13 0.10000000E+01 0.52112257E+02</pdfrwt>
<pdfrwt beam="2">  1       22 0.11155516E+00 0.52112257E+02</pdfrwt>
<totfact> 0.12006462E+00</totfact>
</mgrwt>
</event>
<event>
 4    1  0.2503484E+000  0.5374749E+02  0.7957747E-01  0.1426117E+00
         13   -1    0    0    0    0  0.00000000000E+00  0.00000000000E+00  0.99999944174E+02  0.99999999994E+02  0.10566000000E+00 0. -1.
         22   -1    0    0    0    0 -0.00000000000E+00 -0.00000000000E+00 -0.16515834106E+02  0.16515834106E+02  0.00000000000E+00 0. -1.
         13    1    1    2    0    0 -0.15726538480E+02 -0.11894067100E+02  0.48580156553E+02  0.52429339301E+02  0.10566000000E+00 0.  1.
        996    1    1    2    0    0  0.15726538480E+02  0.11894067100E+02  0.34903953515E+02  0.64086494800E+02  0.50000000000E+02 0.  0.
<mgrwt>
<rscale>  0 0.53747492E+02</rscale>
<asrwt>0</asrwt>
<pdfrwt beam="1">  1       13 0.10000000E+01 0.53747492E+02</pdfrwt>
<pdfrwt beam="2">  1       22 0.16515857E+00 0.53747492E+02</pdfrwt>
<totfact> 0.64152619E-01</totfact>
</mgrwt>
</event>
<event>
 4    1  0.2503484E+000  0.5684208E+02  0.7957747E-01  0.1411583E+00
         13   -1    0    0    0    0  0.00000000000E+00  0.00000000000E+00  0.99999944187E+02  0.10000000001E+03  0.10566000000E+00 0. -1.
         22   -1    0    0    0    0 -0.00000000000E+00 -0.00000000000E+00 -0.38870199484E+02  0.38870199484E+02  0.00000000000E+00 0.  1.
         13    1    1    2    0    0 -0.14469861985E+02 -0.22839544561E+02 -0.24236848850E+02  0.36310572949E+02  0.10566000000E+00 0.  1.
        996    1    1    2    0    0  0.14469861985E+02  0.22839544561E+02  0.85366593553E+02  0.10255962654E+03  0.50000000000E+02 0.  0.
<mgrwt>
<rscale>  0 0.56842077E+02</rscale>
<asrwt>0</asrwt>
<pdfrwt beam="1">  1       13 0.10000000E+01 0.56842077E+02</pdfrwt>
<pdfrwt beam="2">  1       22 0.38870217E+00 0.56842077E+02</pdfrwt>
<totfact> 0.13097420E-01</totfact>
</mgrwt>
</event>
<event>
 4    1  0.2503484E+000  0.5214301E+02  0.7957747E-01  0.1434114E+00
         13   -1    0    0    0    0  0.00000000000E+00  0.00000000000E+00  0.99999944178E+02  0.99999999998E+02  0.10566000000E+00 0.  1.
         22   -1    0    0    0    0 -0.00000000000E+00 -0.00000000000E+00 -0.12135754352E+02  0.12135754352E+02  0.00000000000E+00 0. -1.
         13    1    1    2    0    0 -0.31339472027E+01  0.14459316203E+02  0.81767423020E+01  0.16904547579E+02  0.10566000000E+00 0. -1.
        996    1    1    2    0    0  0.31339472027E+01 -0.14459316203E+02  0.79687447524E+02  0.95231206771E+02  0.50000000000E+02 0.  0.
<mgrwt>
<rscale>  0 0.52143010E+02</rscale>
<asrwt>0</asrwt>
<pdfrwt beam="1">  1       13 0.10000000E+01 0.52143010E+02</pdfrwt>
<pdfrwt beam="2">  1       22 0.12135779E+00 0.52143010E+02</pdfrwt>
<totfact> 0.10568756E+00</totfact>
</mgrwt>
</event>
<event>
 4    1  0.2503484E+000  0.5117375E+02  0.7957747E-01  0.1439112E+00
         13   -1    0    0    0    0  0.00000000000E+00  0.00000000000E+00  0.99999944178E+02  0.99999999999E+02  0.10566000000E+00 0. -1.
         22   -1    0    0    0    0 -0.00000000000E+00 -0.00000000000E+00 -0.13565565038E+02  0.13565565038E+02  0.00000000000E+00 0. -1.
         13    1    1    2    0    0 -0.10183340628E+02 -0.38796963301E+01 -0.22948868738E+01  0.11136881958E+02  0.10566000000E+00 0.  1.
        996    1    1    2    0    0  0.10183340628E+02  0.38796963301E+01  0.88729266014E+02  0.10242868308E+03  0.50000000000E+02 0.  0.
<mgrwt>
<rscale>  0 0.51173748E+02</rscale>
<asrwt>0</asrwt>
<pdfrwt beam="1">  1       13 0.10000000E+01 0.51173748E+02</pdfrwt>
<pdfrwt beam="2">  1       22 0.13565589E+00 0.51173748E+02</pdfrwt>
<totfact> 0.88562490E-01</totfact>
</mgrwt>
</event>
<event>
 4    1  0.2503484E+000  0.6791589E+02  0.7957747E-01  0.1367327E+00
         13   -1    0    0    0    0  0.00000000000E+00  0.00000000000E+00  0.99999944171E+02  0.99999999991E+02  0.10566000000E+00 0. -1.
         22   -1    0    0    0    0 -0.00000000000E+00 -0.00000000000E+00 -0.56683044996E+02  0.56683044996E+02  0.00000000000E+00 0.  1.
         13    1    1    2    0    0  0.22565135773E+02  0.40042270084E+02 -0.31436271842E+02  0.55684998853E+02  0.10566000000E+00 0.  1.
        996    1    1    2    0    0 -0.22565135773E+02 -0.40042270084E+02  0.74753171017E+02  0.10099804613E+03  0.50000000000E+02 0.  0.
<mgrwt>
<rscale>  0 0.67915895E+02</rscale>
<asrwt>0</asrwt>
<pdfrwt beam="1">  1       13 0.10000000E+01 0.67915895E+02</pdfrwt>
<pdfrwt beam="2">  1       22 0.56683057E+00 0.67915895E+02</pdfrwt>
<totfact> 0.58142120E-02</totfact>
</mgrwt>
</event>
<event>
 4    1  0.2503484E+000  0.5926783E+02  0.7957747E-01  0.1400930E+00
         13   -1    0    0    0    0  0.00000000000E+00  0.00000000000E+00  0.99999944179E+02  0.10000000000E+03  0.10566000000E+00 0.  1.
         22   -1    0    0    0    0 -0.00000000000E+00 -0.00000000000E+00 -0.25455902980E+02  0.25455902980E+02  0.00000000000E+00 0. -1.
         13    1    1    2    0    0  0.26261140250E+02  0.17972992514E+02  0.21498872892E+01  0.31895283766E+02  0.10566000000E+00 0. -1.
        996    1    1    2    0    0 -0.26261140250E+02 -0.17972992514E+02  0.72394153910E+02  0.93560619213E+02  0.50000000000E+02 0.  0.
<mgrwt>
<rscale>  0 0.59267832E+02</rscale>
<asrwt>0</asrwt>
<pdfrwt beam="1">  1       13 0.10000000E+01 0.59267832E+02</pdfrwt>
<pdfrwt beam="2">  1       22 0.25455924E+00 0.59267832E+02</pdfrwt>
<totfact> 0.28749266E-01</totfact>
</mgrwt>
</event>
<event>
 4    1  0.2503484E+000  0.5453720E+02  0.7957747E-01  0.1422300E+00
         13   -1    0    0    0    0  0.00000000000E+00  0.00000000000E+00  0.99999944185E+02  0.10000000000E+03  0.10566000000E+00 0.  1.
         22   -1    0    0    0    0 -0.00000000000E+00 -0.00000000000E+00 -0.17890080569E+02  0.17890080569E+02  0.00000000000E+00 0.  1.
         13    1    1    2    0    0  0.12969565198E+02 -0.17495607011E+02  0.50158188804E+02  0.54682364198E+02  0.10566000000E+00 0. -1.
        996    1    1    2    0    0 -0.12969565198E+02  0.17495607011E+02  0.31951674812E+02  0.63207716376E+02  0.50000000000E+02 0.  0.
<mgrwt>
<rscale>  0 0.54537197E+02</rscale>
<asrwt>0</asrwt>
<pdfrwt beam="1">  1       13 0.10000000E+01 0.54537197E+02</pdfrwt>
<pdfrwt beam="2">  1       22 0.17890103E+00 0.54537197E+02</pdfrwt>
<totfact> 0.55807057E-01</totfact>
</mgrwt>
</event>
<event>
 4    1  0.2503484E+000  0.5155846E+02  0.7957747E-01  0.1437112E+00
         13   -1    0    0    0    0  0.00000000000E+00  0.00000000000E+00  0.99999944190E+02  0.10000000001E+03  0.10566000000E+00 0.  1.
         22   -1    0    0    0    0 -0.00000000000E+00 -0.00000000000E+00 -0.43966828723E+02  0.43966828723E+02  0.00000000000E+00 0. -1.
         13    1    1    2    0    0 -0.52963402803E+01 -0.11411563210E+02 -0.36187481532E+02  0.38312138794E+02  0.10566000000E+00 0. -1.
        996    1    1    2    0    0  0.52963402803E+01  0.11411563210E+02  0.92220596999E+02  0.10565468994E+03  0.50000000000E+02 0.  0.
<mgrwt>
<rscale>  0 0.51558462E+02</rscale>
<asrwt>0</asrwt>
<pdfrwt beam="1">  1       13 0.10000000E+01 0.51558462E+02</pdfrwt>
<pdfrwt beam="2">  1       22 0.43966844E+00 0.51558462E+02</pdfrwt>
<totfact> 0.10185830E-01</totfact>
</mgrwt>
</event>
<event>
 4    1  0.2503484E+000  0.5116321E+02  0.7957747E-01  0.1439167E+00
         13   -1    0    0    0    0  0.00000000000E+00  0.00000000000E+00  0.99999944182E+02  0.10000000000E+03  0.10566000000E+00 0.  1.
         22   -1    0    0    0    0 -0.00000000000E+00 -0.00000000000E+00 -0.12334759691E+02  0.12334759691E+02  0.00000000000E+00 0.  1.
         13    1    1    2    0    0 -0.84943561275E+01  0.67468832855E+01  0.19175598338E-01  0.10848320231E+02  0.10566000000E+00 0. -1.
        996    1    1    2    0    0  0.84943561275E+01 -0.67468832855E+01  0.87646008893E+02  0.10148643946E+03  0.50000000000E+02 0.  0.
<mgrwt>
<rscale>  0 0.51163215E+02</rscale>
<asrwt>0</asrwt>
<pdfrwt beam="1">  1       13 0.10000000E+01 0.51163215E+02</pdfrwt>
<pdfrwt beam="2">  1       22 0.12334784E+00 0.51163215E+02</pdfrwt>
<totfact> 0.10284489E+00</totfact>
</mgrwt>
</event>
<event>
 4    1  0.2503484E+000  0.5197268E+02  0.7957747E-01  0.1434983E+00
         13   -1    0    0    0    0  0.00000000000E+00  0.00000000000E+00  0.99999944185E+02  0.10000000001E+03  0.10566000000E+00 0. -1.
         22   -1    0    0    0    0 -0.00000000000E+00 -0.00000000000E+00 -0.10942239768E+02  0.10942239768E+02  0.00000000000E+00 0. -1.
         13    1    1    2    0    0 -0.37936831425E+01 -0.13666294638E+02  0.19452280001E+02  0.24074094006E+02  0.10566000000E+00 0.  1.
        996    1    1    2    0    0  0.37936831425E+01  0.13666294638E+02  0.69605424416E+02  0.86868145768E+02  0.50000000000E+02 0.  0.
<mgrwt>
<rscale>  0 0.51972682E+02</rscale>
<asrwt>0</asrwt>
<pdfrwt beam="1">  1       13 0.10000000E+01 0.51972682E+02</pdfrwt>
<pdfrwt beam="2">  1       22 0.10942265E+00 0.51972682E+02</pdfrwt>
<totfact> 0.12352786E+00</totfact>
</mgrwt>
</event>
<event>
 4    1  0.2503484E+000  0.5136264E+02  0.7957747E-01  0.1438127E+00
         13   -1    0    0    0    0  0.00000000000E+00  0.00000000000E+00  0.99999944176E+02  0.99999999996E+02  0.10566000000E+00 0. -1.
         22   -1    0    0    0    0 -0.00000000000E+00 -0.00000000000E+00 -0.10412418457E+02  0.10412418457E+02  0.00000000000E+00 0. -1.
         13    1    1    2    0    0 -0.18452170686E+01 -0.11606731776E+02  0.88107898819E+01  0.14688847161E+02  0.10566000000E+00 0.  1.
        996    1    1    2    0    0  0.18452170686E+01  0.11606731776E+02  0.80776735837E+02  0.95723571293E+02  0.50000000000E+02 0.  0.
<mgrwt>
<rscale>  0 0.51362643E+02</rscale>
<asrwt>0</asrwt>
<pdfrwt beam="1">  1       13 0.10000000E+01 0.51362643E+02</pdfrwt>
<pdfrwt beam="2">  1       22 0.10412443E+00 0.51362643E+02</pdfrwt>
<totfact> 0.13271769E+00</totfact>
</mgrwt>
</event>
<event>
 4    1  0.2503484E+000  0.5572534E+02  0.7957747E-01  0.1416700E+00
         13   -1    0    0    0    0  0.00000000000E+00  0.00000000000E+00  0.99999944181E+02  0.10000000000E+03  0.10566000000E+00 0. -1.
         22   -1    0    0    0    0 -0.00000000000E+00 -0.00000000000E+00 -0.16207866650E+02  0.16207866650E+02  0.00000000000E+00 0. -1.
         13    1    1    2    0    0 -0.22343850434E+02 -0.10298832801E+02  0.29413404059E+02  0.38346748385E+02  0.10566000000E+00 0.  1.
        996    1    1    2    0    0  0.22343850434E+02  0.10298832801E+02  0.54378673471E+02  0.77861118267E+02  0.50000000000E+02 0.  0.
<mgrwt>
<rscale>  0 0.55725341E+02</rscale>
<asrwt>0</asrwt>
<pdfrwt beam="1">  1       13 0.10000000E+01 0.55725341E+02</pdfrwt>
<pdfrwt beam="2">  1       22 0.16207890E+00 0.55725341E+02</pdfrwt>
<totfact> 0.66517444E-01</totfact>
</mgrwt>
</event>
<event>
 4    1  0.2503484E+000  0.5134110E+02  0.7957747E-01  0.1438239E+00
         13   -1    0    0    0    0  0.00000000000E+00  0.00000000000E+00  0.99999944178E+02  0.99999999999E+02  0.10566000000E+00 0. -1.
         22   -1    0    0    0    0 -0.00000000000E+00 -0.00000000000E+00 -0.48529804071E+02  0.48529804071E+02  0.00000000000E+00 0.  1.
         13    1    1    2    0    0 -0.33079595579E+01 -0.11178830441E+02 -0.41074914947E+02  0.42697407982E+02  0.10566000000E+00 0.  1.
        996    1    1    2    0    0  0.33079595579E+01  0.11178830441E+02  0.92545055055E+02  0.10583239609E+03  0.50000000000E+02 0.  0.
<mgrwt>
<rscale>  0 0.51341103E+02</rscale>
<asrwt>0</asrwt>
<pdfrwt beam="1">  1       13 0.10000000E+01 0.51341103E+02</pdfrwt>
<pdfrwt beam="2">  1       22 0.48529818E+00 0.51341103E+02</pdfrwt>
<totfact> 0.79859581E-02</totfact>
</mgrwt>
</event>
<event>
 4    1  0.2503484E+000  0.6200492E+02  0.7957747E-01  0.1389606E+00
         13   -1    0    0    0    0  0.00000000000E+00  0.00000000000E+00  0.99999944183E+02  0.10000000000E+03  0.10566000000E+00 0.  1.
         22   -1    0    0    0    0 -0.00000000000E+00 -0.00000000000E+00 -0.34969303226E+02  0.34969303226E+02  0.00000000000E+00 0. -1.
         13    1    1    2    0    0  0.15654429713E+02  0.33159452918E+02 -0.96360356481E+01  0.37914045346E+02  0.10566000000E+00 0. -1.
        996    1    1    2    0    0 -0.15654429713E+02 -0.33159452918E+02  0.74666676605E+02  0.97055257883E+02  0.50000000000E+02 0.  0.
<mgrwt>
<rscale>  0 0.62004923E+02</rscale>
<asrwt>0</asrwt>
<pdfrwt beam="1">  1       13 0.10000000E+01 0.62004923E+02</pdfrwt>
<pdfrwt beam="2">  1       22 0.34969321E+00 0.62004923E+02</pdfrwt>
<totfact> 0.15888203E-01</totfact>
</mgrwt>
</event>
<event>
 4    1  0.2503484E+000  0.5252210E+02  0.7957747E-01  0.1432194E+00
         13   -1    0    0    0    0  0.00000000000E+00  0.00000000000E+00  0.99999944181E+02  0.10000000000E+03  0.10566000000E+00 0.  1.
         22   -1    0    0    0    0 -0.00000000000E+00 -0.00000000000E+00 -0.22353203598E+02  0.22353203598E+02  0.00000000000E+00 0. -1.
         13    1    1    2    0    0 -0.16055265614E+02  0.89387295418E+00 -0.10882208010E+02  0.19416595428E+02  0.10566000000E+00 0. -1.
        996    1    1    2    0    0  0.16055265614E+02 -0.89387295418E+00  0.88528948593E+02  0.10293660817E+03  0.50000000000E+02 0.  0.
<mgrwt>
<rscale>  0 0.52522096E+02</rscale>
<asrwt>0</asrwt>
<pdfrwt beam="1">  1       13 0.10000000E+01 0.52522096E+02</pdfrwt>
<pdfrwt beam="2">  1       22 0.22353225E+00 0.52522096E+02</pdfrwt>
<totfact> 0.36710294E-01</totfact>
</mgrwt>
</event>
<event>
 4    1  0.2503484E+000  0.6631587E+02  0.7957747E-01  0.1373089E+00
         13   -1    0    0    0    0  0.00000000000E+00  0.00000000000E+00  0.99999944181E+02  0.10000000000E+03  0.10566000000E+00 0.  1.
         22   -1    0    0    0    0 -0.00000000000E+00 -0.00000000000E+00 -0.52190863655E+02  0.52190863655E+02  0.00000000000E+00 0. -1.
         13    1    1    2    0    0  0.36104638495E+02 -0.24377233836E+02 -0.27754679450E+02  0.51653923818E+02  0.10566000000E+00 0. -1.
        996    1    1    2    0    0 -0.36104638495E+02  0.24377233836E+02  0.75563759975E+02  0.10053693984E+03  0.50000000000E+02 0.  0.
<mgrwt>
<rscale>  0 0.66315869E+02</rscale>
<asrwt>0</asrwt>
<pdfrwt beam="1">  1       13 0.10000000E+01 0.66315869E+02</pdfrwt>
<pdfrwt beam="2">  1       22 0.52190877E+00 0.66315869E+02</pdfrwt>
<totfact> 0.66004483E-02</totfact>
</mgrwt>
</event>
<event>
 4    1  0.2503484E+000  0.5170455E+02  0.7957747E-01  0.1436359E+00
         13   -1    0    0    0    0  0.00000000000E+00  0.00000000000E+00  0.99999944173E+02  0.99999999994E+02  0.10566000000E+00 0. -1.
         22   -1    0    0    0    0 -0.00000000000E+00 -0.00000000000E+00 -0.17933068333E+02  0.17933068333E+02  0.00000000000E+00 0. -1.
         13    1    1    2    0    0  0.13102476393E+02 -0.12982934384E+01 -0.70256169110E+01  0.14924172021E+02  0.10566000000E+00 0.  1.
        996    1    1    2    0    0 -0.13102476393E+02  0.12982934384E+01  0.89092492751E+02  0.10300889631E+03  0.50000000000E+02 0.  0.
<mgrwt>
<rscale>  0 0.51704550E+02</rscale>
<asrwt>0</asrwt>
<pdfrwt beam="1">  1       13 0.10000000E+01 0.51704550E+02</pdfrwt>
<pdfrwt beam="2">  1       22 0.17933091E+00 0.51704550E+02</pdfrwt>
<totfact> 0.55277288E-01</totfact>
</mgrwt>
</event>
<event>
 4    1  0.2503484E+000  0.5262722E+02  0.7957747E-01  0.1431665E+00
         13   -1    0    0    0    0  0.00000000000E+00  0.00000000000E+00  0.99999944180E+02  0.10000000000E+03  0.10566000000E+00 0.  1.
         22   -1    0    0    0    0 -0.00000000000E+00 -0.00000000000E+00 -0.11970345909E+02  0.11970345909E+02  0.00000000000E+00 0.  1.
         13    1    1    2    0    0 -0.13256508117E+02 -0.96896595146E+01  0.24159212534E+02  0.29211354355E+02  0.10566000000E+00 0. -1.
        996    1    1    2    0    0  0.13256508117E+02  0.96896595146E+01  0.63870385737E+02  0.82758991555E+02  0.50000000000E+02 0.  0.
<mgrwt>
<rscale>  0 0.52627222E+02</rscale>
<asrwt>0</asrwt>
<pdfrwt beam="1">  1       13 0.10000000E+01 0.52627222E+02</pdfrwt>
<pdfrwt beam="2">  1       22 0.11970370E+00 0.52627222E+02</pdfrwt>
<totfact> 0.10805252E+00</totfact>
</mgrwt>
</event>
<event>
 4    1  0.2503484E+000  0.5473991E+02  0.7957747E-01  0.1421333E+00
         13   -1    0    0    0    0  0.00000000000E+00  0.00000000000E+00  0.99999944176E+02  0.99999999996E+02  0.10566000000E+00 0.  1.
         22   -1    0    0    0    0 -0.00000000000E+00 -0.00000000000E+00 -0.50495212052E+02  0.50495212052E+02  0.00000000000E+00 0. -1.
         13    1    1    2    0    0  0.64419615869E+01 -0.21329773007E+02 -0.39878984445E+02  0.45681535111E+02  0.10566000000E+00 0. -1.
        996    1    1    2    0    0 -0.64419615869E+01  0.21329773007E+02  0.89383716569E+02  0.10481367694E+03  0.50000000000E+02 0.  0.
<mgrwt>
<rscale>  0 0.54739913E+02</rscale>
<asrwt>0</asrwt>
<pdfrwt beam="1">  1       13 0.10000000E+01 0.54739913E+02</pdfrwt>
<pdfrwt beam="2">  1       22 0.50495226E+00 0.54739913E+02</pdfrwt>
<totfact> 0.71735993E-02</totfact>
</mgrwt>
</event>
<event>
 4    1  0.2503484E+000  0.6454811E+02  0.7957747E-01  0.1379679E+00
         13   -1    0    0    0    0  0.00000000000E+00  0.00000000000E+00  0.99999944178E+02  0.99999999998E+02  0.10566000000E+00 0.  1.
         22   -1    0    0    0    0 -0.00000000000E+00 -0.00000000000E+00 -0.28407658714E+02  0.28407658714E+02  0.00000000000E+00 0. -1.
         13    1    1    2    0    0 -0.39846586172E+02  0.88717819480E+01  0.37391044161E+02  0.55358470824E+02  0.10566000000E+00 0. -1.
        996    1    1    2    0    0  0.39846586172E+02 -0.88717819480E+01  0.34201241303E+02  0.73049187888E+02  0.50000000000E+02 0.  0.
<mgrwt>
<rscale>  0 0.64548113E+02</rscale>
<asrwt>0</asrwt>
<pdfrwt beam="1">  1       13 0.10000000E+01 0.64548113E+02</pdfrwt>
<pdfrwt beam="2">  1       22 0.28407679E+00 0.64548113E+02</pdfrwt>
<totfact> 0.23323595E-01</totfact>
</mgrwt>
</event>
<event>
 4    1  0.2503484E+000  0.5948205E+02  0.7957747E-01  0.1400018E+00
         13   -1    0    0    0    0  0.00000000000E+00  0.00000000000E+00  0.99999944181E+02  0.10000000000E+03  0.10566000000E+00 0. -1.
         22   -1    0    0    0    0 -0.00000000000E+00 -0.00000000000E+00 -0.25999910928E+02  0.25999910928E+02  0.00000000000E+00 0. -1.
         13    1    1    2    0    0  0.32141262051E+02 -0.22481324413E+01  0.15458115695E+01  0.32257022850E+02  0.10566000000E+00 0.  1.
        996    1    1    2    0    0 -0.32141262051E+02  0.22481324413E+01  0.72454221684E+02  0.93742888079E+02  0.50000000000E+02 0.  0.
<mgrwt>
<rscale>  0 0.59482055E+02</rscale>
<asrwt>0</asrwt>
<pdfrwt beam="1">  1       13 0.10000000E+01 0.59482055E+02</pdfrwt>
<pdfrwt beam="2">  1       22 0.25999932E+00 0.59482055E+02</pdfrwt>
<totfact> 0.27580719E-01</totfact>
</mgrwt>
</event>
<event>
 4    1  0.2503484E+000  0.5654588E+02  0.7957747E-01  0.1412927E+00
         13   -1    0    0    0    0  0.00000000000E+00  0.00000000000E+00  0.99999944175E+02  0.99999999995E+02  0.10566000000E+00 0. -1.
         22   -1    0    0    0    0 -0.00000000000E+00 -0.00000000000E+00 -0.20363637588E+02  0.20363637588E+02  0.00000000000E+00 0.  1.
         13    1    1    2    0    0 -0.10311337039E+02 -0.24312804811E+02  0.52514939129E+01  0.26926297585E+02  0.10566000000E+00 0.  1.
        996    1    1    2    0    0  0.10311337039E+02  0.24312804811E+02  0.74384812674E+02  0.93437339998E+02  0.50000000000E+02 0.  0.
<mgrwt>
<rscale>  0 0.56545877E+02</rscale>
<asrwt>0</asrwt>
<pdfrwt beam="1">  1       13 0.10000000E+01 0.56545877E+02</pdfrwt>
<pdfrwt beam="2">  1       22 0.20363660E+00 0.56545877E+02</pdfrwt>
<totfact> 0.44145489E-01</totfact>
</mgrwt>
</event>
<event>
 4    1  0.2503484E+000  0.5118717E+02  0.7957747E-01  0.1439041E+00
         13   -1    0    0    0    0  0.00000000000E+00  0.00000000000E+00  0.99999944179E+02  0.99999999999E+02  0.10566000000E+00 0.  1.
         22   -1    0    0    0    0 -0.00000000000E+00 -0.00000000000E+00 -0.97939796190E+01  0.97939796190E+01  0.00000000000E+00 0.  1.
         13    1    1    2    0    0 -0.85548474967E+01 -0.68513413616E+01  0.11326588235E+02  0.15761632505E+02  0.10566000000E+00 0. -1.
        996    1    1    2    0    0  0.85548474967E+01  0.68513413616E+01  0.78879376325E+02  0.94032347113E+02  0.50000000000E+02 0.  0.
<mgrwt>
<rscale>  0 0.51187169E+02</rscale>
<asrwt>0</asrwt>
<pdfrwt beam="1">  1       13 0.10000000E+01 0.51187169E+02</pdfrwt>
<pdfrwt beam="2">  1       22 0.97940048E-01 0.51187169E+02</pdfrwt>
<totfact> 0.14499556E+00</totfact>
</mgrwt>
</event>
<event>
 4    1  0.2503484E+000  0.5251372E+02  0.7957747E-01  0.1432236E+00
         13   -1    0    0    0    0  0.00000000000E+00  0.00000000000E+00  0.99999944183E+02  0.10000000000E+03  0.10566000000E+00 0. -1.
         22   -1    0    0    0    0 -0.00000000000E+00 -0.00000000000E+00 -0.25629672445E+02  0.25629672445E+02  0.00000000000E+00 0.  1.
         13    1    1    2    0    0  0.74868809421E+01 -0.14199910565E+02 -0.15001535406E+02  0.21971528733E+02  0.10566000000E+00 0.  1.
        996    1    1    2    0    0 -0.74868809421E+01  0.14199910565E+02  0.89371807144E+02  0.10365814372E+03  0.50000000000E+02 0.  0.
<mgrwt>
<rscale>  0 0.52513721E+02</rscale>
<asrwt>0</asrwt>
<pdfrwt beam="1">  1       13 0.10000000E+01 0.52513721E+02</pdfrwt>
<pdfrwt beam="2">  1       22 0.25629693E+00 0.52513721E+02</pdfrwt>
<totfact> 0.28093167E-01</totfact>
</mgrwt>
</event>
<event>
 4    1  0.2503484E+000  0.5155712E+02  0.7957747E-01  0.1437119E+00
         13   -1    0    0    0    0  0.00000000000E+00  0.00000000000E+00  0.99999944185E+02  0.10000000001E+03  0.10566000000E+00 0.  1.
         22   -1    0    0    0    0 -0.00000000000E+00 -0.00000000000E+00 -0.27687452598E+02  0.27687452598E+02  0.00000000000E+00 0. -1.
         13    1    1    2    0    0 -0.41644450430E+01  0.11865681957E+02 -0.19023638239E+02  0.22804538730E+02  0.10566000000E+00 0. -1.
        996    1    1    2    0    0  0.41644450430E+01 -0.11865681957E+02  0.91336129827E+02  0.10488291387E+03  0.50000000000E+02 0.  0.
<mgrwt>
<rscale>  0 0.51557124E+02</rscale>
<asrwt>0</asrwt>
<pdfrwt beam="1">  1       13 0.10000000E+01 0.51557124E+02</pdfrwt>
<pdfrwt beam="2">  1       22 0.27687473E+00 0.51557124E+02</pdfrwt>
<totfact> 0.24114932E-01</totfact>
</mgrwt>
</event>
<event>
 4    1  0.2503484E+000  0.5113698E+02  0.7957747E-01  0.1439304E+00
         13   -1    0    0    0    0  0.00000000000E+00  0.00000000000E+00  0.99999944178E+02  0.99999999998E+02  0.10566000000E+00 0.  1.
         22   -1    0    0    0    0 -0.00000000000E+00 -0.00000000000E+00 -0.11465770502E+02  0.11465770502E+02  0.00000000000E+00 0.  1.
         13    1    1    2    0    0  0.28757036332E+01 -0.10330564983E+02  0.19374660599E+01  0.10897485170E+02  0.10566000000E+00 0. -1.
        996    1    1    2    0    0 -0.28757036332E+01  0.10330564983E+02  0.86596707617E+02  0.10056828533E+03  0.50000000000E+02 0.  0.
<mgrwt>
<rscale>  0 0.51136975E+02</rscale>
<asrwt>0</asrwt>
<pdfrwt beam="1">  1       13 0.10000000E+01 0.51136975E+02</pdfrwt>
<pdfrwt beam="2">  1       22 0.11465795E+00 0.51136975E+02</pdfrwt>
<totfact> 0.11496458E+00</totfact>
</mgrwt>
</event>
<event>
 4    1  0.2503484E+000  0.5101825E+02  0.7957747E-01  0.1439926E+00
         13   -1    0    0    0    0  0.00000000000E+00  0.00000000000E+00  0.99999944184E+02  0.10000000000E+03  0.10566000000E+00 0.  1.
         22   -1    0    0    0    0 -0.00000000000E+00 -0.00000000000E+00 -0.29428624525E+02  0.29428624525E+02  0.00000000000E+00 0.  1.
         13    1    1    2    0    0 -0.58883734730E+01  0.82576298814E+01 -0.21721767941E+02  0.23973063215E+02  0.10566000000E+00 0. -1.
        996    1    1    2    0    0  0.58883734730E+01 -0.82576298814E+01  0.92293087600E+02  0.10545556131E+03  0.50000000000E+02 0.  0.
<mgrwt>
<rscale>  0 0.51018246E+02</rscale>
<asrwt>0</asrwt>
<pdfrwt beam="1">  1       13 0.10000000E+01 0.51018246E+02</pdfrwt>
<pdfrwt beam="2">  1       22 0.29428644E+00 0.51018246E+02</pdfrwt>
<totfact> 0.21436868E-01</totfact>
</mgrwt>
</event>
<event>
 4    1  0.2503484E+000  0.5113924E+02  0.7957747E-01  0.1439292E+00
         13   -1    0    0    0    0  0.00000000000E+00  0.00000000000E+00  0.99999944182E+02  0.10000000000E+03  0.10566000000E+00 0. -1.
         22   -1    0    0    0    0 -0.00000000000E+00 -0.00000000000E+00 -0.18677132320E+02  0.18677132320E+02  0.00000000000E+00 0.  1.
         13    1    1    2    0    0  0.29675700130E+01  0.10315796018E+02 -0.95728740067E+01  0.14383087292E+02  0.10566000000E+00 0.  1.
        996    1    1    2    0    0 -0.29675700130E+01 -0.10315796018E+02  0.90895685869E+02  0.10429404503E+03  0.50000000000E+02 0.  0.
<mgrwt>
<rscale>  0 0.51139242E+02</rscale>
<asrwt>0</asrwt>
<pdfrwt beam="1">  1       13 0.10000000E+01 0.51139242E+02</pdfrwt>
<pdfrwt beam="2">  1       22 0.18677155E+00 0.51139242E+02</pdfrwt>
<totfact> 0.51313186E-01</totfact>
</mgrwt>
</event>
<event>
 4    1  0.2503484E+000  0.5185949E+02  0.7957747E-01  0.1435562E+00
         13   -1    0    0    0    0  0.00000000000E+00  0.00000000000E+00  0.99999944179E+02  0.99999999999E+02  0.10566000000E+00 0.  1.
         22   -1    0    0    0    0 -0.00000000000E+00 -0.00000000000E+00 -0.10927281575E+02  0.10927281575E+02  0.00000000000E+00 0.  1.
         13    1    1    2    0    0 -0.14749084685E+01  0.13683267142E+02  0.24574967244E+02  0.28166422097E+02  0.10566000000E+00 0. -1.
        996    1    1    2    0    0  0.14749084685E+01 -0.13683267142E+02  0.64497695360E+02  0.82760859477E+02  0.50000000000E+02 0.  0.
<mgrwt>
<rscale>  0 0.51859494E+02</rscale>
<asrwt>0</asrwt>
<pdfrwt beam="1">  1       13 0.10000000E+01 0.51859494E+02</pdfrwt>
<pdfrwt beam="2">  1       22 0.10927306E+00 0.51859494E+02</pdfrwt>
<totfact> 0.12374658E+00</totfact>
</mgrwt>
</event>
<event>
 4    1  0.2503484E+000  0.5142612E+02  0.7957747E-01  0.1437798E+00
         13   -1    0    0    0    0  0.00000000000E+00  0.00000000000E+00  0.99999944176E+02  0.99999999996E+02  0.10566000000E+00 0. -1.
         22   -1    0    0    0    0 -0.00000000000E+00 -0.00000000000E+00 -0.10253047240E+02  0.10253047240E+02  0.00000000000E+00 0. -1.
         13    1    1    2    0    0 -0.89334268687E+00 -0.11993652177E+02  0.11647278651E+02  0.16742640703E+02  0.10566000000E+00 0.  1.
        996    1    1    2    0    0  0.89334268687E+00  0.11993652177E+02  0.78099618286E+02  0.93510406533E+02  0.50000000000E+02 0.  0.
<mgrwt>
<rscale>  0 0.51426119E+02</rscale>
<asrwt>0</asrwt>
<pdfrwt beam="1">  1       13 0.10000000E+01 0.51426119E+02</pdfrwt>
<pdfrwt beam="2">  1       22 0.10253072E+00 0.51426119E+02</pdfrwt>
<totfact> 0.13576308E+00</totfact>
</mgrwt>
</event>
<event>
 4    1  0.2503484E+000  0.5713381E+02  0.7957747E-01  0.1410269E+00
         13   -1    0    0    0    0  0.00000000000E+00  0.00000000000E+00  0.99999944181E+02  0.10000000000E+03  0.10566000000E+00 0.  1.
         22   -1    0    0    0    0 -0.00000000000E+00 -0.00000000000E+00 -0.21320391950E+02  0.21320391950E+02  0.00000000000E+00 0. -1.
         13    1    1    2    0    0 -0.97146254438E+01  0.25882402944E+02  0.50159995034E+01  0.28097048684E+02  0.10566000000E+00 0. -1.
        996    1    1    2    0    0  0.97146254438E+01 -0.25882402944E+02  0.73663552727E+02  0.93223343268E+02  0.50000000000E+02 0.  0.
<mgrwt>
<rscale>  0 0.57133814E+02</rscale>
<asrwt>0</asrwt>
<pdfrwt beam="1">  1       13 0.10000000E+01 0.57133814E+02</pdfrwt>
<pdfrwt beam="2">  1       22 0.21320414E+00 0.57133814E+02</pdfrwt>
<totfact> 0.40503676E-01</totfact>
</mgrwt>
</event>
<event>
 4    1  0.2503484E+000  0.5122403E+02  0.7957747E-01  0.1438849E+00
         13   -1    0    0    0    0  0.00000000000E+00  0.00000000000E+00  0.99999944175E+02  0.99999999996E+02  0.10566000000E+00 0.  1.
         22   -1    0    0    0    0 -0.00000000000E+00 -0.00000000000E+00 -0.11516650576E+02  0.11516650576E+02  0.00000000000E+00 0. -1.
         13    1    1    2    0    0  0.79501897388E+01  0.77907419970E+01  0.24646516681E+01  0.11401177554E+02  0.10566000000E+00 0. -1.
        996    1    1    2    0    0 -0.79501897388E+01 -0.77907419970E+01  0.86018641931E+02  0.10011547302E+03  0.50000000000E+02 0.  0.
<mgrwt>
<rscale>  0 0.51224029E+02</rscale>
<asrwt>0</asrwt>
<pdfrwt beam="1">  1       13 0.10000000E+01 0.51224029E+02</pdfrwt>
<pdfrwt beam="2">  1       22 0.11516675E+00 0.51224029E+02</pdfrwt>
<totfact> 0.11422281E+00</totfact>
</mgrwt>
</event>
<event>
 4    1  0.2503484E+000  0.5694580E+02  0.7957747E-01  0.1411115E+00
         13   -1    0    0    0    0  0.00000000000E+00  0.00000000000E+00  0.99999944182E+02  0.10000000000E+03  0.10566000000E+00 0. -1.
         22   -1    0    0    0    0 -0.00000000000E+00 -0.00000000000E+00 -0.57644061125E+02  0.57644061125E+02  0.00000000000E+00 0.  1.
         13    1    1    2    0    0 -0.23717383441E+02 -0.13427949036E+02 -0.45446043581E+02  0.52992245978E+02  0.10566000000E+00 0.  1.
        996    1    1    2    0    0  0.23717383441E+02  0.13427949036E+02  0.87801926638E+02  0.10465181515E+03  0.50000000000E+02 0.  0.
<mgrwt>
<rscale>  0 0.56945800E+02</rscale>
<asrwt>0</asrwt>
<pdfrwt beam="1">  1       13 0.10000000E+01 0.56945800E+02</pdfrwt>
<pdfrwt beam="2">  1       22 0.57644073E+00 0.56945800E+02</pdfrwt>
<totfact> 0.57970295E-02</totfact>
</mgrwt>
</event>
<event>
 4    1  0.2503484E+000  0.5651339E+02  0.7957747E-01  0.1413075E+00
         13   -1    0    0    0    0  0.00000000000E+00  0.00000000000E+00  0.99999944179E+02  0.99999999999E+02  0.10566000000E+00 0. -1.
         22   -1    0    0    0    0 -0.00000000000E+00 -0.00000000000E+00 -0.28041719495E+02  0.28041719495E+02  0.00000000000E+00 0.  1.
         13    1    1    2    0    0 -0.24409716268E+02 -0.98959072244E+01 -0.10265609989E+02  0.28269367530E+02  0.10566000000E+00 0.  1.
        996    1    1    2    0    0  0.24409716268E+02  0.98959072244E+01  0.82223834673E+02  0.99772351964E+02  0.50000000000E+02 0.  0.
<mgrwt>
<rscale>  0 0.56513390E+02</rscale>
<asrwt>0</asrwt>
<pdfrwt beam="1">  1       13 0.10000000E+01 0.56513390E+02</pdfrwt>
<pdfrwt beam="2">  1       22 0.28041740E+00 0.56513390E+02</pdfrwt>
<totfact> 0.23687848E-01</totfact>
</mgrwt>
</event>
<event>
 4    1  0.2503484E+000  0.5402952E+02  0.7957747E-01  0.1424745E+00
         13   -1    0    0    0    0  0.00000000000E+00  0.00000000000E+00  0.99999944182E+02  0.10000000000E+03  0.10566000000E+00 0.  1.
         22   -1    0    0    0    0 -0.00000000000E+00 -0.00000000000E+00 -0.14856655495E+02  0.14856655495E+02  0.00000000000E+00 0.  1.
         13    1    1    2    0    0 -0.19407246209E+02  0.65228303665E+01  0.37938704116E+02  0.43110844986E+02  0.10566000000E+00 0. -1.
        996    1    1    2    0    0  0.19407246209E+02 -0.65228303665E+01  0.47204584571E+02  0.71745810511E+02  0.50000000000E+02 0.  0.
<mgrwt>
<rscale>  0 0.54029515E+02</rscale>
<asrwt>0</asrwt>
<pdfrwt beam="1">  1       13 0.10000000E+01 0.54029515E+02</pdfrwt>
<pdfrwt beam="2">  1       22 0.14856679E+00 0.54029515E+02</pdfrwt>
<totfact> 0.76816240E-01</totfact>
</mgrwt>
</event>
<event>
 4    1  0.2503484E+000  0.5944773E+02  0.7957747E-01  0.1400164E+00
         13   -1    0    0    0    0  0.00000000000E+00  0.00000000000E+00  0.99999944183E+02  0.10000000000E+03  0.10566000000E+00 0.  1.
         22   -1    0    0    0    0 -0.00000000000E+00 -0.00000000000E+00 -0.22160734742E+02  0.22160734742E+02  0.00000000000E+00 0.  1.
         13    1    1    2    0    0  0.31867046676E+02  0.43038954591E+01  0.14440043624E+02  0.35249939062E+02  0.10566000000E+00 0. -1.
        996    1    1    2    0    0 -0.31867046676E+02 -0.43038954591E+01  0.63399165817E+02  0.86910795683E+02  0.50000000000E+02 0.  0.
<mgrwt>
<rscale>  0 0.59447726E+02</rscale>
<asrwt>0</asrwt>
<pdfrwt beam="1">  1       13 0.10000000E+01 0.59447726E+02</pdfrwt>
<pdfrwt beam="2">  1       22 0.22160756E+00 0.59447726E+02</pdfrwt>
<totfact> 0.37736075E-01</totfact>
</mgrwt>
</event>
<event>
 4    1  0.2503484E+000  0.5153873E+02  0.7957747E-01  0.1437214E+00
         13   -1    0    0    0    0  0.00000000000E+00  0.00000000000E+00  0.99999944172E+02  0.99999999993E+02  0.10566000000E+00 0. -1.
         22   -1    0    0    0    0 -0.00000000000E+00 -0.00000000000E+00 -0.15890641320E+02  0.15890641320E+02  0.00000000000E+00 0.  1.
         13    1    1    2    0    0 -0.85958624018E+01  0.90747961926E+01 -0.45807987419E+01  0.13312988302E+02  0.10566000000E+00 0.  1.
        996    1    1    2    0    0  0.85958624018E+01 -0.90747961926E+01  0.88690101595E+02  0.10257765301E+03  0.50000000000E+02 0.  0.
<mgrwt>
<rscale>  0 0.51538731E+02</rscale>
<asrwt>0</asrwt>
<pdfrwt beam="1">  1       13 0.10000000E+01 0.51538731E+02</pdfrwt>
<pdfrwt beam="2">  1       22 0.15890665E+00 0.51538731E+02</pdfrwt>
<totfact> 0.68256892E-01</totfact>
</mgrwt>
</event>
<event>
 4    1  0.2503484E+000  0.7762682E+02  0.7957747E-01  0.1335924E+00
         13   -1    0    0    0    0  0.00000000000E+00  0.00000000000E+00  0.99999944172E+02  0.99999999992E+02  0.10566000000E+00 0. -1.
         22   -1    0    0    0    0 -0.00000000000E+00 -0.00000000000E+00 -0.47324261215E+02  0.47324261215E+02  0.00000000000E+00 0.  1.
         13    1    1    2    0    0 -0.46972681545E+02 -0.36324789752E+02  0.16168977930E+02  0.61541613347E+02  0.10566000000E+00 0.  1.
        996    1    1    2    0    0  0.46972681545E+02  0.36324789752E+02  0.36506705026E+02  0.85782647860E+02  0.50000000000E+02 0.  0.
<mgrwt>
<rscale>  0 0.77626820E+02</rscale>
<asrwt>0</asrwt>
<pdfrwt beam="1">  1       13 0.10000000E+01 0.77626820E+02</pdfrwt>
<pdfrwt beam="2">  1       22 0.47324276E+00 0.77626820E+02</pdfrwt>
<totfact> 0.86289557E-02</totfact>
</mgrwt>
</event>
<event>
 4    1  0.2503484E+000  0.5274668E+02  0.7957747E-01  0.1431066E+00
         13   -1    0    0    0    0  0.00000000000E+00  0.00000000000E+00  0.99999944180E+02  0.10000000000E+03  0.10566000000E+00 0. -1.
         22   -1    0    0    0    0 -0.00000000000E+00 -0.00000000000E+00 -0.12413348773E+02  0.12413348773E+02  0.00000000000E+00 0.  1.
         13    1    1    2    0    0 -0.32578518965E+01  0.16480249165E+02  0.13961629133E+02  0.21843774024E+02  0.10566000000E+00 0.  1.
        996    1    1    2    0    0  0.32578518965E+01 -0.16480249165E+02  0.73624966274E+02  0.90569574750E+02  0.50000000000E+02 0.  0.
<mgrwt>
<rscale>  0 0.52746680E+02</rscale>
<asrwt>0</asrwt>
<pdfrwt beam="1">  1       13 0.10000000E+01 0.52746680E+02</pdfrwt>
<pdfrwt beam="2">  1       22 0.12413373E+00 0.52746680E+02</pdfrwt>
<totfact> 0.10219572E+00</totfact>
</mgrwt>
</event>
<event>
 4    1  0.2503484E+000  0.5589808E+02  0.7957747E-01  0.1415899E+00
         13   -1    0    0    0    0  0.00000000000E+00  0.00000000000E+00  0.99999944181E+02  0.10000000000E+03  0.10566000000E+00 0.  1.
         22   -1    0    0    0    0 -0.00000000000E+00 -0.00000000000E+00 -0.37554635716E+02  0.37554635716E+02  0.00000000000E+00 0. -1.
         13    1    1    2    0    0  0.11425280987E+02  0.22227429712E+02 -0.23974709282E+02  0.34632261354E+02  0.10566000000E+00 0. -1.
        996    1    1    2    0    0 -0.11425280987E+02 -0.22227429712E+02  0.86420017747E+02  0.10292237436E+03  0.50000000000E+02 0.  0.
<mgrwt>
<rscale>  0 0.55898083E+02</rscale>
<asrwt>0</asrwt>
<pdfrwt beam="1">  1       13 0.10000000E+01 0.55898083E+02</pdfrwt>
<pdfrwt beam="2">  1       22 0.37554653E+00 0.55898083E+02</pdfrwt>
<totfact> 0.13932025E-01</totfact>
</mgrwt>
</event>
<event>
 4    1  0.2503484E+000  0.5459568E+02  0.7957747E-01  0.1422021E+00
         13   -1    0    0    0    0  0.00000000000E+00  0.00000000000E+00  0.99999944168E+02  0.99999999988E+02  0.10566000000E+00 0.  1.
         22   -1    0    0    0    0 -0.00000000000E+00 -0.00000000000E+00 -0.21603581262E+02  0.21603581262E+02  0.00000000000E+00 0.  1.
         13    1    1    2    0    0 -0.59638761571E+01  0.21097869824E+02 -0.44632537972E+01  0.22374533033E+02  0.10566000000E+00 0. -1.
        996    1    1    2    0    0  0.59638761571E+01 -0.21097869824E+02  0.82859616703E+02  0.99229048218E+02  0.50000000000E+02 0.  0.
<mgrwt>
<rscale>  0 0.54595677E+02</rscale>
<asrwt>0</asrwt>
<pdfrwt beam="1">  1       13 0.10000000E+01 0.54595677E+02</pdfrwt>
<pdfrwt beam="2">  1       22 0.21603603E+00 0.54595677E+02</pdfrwt>
<totfact> 0.39334164E-01</totfact>
</mgrwt>
</event>
<event>
 4    1  0.2503484E+000  0.5104732E+02  0.7957747E-01  0.1439773E+00
         13   -1    0    0    0    0  0.00000000000E+00  0.00000000000E+00  0.99999944181E+02  0.10000000000E+03  0.10566000000E+00 0.  1.
         22   -1    0    0    0    0 -0.00000000000E+00 -0.00000000000E+00 -0.16389822955E+02  0.16389822955E+02  0.00000000000E+00 0. -1.
         13    1    1    2    0    0  0.10257649551E+02  0.78046991274E+00 -0.69624877156E+01  0.12422395373E+02  0.10566000000E+00 0. -1.
        996    1    1    2    0    0 -0.10257649551E+02 -0.78046991274E+00  0.90572608942E+02  0.10396742758E+03  0.50000000000E+02 0.  0.
<mgrwt>
<rscale>  0 0.51047316E+02</rscale>
<asrwt>0</asrwt>
<pdfrwt beam="1">  1       13 0.10000000E+01 0.51047316E+02</pdfrwt>
<pdfrwt beam="2">  1       22 0.16389846E+00 0.51047316E+02</pdfrwt>
<totfact> 0.64666681E-01</totfact>
</mgrwt>
</event>
<event>
 4    1  0.2503484E+000  0.5273315E+02  0.7957747E-01  0.1431133E+00
         13   -1    0    0    0    0  0.00000000000E+00  0.00000000000E+00  0.99999944181E+02  0.10000000000E+03  0.10566000000E+00 0.  1.
         22   -1    0    0    0    0 -0.00000000000E+00 -0.00000000000E+00 -0.19972614302E+02  0.19972614302E+02  0.00000000000E+00 0. -1.
         13    1    1    2    0    0 -0.12680362113E+02 -0.10954162250E+02 -0.70443304187E+01  0.18177431309E+02  0.10566000000E+00 0. -1.
        996    1    1    2    0    0  0.12680362113E+02  0.10954162250E+02  0.87071660298E+02  0.10179518299E+03  0.50000000000E+02 0.  0.
<mgrwt>
<rscale>  0 0.52733151E+02</rscale>
<asrwt>0</asrwt>
<pdfrwt beam="1">  1       13 0.10000000E+01 0.52733151E+02</pdfrwt>
<pdfrwt beam="2">  1       22 0.19972637E+00 0.52733151E+02</pdfrwt>
<totfact> 0.45483256E-01</totfact>
</mgrwt>
</event>
<event>
 4    1  0.2503484E+000  0.5390844E+02  0.7957747E-01  0.1425333E+00
         13   -1    0    0    0    0  0.00000000000E+00  0.00000000000E+00  0.99999944181E+02  0.10000000000E+03  0.10566000000E+00 0.  1.
         22   -1    0    0    0    0 -0.00000000000E+00 -0.00000000000E+00 -0.13979037069E+02  0.13979037069E+02  0.00000000000E+00 0.  1.
         13    1    1    2    0    0  0.48385340424E+01 -0.19562949183E+02  0.30801076259E+02  0.36808122136E+02  0.10566000000E+00 0. -1.
        996    1    1    2    0    0 -0.48385340424E+01  0.19562949183E+02  0.55219830853E+02  0.77170914935E+02  0.50000000000E+02 0.  0.
<mgrwt>
<rscale>  0 0.53908445E+02</rscale>
<asrwt>0</asrwt>
<pdfrwt beam="1">  1       13 0.10000000E+01 0.53908445E+02</pdfrwt>
<pdfrwt beam="2">  1       22 0.13979061E+00 0.53908445E+02</pdfrwt>
<totfact> 0.84865974E-01</totfact>
</mgrwt>
</event>
<event>
 4    1  0.2503484E+000  0.5327967E+02  0.7957747E-01  0.1428414E+00
         13   -1    0    0    0    0  0.00000000000E+00  0.00000000000E+00  0.99999944176E+02  0.99999999996E+02  0.10566000000E+00 0.  1.
         22   -1    0    0    0    0 -0.00000000000E+00 -0.00000000000E+00 -0.15828382555E+02  0.15828382555E+02  0.00000000000E+00 0. -1.
         13    1    1    2    0    0  0.13323876567E+02  0.12696360506E+02  0.28744541185E+01  0.18627853000E+02  0.10566000000E+00 0. -1.
        996    1    1    2    0    0 -0.13323876567E+02 -0.12696360506E+02  0.81297107502E+02  0.97200529552E+02  0.50000000000E+02 0.  0.
<mgrwt>
<rscale>  0 0.53279670E+02</rscale>
<asrwt>0</asrwt>
<pdfrwt beam="1">  1       13 0.10000000E+01 0.53279670E+02</pdfrwt>
<pdfrwt beam="2">  1       22 0.15828406E+00 0.53279670E+02</pdfrwt>
<totfact> 0.68952233E-01</totfact>
</mgrwt>
</event>
<event>
 4    1  0.2503484E+000  0.5135728E+02  0.7957747E-01  0.1438155E+00
         13   -1    0    0    0    0  0.00000000000E+00  0.00000000000E+00  0.99999944176E+02  0.99999999996E+02  0.10566000000E+00 0.  1.
         22   -1    0    0    0    0 -0.00000000000E+00 -0.00000000000E+00 -0.24157431003E+02  0.24157431003E+02  0.00000000000E+00 0. -1.
         13    1    1    2    0    0 -0.11712983057E+02  0.61350107546E+00 -0.15457543640E+02  0.19404050481E+02  0.10566000000E+00 0. -1.
        996    1    1    2    0    0  0.11712983057E+02 -0.61350107546E+00  0.91300056814E+02  0.10475338052E+03  0.50000000000E+02 0.  0.
<mgrwt>
<rscale>  0 0.51357281E+02</rscale>
<asrwt>0</asrwt>
<pdfrwt beam="1">  1       13 0.10000000E+01 0.51357281E+02</pdfrwt>
<pdfrwt beam="2">  1       22 0.24157452E+00 0.51357281E+02</pdfrwt>
<totfact> 0.31500136E-01</totfact>
</mgrwt>
</event>
<event>
 4    1  0.2503484E+000  0.6070500E+02  0.7957747E-01  0.1394897E+00
         13   -1    0    0    0    0  0.00000000000E+00  0.00000000000E+00  0.99999944184E+02  0.10000000000E+03  0.10566000000E+00 0.  1.
         22   -1    0    0    0    0 -0.00000000000E+00 -0.00000000000E+00 -0.24351432640E+02  0.24351432640E+02  0.00000000000E+00 0. -1.
         13    1    1    2    0    0  0.10748544767E+02  0.32704213095E+02  0.44076369543E+02  0.55927044307E+02  0.10566000000E+00 0. -1.
        996    1    1    2    0    0 -0.10748544767E+02 -0.32704213095E+02  0.31572142002E+02  0.68424388337E+02  0.50000000000E+02 0.  0.
<mgrwt>
<rscale>  0 0.60704998E+02</rscale>
<asrwt>0</asrwt>
<pdfrwt beam="1">  1       13 0.10000000E+01 0.60704998E+02</pdfrwt>
<pdfrwt beam="2">  1       22 0.24351454E+00 0.60704998E+02</pdfrwt>
<totfact> 0.31441955E-01</totfact>
</mgrwt>
</event>
<event>
 4    1  0.2503484E+000  0.5161450E+02  0.7957747E-01  0.1436823E+00
         13   -1    0    0    0    0  0.00000000000E+00  0.00000000000E+00  0.99999944175E+02  0.99999999995E+02  0.10566000000E+00 0.  1.
         22   -1    0    0    0    0 -0.00000000000E+00 -0.00000000000E+00 -0.20815374409E+02  0.20815374409E+02  0.00000000000E+00 0. -1.
         13    1    1    2    0    0 -0.12486048272E+02 -0.28556687174E+01 -0.11014026601E+02  0.16893081166E+02  0.10566000000E+00 0. -1.
        996    1    1    2    0    0  0.12486048272E+02  0.28556687174E+01  0.90198596367E+02  0.10392229324E+03  0.50000000000E+02 0.  0.
<mgrwt>
<rscale>  0 0.51614496E+02</rscale>
<asrwt>0</asrwt>
<pdfrwt beam="1">  1       13 0.10000000E+01 0.51614496E+02</pdfrwt>
<pdfrwt beam="2">  1       22 0.20815397E+00 0.51614496E+02</pdfrwt>
<totfact> 0.42003125E-01</totfact>
</mgrwt>
</event>
<event>
 4    1  0.2503484E+000  0.5321895E+02  0.7957747E-01  0.1428714E+00
         13   -1    0    0    0    0  0.00000000000E+00  0.00000000000E+00  0.99999944178E+02  0.99999999998E+02  0.10566000000E+00 0. -1.
         22   -1    0    0    0    0 -0.00000000000E+00 -0.00000000000E+00 -0.32893822179E+02  0.32893822179E+02  0.00000000000E+00 0.  1.
         13    1    1    2    0    0 -0.17735405563E+02  0.42085591685E+01 -0.22327604896E+02  0.28823422510E+02  0.10566000000E+00 0.  1.
        996    1    1    2    0    0  0.17735405563E+02 -0.42085591685E+01  0.89433726894E+02  0.10407039967E+03  0.50000000000E+02 0.  0.
<mgrwt>
<rscale>  0 0.53218949E+02</rscale>
<asrwt>0</asrwt>
<pdfrwt beam="1">  1       13 0.10000000E+01 0.53218949E+02</pdfrwt>
<pdfrwt beam="2">  1       22 0.32893841E+00 0.53218949E+02</pdfrwt>
<totfact> 0.17542608E-01</totfact>
</mgrwt>
</event>
<event>
 4    1  0.2503484E+000  0.5687409E+02  0.7957747E-01  0.1411438E+00
         13   -1    0    0    0    0  0.00000000000E+00  0.00000000000E+00  0.99999944177E+02  0.99999999997E+02  0.10566000000E+00 0. -1.
         22   -1    0    0    0    0 -0.00000000000E+00 -0.00000000000E+00 -0.22010469764E+02  0.22010469764E+02  0.00000000000E+00 0. -1.
         13    1    1    2    0    0 -0.12192155012E+02 -0.24207719445E+02  0.21161366677E+01  0.27187341227E+02  0.10566000000E+00 0.  1.
        996    1    1    2    0    0  0.12192155012E+02  0.24207719445E+02  0.75873337745E+02  0.94823128534E+02  0.50000000000E+02 0.  0.
<mgrwt>
<rscale>  0 0.56874092E+02</rscale>
<asrwt>0</asrwt>
<pdfrwt beam="1">  1       13 0.10000000E+01 0.56874092E+02</pdfrwt>
<pdfrwt beam="2">  1       22 0.22010492E+00 0.56874092E+02</pdfrwt>
<totfact> 0.38086837E-01</totfact>
</mgrwt>
</event>
<event>
 4    1  0.2503484E+000  0.5147531E+02  0.7957747E-01  0.1437543E+00
         13   -1    0    0    0    0  0.00000000000E+00  0.00000000000E+00  0.99999944173E+02  0.99999999993E+02  0.10566000000E+00 0.  1.
         22   -1    0    0    0    0 -0.00000000000E+00 -0.00000000000E+00 -0.41529084103E+02  0.41529084103E+02  0.00000000000E+00 0. -1.
         13    1    1    2    0    0  0.11205744313E+02 -0.49131402914E+01 -0.33758335927E+02  0.35907437415E+02  0.10566000000E+00 0. -1.
        996    1    1    2    0    0 -0.11205744313E+02  0.49131402914E+01  0.92229195997E+02  0.10562164668E+03  0.50000000000E+02 0.  0.
<mgrwt>
<rscale>  0 0.51475311E+02</rscale>
<asrwt>0</asrwt>
<pdfrwt beam="1">  1       13 0.10000000E+01 0.51475311E+02</pdfrwt>
<pdfrwt beam="2">  1       22 0.41529100E+00 0.51475311E+02</pdfrwt>
<totfact> 0.11490863E-01</totfact>
</mgrwt>
</event>
<event>
 4    1  0.2503484E+000  0.5939218E+02  0.7957747E-01  0.1400400E+00
         13   -1    0    0    0    0  0.00000000000E+00  0.00000000000E+00  0.99999944175E+02  0.99999999996E+02  0.10566000000E+00 0. -1.
         22   -1    0    0    0    0 -0.00000000000E+00 -0.00000000000E+00 -0.26381893200E+02  0.26381893200E+02  0.00000000000E+00 0.  1.
         13    1    1    2    0    0  0.14696060811E+02  0.28486090429E+02  0.33754693084E+00  0.32055524536E+02  0.10566000000E+00 0.  1.
        996    1    1    2    0    0 -0.14696060811E+02 -0.28486090429E+02  0.73280504045E+02  0.94326368659E+02  0.50000000000E+02 0.  0.
<mgrwt>
<rscale>  0 0.59392184E+02</rscale>
<asrwt>0</asrwt>
<pdfrwt beam="1">  1       13 0.10000000E+01 0.59392184E+02</pdfrwt>
<pdfrwt beam="2">  1       22 0.26381914E+00 0.59392184E+02</pdfrwt>
<totfact> 0.26794851E-01</totfact>
</mgrwt>
</event>
<event>
 4    1  0.2503484E+000  0.7053612E+02  0.7957747E-01  0.1358279E+00
         13   -1    0    0    0    0  0.00000000000E+00  0.00000000000E+00  0.99999944180E+02  0.10000000000E+03  0.10566000000E+00 0. -1.
         22   -1    0    0    0    0 -0.00000000000E+00 -0.00000000000E+00 -0.50928687598E+02  0.50928687598E+02  0.00000000000E+00 0.  1.
         13    1    1    2    0    0  0.23238890262E+02  0.43992023064E+02 -0.18661608274E+02  0.53137659915E+02  0.10566000000E+00 0.  1.
        996    1    1    2    0    0 -0.23238890262E+02 -0.43992023064E+02  0.67732864856E+02  0.97791027684E+02  0.50000000000E+02 0.  0.
<mgrwt>
<rscale>  0 0.70536119E+02</rscale>
<asrwt>0</asrwt>
<pdfrwt beam="1">  1       13 0.10000000E+01 0.70536119E+02</pdfrwt>
<pdfrwt beam="2">  1       22 0.50928701E+00 0.70536119E+02</pdfrwt>
<totfact> 0.70491028E-02</totfact>
</mgrwt>
</event>
<event>
 4    1  0.2503484E+000  0.5606751E+02  0.7957747E-01  0.1415117E+00
         13   -1    0    0    0    0  0.00000000000E+00  0.00000000000E+00  0.99999944178E+02  0.99999999998E+02  0.10566000000E+00 0. -1.
         22   -1    0    0    0    0 -0.00000000000E+00 -0.00000000000E+00 -0.24493054997E+02  0.24493054997E+02  0.00000000000E+00 0.  1.
         13    1    1    2    0    0 -0.10059335667E+02  0.23288959674E+02 -0.55168748772E+01  0.25961759363E+02  0.10566000000E+00 0.  1.
        996    1    1    2    0    0  0.10059335667E+02 -0.23288959674E+02  0.81023764058E+02  0.98531295632E+02  0.50000000000E+02 0.  0.
<mgrwt>
<rscale>  0 0.56067512E+02</rscale>
<asrwt>0</asrwt>
<pdfrwt beam="1">  1       13 0.10000000E+01 0.56067512E+02</pdfrwt>
<pdfrwt beam="2">  1       22 0.24493076E+00 0.56067512E+02</pdfrwt>
<totfact> 0.30882256E-01</totfact>
</mgrwt>
</event>
<event>
 4    1  0.2503484E+000  0.5885632E+02  0.7957747E-01  0.1402695E+00
         13   -1    0    0    0    0  0.00000000000E+00  0.00000000000E+00  0.99999944173E+02  0.99999999993E+02  0.10566000000E+00 0.  1.
         22   -1    0    0    0    0 -0.00000000000E+00 -0.00000000000E+00 -0.24498194938E+02  0.24498194938E+02  0.00000000000E+00 0. -1.
         13    1    1    2    0    0 -0.25664093640E+01 -0.30943168221E+02  0.31179532168E+01  0.31205751279E+02  0.10566000000E+00 0. -1.
        996    1    1    2    0    0  0.25664093640E+01  0.30943168221E+02  0.72383796018E+02  0.93292443652E+02  0.50000000000E+02 0.  0.
<mgrwt>
<rscale>  0 0.58856318E+02</rscale>
<asrwt>0</asrwt>
<pdfrwt beam="1">  1       13 0.10000000E+01 0.58856318E+02</pdfrwt>
<pdfrwt beam="2">  1       22 0.24498216E+00 0.58856318E+02</pdfrwt>
<totfact> 0.30992935E-01</totfact>
</mgrwt>
</event>
<event>
 4    1  0.2503484E+000  0.5159880E+02  0.7957747E-01  0.1436904E+00
         13   -1    0    0    0    0  0.00000000000E+00  0.00000000000E+00  0.99999944179E+02  0.10000000000E+03  0.10566000000E+00 0. -1.
         22   -1    0    0    0    0 -0.00000000000E+00 -0.00000000000E+00 -0.11198791298E+02  0.11198791298E+02  0.00000000000E+00 0. -1.
         13    1    1    2    0    0  0.12432988498E+02 -0.28029656504E+01  0.71605904424E+01  0.14619201037E+02  0.10566000000E+00 0.  1.
        996    1    1    2    0    0 -0.12432988498E+02  0.28029656504E+01  0.81640562439E+02  0.96579590260E+02  0.50000000000E+02 0.  0.
<mgrwt>
<rscale>  0 0.51598797E+02</rscale>
<asrwt>0</asrwt>
<pdfrwt beam="1">  1       13 0.10000000E+01 0.51598797E+02</pdfrwt>
<pdfrwt beam="2">  1       22 0.11198816E+00 0.51598797E+02</pdfrwt>
<totfact> 0.11923012E+00</totfact>
</mgrwt>
</event>
<event>
 4    1  0.2503484E+000  0.5262950E+02  0.7957747E-01  0.1431654E+00
         13   -1    0    0    0    0  0.00000000000E+00  0.00000000000E+00  0.99999944175E+02  0.99999999995E+02  0.10566000000E+00 0.  1.
         22   -1    0    0    0    0 -0.00000000000E+00 -0.00000000000E+00 -0.12165117457E+02  0.12165117457E+02  0.00000000000E+00 0.  1.
         13    1    1    2    0    0 -0.15211587930E+02 -0.62025925283E+01  0.14581332047E+02  0.21965677083E+02  0.10566000000E+00 0. -1.
        996    1    1    2    0    0  0.15211587930E+02  0.62025925283E+01  0.73253494671E+02  0.90199440369E+02  0.50000000000E+02 0.  0.
<mgrwt>
<rscale>  0 0.52629503E+02</rscale>
<asrwt>0</asrwt>
<pdfrwt beam="1">  1       13 0.10000000E+01 0.52629503E+02</pdfrwt>
<pdfrwt beam="2">  1       22 0.12165142E+00 0.52629503E+02</pdfrwt>
<totfact> 0.10540839E+00</totfact>
</mgrwt>
</event>
<event>
 4    1  0.2503484E+000  0.5266186E+02  0.7957747E-01  0.1431491E+00
         13   -1    0    0    0    0  0.00000000000E+00  0.00000000000E+00  0.99999944171E+02  0.99999999991E+02  0.10566000000E+00 0. -1.
         22   -1    0    0    0    0 -0.00000000000E+00 -0.00000000000E+00 -0.12022006940E+02  0.12022006940E+02  0.00000000000E+00 0. -1.
         13    1    1    2    0    0  0.45070606153E+01  0.15904636528E+02  0.24288943894E+02  0.29380861423E+02  0.10566000000E+00 0.  1.
        996    1    1    2    0    0 -0.45070606153E+01 -0.15904636528E+02  0.63688993337E+02  0.82641145508E+02  0.50000000000E+02 0.  0.
<mgrwt>
<rscale>  0 0.52661856E+02</rscale>
<asrwt>0</asrwt>
<pdfrwt beam="1">  1       13 0.10000000E+01 0.52661856E+02</pdfrwt>
<pdfrwt beam="2">  1       22 0.12022031E+00 0.52661856E+02</pdfrwt>
<totfact> 0.10735009E+00</totfact>
</mgrwt>
</event>
<event>
 4    1  0.2503484E+000  0.5298173E+02  0.7957747E-01  0.1429892E+00
         13   -1    0    0    0    0  0.00000000000E+00  0.00000000000E+00  0.99999944185E+02  0.10000000001E+03  0.10566000000E+00 0. -1.
         22   -1    0    0    0    0 -0.00000000000E+00 -0.00000000000E+00 -0.48291940464E+02  0.48291940464E+02  0.00000000000E+00 0.  1.
         13    1    1    2    0    0  0.16445488150E+02  0.60505617776E+01 -0.39274874291E+02  0.43006863324E+02  0.10566000000E+00 0.  1.
        996    1    1    2    0    0 -0.16445488150E+02 -0.60505617776E+01  0.90982878012E+02  0.10528507715E+03  0.50000000000E+02 0.  0.
<mgrwt>
<rscale>  0 0.52981727E+02</rscale>
<asrwt>0</asrwt>
<pdfrwt beam="1">  1       13 0.10000000E+01 0.52981727E+02</pdfrwt>
<pdfrwt beam="2">  1       22 0.48291955E+00 0.52981727E+02</pdfrwt>
<totfact> 0.80981288E-02</totfact>
</mgrwt>
</event>
<event>
 4    1  0.2503484E+000  0.5862468E+02  0.7957747E-01  0.1403696E+00
         13   -1    0    0    0    0  0.00000000000E+00  0.00000000000E+00  0.99999944177E+02  0.99999999997E+02  0.10566000000E+00 0.  1.
         22   -1    0    0    0    0 -0.00000000000E+00 -0.00000000000E+00 -0.38401087585E+02  0.38401087585E+02  0.00000000000E+00 0. -1.
         13    1    1    2    0    0 -0.16013778066E+02  0.26084718056E+02 -0.20994691718E+02  0.37116598017E+02  0.10566000000E+00 0. -1.
        996    1    1    2    0    0  0.16013778066E+02 -0.26084718056E+02  0.82593548310E+02  0.10128448956E+03  0.50000000000E+02 0.  0.
<mgrwt>
<rscale>  0 0.58624684E+02</rscale>
<asrwt>0</asrwt>
<pdfrwt beam="1">  1       13 0.10000000E+01 0.58624684E+02</pdfrwt>
<pdfrwt beam="2">  1       22 0.38401105E+00 0.58624684E+02</pdfrwt>
<totfact> 0.13410741E-01</totfact>
</mgrwt>
</event>
<event>
 4    1  0.2503484E+000  0.5135362E+02  0.7957747E-01  0.1438174E+00
         13   -1    0    0    0    0  0.00000000000E+00  0.00000000000E+00  0.99999944184E+02  0.10000000000E+03  0.10566000000E+00 0.  1.
         22   -1    0    0    0    0 -0.00000000000E+00 -0.00000000000E+00 -0.99658462272E+01  0.99658462272E+01  0.00000000000E+00 0.  1.
         13    1    1    2    0    0 -0.21015255284E+01 -0.11522940044E+02  0.18805983871E+02  0.22155603133E+02  0.10566000000E+00 0. -1.
        996    1    1    2    0    0  0.21015255284E+01  0.11522940044E+02  0.71228114087E+02  0.87810243099E+02  0.50000000000E+02 0.  0.
<mgrwt>
<rscale>  0 0.51353623E+02</rscale>
<asrwt>0</asrwt>
<pdfrwt beam="1">  1       13 0.10000000E+01 0.51353623E+02</pdfrwt>
<pdfrwt beam="2">  1       22 0.99658714E-01 0.51353623E+02</pdfrwt>
<totfact> 0.14145744E+00</totfact>
</mgrwt>
</event>
<event>
 4    1  0.2503484E+000  0.5213905E+02  0.7957747E-01  0.1434134E+00
         13   -1    0    0    0    0  0.00000000000E+00  0.00000000000E+00  0.99999944179E+02  0.99999999999E+02  0.10566000000E+00 0.  1.
         22   -1    0    0    0    0 -0.00000000000E+00 -0.00000000000E+00 -0.18187415524E+02  0.18187415524E+02  0.00000000000E+00 0. -1.
         13    1    1    2    0    0  0.12694678582E+02  0.75713521263E+01 -0.60885018942E+01  0.15986283391E+02  0.10566000000E+00 0. -1.
        996    1    1    2    0    0 -0.12694678582E+02 -0.75713521263E+01  0.87901030549E+02  0.10220113213E+03  0.50000000000E+02 0.  0.
<mgrwt>
<rscale>  0 0.52139047E+02</rscale>
<asrwt>0</asrwt>
<pdfrwt beam="1">  1       13 0.10000000E+01 0.52139047E+02</pdfrwt>
<pdfrwt beam="2">  1       22 0.18187438E+00 0.52139047E+02</pdfrwt>
<totfact> 0.53941546E-01</totfact>
</mgrwt>
</event>
<event>
 4    1  0.2503484E+000  0.6273709E+02  0.7957747E-01  0.1386692E+00
         13   -1    0    0    0    0  0.00000000000E+00  0.00000000000E+00  0.99999944187E+02  0.10000000001E+03  0.10566000000E+00 0.  1.
         22   -1    0    0    0    0 -0.00000000000E+00 -0.00000000000E+00 -0.51207920726E+02  0.51207920726E+02  0.00000000000E+00 0. -1.
         13    1    1    2    0    0  0.37720164244E+02 -0.36237843984E+01 -0.31524747416E+02  0.49292630967E+02  0.10566000000E+00 0. -1.
        996    1    1    2    0    0 -0.37720164244E+02  0.36237843984E+01  0.80316770877E+02  0.10191528977E+03  0.50000000000E+02 0.  0.
<mgrwt>
<rscale>  0 0.62737091E+02</rscale>
<asrwt>0</asrwt>
<pdfrwt beam="1">  1       13 0.10000000E+01 0.62737091E+02</pdfrwt>
<pdfrwt beam="2">  1       22 0.51207934E+00 0.62737091E+02</pdfrwt>
<totfact> 0.69285943E-02</totfact>
</mgrwt>
</event>
<event>
 4    1  0.2503484E+000  0.5223007E+02  0.7957747E-01  0.1433671E+00
         13   -1    0    0    0    0  0.00000000000E+00  0.00000000000E+00  0.99999944176E+02  0.99999999997E+02  0.10566000000E+00 0.  1.
         22   -1    0    0    0    0 -0.00000000000E+00 -0.00000000000E+00 -0.12681783216E+02  0.12681783216E+02  0.00000000000E+00 0.  1.
         13    1    1    2    0    0 -0.76466103542E+01 -0.13019578221E+02  0.64636667728E+01  0.16424683228E+02  0.10566000000E+00 0. -1.
        996    1    1    2    0    0  0.76466103542E+01  0.13019578221E+02  0.80854494188E+02  0.96257099984E+02  0.50000000000E+02 0.  0.
<mgrwt>
<rscale>  0 0.52230069E+02</rscale>
<asrwt>0</asrwt>
<pdfrwt beam="1">  1       13 0.10000000E+01 0.52230069E+02</pdfrwt>
<pdfrwt beam="2">  1       22 0.12681808E+00 0.52230069E+02</pdfrwt>
<totfact> 0.98738584E-01</totfact>
</mgrwt>
</event>
<event>
 4    1  0.2503484E+000  0.5127243E+02  0.7957747E-01  0.1438597E+00
         13   -1    0    0    0    0  0.00000000000E+00  0.00000000000E+00  0.99999944182E+02  0.10000000000E+03  0.10566000000E+00 0. -1.
         22   -1    0    0    0    0 -0.00000000000E+00 -0.00000000000E+00 -0.20922743368E+02  0.20922743368E+02  0.00000000000E+00 0.  1.
         13    1    1    2    0    0 -0.10848258879E+02 -0.33431933753E+01 -0.11928812084E+02  0.16467221515E+02  0.10566000000E+00 0.  1.
        996    1    1    2    0    0  0.10848258879E+02  0.33431933753E+01  0.91006012897E+02  0.10445552186E+03  0.50000000000E+02 0.  0.
<mgrwt>
<rscale>  0 0.51272426E+02</rscale>
<asrwt>0</asrwt>
<pdfrwt beam="1">  1       13 0.10000000E+01 0.51272426E+02</pdfrwt>
<pdfrwt beam="2">  1       22 0.20922765E+00 0.51272426E+02</pdfrwt>
<totfact> 0.41570996E-01</totfact>
</mgrwt>
</event>
<event>
 4    1  0.2503484E+000  0.5684621E+02  0.7957747E-01  0.1411564E+00
         13   -1    0    0    0    0  0.00000000000E+00  0.00000000000E+00  0.99999944180E+02  0.10000000000E+03  0.10566000000E+00 0. -1.
         22   -1    0    0    0    0 -0.00000000000E+00 -0.00000000000E+00 -0.20553715198E+02  0.20553715198E+02  0.00000000000E+00 0. -1.
         13    1    1    2    0    0  0.24289993499E+02  0.11894883091E+02  0.60445370505E+01  0.27713527746E+02  0.10566000000E+00 0.  1.
        996    1    1    2    0    0 -0.24289993499E+02 -0.11894883091E+02  0.73401691931E+02  0.92840187453E+02  0.50000000000E+02 0.  0.
<mgrwt>
<rscale>  0 0.56846214E+02</rscale>
<asrwt>0</asrwt>
<pdfrwt beam="1">  1       13 0.10000000E+01 0.56846214E+02</pdfrwt>
<pdfrwt beam="2">  1       22 0.20553737E+00 0.56846214E+02</pdfrwt>
<totfact> 0.43400473E-01</totfact>
</mgrwt>
</event>
<event>
 4    1  0.2503484E+000  0.5541815E+02  0.7957747E-01  0.1418132E+00
         13   -1    0    0    0    0  0.00000000000E+00  0.00000000000E+00  0.99999944178E+02  0.99999999998E+02  0.10566000000E+00 0. -1.
         22   -1    0    0    0    0 -0.00000000000E+00 -0.00000000000E+00 -0.59040259197E+02  0.59040259197E+02  0.00000000000E+00 0.  1.
         13    1    1    2    0    0  0.14825583156E+01  0.23853151266E+02 -0.48349673903E+02  0.53933968285E+02  0.10566000000E+00 0.  1.
        996    1    1    2    0    0 -0.14825583156E+01 -0.23853151266E+02  0.89309358884E+02  0.10510629091E+03  0.50000000000E+02 0.  0.
<mgrwt>
<rscale>  0 0.55418145E+02</rscale>
<asrwt>0</asrwt>
<pdfrwt beam="1">  1       13 0.10000000E+01 0.55418145E+02</pdfrwt>
<pdfrwt beam="2">  1       22 0.59040271E+00 0.55418145E+02</pdfrwt>
<totfact> 0.60557702E-02</totfact>
</mgrwt>
</event>
<event>
 4    1  0.2503484E+000  0.5135449E+02  0.7957747E-01  0.1438170E+00
         13   -1    0    0    0    0  0.00000000000E+00  0.00000000000E+00  0.99999944187E+02  0.10000000001E+03  0.10566000000E+00 0. -1.
         22   -1    0    0    0    0 -0.00000000000E+00 -0.00000000000E+00 -0.58660224295E+02  0.58660224295E+02  0.00000000000E+00 0.  1.
         13    1    1    2    0    0 -0.10996341213E+02  0.40453217919E+01 -0.51363471849E+02  0.52683029078E+02  0.10566000000E+00 0.  1.
        996    1    1    2    0    0  0.10996341213E+02 -0.40453217919E+01  0.92703191741E+02  0.10597719522E+03  0.50000000000E+02 0.  0.
<mgrwt>
<rscale>  0 0.51354495E+02</rscale>
<asrwt>0</asrwt>
<pdfrwt beam="1">  1       13 0.10000000E+01 0.51354495E+02</pdfrwt>
<pdfrwt beam="2">  1       22 0.58660236E+00 0.51354495E+02</pdfrwt>
<totfact> 0.59555456E-02</totfact>
</mgrwt>
</event>
<event>
 4    1  0.2503484E+000  0.5161636E+02  0.7957747E-01  0.1436813E+00
         13   -1    0    0    0    0  0.00000000000E+00  0.00000000000E+00  0.99999944183E+02  0.10000000000E+03  0.10566000000E+00 0.  1.
         22   -1    0    0    0    0 -0.00000000000E+00 -0.00000000000E+00 -0.10379227313E+02  0.10379227313E+02  0.00000000000E+00 0.  1.
         13    1    1    2    0    0  0.11167323277E+02 -0.62880686242E+01  0.17590319172E+02  0.21764177191E+02  0.10566000000E+00 0. -1.
        996    1    1    2    0    0 -0.11167323277E+02  0.62880686242E+01  0.72030397698E+02  0.88615050125E+02  0.50000000000E+02 0.  0.
<mgrwt>
<rscale>  0 0.51616363E+02</rscale>
<asrwt>0</asrwt>
<pdfrwt beam="1">  1       13 0.10000000E+01 0.51616363E+02</pdfrwt>
<pdfrwt beam="2">  1       22 0.10379252E+00 0.51616363E+02</pdfrwt>
<totfact> 0.13342000E+00</totfact>
</mgrwt>
</event>
<event>
 4    1  0.2503484E+000  0.5283076E+02  0.7957747E-01  0.1430645E+00
         13   -1    0    0    0    0  0.00000000000E+00  0.00000000000E+00  0.99999944177E+02  0.99999999998E+02  0.10566000000E+00 0.  1.
         22   -1    0    0    0    0 -0.00000000000E+00 -0.00000000000E+00 -0.14403086655E+02  0.14403086655E+02  0.00000000000E+00 0. -1.
         13    1    1    2    0    0 -0.26130341747E+01 -0.16860039619E+02  0.45505075798E+01  0.17658062375E+02  0.10566000000E+00 0. -1.
        996    1    1    2    0    0  0.26130341747E+01  0.16860039619E+02  0.81046349942E+02  0.96745024278E+02  0.50000000000E+02 0.  0.
<mgrwt>
<rscale>  0 0.52830757E+02</rscale>
<asrwt>0</asrwt>
<pdfrwt beam="1">  1       13 0.10000000E+01 0.52830757E+02</pdfrwt>
<pdfrwt beam="2">  1       22 0.14403111E+00 0.52830757E+02</pdfrwt>
<totfact> 0.80653757E-01</totfact>
</mgrwt>
</event>
<event>
 4    1  0.2503484E+000  0.5880135E+02  0.7957747E-01  0.1402932E+00
         13   -1    0    0    0    0  0.00000000000E+00  0.00000000000E+00  0.99999944181E+02  0.10000000000E+03  0.10566000000E+00 0.  1.
         22   -1    0    0    0    0 -0.00000000000E+00 -0.00000000000E+00 -0.49937968780E+02  0.49937968780E+02  0.00000000000E+00 0. -1.
         13    1    1    2    0    0 -0.11526498484E+02  0.28718268515E+02 -0.34880280657E+02  0.46628792141E+02  0.10566000000E+00 0. -1.
        996    1    1    2    0    0  0.11526498484E+02 -0.28718268515E+02  0.84942256058E+02  0.10330917664E+03  0.50000000000E+02 0.  0.
<mgrwt>
<rscale>  0 0.58801353E+02</rscale>
<asrwt>0</asrwt>
<pdfrwt beam="1">  1       13 0.10000000E+01 0.58801353E+02</pdfrwt>
<pdfrwt beam="2">  1       22 0.49937983E+00 0.58801353E+02</pdfrwt>
<totfact> 0.74078090E-02</totfact>
</mgrwt>
</event>
<event>
 4    1  0.2503484E+000  0.5104280E+02  0.7957747E-01  0.1439797E+00
         13   -1    0    0    0    0  0.00000000000E+00  0.00000000000E+00  0.99999944179E+02  0.10000000000E+03  0.10566000000E+00 0. -1.
         22   -1    0    0    0    0 -0.00000000000E+00 -0.00000000000E+00 -0.10737652403E+02  0.10737652403E+02  0.00000000000E+00 0. -1.
         13    1    1    2    0    0  0.18106913171E+01  0.10103924077E+02  0.33354438697E+01  0.10793712736E+02  0.10566000000E+00 0.  1.
        996    1    1    2    0    0 -0.18106913171E+01 -0.10103924077E+02  0.85926847907E+02  0.99943939666E+02  0.50000000000E+02 0.  0.
<mgrwt>
<rscale>  0 0.51042804E+02</rscale>
<asrwt>0</asrwt>
<pdfrwt beam="1">  1       13 0.10000000E+01 0.51042804E+02</pdfrwt>
<pdfrwt beam="2">  1       22 0.10737677E+00 0.51042804E+02</pdfrwt>
<totfact> 0.12675278E+00</totfact>
</mgrwt>
</event>
<event>
 4    1  0.2503484E+000  0.5133806E+02  0.7957747E-01  0.1438255E+00
         13   -1    0    0    0    0  0.00000000000E+00  0.00000000000E+00  0.99999944171E+02  0.99999999991E+02  0.10566000000E+00 0. -1.
         22   -1    0    0    0    0 -0.00000000000E+00 -0.00000000000E+00 -0.10563731661E+02  0.10563731661E+02  0.00000000000E+00 0. -1.
         13    1    1    2    0    0  0.11636385524E+02 -0.43734445083E+00  0.29091767359E+02  0.31335903216E+02  0.10566000000E+00 0.  1.
        996    1    1    2    0    0 -0.11636385524E+02  0.43734445083E+00  0.60344445150E+02  0.79227828436E+02  0.50000000000E+02 0.  0.
<mgrwt>
<rscale>  0 0.51338063E+02</rscale>
<asrwt>0</asrwt>
<pdfrwt beam="1">  1       13 0.10000000E+01 0.51338063E+02</pdfrwt>
<pdfrwt beam="2">  1       22 0.10563757E+00 0.51338063E+02</pdfrwt>
<totfact> 0.12993052E+00</totfact>
</mgrwt>
</event>
<event>
 4    1  0.2503484E+000  0.5857595E+02  0.7957747E-01  0.1403907E+00
         13   -1    0    0    0    0  0.00000000000E+00  0.00000000000E+00  0.99999944175E+02  0.99999999995E+02  0.10566000000E+00 0. -1.
         22   -1    0    0    0    0 -0.00000000000E+00 -0.00000000000E+00 -0.35251563470E+02  0.35251563470E+02  0.00000000000E+00 0.  1.
         13    1    1    2    0    0  0.43960097859E+00  0.30511442970E+02 -0.16809425397E+02  0.34838331581E+02  0.10566000000E+00 0.  1.
        996    1    1    2    0    0 -0.43960097859E+00 -0.30511442970E+02  0.81557806102E+02  0.10041323188E+03  0.50000000000E+02 0.  0.
<mgrwt>
<rscale>  0 0.58575946E+02</rscale>
<asrwt>0</asrwt>
<pdfrwt beam="1">  1       13 0.10000000E+01 0.58575946E+02</pdfrwt>
<pdfrwt beam="2">  1       22 0.35251582E+00 0.58575946E+02</pdfrwt>
<totfact> 0.15617894E-01</totfact>
</mgrwt>
</event>
<event>
 4    1  0.2503484E+000  0.5245409E+02  0.7957747E-01  0.1432537E+00
         13   -1    0    0    0    0  0.00000000000E+00  0.00000000000E+00  0.99999944183E+02  0.10000000000E+03  0.10566000000E+00 0.  1.
         22   -1    0    0    0    0 -0.00000000000E+00 -0.00000000000E+00 -0.12847625534E+02  0.12847625534E+02  0.00000000000E+00 0.  1.
         13    1    1    2    0    0  0.12901744432E+02 -0.92182685661E+01  0.76637857466E+01  0.17611821620E+02  0.10566000000E+00 0. -1.
        996    1    1    2    0    0 -0.12901744432E+02  0.92182685661E+01  0.79488532902E+02  0.95235803917E+02  0.50000000000E+02 0.  0.
<mgrwt>
<rscale>  0 0.52454089E+02</rscale>
<asrwt>0</asrwt>
<pdfrwt beam="1">  1       13 0.10000000E+01 0.52454089E+02</pdfrwt>
<pdfrwt beam="2">  1       22 0.12847650E+00 0.52454089E+02</pdfrwt>
<totfact> 0.96797593E-01</totfact>
</mgrwt>
</event>
<event>
 4    1  0.2503484E+000  0.5211518E+02  0.7957747E-01  0.1434256E+00
         13   -1    0    0    0    0  0.00000000000E+00  0.00000000000E+00  0.99999944183E+02  0.10000000000E+03  0.10566000000E+00 0.  1.
         22   -1    0    0    0    0 -0.00000000000E+00 -0.00000000000E+00 -0.15271352086E+02  0.15271352086E+02  0.00000000000E+00 0.  1.
         13    1    1    2    0    0 -0.38275452703E+01 -0.14189489547E+02 -0.12299436509E+01  0.14748411501E+02  0.10566000000E+00 0. -1.
        996    1    1    2    0    0  0.38275452703E+01  0.14189489547E+02  0.85958535749E+02  0.10052294059E+03  0.50000000000E+02 0.  0.
<mgrwt>
<rscale>  0 0.52115177E+02</rscale>
<asrwt>0</asrwt>
<pdfrwt beam="1">  1       13 0.10000000E+01 0.52115177E+02</pdfrwt>
<pdfrwt beam="2">  1       22 0.15271376E+00 0.52115177E+02</pdfrwt>
<totfact> 0.73087235E-01</totfact>
</mgrwt>
</event>
<event>
 4    1  0.2503484E+000  0.5265488E+02  0.7957747E-01  0.1431526E+00
         13   -1    0    0    0    0  0.00000000000E+00  0.00000000000E+00  0.99999944173E+02  0.99999999994E+02  0.10566000000E+00 0. -1.
         22   -1    0    0    0    0 -0.00000000000E+00 -0.00000000000E+00 -0.12754220908E+02  0.12754220908E+02  0.00000000000E+00 0. -1.
         13    1    1    2    0    0 -0.16252505360E+02  0.28970431665E+01  0.34387271883E+02  0.38144887222E+02  0.10566000000E+00 0.  1.
        996    1    1    2    0    0  0.16252505360E+02 -0.28970431665E+01  0.52858451382E+02  0.74609333680E+02  0.50000000000E+02 0.  0.
<mgrwt>
<rscale>  0 0.52654884E+02</rscale>
<asrwt>0</asrwt>
<pdfrwt beam="1">  1       13 0.10000000E+01 0.52654884E+02</pdfrwt>
<pdfrwt beam="2">  1       22 0.12754245E+00 0.52654884E+02</pdfrwt>
<totfact> 0.97953248E-01</totfact>
</mgrwt>
</event>
<event>
 4    1  0.2503484E+000  0.5579507E+02  0.7957747E-01  0.1416376E+00
         13   -1    0    0    0    0  0.00000000000E+00  0.00000000000E+00  0.99999944173E+02  0.99999999993E+02  0.10566000000E+00 0.  1.
         22   -1    0    0    0    0 -0.00000000000E+00 -0.00000000000E+00 -0.20702588182E+02  0.20702588182E+02  0.00000000000E+00 0. -1.
         13    1    1    2    0    0  0.16837447729E+02 -0.18154607147E+02  0.12890805042E+01  0.24794400563E+02  0.10566000000E+00 0. -1.
        996    1    1    2    0    0 -0.16837447729E+02  0.18154607147E+02  0.78008275486E+02  0.95908187612E+02  0.50000000000E+02 0.  0.
<mgrwt>
<rscale>  0 0.55795066E+02</rscale>
<asrwt>0</asrwt>
<pdfrwt beam="1">  1       13 0.10000000E+01 0.55795066E+02</pdfrwt>
<pdfrwt beam="2">  1       22 0.20702610E+00 0.55795066E+02</pdfrwt>
<totfact> 0.42739906E-01</totfact>
</mgrwt>
</event>
<event>
 4    1  0.2503484E+000  0.5279575E+02  0.7957747E-01  0.1430820E+00
         13   -1    0    0    0    0  0.00000000000E+00  0.00000000000E+00  0.99999944181E+02  0.10000000000E+03  0.10566000000E+00 0.  1.
         22   -1    0    0    0    0 -0.00000000000E+00 -0.00000000000E+00 -0.37166242216E+02  0.37166242216E+02  0.00000000000E+00 0. -1.
         13    1    1    2    0    0  0.95965300528E+01  0.13974885740E+02 -0.27634090455E+02  0.32419823254E+02  0.10566000000E+00 0. -1.
        996    1    1    2    0    0 -0.95965300528E+01 -0.13974885740E+02  0.90467792419E+02  0.10474641896E+03  0.50000000000E+02 0.  0.
<mgrwt>
<rscale>  0 0.52795746E+02</rscale>
<asrwt>0</asrwt>
<pdfrwt beam="1">  1       13 0.10000000E+01 0.52795746E+02</pdfrwt>
<pdfrwt beam="2">  1       22 0.37166260E+00 0.52795746E+02</pdfrwt>
<totfact> 0.14154181E-01</totfact>
</mgrwt>
</event>
<event>
 4    1  0.2503484E+000  0.5162469E+02  0.7957747E-01  0.1436770E+00
         13   -1    0    0    0    0  0.00000000000E+00  0.00000000000E+00  0.99999944188E+02  0.10000000001E+03  0.10566000000E+00 0. -1.
         22   -1    0    0    0    0 -0.00000000000E+00 -0.00000000000E+00 -0.12063235524E+02  0.12063235524E+02  0.00000000000E+00 0.  1.
         13    1    1    2    0    0 -0.14803646913E+00  0.12848599464E+02  0.38864933477E+01  0.13424768809E+02  0.10566000000E+00 0.  1.
        996    1    1    2    0    0  0.14803646913E+00 -0.12848599464E+02  0.84050215315E+02  0.98638466723E+02  0.50000000000E+02 0.  0.
<mgrwt>
<rscale>  0 0.51624688E+02</rscale>
<asrwt>0</asrwt>
<pdfrwt beam="1">  1       13 0.10000000E+01 0.51624688E+02</pdfrwt>
<pdfrwt beam="2">  1       22 0.12063260E+00 0.51624688E+02</pdfrwt>
<totfact> 0.10654165E+00</totfact>
</mgrwt>
</event>
<event>
 4    1  0.2503484E+000  0.5586366E+02  0.7957747E-01  0.1416058E+00
         13   -1    0    0    0    0  0.00000000000E+00  0.00000000000E+00  0.99999944179E+02  0.99999999999E+02  0.10566000000E+00 0. -1.
         22   -1    0    0    0    0 -0.00000000000E+00 -0.00000000000E+00 -0.38221858838E+02  0.38221858838E+02  0.00000000000E+00 0.  1.
         13    1    1    2    0    0 -0.13104900040E+02  0.21189868151E+02 -0.24820339058E+02  0.35168299821E+02  0.10566000000E+00 0.  1.
        996    1    1    2    0    0  0.13104900040E+02 -0.21189868151E+02  0.86598424400E+02  0.10305355902E+03  0.50000000000E+02 0.  0.
<mgrwt>
<rscale>  0 0.55863664E+02</rscale>
<asrwt>0</asrwt>
<pdfrwt beam="1">  1       13 0.10000000E+01 0.55863664E+02</pdfrwt>
<pdfrwt beam="2">  1       22 0.38221876E+00 0.55863664E+02</pdfrwt>
<totfact> 0.13496217E-01</totfact>
</mgrwt>
</event>
<event>
 4    1  0.2503484E+000  0.5103872E+02  0.7957747E-01  0.1439818E+00
         13   -1    0    0    0    0  0.00000000000E+00  0.00000000000E+00  0.99999944186E+02  0.10000000001E+03  0.10566000000E+00 0. -1.
         22   -1    0    0    0    0 -0.00000000000E+00 -0.00000000000E+00 -0.10841061377E+02  0.10841061377E+02  0.00000000000E+00 0.  1.
         13    1    1    2    0    0  0.98105453482E+01  0.29503165350E+01  0.29581460854E+01  0.10663627900E+02  0.10566000000E+00 0.  1.
        996    1    1    2    0    0 -0.98105453482E+01 -0.29503165350E+01  0.86200736724E+02  0.10017743348E+03  0.50000000000E+02 0.  0.
<mgrwt>
<rscale>  0 0.51038722E+02</rscale>
<asrwt>0</asrwt>
<pdfrwt beam="1">  1       13 0.10000000E+01 0.51038722E+02</pdfrwt>
<pdfrwt beam="2">  1       22 0.10841086E+00 0.51038722E+02</pdfrwt>
<totfact> 0.12496787E+00</totfact>
</mgrwt>
</event>
<event>
 4    1  0.2503484E+000  0.5199898E+02  0.7957747E-01  0.1434848E+00
         13   -1    0    0    0    0  0.00000000000E+00  0.00000000000E+00  0.99999944178E+02  0.99999999998E+02  0.10566000000E+00 0. -1.
         22   -1    0    0    0    0 -0.00000000000E+00 -0.00000000000E+00 -0.21238736401E+02  0.21238736401E+02  0.00000000000E+00 0.  1.
         13    1    1    2    0    0 -0.13737402156E+02 -0.38959083488E+01 -0.10644972391E+02  0.17810696817E+02  0.10566000000E+00 0.  1.
        996    1    1    2    0    0  0.13737402156E+02  0.38959083488E+01  0.89406180168E+02  0.10342803958E+03  0.50000000000E+02 0.  0.
<mgrwt>
<rscale>  0 0.51998984E+02</rscale>
<asrwt>0</asrwt>
<pdfrwt beam="1">  1       13 0.10000000E+01 0.51998984E+02</pdfrwt>
<pdfrwt beam="2">  1       22 0.21238758E+00 0.51998984E+02</pdfrwt>
<totfact> 0.40456533E-01</totfact>
</mgrwt>
</event>
<event>
 4    1  0.2503484E+000  0.5221914E+02  0.7957747E-01  0.1433727E+00
         13   -1    0    0    0    0  0.00000000000E+00  0.00000000000E+00  0.99999944180E+02  0.10000000000E+03  0.10566000000E+00 0. -1.
         22   -1    0    0    0    0 -0.00000000000E+00 -0.00000000000E+00 -0.12239612916E+02  0.12239612916E+02  0.00000000000E+00 0. -1.
         13    1    1    2    0    0 -0.82594440488E+01  0.12594437885E+02  0.84155960545E+01  0.17253165003E+02  0.10566000000E+00 0.  1.
        996    1    1    2    0    0  0.82594440488E+01 -0.12594437885E+02  0.79344735210E+02  0.94986447913E+02  0.50000000000E+02 0.  0.
<mgrwt>
<rscale>  0 0.52219137E+02</rscale>
<asrwt>0</asrwt>
<pdfrwt beam="1">  1       13 0.10000000E+01 0.52219137E+02</pdfrwt>
<pdfrwt beam="2">  1       22 0.12239637E+00 0.52219137E+02</pdfrwt>
<totfact> 0.10432710E+00</totfact>
</mgrwt>
</event>
<event>
 4    1  0.2503484E+000  0.5253645E+02  0.7957747E-01  0.1432122E+00
         13   -1    0    0    0    0  0.00000000000E+00  0.00000000000E+00  0.99999944178E+02  0.99999999998E+02  0.10566000000E+00 0.  1.
         22   -1    0    0    0    0 -0.00000000000E+00 -0.00000000000E+00 -0.17786298340E+02  0.17786298340E+02  0.00000000000E+00 0. -1.
         13    1    1    2    0    0 -0.14818572556E+02 -0.63630757230E+01 -0.41913866545E+01  0.16663064286E+02  0.10566000000E+00 0. -1.
        996    1    1    2    0    0  0.14818572556E+02  0.63630757230E+01  0.86405032492E+02  0.10112323405E+03  0.50000000000E+02 0.  0.
<mgrwt>
<rscale>  0 0.52536452E+02</rscale>
<asrwt>0</asrwt>
<pdfrwt beam="1">  1       13 0.10000000E+01 0.52536452E+02</pdfrwt>
<pdfrwt beam="2">  1       22 0.17786321E+00 0.52536452E+02</pdfrwt>
<totfact> 0.56183573E-01</totfact>
</mgrwt>
</event>
<event>
 4    1  0.2503484E+000  0.5706115E+02  0.7957747E-01  0.1410596E+00
         13   -1    0    0    0    0  0.00000000000E+00  0.00000000000E+00  0.99999944170E+02  0.99999999990E+02  0.10566000000E+00 0.  1.
         22   -1    0    0    0    0 -0.00000000000E+00 -0.00000000000E+00 -0.18322731380E+02  0.18322731380E+02  0.00000000000E+00 0.  1.
         13    1    1    2    0    0  0.20040583658E+02  0.18824184172E+02  0.18223681328E+02  0.32986188447E+02  0.10566000000E+00 0. -1.
        996    1    1    2    0    0 -0.20040583658E+02 -0.18824184172E+02  0.63453531463E+02  0.85336542924E+02  0.50000000000E+02 0.  0.
<mgrwt>
<rscale>  0 0.57061151E+02</rscale>
<asrwt>0</asrwt>
<pdfrwt beam="1">  1       13 0.10000000E+01 0.57061151E+02</pdfrwt>
<pdfrwt beam="2">  1       22 0.18322754E+00 0.57061151E+02</pdfrwt>
<totfact> 0.53693253E-01</totfact>
</mgrwt>
</event>
<event>
 4    1  0.2503484E+000  0.5735886E+02  0.7957747E-01  0.1409262E+00
         13   -1    0    0    0    0  0.00000000000E+00  0.00000000000E+00  0.99999944170E+02  0.99999999990E+02  0.10566000000E+00 0.  1.
         22   -1    0    0    0    0 -0.00000000000E+00 -0.00000000000E+00 -0.18263882146E+02  0.18263882146E+02  0.00000000000E+00 0.  1.
         13    1    1    2    0    0 -0.26887500607E+02 -0.81915303793E+01  0.26230500709E+02  0.38445925536E+02  0.10566000000E+00 0. -1.
        996    1    1    2    0    0  0.26887500607E+02  0.81915303793E+01  0.55505561315E+02  0.79817956599E+02  0.50000000000E+02 0.  0.
<mgrwt>
<rscale>  0 0.57358860E+02</rscale>
<asrwt>0</asrwt>
<pdfrwt beam="1">  1       13 0.10000000E+01 0.57358860E+02</pdfrwt>
<pdfrwt beam="2">  1       22 0.18263905E+00 0.57358860E+02</pdfrwt>
<totfact> 0.54033722E-01</totfact>
</mgrwt>
</event>
<event>
 4    1  0.2503484E+000  0.5383041E+02  0.7957747E-01  0.1425712E+00
         13   -1    0    0    0    0  0.00000000000E+00  0.00000000000E+00  0.99999944174E+02  0.99999999995E+02  0.10566000000E+00 0. -1.
         22   -1    0    0    0    0 -0.00000000000E+00 -0.00000000000E+00 -0.34901938323E+02  0.34901938323E+02  0.00000000000E+00 0.  1.
         13    1    1    2    0    0  0.15853771090E+02 -0.12098386637E+02 -0.23753846609E+02  0.31015631700E+02  0.10566000000E+00 0.  1.
        996    1    1    2    0    0 -0.15853771090E+02  0.12098386637E+02  0.88851852460E+02  0.10388630662E+03  0.50000000000E+02 0.  0.
<mgrwt>
<rscale>  0 0.53830410E+02</rscale>
<asrwt>0</asrwt>
<pdfrwt beam="1">  1       13 0.10000000E+01 0.53830410E+02</pdfrwt>
<pdfrwt beam="2">  1       22 0.34901957E+00 0.53830410E+02</pdfrwt>
<totfact> 0.15821019E-01</totfact>
</mgrwt>
</event>
<event>
 4    1  0.2503484E+000  0.5896957E+02  0.7957747E-01  0.1402208E+00
         13   -1    0    0    0    0  0.00000000000E+00  0.00000000000E+00  0.99999944178E+02  0.99999999998E+02  0.10566000000E+00 0. -1.
         22   -1    0    0    0    0 -0.00000000000E+00 -0.00000000000E+00 -0.27495577953E+02  0.27495577953E+02  0.00000000000E+00 0.  1.
         13    1    1    2    0    0  0.27023188633E+02  0.15721244345E+02 -0.33201180947E+01  0.31439538735E+02  0.10566000000E+00 0.  1.
        996    1    1    2    0    0 -0.27023188633E+02 -0.15721244345E+02  0.75824484320E+02  0.96056039217E+02  0.50000000000E+02 0.  0.
<mgrwt>
<rscale>  0 0.58969571E+02</rscale>
<asrwt>0</asrwt>
<pdfrwt beam="1">  1       13 0.10000000E+01 0.58969571E+02</pdfrwt>
<pdfrwt beam="2">  1       22 0.27495598E+00 0.58969571E+02</pdfrwt>
<totfact> 0.24690930E-01</totfact>
</mgrwt>
</event>
<event>
 4    1  0.2503484E+000  0.5181562E+02  0.7957747E-01  0.1435788E+00
         13   -1    0    0    0    0  0.00000000000E+00  0.00000000000E+00  0.99999944183E+02  0.10000000000E+03  0.10566000000E+00 0.  1.
         22   -1    0    0    0    0 -0.00000000000E+00 -0.00000000000E+00 -0.10922041885E+02  0.10922041885E+02  0.00000000000E+00 0.  1.
         13    1    1    2    0    0  0.74209047718E+01 -0.11392474739E+02  0.12555550851E+02  0.18507061612E+02  0.10566000000E+00 0. -1.
        996    1    1    2    0    0 -0.74209047718E+01  0.11392474739E+02  0.76522351447E+02  0.92414980275E+02  0.50000000000E+02 0.  0.
<mgrwt>
<rscale>  0 0.51815618E+02</rscale>
<asrwt>0</asrwt>
<pdfrwt beam="1">  1       13 0.10000000E+01 0.51815618E+02</pdfrwt>
<pdfrwt beam="2">  1       22 0.10922067E+00 0.51815618E+02</pdfrwt>
<totfact> 0.12382210E+00</totfact>
</mgrwt>
</event>
<event>
 4    1  0.2503484E+000  0.5472080E+02  0.7957747E-01  0.1421424E+00
         13   -1    0    0    0    0  0.00000000000E+00  0.00000000000E+00  0.99999944177E+02  0.99999999998E+02  0.10566000000E+00 0. -1.
         22   -1    0    0    0    0 -0.00000000000E+00 -0.00000000000E+00 -0.14830975498E+02  0.14830975498E+02  0.00000000000E+00 0.  1.
         13    1    1    2    0    0 -0.20570891257E+02  0.84382386108E+01  0.26804830874E+02  0.34826363005E+02  0.10566000000E+00 0.  1.
        996    1    1    2    0    0  0.20570891257E+02 -0.84382386108E+01  0.58364137805E+02  0.80004612490E+02  0.50000000000E+02 0.  0.
<mgrwt>
<rscale>  0 0.54720795E+02</rscale>
<asrwt>0</asrwt>
<pdfrwt beam="1">  1       13 0.10000000E+01 0.54720795E+02</pdfrwt>
<pdfrwt beam="2">  1       22 0.14830999E+00 0.54720795E+02</pdfrwt>
<totfact> 0.77141328E-01</totfact>
</mgrwt>
</event>
<event>
 4    1  0.2503484E+000  0.5321881E+02  0.7957747E-01  0.1428715E+00
         13   -1    0    0    0    0  0.00000000000E+00  0.00000000000E+00  0.99999944168E+02  0.99999999989E+02  0.10566000000E+00 0. -1.
         22   -1    0    0    0    0 -0.00000000000E+00 -0.00000000000E+00 -0.18144988052E+02  0.18144988052E+02  0.00000000000E+00 0.  1.
         13    1    1    2    0    0 -0.13132122363E+02  0.12640762668E+02 -0.25070112209E+01  0.18399396400E+02  0.10566000000E+00 0.  1.
        996    1    1    2    0    0  0.13132122363E+02 -0.12640762668E+02  0.84361967338E+02  0.99745591640E+02  0.50000000000E+02 0.  0.
<mgrwt>
<rscale>  0 0.53218808E+02</rscale>
<asrwt>0</asrwt>
<pdfrwt beam="1">  1       13 0.10000000E+01 0.53218808E+02</pdfrwt>
<pdfrwt beam="2">  1       22 0.18145011E+00 0.53218808E+02</pdfrwt>
<totfact> 0.54277395E-01</totfact>
</mgrwt>
</event>
<event>
 4    1  0.2503484E+000  0.5339693E+02  0.7957747E-01  0.1427836E+00
         13   -1    0    0    0    0  0.00000000000E+00  0.00000000000E+00  0.99999944178E+02  0.99999999999E+02  0.10566000000E+00 0. -1.
         22   -1    0    0    0    0 -0.00000000000E+00 -0.00000000000E+00 -0.13401307608E+02  0.13401307608E+02  0.00000000000E+00 0.  1.
         13    1    1    2    0    0 -0.18059837849E+02 -0.50074685468E+01  0.14569525083E+02  0.23738464768E+02  0.10566000000E+00 0.  1.
        996    1    1    2    0    0  0.18059837849E+02  0.50074685468E+01  0.72029111487E+02  0.89662842839E+02  0.50000000000E+02 0.  0.
<mgrwt>
<rscale>  0 0.53396933E+02</rscale>
<asrwt>0</asrwt>
<pdfrwt beam="1">  1       13 0.10000000E+01 0.53396933E+02</pdfrwt>
<pdfrwt beam="2">  1       22 0.13401332E+00 0.53396933E+02</pdfrwt>
<totfact> 0.90729432E-01</totfact>
</mgrwt>
</event>
<event>
 4    1  0.2503484E+000  0.5145801E+02  0.7957747E-01  0.1437632E+00
         13   -1    0    0    0    0  0.00000000000E+00  0.00000000000E+00  0.99999944183E+02  0.10000000000E+03  0.10566000000E+00 0.  1.
         22   -1    0    0    0    0 -0.00000000000E+00 -0.00000000000E+00 -0.22422611362E+02  0.22422611362E+02  0.00000000000E+00 0. -1.
         13    1    1    2    0    0 -0.25499299740E+01  0.11892222026E+02 -0.13278150948E+02  0.18006874915E+02  0.10566000000E+00 0. -1.
        996    1    1    2    0    0  0.25499299740E+01 -0.11892222026E+02  0.90855483769E+02  0.10441573645E+03  0.50000000000E+02 0.  0.
<mgrwt>
<rscale>  0 0.51458013E+02</rscale>
<asrwt>0</asrwt>
<pdfrwt beam="1">  1       13 0.10000000E+01 0.51458013E+02</pdfrwt>
<pdfrwt beam="2">  1       22 0.22422633E+00 0.51458013E+02</pdfrwt>
<totfact> 0.36425607E-01</totfact>
</mgrwt>
</event>
<event>
 4    1  0.2503484E+000  0.6018666E+02  0.7957747E-01  0.1397050E+00
         13   -1    0    0    0    0  0.00000000000E+00  0.00000000000E+00  0.99999944183E+02  0.10000000000E+03  0.10566000000E+00 0. -1.
         22   -1    0    0    0    0 -0.00000000000E+00 -0.00000000000E+00 -0.25673262073E+02  0.25673262073E+02  0.00000000000E+00 0.  1.
         13    1    1    2    0    0 -0.13669866207E+02 -0.30587074084E+02  0.50135623802E+01  0.33875969579E+02  0.10566000000E+00 0.  1.
        996    1    1    2    0    0  0.13669866207E+02  0.30587074084E+02  0.69313119729E+02  0.91797292497E+02  0.50000000000E+02 0.  0.
<mgrwt>
<rscale>  0 0.60186663E+02</rscale>
<asrwt>0</asrwt>
<pdfrwt beam="1">  1       13 0.10000000E+01 0.60186663E+02</pdfrwt>
<pdfrwt beam="2">  1       22 0.25673283E+00 0.60186663E+02</pdfrwt>
<totfact> 0.28304718E-01</totfact>
</mgrwt>
</event>
<event>
 4    1  0.2503484E+000  0.5296691E+02  0.7957747E-01  0.1429966E+00
         13   -1    0    0    0    0  0.00000000000E+00  0.00000000000E+00  0.99999944179E+02  0.10000000000E+03  0.10566000000E+00 0.  1.
         22   -1    0    0    0    0 -0.00000000000E+00 -0.00000000000E+00 -0.14333768023E+02  0.14333768023E+02  0.00000000000E+00 0. -1.
         13    1    1    2    0    0  0.17253201604E+02 -0.27965755864E+01  0.56389542143E+01  0.18365804346E+02  0.10566000000E+00 0. -1.
        996    1    1    2    0    0 -0.17253201604E+02  0.27965755864E+01  0.80027221942E+02  0.95967963677E+02  0.50000000000E+02 0.  0.
<mgrwt>
<rscale>  0 0.52966912E+02</rscale>
<asrwt>0</asrwt>
<pdfrwt beam="1">  1       13 0.10000000E+01 0.52966912E+02</pdfrwt>
<pdfrwt beam="2">  1       22 0.14333792E+00 0.52966912E+02</pdfrwt>
<totfact> 0.81316159E-01</totfact>
</mgrwt>
</event>
<event>
 4    1  0.2503484E+000  0.5099446E+02  0.7957747E-01  0.1440050E+00
         13   -1    0    0    0    0  0.00000000000E+00  0.00000000000E+00  0.99999944184E+02  0.10000000000E+03  0.10566000000E+00 0. -1.
         22   -1    0    0    0    0 -0.00000000000E+00 -0.00000000000E+00 -0.95074924604E+01  0.95074924604E+01  0.00000000000E+00 0. -1.
         13    1    1    2    0    0 -0.10016138388E+02  0.33427810278E+00  0.21436610990E+02  0.23663774527E+02  0.10566000000E+00 0.  1.
        996    1    1    2    0    0  0.10016138388E+02 -0.33427810278E+00  0.69055840733E+02  0.85843717938E+02  0.50000000000E+02 0.  0.
<mgrwt>
<rscale>  0 0.50994458E+02</rscale>
<asrwt>0</asrwt>
<pdfrwt beam="1">  1       13 0.10000000E+01 0.50994458E+02</pdfrwt>
<pdfrwt beam="2">  1       22 0.95075177E-01 0.50994458E+02</pdfrwt>
<totfact> 0.15123156E+00</totfact>
</mgrwt>
</event>
<event>
 4    1  0.2503484E+000  0.5100054E+02  0.7957747E-01  0.1440018E+00
         13   -1    0    0    0    0  0.00000000000E+00  0.00000000000E+00  0.99999944182E+02  0.10000000000E+03  0.10566000000E+00 0.  1.
         22   -1    0    0    0    0 -0.00000000000E+00 -0.00000000000E+00 -0.10971652920E+02  0.10971652920E+02  0.00000000000E+00 0. -1.
         13    1    1    2    0    0  0.95238282263E+01  0.32174424931E+01  0.22278567298E+01  0.10297074824E+02  0.10566000000E+00 0. -1.
        996    1    1    2    0    0 -0.95238282263E+01 -0.32174424931E+01  0.86800434532E+02  0.10067457810E+03  0.50000000000E+02 0.  0.
<mgrwt>
<rscale>  0 0.51000542E+02</rscale>
<asrwt>0</asrwt>
<pdfrwt beam="1">  1       13 0.10000000E+01 0.51000542E+02</pdfrwt>
<pdfrwt beam="2">  1       22 0.10971678E+00 0.51000542E+02</pdfrwt>
<totfact> 0.12275676E+00</totfact>
</mgrwt>
</event>
<event>
 4    1  0.2503484E+000  0.6942501E+02  0.7957747E-01  0.1362059E+00
         13   -1    0    0    0    0  0.00000000000E+00  0.00000000000E+00  0.99999944183E+02  0.10000000000E+03  0.10566000000E+00 0.  1.
         22   -1    0    0    0    0 -0.00000000000E+00 -0.00000000000E+00 -0.52679645936E+02  0.52679645936E+02  0.00000000000E+00 0.  1.
         13    1    1    2    0    0 -0.13550357320E+02 -0.46219255488E+02 -0.23425702827E+02  0.53559373394E+02  0.10566000000E+00 0. -1.
        996    1    1    2    0    0  0.13550357320E+02  0.46219255488E+02  0.70746001075E+02  0.99120272545E+02  0.50000000000E+02 0.  0.
<mgrwt>
<rscale>  0 0.69425008E+02</rscale>
<asrwt>0</asrwt>
<pdfrwt beam="1">  1       13 0.10000000E+01 0.69425008E+02</pdfrwt>
<pdfrwt beam="2">  1       22 0.52679659E+00 0.69425008E+02</pdfrwt>
<totfact> 0.64474696E-02</totfact>
</mgrwt>
</event>
<event>
 4    1  0.2503484E+000  0.5273579E+02  0.7957747E-01  0.1431120E+00
         13   -1    0    0    0    0  0.00000000000E+00  0.00000000000E+00  0.99999944171E+02  0.99999999991E+02  0.10566000000E+00 0.  1.
         22   -1    0    0    0    0 -0.00000000000E+00 -0.00000000000E+00 -0.19333163808E+02  0.19333163808E+02  0.00000000000E+00 0. -1.
         13    1    1    2    0    0 -0.87379557748E+01 -0.14307741733E+02 -0.60638157255E+01  0.17828190312E+02  0.10566000000E+00 0. -1.
        996    1    1    2    0    0  0.87379557748E+01  0.14307741733E+02  0.86730596089E+02  0.10150497349E+03  0.50000000000E+02 0.  0.
<mgrwt>
<rscale>  0 0.52735788E+02</rscale>
<asrwt>0</asrwt>
<pdfrwt beam="1">  1       13 0.10000000E+01 0.52735788E+02</pdfrwt>
<pdfrwt beam="2">  1       22 0.19333186E+00 0.52735788E+02</pdfrwt>
<totfact> 0.48312411E-01</totfact>
</mgrwt>
</event>
<event>
 4    1  0.2503484E+000  0.5190655E+02  0.7957747E-01  0.1435321E+00
         13   -1    0    0    0    0  0.00000000000E+00  0.00000000000E+00  0.99999944173E+02  0.99999999993E+02  0.10566000000E+00 0. -1.
         22   -1    0    0    0    0 -0.00000000000E+00 -0.00000000000E+00 -0.12016282313E+02  0.12016282313E+02  0.00000000000E+00 0.  1.
         13    1    1    2    0    0  0.10987766351E+02  0.85766328562E+01  0.64429849707E+01  0.15356199396E+02  0.10566000000E+00 0.  1.
        996    1    1    2    0    0 -0.10987766351E+02 -0.85766328562E+01  0.81540676889E+02  0.96660082910E+02  0.50000000000E+02 0.  0.
<mgrwt>
<rscale>  0 0.51906547E+02</rscale>
<asrwt>0</asrwt>
<pdfrwt beam="1">  1       13 0.10000000E+01 0.51906547E+02</pdfrwt>
<pdfrwt beam="2">  1       22 0.12016307E+00 0.51906547E+02</pdfrwt>
<totfact> 0.10724843E+00</totfact>
</mgrwt>
</event>
<event>
 4    1  0.2503484E+000  0.7823243E+02  0.7957747E-01  0.1334144E+00
         13   -1    0    0    0    0  0.00000000000E+00  0.00000000000E+00  0.99999944178E+02  0.99999999999E+02  0.10566000000E+00 0. -1.
         22   -1    0    0    0    0 -0.00000000000E+00 -0.00000000000E+00 -0.49145590959E+02  0.49145590959E+02  0.00000000000E+00 0.  1.
         13    1    1    2    0    0  0.42994440762E+02 -0.42092641439E+02  0.10361300803E+02  0.61054730514E+02  0.10566000000E+00 0.  1.
        996    1    1    2    0    0 -0.42994440762E+02  0.42092641439E+02  0.40493052417E+02  0.88090860444E+02  0.50000000000E+02 0.  0.
<mgrwt>
<rscale>  0 0.78232426E+02</rscale>
<asrwt>0</asrwt>
<pdfrwt beam="1">  1       13 0.10000000E+01 0.78232426E+02</pdfrwt>
<pdfrwt beam="2">  1       22 0.49145605E+00 0.78232426E+02</pdfrwt>
<totfact> 0.77962235E-02</totfact>
</mgrwt>
</event>
<event>
 4    1  0.2503484E+000  0.5144847E+02  0.7957747E-01  0.1437682E+00
         13   -1    0    0    0    0  0.00000000000E+00  0.00000000000E+00  0.99999944182E+02  0.10000000000E+03  0.10566000000E+00 0. -1.
         22   -1    0    0    0    0 -0.00000000000E+00 -0.00000000000E+00 -0.21213478125E+02  0.21213478125E+02  0.00000000000E+00 0.  1.
         13    1    1    2    0    0 -0.96913238858E+01 -0.72816941163E+01 -0.11875958073E+02  0.16970396932E+02  0.10566000000E+00 0.  1.
        996    1    1    2    0    0  0.96913238858E+01  0.72816941163E+01  0.90662424129E+02  0.10424308119E+03  0.50000000000E+02 0.  0.
<mgrwt>
<rscale>  0 0.51448468E+02</rscale>
<asrwt>0</asrwt>
<pdfrwt beam="1">  1       13 0.10000000E+01 0.51448468E+02</pdfrwt>
<pdfrwt beam="2">  1       22 0.21213500E+00 0.51448468E+02</pdfrwt>
<totfact> 0.40509170E-01</totfact>
</mgrwt>
</event>
<event>
 4    1  0.2503484E+000  0.5109917E+02  0.7957747E-01  0.1439502E+00
         13   -1    0    0    0    0  0.00000000000E+00  0.00000000000E+00  0.99999944176E+02  0.99999999997E+02  0.10566000000E+00 0. -1.
         22   -1    0    0    0    0 -0.00000000000E+00 -0.00000000000E+00 -0.11130261676E+02  0.11130261676E+02  0.00000000000E+00 0.  1.
         13    1    1    2    0    0  0.10135371051E+02  0.28982289751E+01  0.25924677078E+01  0.10856220816E+02  0.10566000000E+00 0.  1.
        996    1    1    2    0    0 -0.10135371051E+02 -0.28982289751E+01  0.86277214792E+02  0.10027404086E+03  0.50000000000E+02 0.  0.
<mgrwt>
<rscale>  0 0.51099173E+02</rscale>
<asrwt>0</asrwt>
<pdfrwt beam="1">  1       13 0.10000000E+01 0.51099173E+02</pdfrwt>
<pdfrwt beam="2">  1       22 0.11130286E+00 0.51099173E+02</pdfrwt>
<totfact> 0.12018870E+00</totfact>
</mgrwt>
</event>
<event>
 4    1  0.2503484E+000  0.5415292E+02  0.7957747E-01  0.1424148E+00
         13   -1    0    0    0    0  0.00000000000E+00  0.00000000000E+00  0.99999944187E+02  0.10000000001E+03  0.10566000000E+00 0.  1.
         22   -1    0    0    0    0 -0.00000000000E+00 -0.00000000000E+00 -0.16924387460E+02  0.16924387460E+02  0.00000000000E+00 0.  1.
         13    1    1    2    0    0 -0.70716504060E+01  0.19558386465E+02  0.48245765092E+02  0.52537641115E+02  0.10566000000E+00 0. -1.
        996    1    1    2    0    0  0.70716504060E+01 -0.19558386465E+02  0.34829791635E+02  0.64386746353E+02  0.50000000000E+02 0.  0.
<mgrwt>
<rscale>  0 0.54152920E+02</rscale>
<asrwt>0</asrwt>
<pdfrwt beam="1">  1       13 0.10000000E+01 0.54152920E+02</pdfrwt>
<pdfrwt beam="2">  1       22 0.16924411E+00 0.54152920E+02</pdfrwt>
<totfact> 0.61525834E-01</totfact>
</mgrwt>
</event>
<event>
 4    1  0.2503484E+000  0.5485078E+02  0.7957747E-01  0.1420806E+00
         13   -1    0    0    0    0  0.00000000000E+00  0.00000000000E+00  0.99999944179E+02  0.99999999999E+02  0.10566000000E+00 0. -1.
         22   -1    0    0    0    0 -0.00000000000E+00 -0.00000000000E+00 -0.17260528442E+02  0.17260528442E+02  0.00000000000E+00 0.  1.
         13    1    1    2    0    0 -0.16523539022E+02  0.15348631839E+02  0.67465432701E+01  0.23540069058E+02  0.10566000000E+00 0.  1.
        996    1    1    2    0    0  0.16523539022E+02 -0.15348631839E+02  0.75992872466E+02  0.93720459382E+02  0.50000000000E+02 0.  0.
<mgrwt>
<rscale>  0 0.54850778E+02</rscale>
<asrwt>0</asrwt>
<pdfrwt beam="1">  1       13 0.10000000E+01 0.54850778E+02</pdfrwt>
<pdfrwt beam="2">  1       22 0.17260552E+00 0.54850778E+02</pdfrwt>
<totfact> 0.59511124E-01</totfact>
</mgrwt>
</event>
<event>
 4    1  0.2503484E+000  0.5485800E+02  0.7957747E-01  0.1420772E+00
         13   -1    0    0    0    0  0.00000000000E+00  0.00000000000E+00  0.99999944179E+02  0.99999999999E+02  0.10566000000E+00 0.  1.
         22   -1    0    0    0    0 -0.00000000000E+00 -0.00000000000E+00 -0.15855582891E+02  0.15855582891E+02  0.00000000000E+00 0.  1.
         13    1    1    2    0    0 -0.12737228608E+01  0.22533922119E+02  0.13099754367E+02  0.26096259205E+02  0.10566000000E+00 0. -1.
        996    1    1    2    0    0  0.12737228608E+01 -0.22533922119E+02  0.71044606921E+02  0.89759323686E+02  0.50000000000E+02 0.  0.
<mgrwt>
<rscale>  0 0.54857999E+02</rscale>
<asrwt>0</asrwt>
<pdfrwt beam="1">  1       13 0.10000000E+01 0.54857999E+02</pdfrwt>
<pdfrwt beam="2">  1       22 0.15855606E+00 0.54857999E+02</pdfrwt>
<totfact> 0.68958784E-01</totfact>
</mgrwt>
</event>
<event>
 4    1  0.2503484E+000  0.5112964E+02  0.7957747E-01  0.1439342E+00
         13   -1    0    0    0    0  0.00000000000E+00  0.00000000000E+00  0.99999944173E+02  0.99999999993E+02  0.10566000000E+00 0. -1.
         22   -1    0    0    0    0 -0.00000000000E+00 -0.00000000000E+00 -0.96007025952E+01  0.96007025952E+01  0.00000000000E+00 0. -1.
         13    1    1    2    0    0  0.97939030888E+01  0.42800934554E+01  0.12872247270E+02  0.16731576480E+02  0.10566000000E+00 0.  1.
        996    1    1    2    0    0 -0.97939030888E+01 -0.42800934554E+01  0.77526994308E+02  0.92869126108E+02  0.50000000000E+02 0.  0.
<mgrwt>
<rscale>  0 0.51129637E+02</rscale>
<asrwt>0</asrwt>
<pdfrwt beam="1">  1       13 0.10000000E+01 0.51129637E+02</pdfrwt>
<pdfrwt beam="2">  1       22 0.96007278E-01 0.51129637E+02</pdfrwt>
<totfact> 0.14918536E+00</totfact>
</mgrwt>
</event>
<event>
 4    1  0.2503484E+000  0.6925979E+02  0.7957747E-01  0.1362628E+00
         13   -1    0    0    0    0  0.00000000000E+00  0.00000000000E+00  0.99999944178E+02  0.99999999999E+02  0.10566000000E+00 0. -1.
         22   -1    0    0    0    0 -0.00000000000E+00 -0.00000000000E+00 -0.34480415313E+02  0.34480415313E+02  0.00000000000E+00 0.  1.
         13    1    1    2    0    0  0.15203119780E+02 -0.45450890550E+02  0.22475232467E+02  0.52934540154E+02  0.10566000000E+00 0.  1.
        996    1    1    2    0    0 -0.15203119780E+02  0.45450890550E+02  0.43044296398E+02  0.81545875158E+02  0.50000000000E+02 0.  0.
<mgrwt>
<rscale>  0 0.69259788E+02</rscale>
<asrwt>0</asrwt>
<pdfrwt beam="1">  1       13 0.10000000E+01 0.69259788E+02</pdfrwt>
<pdfrwt beam="2">  1       22 0.34480434E+00 0.69259788E+02</pdfrwt>
<totfact> 0.16386190E-01</totfact>
</mgrwt>
</event>
<event>
 4    1  0.2503484E+000  0.5146418E+02  0.7957747E-01  0.1437600E+00
         13   -1    0    0    0    0  0.00000000000E+00  0.00000000000E+00  0.99999944182E+02  0.10000000000E+03  0.10566000000E+00 0. -1.
         22   -1    0    0    0    0 -0.00000000000E+00 -0.00000000000E+00 -0.12724363366E+02  0.12724363366E+02  0.00000000000E+00 0. -1.
         13    1    1    2    0    0  0.81473249625E+01  0.90654977223E+01  0.95479719672E+00  0.12226403998E+02  0.10566000000E+00 0.  1.
        996    1    1    2    0    0 -0.81473249625E+01 -0.90654977223E+01  0.86320783620E+02  0.10049795937E+03  0.50000000000E+02 0.  0.
<mgrwt>
<rscale>  0 0.51464183E+02</rscale>
<asrwt>0</asrwt>
<pdfrwt beam="1">  1       13 0.10000000E+01 0.51464183E+02</pdfrwt>
<pdfrwt beam="2">  1       22 0.12724388E+00 0.51464183E+02</pdfrwt>
<totfact> 0.98058070E-01</totfact>
</mgrwt>
</event>
<event>
 4    1  0.2503484E+000  0.5273282E+02  0.7957747E-01  0.1431135E+00
         13   -1    0    0    0    0  0.00000000000E+00  0.00000000000E+00  0.99999944173E+02  0.99999999993E+02  0.10566000000E+00 0. -1.
         22   -1    0    0    0    0 -0.00000000000E+00 -0.00000000000E+00 -0.19591398834E+02  0.19591398834E+02  0.00000000000E+00 0.  1.
         13    1    1    2    0    0  0.15229849430E+02  0.69858457447E+01 -0.64698586676E+01  0.17961642176E+02  0.10566000000E+00 0.  1.
        996    1    1    2    0    0 -0.15229849430E+02 -0.69858457447E+01  0.86878404007E+02  0.10162975665E+03  0.50000000000E+02 0.  0.
<mgrwt>
<rscale>  0 0.52732820E+02</rscale>
<asrwt>0</asrwt>
<pdfrwt beam="1">  1       13 0.10000000E+01 0.52732820E+02</pdfrwt>
<pdfrwt beam="2">  1       22 0.19591421E+00 0.52732820E+02</pdfrwt>
<totfact> 0.47142025E-01</totfact>
</mgrwt>
</event>
<event>
 4    1  0.2503484E+000  0.5159031E+02  0.7957747E-01  0.1436948E+00
         13   -1    0    0    0    0  0.00000000000E+00  0.00000000000E+00  0.99999944178E+02  0.99999999999E+02  0.10566000000E+00 0.  1.
         22   -1    0    0    0    0 -0.00000000000E+00 -0.00000000000E+00 -0.37806715148E+02  0.37806715148E+02  0.00000000000E+00 0. -1.
         13    1    1    2    0    0 -0.11568823495E+02 -0.52652043705E+01 -0.29764923602E+02  0.32365442916E+02  0.10566000000E+00 0. -1.
        996    1    1    2    0    0  0.11568823495E+02  0.52652043705E+01  0.91958152632E+02  0.10544127223E+03  0.50000000000E+02 0.  0.
<mgrwt>
<rscale>  0 0.51590310E+02</rscale>
<asrwt>0</asrwt>
<pdfrwt beam="1">  1       13 0.10000000E+01 0.51590310E+02</pdfrwt>
<pdfrwt beam="2">  1       22 0.37806733E+00 0.51590310E+02</pdfrwt>
<totfact> 0.13714642E-01</totfact>
</mgrwt>
</event>
<event>
 4    1  0.2503484E+000  0.5220033E+02  0.7957747E-01  0.1433822E+00
         13   -1    0    0    0    0  0.00000000000E+00  0.00000000000E+00  0.99999944177E+02  0.99999999997E+02  0.10566000000E+00 0.  1.
         22   -1    0    0    0    0 -0.00000000000E+00 -0.00000000000E+00 -0.15303355275E+02  0.15303355275E+02  0.00000000000E+00 0. -1.
         13    1    1    2    0    0  0.38002860889E+01 -0.14506297703E+02 -0.92433106757E+00  0.15024659709E+02  0.10566000000E+00 0. -1.
        996    1    1    2    0    0 -0.38002860889E+01  0.14506297703E+02  0.85620919970E+02  0.10027869556E+03  0.50000000000E+02 0.  0.
<mgrwt>
<rscale>  0 0.52200334E+02</rscale>
<asrwt>0</asrwt>
<pdfrwt beam="1">  1       13 0.10000000E+01 0.52200334E+02</pdfrwt>
<pdfrwt beam="2">  1       22 0.15303379E+00 0.52200334E+02</pdfrwt>
<totfact> 0.72843498E-01</totfact>
</mgrwt>
</event>
<event>
 4    1  0.2503484E+000  0.5626434E+02  0.7957747E-01  0.1414213E+00
         13   -1    0    0    0    0  0.00000000000E+00  0.00000000000E+00  0.99999944185E+02  0.10000000001E+03  0.10566000000E+00 0.  1.
         22   -1    0    0    0    0 -0.00000000000E+00 -0.00000000000E+00 -0.21264573265E+02  0.21264573265E+02  0.00000000000E+00 0. -1.
         13    1    1    2    0    0 -0.23822482142E+02 -0.99078658749E+01  0.16823076281E+01  0.25855710870E+02  0.10566000000E+00 0. -1.
        996    1    1    2    0    0  0.23822482142E+02  0.99078658749E+01  0.77053063292E+02  0.95408862399E+02  0.50000000000E+02 0.  0.
<mgrwt>
<rscale>  0 0.56264344E+02</rscale>
<asrwt>0</asrwt>
<pdfrwt beam="1">  1       13 0.10000000E+01 0.56264344E+02</pdfrwt>
<pdfrwt beam="2">  1       22 0.21264595E+00 0.56264344E+02</pdfrwt>
<totfact> 0.40650893E-01</totfact>
</mgrwt>
</event>
<event>
 4    1  0.2503484E+000  0.7589398E+02  0.7957747E-01  0.1341125E+00
         13   -1    0    0    0    0  0.00000000000E+00  0.00000000000E+00  0.99999944184E+02  0.10000000000E+03  0.10566000000E+00 0.  1.
         22   -1    0    0    0    0 -0.00000000000E+00 -0.00000000000E+00 -0.83248501532E+02  0.83248501532E+02  0.00000000000E+00 0. -1.
         13    1    1    2    0    0  0.57089063168E+02  0.85708207871E+00 -0.54658345463E+02  0.79040759206E+02  0.10566000000E+00 0. -1.
        996    1    1    2    0    0 -0.57089063168E+02 -0.85708207871E+00  0.71409788114E+02  0.10420774233E+03  0.50000000000E+02 0.  0.
<mgrwt>
<rscale>  0 0.75893977E+02</rscale>
<asrwt>0</asrwt>
<pdfrwt beam="1">  1       13 0.10000000E+01 0.75893977E+02</pdfrwt>
<pdfrwt beam="2">  1       22 0.83248506E+00 0.75893977E+02</pdfrwt>
<totfact> 0.22680103E-02</totfact>
</mgrwt>
</event>
<event>
 4    1  0.2503484E+000  0.5136463E+02  0.7957747E-01  0.1438117E+00
         13   -1    0    0    0    0  0.00000000000E+00  0.00000000000E+00  0.99999944180E+02  0.10000000000E+03  0.10566000000E+00 0.  1.
         22   -1    0    0    0    0 -0.00000000000E+00 -0.00000000000E+00 -0.10122166582E+02  0.10122166582E+02  0.00000000000E+00 0.  1.
         13    1    1    2    0    0  0.10990247376E+02 -0.41880689375E+01  0.22607423804E+02  0.25483960326E+02  0.10566000000E+00 0. -1.
        996    1    1    2    0    0 -0.10990247376E+02  0.41880689375E+01  0.67270353794E+02  0.84638206257E+02  0.50000000000E+02 0.  0.
<mgrwt>
<rscale>  0 0.51364632E+02</rscale>
<asrwt>0</asrwt>
<pdfrwt beam="1">  1       13 0.10000000E+01 0.51364632E+02</pdfrwt>
<pdfrwt beam="2">  1       22 0.10122192E+00 0.51364632E+02</pdfrwt>
<totfact> 0.13830492E+00</totfact>
</mgrwt>
</event>
<event>
 4    1  0.2503484E+000  0.5133456E+02  0.7957747E-01  0.1438273E+00
         13   -1    0    0    0    0  0.00000000000E+00  0.00000000000E+00  0.99999944177E+02  0.99999999998E+02  0.10566000000E+00 0. -1.
         22   -1    0    0    0    0 -0.00000000000E+00 -0.00000000000E+00 -0.15793141801E+02  0.15793141801E+02  0.00000000000E+00 0.  1.
         13    1    1    2    0    0 -0.10562240132E+02  0.48657888817E+01 -0.51668647471E+01  0.12725740583E+02  0.10566000000E+00 0.  1.
        996    1    1    2    0    0  0.10562240132E+02 -0.48657888817E+01  0.89373667124E+02  0.10306740121E+03  0.50000000000E+02 0.  0.
<mgrwt>
<rscale>  0 0.51334558E+02</rscale>
<asrwt>0</asrwt>
<pdfrwt beam="1">  1       13 0.10000000E+01 0.51334558E+02</pdfrwt>
<pdfrwt beam="2">  1       22 0.15793165E+00 0.51334558E+02</pdfrwt>
<totfact> 0.68947292E-01</totfact>
</mgrwt>
</event>
<event>
 4    1  0.2503484E+000  0.5154692E+02  0.7957747E-01  0.1437172E+00
         13   -1    0    0    0    0  0.00000000000E+00  0.00000000000E+00  0.99999944180E+02  0.10000000000E+03  0.10566000000E+00 0. -1.
         22   -1    0    0    0    0 -0.00000000000E+00 -0.00000000000E+00 -0.14156390044E+02  0.14156390044E+02  0.00000000000E+00 0.  1.
         13    1    1    2    0    0  0.54188772432E+01 -0.11301377719E+02 -0.16150707755E+01  0.12637443831E+02  0.10566000000E+00 0.  1.
        996    1    1    2    0    0 -0.54188772432E+01  0.11301377719E+02  0.87458624911E+02  0.10151894621E+03  0.50000000000E+02 0.  0.
<mgrwt>
<rscale>  0 0.51546924E+02</rscale>
<asrwt>0</asrwt>
<pdfrwt beam="1">  1       13 0.10000000E+01 0.51546924E+02</pdfrwt>
<pdfrwt beam="2">  1       22 0.14156414E+00 0.51546924E+02</pdfrwt>
<totfact> 0.82740943E-01</totfact>
</mgrwt>
</event>
<event>
 4    1  0.2503484E+000  0.5291943E+02  0.7957747E-01  0.1430202E+00
         13   -1    0    0    0    0  0.00000000000E+00  0.00000000000E+00  0.99999944179E+02  0.10000000000E+03  0.10566000000E+00 0.  1.
         22   -1    0    0    0    0 -0.00000000000E+00 -0.00000000000E+00 -0.12366416463E+02  0.12366416463E+02  0.00000000000E+00 0.  1.
         13    1    1    2    0    0 -0.15011270105E+02  0.86676336312E+01  0.23956366441E+02  0.29569997633E+02  0.10566000000E+00 0. -1.
        996    1    1    2    0    0  0.15011270105E+02 -0.86676336312E+01  0.63677161275E+02  0.82796418830E+02  0.50000000000E+02 0.  0.
<mgrwt>
<rscale>  0 0.52919430E+02</rscale>
<asrwt>0</asrwt>
<pdfrwt beam="1">  1       13 0.10000000E+01 0.52919430E+02</pdfrwt>
<pdfrwt beam="2">  1       22 0.12366441E+00 0.52919430E+02</pdfrwt>
<totfact> 0.10283585E+00</totfact>
</mgrwt>
</event>
<event>
 4    1  0.2503484E+000  0.5331783E+02  0.7957747E-01  0.1428226E+00
         13   -1    0    0    0    0  0.00000000000E+00  0.00000000000E+00  0.99999944176E+02  0.99999999996E+02  0.10566000000E+00 0. -1.
         22   -1    0    0    0    0 -0.00000000000E+00 -0.00000000000E+00 -0.15416487195E+02  0.15416487195E+02  0.00000000000E+00 0.  1.
         13    1    1    2    0    0 -0.12649647589E+02 -0.13519518839E+02  0.42451451304E+01  0.18995351931E+02  0.10566000000E+00 0.  1.
        996    1    1    2    0    0  0.12649647589E+02  0.13519518839E+02  0.80338311851E+02  0.96421135260E+02  0.50000000000E+02 0.  0.
<mgrwt>
<rscale>  0 0.53317830E+02</rscale>
<asrwt>0</asrwt>
<pdfrwt beam="1">  1       13 0.10000000E+01 0.53317830E+02</pdfrwt>
<pdfrwt beam="2">  1       22 0.15416511E+00 0.53317830E+02</pdfrwt>
<totfact> 0.72107212E-01</totfact>
</mgrwt>
</event>
<event>
 4    1  0.2503484E+000  0.5144158E+02  0.7957747E-01  0.1437718E+00
         13   -1    0    0    0    0  0.00000000000E+00  0.00000000000E+00  0.99999944183E+02  0.10000000000E+03  0.10566000000E+00 0. -1.
         22   -1    0    0    0    0 -0.00000000000E+00 -0.00000000000E+00 -0.19570516975E+02  0.19570516975E+02  0.00000000000E+00 0.  1.
         13    1    1    2    0    0  0.11411137050E+02 -0.40027238182E+01 -0.98944129883E+01  0.15625185412E+02  0.10566000000E+00 0.  1.
        996    1    1    2    0    0 -0.11411137050E+02  0.40027238182E+01  0.90323840196E+02  0.10394533157E+03  0.50000000000E+02 0.  0.
<mgrwt>
<rscale>  0 0.51441577E+02</rscale>
<asrwt>0</asrwt>
<pdfrwt beam="1">  1       13 0.10000000E+01 0.51441577E+02</pdfrwt>
<pdfrwt beam="2">  1       22 0.19570539E+00 0.51441577E+02</pdfrwt>
<totfact> 0.47124818E-01</totfact>
</mgrwt>
</event>
<event>
 4    1  0.2503484E+000  0.6042575E+02  0.7957747E-01  0.1396054E+00
         13   -1    0    0    0    0  0.00000000000E+00  0.00000000000E+00  0.99999944168E+02  0.99999999988E+02  0.10566000000E+00 0.  1.
         22   -1    0    0    0    0 -0.00000000000E+00 -0.00000000000E+00 -0.26170534314E+02  0.26170534314E+02  0.00000000000E+00 0. -1.
         13    1    1    2    0    0  0.33820908154E+02  0.27235203823E+01  0.45380069705E+01  0.34232675369E+02  0.10566000000E+00 0. -1.
        996    1    1    2    0    0 -0.33820908154E+02 -0.27235203823E+01  0.69291402884E+02  0.91937858933E+02  0.50000000000E+02 0.  0.
<mgrwt>
<rscale>  0 0.60425751E+02</rscale>
<asrwt>0</asrwt>
<pdfrwt beam="1">  1       13 0.10000000E+01 0.60425751E+02</pdfrwt>
<pdfrwt beam="2">  1       22 0.26170555E+00 0.60425751E+02</pdfrwt>
<totfact> 0.27260184E-01</totfact>
</mgrwt>
</event>
<event>
 4    1  0.2503484E+000  0.5196304E+02  0.7957747E-01  0.1435032E+00
         13   -1    0    0    0    0  0.00000000000E+00  0.00000000000E+00  0.99999944178E+02  0.99999999998E+02  0.10566000000E+00 0.  1.
         22   -1    0    0    0    0 -0.00000000000E+00 -0.00000000000E+00 -0.14745950415E+02  0.14745950415E+02  0.00000000000E+00 0. -1.
         13    1    1    2    0    0  0.14133161104E+02 -0.64164537475E+00 -0.85399970935E+00  0.14173864368E+02  0.10566000000E+00 0. -1.
        996    1    1    2    0    0 -0.14133161104E+02  0.64164537475E+00  0.86107993473E+02  0.10057208605E+03  0.50000000000E+02 0.  0.
<mgrwt>
<rscale>  0 0.51963044E+02</rscale>
<asrwt>0</asrwt>
<pdfrwt beam="1">  1       13 0.10000000E+01 0.51963044E+02</pdfrwt>
<pdfrwt beam="2">  1       22 0.14745974E+00 0.51963044E+02</pdfrwt>
<totfact> 0.77451309E-01</totfact>
</mgrwt>
</event>
<event>
 4    1  0.2503484E+000  0.5441238E+02  0.7957747E-01  0.1422898E+00
         13   -1    0    0    0    0  0.00000000000E+00  0.00000000000E+00  0.99999944180E+02  0.10000000000E+03  0.10566000000E+00 0.  1.
         22   -1    0    0    0    0 -0.00000000000E+00 -0.00000000000E+00 -0.18348974229E+02  0.18348974229E+02  0.00000000000E+00 0. -1.
         13    1    1    2    0    0 -0.20425533501E+02 -0.65958351347E+01  0.15573238637E+01  0.21520777904E+02  0.10566000000E+00 0. -1.
        996    1    1    2    0    0  0.20425533501E+02  0.65958351347E+01  0.80093646087E+02  0.96828196325E+02  0.50000000000E+02 0.  0.
<mgrwt>
<rscale>  0 0.54412383E+02</rscale>
<asrwt>0</asrwt>
<pdfrwt beam="1">  1       13 0.10000000E+01 0.54412383E+02</pdfrwt>
<pdfrwt beam="2">  1       22 0.18348997E+00 0.54412383E+02</pdfrwt>
<totfact> 0.53308640E-01</totfact>
</mgrwt>
</event>
<event>
 4    1  0.2503484E+000  0.5219649E+02  0.7957747E-01  0.1433842E+00
         13   -1    0    0    0    0  0.00000000000E+00  0.00000000000E+00  0.99999944176E+02  0.99999999996E+02  0.10566000000E+00 0. -1.
         22   -1    0    0    0    0 -0.00000000000E+00 -0.00000000000E+00 -0.26267715819E+02  0.26267715819E+02  0.00000000000E+00 0.  1.
         13    1    1    2    0    0  0.13184814019E+02  0.71157378907E+01 -0.16336977298E+02  0.22167116134E+02  0.10566000000E+00 0.  1.
        996    1    1    2    0    0 -0.13184814019E+02 -0.71157378907E+01  0.90069205655E+02  0.10410059968E+03  0.50000000000E+02 0.  0.
<mgrwt>
<rscale>  0 0.52196485E+02</rscale>
<asrwt>0</asrwt>
<pdfrwt beam="1">  1       13 0.10000000E+01 0.52196485E+02</pdfrwt>
<pdfrwt beam="2">  1       22 0.26267736E+00 0.52196485E+02</pdfrwt>
<totfact> 0.26753768E-01</totfact>
</mgrwt>
</event>
<event>
 4    1  0.2503484E+000  0.5546632E+02  0.7957747E-01  0.1417906E+00
         13   -1    0    0    0    0  0.00000000000E+00  0.00000000000E+00  0.99999944176E+02  0.99999999996E+02  0.10566000000E+00 0.  1.
         22   -1    0    0    0    0 -0.00000000000E+00 -0.00000000000E+00 -0.19317999969E+02  0.19317999969E+02  0.00000000000E+00 0.  1.
         13    1    1    2    0    0 -0.12298796966E+02 -0.20621643862E+02  0.51091242565E+02  0.56452093258E+02  0.10566000000E+00 0. -1.
        996    1    1    2    0    0  0.12298796966E+02  0.20621643862E+02  0.29590701641E+02  0.62865906707E+02  0.50000000000E+02 0.  0.
<mgrwt>
<rscale>  0 0.55466320E+02</rscale>
<asrwt>0</asrwt>
<pdfrwt beam="1">  1       13 0.10000000E+01 0.55466320E+02</pdfrwt>
<pdfrwt beam="2">  1       22 0.19318022E+00 0.55466320E+02</pdfrwt>
<totfact> 0.48614156E-01</totfact>
</mgrwt>
</event>
<event>
 4    1  0.2503484E+000  0.5420102E+02  0.7957747E-01  0.1423916E+00
         13   -1    0    0    0    0  0.00000000000E+00  0.00000000000E+00  0.99999944182E+02  0.10000000000E+03  0.10566000000E+00 0. -1.
         22   -1    0    0    0    0 -0.00000000000E+00 -0.00000000000E+00 -0.16555938642E+02  0.16555938642E+02  0.00000000000E+00 0. -1.
         13    1    1    2    0    0 -0.18595644523E+02  0.95891846420E+01  0.46417698034E+02  0.50915266003E+02  0.10566000000E+00 0.  1.
        996    1    1    2    0    0  0.18595644523E+02 -0.95891846420E+01  0.37026307505E+02  0.65640672641E+02  0.50000000000E+02 0.  0.
<mgrwt>
<rscale>  0 0.54201019E+02</rscale>
<asrwt>0</asrwt>
<pdfrwt beam="1">  1       13 0.10000000E+01 0.54201019E+02</pdfrwt>
<pdfrwt beam="2">  1       22 0.16555962E+00 0.54201019E+02</pdfrwt>
<totfact> 0.63937934E-01</totfact>
</mgrwt>
</event>
<event>
 4    1  0.2503484E+000  0.5197914E+02  0.7957747E-01  0.1434950E+00
         13   -1    0    0    0    0  0.00000000000E+00  0.00000000000E+00  0.99999944178E+02  0.99999999998E+02  0.10566000000E+00 0. -1.
         22   -1    0    0    0    0 -0.00000000000E+00 -0.00000000000E+00 -0.13279957235E+02  0.13279957235E+02  0.00000000000E+00 0. -1.
         13    1    1    2    0    0 -0.11939590929E+02  0.76991837639E+01  0.26701940102E+01  0.14455876392E+02  0.10566000000E+00 0.  1.
        996    1    1    2    0    0  0.11939590929E+02 -0.76991837639E+01  0.84049792932E+02  0.98824080841E+02  0.50000000000E+02 0.  0.
<mgrwt>
<rscale>  0 0.51979143E+02</rscale>
<asrwt>0</asrwt>
<pdfrwt beam="1">  1       13 0.10000000E+01 0.51979143E+02</pdfrwt>
<pdfrwt beam="2">  1       22 0.13279981E+00 0.51979143E+02</pdfrwt>
<totfact> 0.91776702E-01</totfact>
</mgrwt>
</event>
<event>
 4    1  0.2503484E+000  0.5501108E+02  0.7957747E-01  0.1420046E+00
         13   -1    0    0    0    0  0.00000000000E+00  0.00000000000E+00  0.99999944169E+02  0.99999999989E+02  0.10566000000E+00 0. -1.
         22   -1    0    0    0    0 -0.00000000000E+00 -0.00000000000E+00 -0.18035639336E+02  0.18035639336E+02  0.00000000000E+00 0.  1.
         13    1    1    2    0    0 -0.13296376808E+02  0.18692924797E+02  0.50761904825E+01  0.23494636569E+02  0.10566000000E+00 0.  1.
        996    1    1    2    0    0  0.13296376808E+02 -0.18692924797E+02  0.76888114351E+02  0.94541002756E+02  0.50000000000E+02 0.  0.
<mgrwt>
<rscale>  0 0.55011081E+02</rscale>
<asrwt>0</asrwt>
<pdfrwt beam="1">  1       13 0.10000000E+01 0.55011081E+02</pdfrwt>
<pdfrwt beam="2">  1       22 0.18035662E+00 0.55011081E+02</pdfrwt>
<totfact> 0.55048340E-01</totfact>
</mgrwt>
</event>
<event>
 4    1  0.2503484E+000  0.5634341E+02  0.7957747E-01  0.1413851E+00
         13   -1    0    0    0    0  0.00000000000E+00  0.00000000000E+00  0.99999944174E+02  0.99999999995E+02  0.10566000000E+00 0. -1.
         22   -1    0    0    0    0 -0.00000000000E+00 -0.00000000000E+00 -0.16969116757E+02  0.16969116757E+02  0.00000000000E+00 0. -1.
         13    1    1    2    0    0 -0.17239233366E+02  0.19426483795E+02  0.23969045571E+02  0.35342690182E+02  0.10566000000E+00 0.  1.
        996    1    1    2    0    0  0.17239233366E+02 -0.19426483795E+02  0.59061781846E+02  0.81626426569E+02  0.50000000000E+02 0.  0.
<mgrwt>
<rscale>  0 0.56343406E+02</rscale>
<asrwt>0</asrwt>
<pdfrwt beam="1">  1       13 0.10000000E+01 0.56343406E+02</pdfrwt>
<pdfrwt beam="2">  1       22 0.16969140E+00 0.56343406E+02</pdfrwt>
<totfact> 0.61486013E-01</totfact>
</mgrwt>
</event>
<event>
 4    1  0.2503484E+000  0.5233280E+02  0.7957747E-01  0.1433150E+00
         13   -1    0    0    0    0  0.00000000000E+00  0.00000000000E+00  0.99999944184E+02  0.10000000000E+03  0.10566000000E+00 0. -1.
         22   -1    0    0    0    0 -0.00000000000E+00 -0.00000000000E+00 -0.17054628272E+02  0.17054628272E+02  0.00000000000E+00 0. -1.
         13    1    1    2    0    0  0.15241639160E+02  0.25325634514E+01 -0.36481582957E+01  0.15875820133E+02  0.10566000000E+00 0.  1.
        996    1    1    2    0    0 -0.15241639160E+02 -0.25325634514E+01  0.86593474208E+02  0.10117880814E+03  0.50000000000E+02 0.  0.
<mgrwt>
<rscale>  0 0.52332795E+02</rscale>
<asrwt>0</asrwt>
<pdfrwt beam="1">  1       13 0.10000000E+01 0.52332795E+02</pdfrwt>
<pdfrwt beam="2">  1       22 0.17054651E+00 0.52332795E+02</pdfrwt>
<totfact> 0.60496239E-01</totfact>
</mgrwt>
</event>
<event>
 4    1  0.2503484E+000  0.5173575E+02  0.7957747E-01  0.1436198E+00
         13   -1    0    0    0    0  0.00000000000E+00  0.00000000000E+00  0.99999944176E+02  0.99999999996E+02  0.10566000000E+00 0.  1.
         22   -1    0    0    0    0 -0.00000000000E+00 -0.00000000000E+00 -0.14948949541E+02  0.14948949541E+02  0.00000000000E+00 0. -1.
         13    1    1    2    0    0  0.42321431718E+01  0.12596679187E+02 -0.22416913180E+01  0.13476783977E+02  0.10566000000E+00 0. -1.
        996    1    1    2    0    0 -0.42321431718E+01 -0.12596679187E+02  0.87292685953E+02  0.10147216556E+03  0.50000000000E+02 0.  0.
<mgrwt>
<rscale>  0 0.51735745E+02</rscale>
<asrwt>0</asrwt>
<pdfrwt beam="1">  1       13 0.10000000E+01 0.51735745E+02</pdfrwt>
<pdfrwt beam="2">  1       22 0.14948973E+00 0.51735745E+02</pdfrwt>
<totfact> 0.75679702E-01</totfact>
</mgrwt>
</event>
<event>
 4    1  0.2503484E+000  0.5118531E+02  0.7957747E-01  0.1439051E+00
         13   -1    0    0    0    0  0.00000000000E+00  0.00000000000E+00  0.99999944176E+02  0.99999999996E+02  0.10566000000E+00 0. -1.
         22   -1    0    0    0    0 -0.00000000000E+00 -0.00000000000E+00 -0.14750525543E+02  0.14750525543E+02  0.00000000000E+00 0. -1.
         13    1    1    2    0    0  0.79774714759E+01  0.75030825540E+01 -0.41688665638E+01  0.11718656554E+02  0.10566000000E+00 0.  1.
        996    1    1    2    0    0 -0.79774714759E+01 -0.75030825540E+01  0.89418285197E+02  0.10303186899E+03  0.50000000000E+02 0.  0.
<mgrwt>
<rscale>  0 0.51185313E+02</rscale>
<asrwt>0</asrwt>
<pdfrwt beam="1">  1       13 0.10000000E+01 0.51185313E+02</pdfrwt>
<pdfrwt beam="2">  1       22 0.14750549E+00 0.51185313E+02</pdfrwt>
<totfact> 0.77286737E-01</totfact>
</mgrwt>
</event>
<event>
 4    1  0.2503484E+000  0.5137360E+02  0.7957747E-01  0.1438070E+00
         13   -1    0    0    0    0  0.00000000000E+00  0.00000000000E+00  0.99999944183E+02  0.10000000000E+03  0.10566000000E+00 0. -1.
         22   -1    0    0    0    0 -0.00000000000E+00 -0.00000000000E+00 -0.54125506107E+02  0.54125506107E+02  0.00000000000E+00 0.  1.
         13    1    1    2    0    0 -0.10983453281E+02 -0.43139404095E+01 -0.46745414053E+02  0.48211940708E+02  0.10566000000E+00 0.  1.
        996    1    1    2    0    0  0.10983453281E+02  0.43139404095E+01  0.92619852129E+02  0.10591356540E+03  0.50000000000E+02 0.  0.
<mgrwt>
<rscale>  0 0.51373596E+02</rscale>
<asrwt>0</asrwt>
<pdfrwt beam="1">  1       13 0.10000000E+01 0.51373596E+02</pdfrwt>
<pdfrwt beam="2">  1       22 0.54125519E+00 0.51373596E+02</pdfrwt>
<totfact> 0.60349405E-02</totfact>
</mgrwt>
</event>
<event>
 4    1  0.2503484E+000  0.5105735E+02  0.7957747E-01  0.1439721E+00
         13   -1    0    0    0    0  0.00000000000E+00  0.00000000000E+00  0.99999944184E+02  0.10000000000E+03  0.10566000000E+00 0.  1.
         22   -1    0    0    0    0 -0.00000000000E+00 -0.00000000000E+00 -0.12281877544E+02  0.12281877544E+02  0.00000000000E+00 0.  1.
         13    1    1    2    0    0 -0.96155992983E+01  0.37937934912E+01 -0.50490297754E+00  0.10349816905E+02  0.10566000000E+00 0. -1.
        996    1    1    2    0    0  0.96155992983E+01 -0.37937934912E+01  0.88222969617E+02  0.10193206064E+03  0.50000000000E+02 0.  0.
<mgrwt>
<rscale>  0 0.51057346E+02</rscale>
<asrwt>0</asrwt>
<pdfrwt beam="1">  1       13 0.10000000E+01 0.51057346E+02</pdfrwt>
<pdfrwt beam="2">  1       22 0.12281902E+00 0.51057346E+02</pdfrwt>
<totfact> 0.10350490E+00</totfact>
</mgrwt>
</event>
<event>
 4    1  0.2503484E+000  0.5115621E+02  0.7957747E-01  0.1439203E+00
         13   -1    0    0    0    0  0.00000000000E+00  0.00000000000E+00  0.99999944185E+02  0.10000000001E+03  0.10566000000E+00 0. -1.
         22   -1    0    0    0    0 -0.00000000000E+00 -0.00000000000E+00 -0.24765427757E+02  0.24765427757E+02  0.00000000000E+00 0.  1.
         13    1    1    2    0    0 -0.29398948109E+01  0.10407461816E+02 -0.16501520541E+02  0.19729916045E+02  0.10566000000E+00 0.  1.
        996    1    1    2    0    0  0.29398948109E+01 -0.10407461816E+02  0.91736036969E+02  0.10503551172E+03  0.50000000000E+02 0.  0.
<mgrwt>
<rscale>  0 0.51156214E+02</rscale>
<asrwt>0</asrwt>
<pdfrwt beam="1">  1       13 0.10000000E+01 0.51156214E+02</pdfrwt>
<pdfrwt beam="2">  1       22 0.24765449E+00 0.51156214E+02</pdfrwt>
<totfact> 0.29990590E-01</totfact>
</mgrwt>
</event>
<event>
 4    1  0.2503484E+000  0.5170187E+02  0.7957747E-01  0.1436372E+00
         13   -1    0    0    0    0  0.00000000000E+00  0.00000000000E+00  0.99999944185E+02  0.10000000001E+03  0.10566000000E+00 0.  1.
         22   -1    0    0    0    0 -0.00000000000E+00 -0.00000000000E+00 -0.11731397073E+02  0.11731397073E+02  0.00000000000E+00 0.  1.
         13    1    1    2    0    0  0.11026370068E+02  0.71765265549E+01  0.57597553971E+01  0.14362079116E+02  0.10566000000E+00 0. -1.
        996    1    1    2    0    0 -0.11026370068E+02 -0.71765265549E+01  0.82508791715E+02  0.97369317963E+02  0.50000000000E+02 0.  0.
<mgrwt>
<rscale>  0 0.51701870E+02</rscale>
<asrwt>0</asrwt>
<pdfrwt beam="1">  1       13 0.10000000E+01 0.51701870E+02</pdfrwt>
<pdfrwt beam="2">  1       22 0.11731422E+00 0.51701870E+02</pdfrwt>
<totfact> 0.11119523E+00</totfact>
</mgrwt>
</event>
<event>
 4    1  0.2503484E+000  0.5246246E+02  0.7957747E-01  0.1432495E+00
         13   -1    0    0    0    0  0.00000000000E+00  0.00000000000E+00  0.99999944176E+02  0.99999999996E+02  0.10566000000E+00 0.  1.
         22   -1    0    0    0    0 -0.00000000000E+00 -0.00000000000E+00 -0.11684379214E+02  0.11684379214E+02  0.00000000000E+00 0. -1.
         13    1    1    2    0    0  0.15187105770E+02 -0.46542054036E+01  0.19460165415E+02  0.25120091792E+02  0.10566000000E+00 0. -1.
        996    1    1    2    0    0 -0.15187105770E+02  0.46542054036E+01  0.68855399546E+02  0.86564287418E+02  0.50000000000E+02 0.  0.
<mgrwt>
<rscale>  0 0.52462461E+02</rscale>
<asrwt>0</asrwt>
<pdfrwt beam="1">  1       13 0.10000000E+01 0.52462461E+02</pdfrwt>
<pdfrwt beam="2">  1       22 0.11684404E+00 0.52462461E+02</pdfrwt>
<totfact> 0.11206673E+00</totfact>
</mgrwt>
</event>
<event>
 4    1  0.2503484E+000  0.5304388E+02  0.7957747E-01  0.1429583E+00
         13   -1    0    0    0    0  0.00000000000E+00  0.00000000000E+00  0.99999944187E+02  0.10000000001E+03  0.10566000000E+00 0. -1.
         22   -1    0    0    0    0 -0.00000000000E+00 -0.00000000000E+00 -0.47258180267E+02  0.47258180267E+02  0.00000000000E+00 0.  1.
         13    1    1    2    0    0 -0.17673669423E+02 -0.11377295659E+01 -0.38127411944E+02  0.42040025274E+02  0.10566000000E+00 0.  1.
        996    1    1    2    0    0  0.17673669423E+02  0.11377295659E+01  0.90869175864E+02  0.10521815500E+03  0.50000000000E+02 0.  0.
<mgrwt>
<rscale>  0 0.53043878E+02</rscale>
<asrwt>0</asrwt>
<pdfrwt beam="1">  1       13 0.10000000E+01 0.53043878E+02</pdfrwt>
<pdfrwt beam="2">  1       22 0.47258195E+00 0.53043878E+02</pdfrwt>
<totfact> 0.85714075E-02</totfact>
</mgrwt>
</event>
<event>
 4    1  0.2503484E+000  0.5926293E+02  0.7957747E-01  0.1400951E+00
         13   -1    0    0    0    0  0.00000000000E+00  0.00000000000E+00  0.99999944181E+02  0.10000000000E+03  0.10566000000E+00 0. -1.
         22   -1    0    0    0    0 -0.00000000000E+00 -0.00000000000E+00 -0.57807425884E+02  0.57807425884E+02  0.00000000000E+00 0.  1.
         13    1    1    2    0    0  0.31801790487E+02  0.86081697358E+00 -0.43332128553E+02  0.53756668545E+02  0.10566000000E+00 0.  1.
        996    1    1    2    0    0 -0.31801790487E+02 -0.86081697358E+00  0.85524646851E+02  0.10405075734E+03  0.50000000000E+02 0.  0.
<mgrwt>
<rscale>  0 0.59262930E+02</rscale>
<asrwt>0</asrwt>
<pdfrwt beam="1">  1       13 0.10000000E+01 0.59262930E+02</pdfrwt>
<pdfrwt beam="2">  1       22 0.57807438E+00 0.59262930E+02</pdfrwt>
<totfact> 0.58124956E-02</totfact>
</mgrwt>
</event>
<event>
 4    1  0.2503484E+000  0.5178291E+02  0.7957747E-01  0.1435956E+00
         13   -1    0    0    0    0  0.00000000000E+00  0.00000000000E+00  0.99999944182E+02  0.10000000000E+03  0.10566000000E+00 0.  1.
         22   -1    0    0    0    0 -0.00000000000E+00 -0.00000000000E+00 -0.28193753716E+02  0.28193753716E+02  0.00000000000E+00 0. -1.
         13    1    1    2    0    0  0.43480597961E+01  0.12750080294E+02 -0.19218894594E+02  0.23470135171E+02  0.10566000000E+00 0. -1.
        996    1    1    2    0    0 -0.43480597961E+01 -0.12750080294E+02  0.91025085060E+02  0.10472361855E+03  0.50000000000E+02 0.  0.
<mgrwt>
<rscale>  0 0.51782914E+02</rscale>
<asrwt>0</asrwt>
<pdfrwt beam="1">  1       13 0.10000000E+01 0.51782914E+02</pdfrwt>
<pdfrwt beam="2">  1       22 0.28193774E+00 0.51782914E+02</pdfrwt>
<totfact> 0.23290981E-01</totfact>
</mgrwt>
</event>
<event>
 4    1  0.2503484E+000  0.5628304E+02  0.7957747E-01  0.1414127E+00
         13   -1    0    0    0    0  0.00000000000E+00  0.00000000000E+00  0.99999944175E+02  0.99999999995E+02  0.10566000000E+00 0.  1.
         22   -1    0    0    0    0 -0.00000000000E+00 -0.00000000000E+00 -0.20416535117E+02  0.20416535117E+02  0.00000000000E+00 0. -1.
         13    1    1    2    0    0  0.12547462973E+02  0.22590738362E+02  0.51267306575E+02  0.57411916657E+02  0.10566000000E+00 0. -1.
        996    1    1    2    0    0 -0.12547462973E+02 -0.22590738362E+02  0.28316102482E+02  0.63004618455E+02  0.50000000000E+02 0.  0.
<mgrwt>
<rscale>  0 0.56283037E+02</rscale>
<asrwt>0</asrwt>
<pdfrwt beam="1">  1       13 0.10000000E+01 0.56283037E+02</pdfrwt>
<pdfrwt beam="2">  1       22 0.20416557E+00 0.56283037E+02</pdfrwt>
<totfact> 0.43911711E-01</totfact>
</mgrwt>
</event>
<event>
 4    1  0.2503484E+000  0.5741997E+02  0.7957747E-01  0.1408989E+00
         13   -1    0    0    0    0  0.00000000000E+00  0.00000000000E+00  0.99999944190E+02  0.10000000001E+03  0.10566000000E+00 0. -1.
         22   -1    0    0    0    0 -0.00000000000E+00 -0.00000000000E+00 -0.71852785756E+02  0.71852785756E+02  0.00000000000E+00 0.  1.
         13    1    1    2    0    0 -0.12607731640E+02  0.25260606018E+02 -0.60196601848E+02  0.66488308382E+02  0.10566000000E+00 0.  1.
        996    1    1    2    0    0  0.12607731640E+02 -0.25260606018E+02  0.88343760282E+02  0.10536447738E+03  0.50000000000E+02 0.  0.
<mgrwt>
<rscale>  0 0.57419971E+02</rscale>
<asrwt>0</asrwt>
<pdfrwt beam="1">  1       13 0.10000000E+01 0.57419971E+02</pdfrwt>
<pdfrwt beam="2">  1       22 0.71852794E+00 0.57419971E+02</pdfrwt>
<totfact> 0.64833145E-02</totfact>
</mgrwt>
</event>
<event>
 4    1  0.2503484E+000  0.5535502E+02  0.7957747E-01  0.1418427E+00
         13   -1    0    0    0    0  0.00000000000E+00  0.00000000000E+00  0.99999944174E+02  0.99999999994E+02  0.10566000000E+00 0. -1.
         22   -1    0    0    0    0 -0.00000000000E+00 -0.00000000000E+00 -0.39821429292E+02  0.39821429292E+02  0.00000000000E+00 0.  1.
         13    1    1    2    0    0  0.21349524516E+02 -0.10410393055E+02 -0.27370845453E+02  0.36240210063E+02  0.10566000000E+00 0.  1.
        996    1    1    2    0    0 -0.21349524516E+02  0.10410393055E+02  0.87549360334E+02  0.10358121922E+03  0.50000000000E+02 0.  0.
<mgrwt>
<rscale>  0 0.55355022E+02</rscale>
<asrwt>0</asrwt>
<pdfrwt beam="1">  1       13 0.10000000E+01 0.55355022E+02</pdfrwt>
<pdfrwt beam="2">  1       22 0.39821446E+00 0.55355022E+02</pdfrwt>
<totfact> 0.12505127E-01</totfact>
</mgrwt>
</event>
<event>
 4    1  0.2503484E+000  0.5817034E+02  0.7957747E-01  0.1405674E+00
         13   -1    0    0    0    0  0.00000000000E+00  0.00000000000E+00  0.99999944180E+02  0.10000000000E+03  0.10566000000E+00 0.  1.
         22   -1    0    0    0    0 -0.00000000000E+00 -0.00000000000E+00 -0.48609629602E+02  0.48609629602E+02  0.00000000000E+00 0. -1.
         13    1    1    2    0    0  0.26686423970E+01 -0.29608564198E+02 -0.34078599715E+02  0.45223344068E+02  0.10566000000E+00 0. -1.
        996    1    1    2    0    0 -0.26686423970E+01  0.29608564198E+02  0.85468914293E+02  0.10338628553E+03  0.50000000000E+02 0.  0.
<mgrwt>
<rscale>  0 0.58170342E+02</rscale>
<asrwt>0</asrwt>
<pdfrwt beam="1">  1       13 0.10000000E+01 0.58170342E+02</pdfrwt>
<pdfrwt beam="2">  1       22 0.48609644E+00 0.58170342E+02</pdfrwt>
<totfact> 0.79757721E-02</totfact>
</mgrwt>
</event>
<event>
 4    1  0.2503484E+000  0.5540454E+02  0.7957747E-01  0.1418195E+00
         13   -1    0    0    0    0  0.00000000000E+00  0.00000000000E+00  0.99999944179E+02  0.99999999999E+02  0.10566000000E+00 0.  1.
         22   -1    0    0    0    0 -0.00000000000E+00 -0.00000000000E+00 -0.17674997101E+02  0.17674997101E+02  0.00000000000E+00 0.  1.
         13    1    1    2    0    0  0.41606226721E+01 -0.23502176282E+02  0.84225323777E+01  0.25310339521E+02  0.10566000000E+00 0. -1.
        996    1    1    2    0    0 -0.41606226721E+01  0.23502176282E+02  0.73902414700E+02  0.92364657578E+02  0.50000000000E+02 0.  0.
<mgrwt>
<rscale>  0 0.55404540E+02</rscale>
<asrwt>0</asrwt>
<pdfrwt beam="1">  1       13 0.10000000E+01 0.55404540E+02</pdfrwt>
<pdfrwt beam="2">  1       22 0.17675020E+00 0.55404540E+02</pdfrwt>
<totfact> 0.57114703E-01</totfact>
</mgrwt>
</event>
<event>
 4    1  0.2503484E+000  0.5103851E+02  0.7957747E-01  0.1439819E+00
         13   -1    0    0    0    0  0.00000000000E+00  0.00000000000E+00  0.99999944177E+02  0.99999999997E+02  0.10566000000E+00 0. -1.
         22   -1    0    0    0    0 -0.00000000000E+00 -0.00000000000E+00 -0.10881091072E+02  0.10881091072E+02  0.00000000000E+00 0. -1.
         13    1    1    2    0    0  0.85108599470E+01  0.57004466090E+01  0.28297597300E+01  0.10627724721E+02  0.10566000000E+00 0.  1.
        996    1    1    2    0    0 -0.85108599470E+01 -0.57004466090E+01  0.86289093375E+02  0.10025336635E+03  0.50000000000E+02 0.  0.
<mgrwt>
<rscale>  0 0.51038513E+02</rscale>
<asrwt>0</asrwt>
<pdfrwt beam="1">  1       13 0.10000000E+01 0.51038513E+02</pdfrwt>
<pdfrwt beam="2">  1       22 0.10881116E+00 0.51038513E+02</pdfrwt>
<totfact> 0.12428729E+00</totfact>
</mgrwt>
</event>
<event>
 4    1  0.2503484E+000  0.5101195E+02  0.7957747E-01  0.1439959E+00
         13   -1    0    0    0    0  0.00000000000E+00  0.00000000000E+00  0.99999944175E+02  0.99999999995E+02  0.10566000000E+00 0. -1.
         22   -1    0    0    0    0 -0.00000000000E+00 -0.00000000000E+00 -0.10467307165E+02  0.10467307165E+02  0.00000000000E+00 0. -1.
         13    1    1    2    0    0 -0.26221168054E+01 -0.97644161225E+01  0.32082492096E+02  0.33638025832E+02  0.10566000000E+00 0.  1.
        996    1    1    2    0    0  0.26221168054E+01  0.97644161225E+01  0.57450144914E+02  0.76829281328E+02  0.50000000000E+02 0.  0.
<mgrwt>
<rscale>  0 0.51011953E+02</rscale>
<asrwt>0</asrwt>
<pdfrwt beam="1">  1       13 0.10000000E+01 0.51011953E+02</pdfrwt>
<pdfrwt beam="2">  1       22 0.10467332E+00 0.51011953E+02</pdfrwt>
<totfact> 0.13158870E+00</totfact>
</mgrwt>
</event>
<event>
 4    1  0.2503484E+000  0.5384801E+02  0.7957747E-01  0.1425627E+00
         13   -1    0    0    0    0  0.00000000000E+00  0.00000000000E+00  0.99999944179E+02  0.99999999999E+02  0.10566000000E+00 0.  1.
         22   -1    0    0    0    0 -0.00000000000E+00 -0.00000000000E+00 -0.35593676783E+02  0.35593676783E+02  0.00000000000E+00 0. -1.
         13    1    1    2    0    0 -0.16485442345E+02  0.11306556127E+02 -0.24519016211E+02  0.31635444375E+02  0.10566000000E+00 0. -1.
        996    1    1    2    0    0  0.16485442345E+02 -0.11306556127E+02  0.88925283606E+02  0.10395823241E+03  0.50000000000E+02 0.  0.
<mgrwt>
<rscale>  0 0.53848009E+02</rscale>
<asrwt>0</asrwt>
<pdfrwt beam="1">  1       13 0.10000000E+01 0.53848009E+02</pdfrwt>
<pdfrwt beam="2">  1       22 0.35593695E+00 0.53848009E+02</pdfrwt>
<totfact> 0.15288106E-01</totfact>
</mgrwt>
</event>
<event>
 4    1  0.2503484E+000  0.5800407E+02  0.7957747E-01  0.1406404E+00
         13   -1    0    0    0    0  0.00000000000E+00  0.00000000000E+00  0.99999944174E+02  0.99999999994E+02  0.10566000000E+00 0. -1.
         22   -1    0    0    0    0 -0.00000000000E+00 -0.00000000000E+00 -0.28742013061E+02  0.28742013061E+02  0.00000000000E+00 0.  1.
         13    1    1    2    0    0  0.23454071009E+02  0.17730715731E+02 -0.80518125507E+01  0.30484661333E+02  0.10566000000E+00 0.  1.
        996    1    1    2    0    0 -0.23454071009E+02 -0.17730715731E+02  0.79309743664E+02  0.98257351722E+02  0.50000000000E+02 0.  0.
<mgrwt>
<rscale>  0 0.58004066E+02</rscale>
<asrwt>0</asrwt>
<pdfrwt beam="1">  1       13 0.10000000E+01 0.58004066E+02</pdfrwt>
<pdfrwt beam="2">  1       22 0.28742033E+00 0.58004066E+02</pdfrwt>
<totfact> 0.22628435E-01</totfact>
</mgrwt>
</event>
<event>
 4    1  0.2503484E+000  0.5256893E+02  0.7957747E-01  0.1431958E+00
         13   -1    0    0    0    0  0.00000000000E+00  0.00000000000E+00  0.99999944185E+02  0.10000000000E+03  0.10566000000E+00 0.  1.
         22   -1    0    0    0    0 -0.00000000000E+00 -0.00000000000E+00 -0.20136160806E+02  0.20136160806E+02  0.00000000000E+00 0. -1.
         13    1    1    2    0    0 -0.94070383836E+01  0.13228757578E+02 -0.77294446031E+01  0.17979095531E+02  0.10566000000E+00 0. -1.
        996    1    1    2    0    0  0.94070383836E+01 -0.13228757578E+02  0.87593227982E+02  0.10215706528E+03  0.50000000000E+02 0.  0.
<mgrwt>
<rscale>  0 0.52568930E+02</rscale>
<asrwt>0</asrwt>
<pdfrwt beam="1">  1       13 0.10000000E+01 0.52568930E+02</pdfrwt>
<pdfrwt beam="2">  1       22 0.20136183E+00 0.52568930E+02</pdfrwt>
<totfact> 0.44782681E-01</totfact>
</mgrwt>
</event>
<event>
 4    1  0.2503484E+000  0.5266224E+02  0.7957747E-01  0.1431489E+00
         13   -1    0    0    0    0  0.00000000000E+00  0.00000000000E+00  0.99999944180E+02  0.10000000000E+03  0.10566000000E+00 0. -1.
         22   -1    0    0    0    0 -0.00000000000E+00 -0.00000000000E+00 -0.15210047462E+02  0.15210047462E+02  0.00000000000E+00 0.  1.
         13    1    1    2    0    0 -0.27045409576E+01 -0.16309425750E+02  0.14106608241E+01  0.16592559721E+02  0.10566000000E+00 0.  1.
        996    1    1    2    0    0  0.27045409576E+01  0.16309425750E+02  0.83379235894E+02  0.98617487741E+02  0.50000000000E+02 0.  0.
<mgrwt>
<rscale>  0 0.52662244E+02</rscale>
<asrwt>0</asrwt>
<pdfrwt beam="1">  1       13 0.10000000E+01 0.52662244E+02</pdfrwt>
<pdfrwt beam="2">  1       22 0.15210071E+00 0.52662244E+02</pdfrwt>
<totfact> 0.73662773E-01</totfact>
</mgrwt>
</event>
<event>
 4    1  0.2503484E+000  0.5374596E+02  0.7957747E-01  0.1426124E+00
         13   -1    0    0    0    0  0.00000000000E+00  0.00000000000E+00  0.99999944177E+02  0.99999999997E+02  0.10566000000E+00 0.  1.
         22   -1    0    0    0    0 -0.00000000000E+00 -0.00000000000E+00 -0.13647376067E+02  0.13647376067E+02  0.00000000000E+00 0.  1.
         13    1    1    2    0    0  0.49274518899E+01 -0.19087919408E+02  0.28804415611E+02  0.34904641127E+02  0.10566000000E+00 0. -1.
        996    1    1    2    0    0 -0.49274518899E+01  0.19087919408E+02  0.57548152499E+02  0.78742734938E+02  0.50000000000E+02 0.  0.
<mgrwt>
<rscale>  0 0.53745962E+02</rscale>
<asrwt>0</asrwt>
<pdfrwt beam="1">  1       13 0.10000000E+01 0.53745962E+02</pdfrwt>
<pdfrwt beam="2">  1       22 0.13647400E+00 0.53745962E+02</pdfrwt>
<totfact> 0.88189745E-01</totfact>
</mgrwt>
</event>
<event>
 4    1  0.2503484E+000  0.7779164E+02  0.7957747E-01  0.1335438E+00
         13   -1    0    0    0    0  0.00000000000E+00  0.00000000000E+00  0.99999944178E+02  0.99999999998E+02  0.10566000000E+00 0.  1.
         22   -1    0    0    0    0 -0.00000000000E+00 -0.00000000000E+00 -0.72719781804E+02  0.72719781804E+02  0.00000000000E+00 0. -1.
         13    1    1    2    0    0  0.57977818355E+02  0.13788081547E+02 -0.38411797408E+02  0.70901452440E+02  0.10566000000E+00 0. -1.
        996    1    1    2    0    0 -0.57977818355E+02 -0.13788081547E+02  0.65691959782E+02  0.10181832936E+03  0.50000000000E+02 0.  0.
<mgrwt>
<rscale>  0 0.77791636E+02</rscale>
<asrwt>0</asrwt>
<pdfrwt beam="1">  1       13 0.10000000E+01 0.77791636E+02</pdfrwt>
<pdfrwt beam="2">  1       22 0.72719789E+00 0.77791636E+02</pdfrwt>
<totfact> 0.60198280E-02</totfact>
</mgrwt>
</event>
<event>
 4    1  0.2503484E+000  0.5107703E+02  0.7957747E-01  0.1439617E+00
         13   -1    0    0    0    0  0.00000000000E+00  0.00000000000E+00  0.99999944173E+02  0.99999999994E+02  0.10566000000E+00 0.  1.
         22   -1    0    0    0    0 -0.00000000000E+00 -0.00000000000E+00 -0.97067503432E+01  0.97067503432E+01  0.00000000000E+00 0.  1.
         13    1    1    2    0    0  0.10374307614E+02  0.11120462552E+01  0.94360660939E+01  0.14068170197E+02  0.10566000000E+00 0. -1.
        996    1    1    2    0    0 -0.10374307614E+02 -0.11120462552E+01  0.80857127736E+02  0.95638580139E+02  0.50000000000E+02 0.  0.
<mgrwt>
<rscale>  0 0.51077029E+02</rscale>
<asrwt>0</asrwt>
<pdfrwt beam="1">  1       13 0.10000000E+01 0.51077029E+02</pdfrwt>
<pdfrwt beam="2">  1       22 0.97067755E-01 0.51077029E+02</pdfrwt>
<totfact> 0.14683360E+00</totfact>
</mgrwt>
</event>
<event>
 4    1  0.2503484E+000  0.5230906E+02  0.7957747E-01  0.1433271E+00
         13   -1    0    0    0    0  0.00000000000E+00  0.00000000000E+00  0.99999944176E+02  0.99999999996E+02  0.10566000000E+00 0.  1.
         22   -1    0    0    0    0 -0.00000000000E+00 -0.00000000000E+00 -0.26391052078E+02  0.26391052078E+02  0.00000000000E+00 0. -1.
         13    1    1    2    0    0  0.10966672452E+02 -0.10768923708E+02 -0.16280253794E+02  0.22389628182E+02  0.10566000000E+00 0. -1.
        996    1    1    2    0    0 -0.10966672452E+02  0.10768923708E+02  0.89889145892E+02  0.10400142389E+03  0.50000000000E+02 0.  0.
<mgrwt>
<rscale>  0 0.52309059E+02</rscale>
<asrwt>0</asrwt>
<pdfrwt beam="1">  1       13 0.10000000E+01 0.52309059E+02</pdfrwt>
<pdfrwt beam="2">  1       22 0.26391073E+00 0.52309059E+02</pdfrwt>
<totfact> 0.26513169E-01</totfact>
</mgrwt>
</event>
<event>
 4    1  0.2503484E+000  0.5301478E+02  0.7957747E-01  0.1429727E+00
         13   -1    0    0    0    0  0.00000000000E+00  0.00000000000E+00  0.99999944178E+02  0.99999999998E+02  0.10566000000E+00 0. -1.
         22   -1    0    0    0    0 -0.00000000000E+00 -0.00000000000E+00 -0.15815388945E+02  0.15815388945E+02  0.00000000000E+00 0. -1.
         13    1    1    2    0    0 -0.26125637003E+01 -0.17428168020E+02  0.16224154638E+01  0.17697737866E+02  0.10566000000E+00 0.  1.
        996    1    1    2    0    0  0.26125637003E+01  0.17428168020E+02  0.82562139769E+02  0.98117651077E+02  0.50000000000E+02 0.  0.
<mgrwt>
<rscale>  0 0.53014777E+02</rscale>
<asrwt>0</asrwt>
<pdfrwt beam="1">  1       13 0.10000000E+01 0.53014777E+02</pdfrwt>
<pdfrwt beam="2">  1       22 0.15815412E+00 0.53014777E+02</pdfrwt>
<totfact> 0.69013031E-01</totfact>
</mgrwt>
</event>
<event>
 4    1  0.2503484E+000  0.7059449E+02  0.7957747E-01  0.1358083E+00
         13   -1    0    0    0    0  0.00000000000E+00  0.00000000000E+00  0.99999944179E+02  0.99999999999E+02  0.10566000000E+00 0.  1.
         22   -1    0    0    0    0 -0.00000000000E+00 -0.00000000000E+00 -0.56521851734E+02  0.56521851734E+02  0.00000000000E+00 0. -1.
         13    1    1    2    0    0 -0.48370353995E+02  0.11995450589E+02 -0.27074938887E+02  0.56715478136E+02  0.10566000000E+00 0. -1.
        996    1    1    2    0    0  0.48370353995E+02 -0.11995450589E+02  0.70553031332E+02  0.99806373597E+02  0.50000000000E+02 0.  0.
<mgrwt>
<rscale>  0 0.70594490E+02</rscale>
<asrwt>0</asrwt>
<pdfrwt beam="1">  1       13 0.10000000E+01 0.70594490E+02</pdfrwt>
<pdfrwt beam="2">  1       22 0.56521864E+00 0.70594490E+02</pdfrwt>
<totfact> 0.58271444E-02</totfact>
</mgrwt>
</event>
<event>
 4    1  0.2503484E+000  0.5104237E+02  0.7957747E-01  0.1439799E+00
         13   -1    0    0    0    0  0.00000000000E+00  0.00000000000E+00  0.99999944173E+02  0.99999999993E+02  0.10566000000E+00 0.  1.
         22   -1    0    0    0    0 -0.00000000000E+00 -0.00000000000E+00 -0.98689404317E+01  0.98689404317E+01  0.00000000000E+00 0.  1.
         13    1    1    2    0    0 -0.13684907862E+01  0.10171056320E+02  0.73763245926E+01  0.12639006378E+02  0.10566000000E+00 0. -1.
        996    1    1    2    0    0  0.13684907862E+01 -0.10171056320E+02  0.82754679148E+02  0.97229934046E+02  0.50000000000E+02 0.  0.
<mgrwt>
<rscale>  0 0.51042366E+02</rscale>
<asrwt>0</asrwt>
<pdfrwt beam="1">  1       13 0.10000000E+01 0.51042366E+02</pdfrwt>
<pdfrwt beam="2">  1       22 0.98689656E-01 0.51042366E+02</pdfrwt>
<totfact> 0.14335971E+00</totfact>
</mgrwt>
</event>
<event>
 4    1  0.2503484E+000  0.5160280E+02  0.7957747E-01  0.1436883E+00
         13   -1    0    0    0    0  0.00000000000E+00  0.00000000000E+00  0.99999944175E+02  0.99999999995E+02  0.10566000000E+00 0.  1.
         22   -1    0    0    0    0 -0.00000000000E+00 -0.00000000000E+00 -0.10362502327E+02  0.10362502327E+02  0.00000000000E+00 0.  1.
         13    1    1    2    0    0 -0.76861736179E+01  0.10186815585E+02  0.18807752145E+02  0.22728642314E+02  0.10566000000E+00 0. -1.
        996    1    1    2    0    0  0.76861736179E+01 -0.10186815585E+02  0.70829689703E+02  0.87633860009E+02  0.50000000000E+02 0.  0.
<mgrwt>
<rscale>  0 0.51602795E+02</rscale>
<asrwt>0</asrwt>
<pdfrwt beam="1">  1       13 0.10000000E+01 0.51602795E+02</pdfrwt>
<pdfrwt beam="2">  1       22 0.10362527E+00 0.51602795E+02</pdfrwt>
<totfact> 0.13373078E+00</totfact>
</mgrwt>
</event>
<event>
 4    1  0.2503484E+000  0.5171322E+02  0.7957747E-01  0.1436314E+00
         13   -1    0    0    0    0  0.00000000000E+00  0.00000000000E+00  0.99999944178E+02  0.99999999998E+02  0.10566000000E+00 0. -1.
         22   -1    0    0    0    0 -0.00000000000E+00 -0.00000000000E+00 -0.14844277504E+02  0.14844277504E+02  0.00000000000E+00 0.  1.
         13    1    1    2    0    0  0.22142410593E+01  0.13013617438E+02 -0.21474744184E+01  0.13374599534E+02  0.10566000000E+00 0.  1.
        996    1    1    2    0    0 -0.22142410593E+01 -0.13013617438E+02  0.87303141092E+02  0.10146967797E+03  0.50000000000E+02 0.  0.
<mgrwt>
<rscale>  0 0.51713220E+02</rscale>
<asrwt>0</asrwt>
<pdfrwt beam="1">  1       13 0.10000000E+01 0.51713220E+02</pdfrwt>
<pdfrwt beam="2">  1       22 0.14844301E+00 0.51713220E+02</pdfrwt>
<totfact> 0.76564195E-01</totfact>
</mgrwt>
</event>
<event>
 4    1  0.2503484E+000  0.5111961E+02  0.7957747E-01  0.1439395E+00
         13   -1    0    0    0    0  0.00000000000E+00  0.00000000000E+00  0.99999944179E+02  0.10000000000E+03  0.10566000000E+00 0. -1.
         22   -1    0    0    0    0 -0.00000000000E+00 -0.00000000000E+00 -0.98354843128E+01  0.98354843128E+01  0.00000000000E+00 0. -1.
         13    1    1    2    0    0  0.92678885544E+01 -0.52269000973E+01  0.91123522064E+01  0.14009295830E+02  0.10566000000E+00 0.  1.
        996    1    1    2    0    0 -0.92678885544E+01  0.52269000973E+01  0.81052107660E+02  0.95826188482E+02  0.50000000000E+02 0.  0.
<mgrwt>
<rscale>  0 0.51119607E+02</rscale>
<asrwt>0</asrwt>
<pdfrwt beam="1">  1       13 0.10000000E+01 0.51119607E+02</pdfrwt>
<pdfrwt beam="2">  1       22 0.98355095E-01 0.51119607E+02</pdfrwt>
<totfact> 0.14409087E+00</totfact>
</mgrwt>
</event>
<event>
 4    1  0.2503484E+000  0.5101489E+02  0.7957747E-01  0.1439943E+00
         13   -1    0    0    0    0  0.00000000000E+00  0.00000000000E+00  0.99999944173E+02  0.99999999994E+02  0.10566000000E+00 0. -1.
         22   -1    0    0    0    0 -0.00000000000E+00 -0.00000000000E+00 -0.13043252112E+02  0.13043252112E+02  0.00000000000E+00 0. -1.
         13    1    1    2    0    0  0.10068633533E+02 -0.10686061077E+01 -0.21639351806E+01  0.10354374908E+02  0.10566000000E+00 0.  1.
        996    1    1    2    0    0 -0.10068633533E+02  0.10686061077E+01  0.89120627242E+02  0.10268887720E+03  0.50000000000E+02 0.  0.
<mgrwt>
<rscale>  0 0.51014893E+02</rscale>
<asrwt>0</asrwt>
<pdfrwt beam="1">  1       13 0.10000000E+01 0.51014893E+02</pdfrwt>
<pdfrwt beam="2">  1       22 0.13043276E+00 0.51014893E+02</pdfrwt>
<totfact> 0.94227721E-01</totfact>
</mgrwt>
</event>
<event>
 4    1  0.2503484E+000  0.6111453E+02  0.7957747E-01  0.1393213E+00
         13   -1    0    0    0    0  0.00000000000E+00  0.00000000000E+00  0.99999944174E+02  0.99999999994E+02  0.10566000000E+00 0.  1.
         22   -1    0    0    0    0 -0.00000000000E+00 -0.00000000000E+00 -0.51571394447E+02  0.51571394447E+02  0.00000000000E+00 0. -1.
         13    1    1    2    0    0  0.25972178925E+02  0.23673439905E+02 -0.34040333503E+02  0.48925875609E+02  0.10566000000E+00 0. -1.
        996    1    1    2    0    0 -0.25972178925E+02 -0.23673439905E+02  0.82468883230E+02  0.10264551883E+03  0.50000000000E+02 0.  0.
<mgrwt>
<rscale>  0 0.61114530E+02</rscale>
<asrwt>0</asrwt>
<pdfrwt beam="1">  1       13 0.10000000E+01 0.61114530E+02</pdfrwt>
<pdfrwt beam="2">  1       22 0.51571408E+00 0.61114530E+02</pdfrwt>
<totfact> 0.67961862E-02</totfact>
</mgrwt>
</event>
<event>
 4    1  0.2503484E+000  0.5223977E+02  0.7957747E-01  0.1433622E+00
         13   -1    0    0    0    0  0.00000000000E+00  0.00000000000E+00  0.99999944181E+02  0.10000000000E+03  0.10566000000E+00 0.  1.
         22   -1    0    0    0    0 -0.00000000000E+00 -0.00000000000E+00 -0.26937365557E+02  0.26937365557E+02  0.00000000000E+00 0. -1.
         13    1    1    2    0    0 -0.13697737647E+02  0.64316373715E+01 -0.17037869992E+02  0.22788026545E+02  0.10566000000E+00 0. -1.
        996    1    1    2    0    0  0.13697737647E+02 -0.64316373715E+01  0.90100448616E+02  0.10414933901E+03  0.50000000000E+02 0.  0.
<mgrwt>
<rscale>  0 0.52239774E+02</rscale>
<asrwt>0</asrwt>
<pdfrwt beam="1">  1       13 0.10000000E+01 0.52239774E+02</pdfrwt>
<pdfrwt beam="2">  1       22 0.26937386E+00 0.52239774E+02</pdfrwt>
<totfact> 0.25466806E-01</totfact>
</mgrwt>
</event>
<event>
 4    1  0.2503484E+000  0.6094667E+02  0.7957747E-01  0.1393901E+00
         13   -1    0    0    0    0  0.00000000000E+00  0.00000000000E+00  0.99999944171E+02  0.99999999992E+02  0.10566000000E+00 0.  1.
         22   -1    0    0    0    0 -0.00000000000E+00 -0.00000000000E+00 -0.68903015403E+02  0.68903015403E+02  0.00000000000E+00 0. -1.
         13    1    1    2    0    0 -0.34144180886E+02  0.69765032457E+01 -0.53977710087E+02  0.64250299892E+02  0.10566000000E+00 0. -1.
        996    1    1    2    0    0  0.34144180886E+02 -0.69765032457E+01  0.85074638855E+02  0.10465271550E+03  0.50000000000E+02 0.  0.
<mgrwt>
<rscale>  0 0.60946671E+02</rscale>
<asrwt>0</asrwt>
<pdfrwt beam="1">  1       13 0.10000000E+01 0.60946671E+02</pdfrwt>
<pdfrwt beam="2">  1       22 0.68903024E+00 0.60946671E+02</pdfrwt>
<totfact> 0.79878478E-02</totfact>
</mgrwt>
</event>
<event>
 4    1  0.2503484E+000  0.5102751E+02  0.7957747E-01  0.1439877E+00
         13   -1    0    0    0    0  0.00000000000E+00  0.00000000000E+00  0.99999944180E+02  0.10000000000E+03  0.10566000000E+00 0. -1.
         22   -1    0    0    0    0 -0.00000000000E+00 -0.00000000000E+00 -0.94125266252E+01  0.94125266252E+01  0.00000000000E+00 0. -1.
         13    1    1    2    0    0 -0.97309004382E+01  0.30193324683E+01  0.18005820679E+02  0.20688826314E+02  0.10566000000E+00 0.  1.
        996    1    1    2    0    0  0.97309004382E+01 -0.30193324683E+01  0.72581596876E+02  0.88723700311E+02  0.50000000000E+02 0.  0.
<mgrwt>
<rscale>  0 0.51027510E+02</rscale>
<asrwt>0</asrwt>
<pdfrwt beam="1">  1       13 0.10000000E+01 0.51027510E+02</pdfrwt>
<pdfrwt beam="2">  1       22 0.94125519E-01 0.51027510E+02</pdfrwt>
<totfact> 0.15342637E+00</totfact>
</mgrwt>
</event>
<event>
 4    1  0.2503484E+000  0.5247491E+02  0.7957747E-01  0.1432432E+00
         13   -1    0    0    0    0  0.00000000000E+00  0.00000000000E+00  0.99999944169E+02  0.99999999990E+02  0.10566000000E+00 0.  1.
         22   -1    0    0    0    0 -0.00000000000E+00 -0.00000000000E+00 -0.23000249118E+02  0.23000249118E+02  0.00000000000E+00 0. -1.
         13    1    1    2    0    0 -0.12299565291E+02 -0.10116149604E+02 -0.11823232179E+02  0.19834711300E+02  0.10566000000E+00 0. -1.
        996    1    1    2    0    0  0.12299565291E+02  0.10116149604E+02  0.88822927231E+02  0.10316553781E+03  0.50000000000E+02 0.  0.
<mgrwt>
<rscale>  0 0.52474906E+02</rscale>
<asrwt>0</asrwt>
<pdfrwt beam="1">  1       13 0.10000000E+01 0.52474906E+02</pdfrwt>
<pdfrwt beam="2">  1       22 0.23000271E+00 0.52474906E+02</pdfrwt>
<totfact> 0.34732663E-01</totfact>
</mgrwt>
</event>
<event>
 4    1  0.2503484E+000  0.5100457E+02  0.7957747E-01  0.1439997E+00
         13   -1    0    0    0    0  0.00000000000E+00  0.00000000000E+00  0.99999944178E+02  0.99999999998E+02  0.10566000000E+00 0. -1.
         22   -1    0    0    0    0 -0.00000000000E+00 -0.00000000000E+00 -0.10665303817E+02  0.10665303817E+02  0.00000000000E+00 0. -1.
         13    1    1    2    0    0 -0.97226363215E+01  0.26337178043E+01  0.32134533662E+01  0.10573720872E+02  0.10566000000E+00 0.  1.
        996    1    1    2    0    0  0.97226363215E+01 -0.26337178043E+01  0.86121186995E+02  0.10009158294E+03  0.50000000000E+02 0.  0.
<mgrwt>
<rscale>  0 0.51004570E+02</rscale>
<asrwt>0</asrwt>
<pdfrwt beam="1">  1       13 0.10000000E+01 0.51004570E+02</pdfrwt>
<pdfrwt beam="2">  1       22 0.10665329E+00 0.51004570E+02</pdfrwt>
<totfact> 0.12801157E+00</totfact>
</mgrwt>
</event>
<event>
 4    1  0.2503484E+000  0.5473424E+02  0.7957747E-01  0.1421360E+00
         13   -1    0    0    0    0  0.00000000000E+00  0.00000000000E+00  0.99999944181E+02  0.10000000000E+03  0.10566000000E+00 0. -1.
         22   -1    0    0    0    0 -0.00000000000E+00 -0.00000000000E+00 -0.26069563840E+02  0.26069563840E+02  0.00000000000E+00 0.  1.
         13    1    1    2    0    0  0.22104957856E+02  0.26846852490E+01 -0.11150465318E+02  0.24903428228E+02  0.10566000000E+00 0.  1.
        996    1    1    2    0    0 -0.22104957856E+02 -0.26846852490E+01  0.85080845659E+02  0.10116613561E+03  0.50000000000E+02 0.  0.
<mgrwt>
<rscale>  0 0.54734237E+02</rscale>
<asrwt>0</asrwt>
<pdfrwt beam="1">  1       13 0.10000000E+01 0.54734237E+02</pdfrwt>
<pdfrwt beam="2">  1       22 0.26069584E+00 0.54734237E+02</pdfrwt>
<totfact> 0.27256853E-01</totfact>
</mgrwt>
</event>
<event>
 4    1  0.2503484E+000  0.5706869E+02  0.7957747E-01  0.1410562E+00
         13   -1    0    0    0    0  0.00000000000E+00  0.00000000000E+00  0.99999944181E+02  0.10000000000E+03  0.10566000000E+00 0.  1.
         22   -1    0    0    0    0 -0.00000000000E+00 -0.00000000000E+00 -0.21165851881E+02  0.21165851881E+02  0.00000000000E+00 0. -1.
         13    1    1    2    0    0 -0.27445496032E+02 -0.18922626897E+01  0.51872574713E+01  0.27995619561E+02  0.10566000000E+00 0. -1.
        996    1    1    2    0    0  0.27445496032E+02  0.18922626897E+01  0.73646834829E+02  0.93170232321E+02  0.50000000000E+02 0.  0.
<mgrwt>
<rscale>  0 0.57068695E+02</rscale>
<asrwt>0</asrwt>
<pdfrwt beam="1">  1       13 0.10000000E+01 0.57068695E+02</pdfrwt>
<pdfrwt beam="2">  1       22 0.21165874E+00 0.57068695E+02</pdfrwt>
<totfact> 0.41065490E-01</totfact>
</mgrwt>
</event>
<event>
 4    1  0.2503484E+000  0.5456128E+02  0.7957747E-01  0.1422185E+00
         13   -1    0    0    0    0  0.00000000000E+00  0.00000000000E+00  0.99999944180E+02  0.10000000000E+03  0.10566000000E+00 0.  1.
         22   -1    0    0    0    0 -0.00000000000E+00 -0.00000000000E+00 -0.15772496439E+02  0.15772496439E+02  0.00000000000E+00 0. -1.
         13    1    1    2    0    0  0.19999079187E+02 -0.87732741550E+01  0.39852891229E+02  0.45444445326E+02  0.10566000000E+00 0. -1.
        996    1    1    2    0    0 -0.19999079187E+02  0.87732741550E+01  0.44374556512E+02  0.70328051113E+02  0.50000000000E+02 0.  0.
<mgrwt>
<rscale>  0 0.54561282E+02</rscale>
<asrwt>0</asrwt>
<pdfrwt beam="1">  1       13 0.10000000E+01 0.54561282E+02</pdfrwt>
<pdfrwt beam="2">  1       22 0.15772520E+00 0.54561282E+02</pdfrwt>
<totfact> 0.69539790E-01</totfact>
</mgrwt>
</event>
<event>
 4    1  0.2503484E+000  0.5375054E+02  0.7957747E-01  0.1426102E+00
         13   -1    0    0    0    0  0.00000000000E+00  0.00000000000E+00  0.99999944182E+02  0.10000000000E+03  0.10566000000E+00 0. -1.
         22   -1    0    0    0    0 -0.00000000000E+00 -0.00000000000E+00 -0.13687386406E+02  0.13687386406E+02  0.00000000000E+00 0. -1.
         13    1    1    2    0    0  0.88252560695E+00  0.19706379639E+02  0.17498957207E+02  0.26369393570E+02  0.10566000000E+00 0.  1.
        996    1    1    2    0    0 -0.88252560695E+00 -0.19706379639E+02  0.68813600569E+02  0.87317992838E+02  0.50000000000E+02 0.  0.
<mgrwt>
<rscale>  0 0.53750537E+02</rscale>
<asrwt>0</asrwt>
<pdfrwt beam="1">  1       13 0.10000000E+01 0.53750537E+02</pdfrwt>
<pdfrwt beam="2">  1       22 0.13687411E+00 0.53750537E+02</pdfrwt>
<totfact> 0.87776727E-01</totfact>
</mgrwt>
</event>
<event>
 4    1  0.2503484E+000  0.5146439E+02  0.7957747E-01  0.1437599E+00
         13   -1    0    0    0    0  0.00000000000E+00  0.00000000000E+00  0.99999944180E+02  0.10000000000E+03  0.10566000000E+00 0. -1.
         22   -1    0    0    0    0 -0.00000000000E+00 -0.00000000000E+00 -0.10206449354E+02  0.10206449354E+02  0.00000000000E+00 0. -1.
         13    1    1    2    0    0 -0.17538830959E+01  0.12062660517E+02  0.21173968513E+02  0.24432191701E+02  0.10566000000E+00 0.  1.
        996    1    1    2    0    0  0.17538830959E+01 -0.12062660517E+02  0.68619526313E+02  0.85774257654E+02  0.50000000000E+02 0.  0.
<mgrwt>
<rscale>  0 0.51464394E+02</rscale>
<asrwt>0</asrwt>
<pdfrwt beam="1">  1       13 0.10000000E+01 0.51464394E+02</pdfrwt>
<pdfrwt beam="2">  1       22 0.10206474E+00 0.51464394E+02</pdfrwt>
<totfact> 0.13667972E+00</totfact>
</mgrwt>
</event>
<event>
 4    1  0.2503484E+000  0.5498598E+02  0.7957747E-01  0.1420165E+00
         13   -1    0    0    0    0  0.00000000000E+00  0.00000000000E+00  0.99999944175E+02  0.99999999995E+02  0.10566000000E+00 0.  1.
         22   -1    0    0    0    0 -0.00000000000E+00 -0.00000000000E+00 -0.15972552500E+02  0.15972552500E+02  0.00000000000E+00 0. -1.
         13    1    1    2    0    0 -0.13526123813E+02  0.18452693733E+02  0.37569326875E+02  0.43987764404E+02  0.10566000000E+00 0. -1.
        996    1    1    2    0    0  0.13526123813E+02 -0.18452693733E+02  0.46458064800E+02  0.71984788090E+02  0.50000000000E+02 0.  0.
<mgrwt>
<rscale>  0 0.54985979E+02</rscale>
<asrwt>0</asrwt>
<pdfrwt beam="1">  1       13 0.10000000E+01 0.54985979E+02</pdfrwt>
<pdfrwt beam="2">  1       22 0.15972576E+00 0.54985979E+02</pdfrwt>
<totfact> 0.68114742E-01</totfact>
</mgrwt>
</event>
<event>
 4    1  0.2503484E+000  0.5610117E+02  0.7957747E-01  0.1414962E+00
         13   -1    0    0    0    0  0.00000000000E+00  0.00000000000E+00  0.99999944182E+02  0.10000000000E+03  0.10566000000E+00 0.  1.
         22   -1    0    0    0    0 -0.00000000000E+00 -0.00000000000E+00 -0.16623728539E+02  0.16623728539E+02  0.00000000000E+00 0. -1.
         13    1    1    2    0    0  0.11114668468E+02 -0.22886794409E+02  0.25900948542E+02  0.36307182662E+02  0.10566000000E+00 0. -1.
        996    1    1    2    0    0 -0.11114668468E+02  0.22886794409E+02  0.57475267102E+02  0.80316545879E+02  0.50000000000E+02 0.  0.
<mgrwt>
<rscale>  0 0.56101169E+02</rscale>
<asrwt>0</asrwt>
<pdfrwt beam="1">  1       13 0.10000000E+01 0.56101169E+02</pdfrwt>
<pdfrwt beam="2">  1       22 0.16623752E+00 0.56101169E+02</pdfrwt>
<totfact> 0.63707524E-01</totfact>
</mgrwt>
</event>
<event>
 4    1  0.2503484E+000  0.5168286E+02  0.7957747E-01  0.1436470E+00
         13   -1    0    0    0    0  0.00000000000E+00  0.00000000000E+00  0.99999944188E+02  0.10000000001E+03  0.10566000000E+00 0.  1.
         22   -1    0    0    0    0 -0.00000000000E+00 -0.00000000000E+00 -0.11043197897E+02  0.11043197897E+02  0.00000000000E+00 0. -1.
         13    1    1    2    0    0 -0.93450170288E+01 -0.91536147013E+01  0.91538538485E+01  0.15966283528E+02  0.10566000000E+00 0. -1.
        996    1    1    2    0    0  0.93450170288E+01  0.91536147013E+01  0.79802892442E+02  0.95076914377E+02  0.50000000000E+02 0.  0.
<mgrwt>
<rscale>  0 0.51682860E+02</rscale>
<asrwt>0</asrwt>
<pdfrwt beam="1">  1       13 0.10000000E+01 0.51682860E+02</pdfrwt>
<pdfrwt beam="2">  1       22 0.11043223E+00 0.51682860E+02</pdfrwt>
<totfact> 0.12176984E+00</totfact>
</mgrwt>
</event>
<event>
 4    1  0.2503484E+000  0.5456653E+02  0.7957747E-01  0.1422160E+00
         13   -1    0    0    0    0  0.00000000000E+00  0.00000000000E+00  0.99999944173E+02  0.99999999993E+02  0.10566000000E+00 0. -1.
         22   -1    0    0    0    0 -0.00000000000E+00 -0.00000000000E+00 -0.69233228083E+02  0.69233228083E+02  0.00000000000E+00 0.  1.
         13    1    1    2    0    0  0.99287173859E+01  0.19466045650E+02 -0.59705840511E+02  0.63579123282E+02  0.10566000000E+00 0.  1.
        996    1    1    2    0    0 -0.99287173859E+01 -0.19466045650E+02  0.90472556601E+02  0.10565410479E+03  0.50000000000E+02 0.  0.
<mgrwt>
<rscale>  0 0.54566532E+02</rscale>
<asrwt>0</asrwt>
<pdfrwt beam="1">  1       13 0.10000000E+01 0.54566532E+02</pdfrwt>
<pdfrwt beam="2">  1       22 0.69233237E+00 0.54566532E+02</pdfrwt>
<totfact> 0.78392420E-02</totfact>
</mgrwt>
</event>
<event>
 4    1  0.2503484E+000  0.5122760E+02  0.7957747E-01  0.1438830E+00
         13   -1    0    0    0    0  0.00000000000E+00  0.00000000000E+00  0.99999944184E+02  0.10000000000E+03  0.10566000000E+00 0. -1.
         22   -1    0    0    0    0 -0.00000000000E+00 -0.00000000000E+00 -0.98060686557E+01  0.98060686557E+01  0.00000000000E+00 0. -1.
         13    1    1    2    0    0  0.52232260899E+01 -0.98481152998E+01  0.20147852069E+02  0.23026388618E+02  0.10566000000E+00 0.  1.
        996    1    1    2    0    0 -0.52232260899E+01  0.98481152998E+01  0.70046023459E+02  0.86779680042E+02  0.50000000000E+02 0.  0.
<mgrwt>
<rscale>  0 0.51227605E+02</rscale>
<asrwt>0</asrwt>
<pdfrwt beam="1">  1       13 0.10000000E+01 0.51227605E+02</pdfrwt>
<pdfrwt beam="2">  1       22 0.98060938E-01 0.51227605E+02</pdfrwt>
<totfact> 0.14475252E+00</totfact>
</mgrwt>
</event>
<event>
 4    1  0.2503484E+000  0.8245354E+02  0.7957747E-01  0.1322229E+00
         13   -1    0    0    0    0  0.00000000000E+00  0.00000000000E+00  0.99999944174E+02  0.99999999994E+02  0.10566000000E+00 0.  1.
         22   -1    0    0    0    0 -0.00000000000E+00 -0.00000000000E+00 -0.71183193747E+02  0.71183193747E+02  0.00000000000E+00 0. -1.
         13    1    1    2    0    0 -0.21732664021E+02 -0.61856917146E+02 -0.27746595628E+02  0.71193199235E+02  0.10566000000E+00 0. -1.
        996    1    1    2    0    0  0.21732664021E+02  0.61856917146E+02  0.56563346056E+02  0.99989994506E+02  0.50000000000E+02 0.  0.
<mgrwt>
<rscale>  0 0.82453544E+02</rscale>
<asrwt>0</asrwt>
<pdfrwt beam="1">  1       13 0.10000000E+01 0.82453544E+02</pdfrwt>
<pdfrwt beam="2">  1       22 0.71183202E+00 0.82453544E+02</pdfrwt>
<totfact> 0.68401027E-02</totfact>
</mgrwt>
</event>
<event>
 4    1  0.2503484E+000  0.5114291E+02  0.7957747E-01  0.1439273E+00
         13   -1    0    0    0    0  0.00000000000E+00  0.00000000000E+00  0.99999944178E+02  0.99999999999E+02  0.10566000000E+00 0.  1.
         22   -1    0    0    0    0 -0.00000000000E+00 -0.00000000000E+00 -0.10114632609E+02  0.10114632609E+02  0.00000000000E+00 0.  1.
         13    1    1    2    0    0  0.10639489368E+02  0.15487742691E+01  0.73704582810E+01  0.13035806652E+02  0.10566000000E+00 0. -1.
        996    1    1    2    0    0 -0.10639489368E+02 -0.15487742691E+01  0.82514853288E+02  0.97078825956E+02  0.50000000000E+02 0.  0.
<mgrwt>
<rscale>  0 0.51142912E+02</rscale>
<asrwt>0</asrwt>
<pdfrwt beam="1">  1       13 0.10000000E+01 0.51142912E+02</pdfrwt>
<pdfrwt beam="2">  1       22 0.10114658E+00 0.51142912E+02</pdfrwt>
<totfact> 0.13838027E+00</totfact>
</mgrwt>
</event>
<event>
 4    1  0.2503484E+000  0.5268550E+02  0.7957747E-01  0.1431372E+00
         13   -1    0    0    0    0  0.00000000000E+00  0.00000000000E+00  0.99999944179E+02  0.10000000000E+03  0.10566000000E+00 0.  1.
         22   -1    0    0    0    0 -0.00000000000E+00 -0.00000000000E+00 -0.13474473506E+02  0.13474473506E+02  0.00000000000E+00 0.  1.
         13    1    1    2    0    0  0.13946135097E+02  0.90148393949E+01  0.68689908630E+01  0.17970982526E+02  0.10566000000E+00 0. -1.
        996    1    1    2    0    0 -0.13946135097E+02 -0.90148393949E+01  0.79656479810E+02  0.95503490979E+02  0.50000000000E+02 0.  0.
<mgrwt>
<rscale>  0 0.52685501E+02</rscale>
<asrwt>0</asrwt>
<pdfrwt beam="1">  1       13 0.10000000E+01 0.52685501E+02</pdfrwt>
<pdfrwt beam="2">  1       22 0.13474498E+00 0.52685501E+02</pdfrwt>
<totfact> 0.89810826E-01</totfact>
</mgrwt>
</event>
<event>
 4    1  0.2503484E+000  0.5142627E+02  0.7957747E-01  0.1437797E+00
         13   -1    0    0    0    0  0.00000000000E+00  0.00000000000E+00  0.99999944179E+02  0.99999999999E+02  0.10566000000E+00 0.  1.
         22   -1    0    0    0    0 -0.00000000000E+00 -0.00000000000E+00 -0.10075671054E+02  0.10075671054E+02  0.00000000000E+00 0.  1.
         13    1    1    2    0    0 -0.95345824691E+01 -0.73316658740E+01  0.15740982358E+02  0.19810383060E+02  0.10566000000E+00 0. -1.
        996    1    1    2    0    0  0.95345824691E+01  0.73316658740E+01  0.74183290767E+02  0.90265287992E+02  0.50000000000E+02 0.  0.
<mgrwt>
<rscale>  0 0.51426273E+02</rscale>
<asrwt>0</asrwt>
<pdfrwt beam="1">  1       13 0.10000000E+01 0.51426273E+02</pdfrwt>
<pdfrwt beam="2">  1       22 0.10075696E+00 0.51426273E+02</pdfrwt>
<totfact> 0.13925330E+00</totfact>
</mgrwt>
</event>
<event>
 4    1  0.2503484E+000  0.5130241E+02  0.7957747E-01  0.1438441E+00
         13   -1    0    0    0    0  0.00000000000E+00  0.00000000000E+00  0.99999944184E+02  0.10000000000E+03  0.10566000000E+00 0. -1.
         22   -1    0    0    0    0 -0.00000000000E+00 -0.00000000000E+00 -0.15172004051E+02  0.15172004051E+02  0.00000000000E+00 0. -1.
         13    1    1    2    0    0 -0.11056773236E+02 -0.31121476501E+01 -0.43560113771E+01  0.12285100592E+02  0.10566000000E+00 0.  1.
        996    1    1    2    0    0  0.11056773236E+02  0.31121476501E+01  0.89183951509E+02  0.10288690346E+03  0.50000000000E+02 0.  0.
<mgrwt>
<rscale>  0 0.51302414E+02</rscale>
<asrwt>0</asrwt>
<pdfrwt beam="1">  1       13 0.10000000E+01 0.51302414E+02</pdfrwt>
<pdfrwt beam="2">  1       22 0.15172028E+00 0.51302414E+02</pdfrwt>
<totfact> 0.73767854E-01</totfact>
</mgrwt>
</event>
<event>
 4    1  0.2503484E+000  0.5134215E+02  0.7957747E-01  0.1438234E+00
         13   -1    0    0    0    0  0.00000000000E+00  0.00000000000E+00  0.99999944179E+02  0.99999999999E+02  0.10566000000E+00 0. -1.
         22   -1    0    0    0    0 -0.00000000000E+00 -0.00000000000E+00 -0.99956680749E+01  0.99956680749E+01  0.00000000000E+00 0. -1.
         13    1    1    2    0    0  0.11436198856E+02  0.22867858171E+01  0.20486738420E+02  0.23574003664E+02  0.10566000000E+00 0.  1.
        996    1    1    2    0    0 -0.11436198856E+02 -0.22867858171E+01  0.69517537684E+02  0.86421664409E+02  0.50000000000E+02 0.  0.
<mgrwt>
<rscale>  0 0.51342147E+02</rscale>
<asrwt>0</asrwt>
<pdfrwt beam="1">  1       13 0.10000000E+01 0.51342147E+02</pdfrwt>
<pdfrwt beam="2">  1       22 0.99956932E-01 0.51342147E+02</pdfrwt>
<totfact> 0.14084304E+00</totfact>
</mgrwt>
</event>
<event>
 4    1  0.2503484E+000  0.5435257E+02  0.7957747E-01  0.1423186E+00
         13   -1    0    0    0    0  0.00000000000E+00  0.00000000000E+00  0.99999944173E+02  0.99999999993E+02  0.10566000000E+00 0. -1.
         22   -1    0    0    0    0 -0.00000000000E+00 -0.00000000000E+00 -0.65011058864E+02  0.65011058864E+02  0.00000000000E+00 0.  1.
         13    1    1    2    0    0 -0.21203455385E+02  0.21482452670E+01 -0.55501092289E+02  0.59452366540E+02  0.10566000000E+00 0.  1.
        996    1    1    2    0    0  0.21203455385E+02 -0.21482452670E+01  0.90489977597E+02  0.10555869232E+03  0.50000000000E+02 0.  0.
<mgrwt>
<rscale>  0 0.54352566E+02</rscale>
<asrwt>0</asrwt>
<pdfrwt beam="1">  1       13 0.10000000E+01 0.54352566E+02</pdfrwt>
<pdfrwt beam="2">  1       22 0.65011069E+00 0.54352566E+02</pdfrwt>
<totfact> 0.86406085E-02</totfact>
</mgrwt>
</event>
<event>
 4    1  0.2503484E+000  0.5117122E+02  0.7957747E-01  0.1439125E+00
         13   -1    0    0    0    0  0.00000000000E+00  0.00000000000E+00  0.99999944174E+02  0.99999999994E+02  0.10566000000E+00 0.  1.
         22   -1    0    0    0    0 -0.00000000000E+00 -0.00000000000E+00 -0.25164255421E+02  0.25164255421E+02  0.00000000000E+00 0. -1.
         13    1    1    2    0    0 -0.98533070524E+01  0.46266371562E+01 -0.16911165273E+02  0.20111989115E+02  0.10566000000E+00 0. -1.
        996    1    1    2    0    0  0.98533070524E+01 -0.46266371562E+01  0.91746854025E+02  0.10505226630E+03  0.50000000000E+02 0.  0.
<mgrwt>
<rscale>  0 0.51171217E+02</rscale>
<asrwt>0</asrwt>
<pdfrwt beam="1">  1       13 0.10000000E+01 0.51171217E+02</pdfrwt>
<pdfrwt beam="2">  1       22 0.25164276E+00 0.51171217E+02</pdfrwt>
<totfact> 0.29063956E-01</totfact>
</mgrwt>
</event>
<event>
 4    1  0.2503484E+000  0.5337176E+02  0.7957747E-01  0.1427960E+00
         13   -1    0    0    0    0  0.00000000000E+00  0.00000000000E+00  0.99999944178E+02  0.99999999998E+02  0.10566000000E+00 0. -1.
         22   -1    0    0    0    0 -0.00000000000E+00 -0.00000000000E+00 -0.24583952522E+02  0.24583952522E+02  0.00000000000E+00 0.  1.
         13    1    1    2    0    0  0.17286562886E+02  0.70511856906E+01 -0.11977879600E+02  0.22181641955E+02  0.10566000000E+00 0.  1.
        996    1    1    2    0    0 -0.17286562886E+02 -0.70511856906E+01  0.87393871256E+02  0.10240231057E+03  0.50000000000E+02 0.  0.
<mgrwt>
<rscale>  0 0.53371757E+02</rscale>
<asrwt>0</asrwt>
<pdfrwt beam="1">  1       13 0.10000000E+01 0.53371757E+02</pdfrwt>
<pdfrwt beam="2">  1       22 0.24583974E+00 0.53371757E+02</pdfrwt>
<totfact> 0.30533759E-01</totfact>
</mgrwt>
</event>
<event>
 4    1  0.2503484E+000  0.5105590E+02  0.7957747E-01  0.1439728E+00
         13   -1    0    0    0    0  0.00000000000E+00  0.00000000000E+00  0.99999944180E+02  0.10000000000E+03  0.10566000000E+00 0. -1.
         22   -1    0    0    0    0 -0.00000000000E+00 -0.00000000000E+00 -0.21654525774E+02  0.21654525774E+02  0.00000000000E+00 0.  1.
         13    1    1    2    0    0 -0.71747392681E+01 -0.74315896809E+01 -0.13243692938E+02  0.16796189313E+02  0.10566000000E+00 0.  1.
        996    1    1    2    0    0  0.71747392681E+01  0.74315896809E+01  0.91589111344E+02  0.10485833646E+03  0.50000000000E+02 0.  0.
<mgrwt>
<rscale>  0 0.51055905E+02</rscale>
<asrwt>0</asrwt>
<pdfrwt beam="1">  1       13 0.10000000E+01 0.51055905E+02</pdfrwt>
<pdfrwt beam="2">  1       22 0.21654548E+00 0.51055905E+02</pdfrwt>
<totfact> 0.38923092E-01</totfact>
</mgrwt>
</event>
<event>
 4    1  0.2503484E+000  0.5326972E+02  0.7957747E-01  0.1428463E+00
         13   -1    0    0    0    0  0.00000000000E+00  0.00000000000E+00  0.99999944178E+02  0.99999999998E+02  0.10566000000E+00 0. -1.
         22   -1    0    0    0    0 -0.00000000000E+00 -0.00000000000E+00 -0.12989347892E+02  0.12989347892E+02  0.00000000000E+00 0. -1.
         13    1    1    2    0    0 -0.12586679500E+02 -0.13388005025E+02  0.17143938597E+02  0.25131433983E+02  0.10566000000E+00 0.  1.
        996    1    1    2    0    0  0.12586679500E+02  0.13388005025E+02  0.69866657690E+02  0.87857913907E+02  0.50000000000E+02 0.  0.
<mgrwt>
<rscale>  0 0.53269721E+02</rscale>
<asrwt>0</asrwt>
<pdfrwt beam="1">  1       13 0.10000000E+01 0.53269721E+02</pdfrwt>
<pdfrwt beam="2">  1       22 0.12989372E+00 0.53269721E+02</pdfrwt>
<totfact> 0.95307532E-01</totfact>
</mgrwt>
</event>
<event>
 4    1  0.2503484E+000  0.5303644E+02  0.7957747E-01  0.1429620E+00
         13   -1    0    0    0    0  0.00000000000E+00  0.00000000000E+00  0.99999944175E+02  0.99999999996E+02  0.10566000000E+00 0. -1.
         22   -1    0    0    0    0 -0.00000000000E+00 -0.00000000000E+00 -0.17953870638E+02  0.17953870638E+02  0.00000000000E+00 0.  1.
         13    1    1    2    0    0 -0.27234845647E+01 -0.17477036168E+02 -0.27868113158E+01  0.17906469299E+02  0.10566000000E+00 0.  1.
        996    1    1    2    0    0  0.27234845647E+01  0.17477036168E+02  0.84832884853E+02  0.10004740134E+03  0.50000000000E+02 0.  0.
<mgrwt>
<rscale>  0 0.53036442E+02</rscale>
<asrwt>0</asrwt>
<pdfrwt beam="1">  1       13 0.10000000E+01 0.53036442E+02</pdfrwt>
<pdfrwt beam="2">  1       22 0.17953894E+00 0.53036442E+02</pdfrwt>
<totfact> 0.55300749E-01</totfact>
</mgrwt>
</event>
<event>
 4    1  0.2503484E+000  0.5142206E+02  0.7957747E-01  0.1437819E+00
         13   -1    0    0    0    0  0.00000000000E+00  0.00000000000E+00  0.99999944176E+02  0.99999999996E+02  0.10566000000E+00 0.  1.
         22   -1    0    0    0    0 -0.00000000000E+00 -0.00000000000E+00 -0.16717980982E+02  0.16717980982E+02  0.00000000000E+00 0. -1.
         13    1    1    2    0    0  0.11543199888E+02  0.33140255585E+01 -0.61978831780E+01  0.13514923195E+02  0.10566000000E+00 0. -1.
        996    1    1    2    0    0 -0.11543199888E+02 -0.33140255585E+01  0.89479846372E+02  0.10320305778E+03  0.50000000000E+02 0.  0.
<mgrwt>
<rscale>  0 0.51422060E+02</rscale>
<asrwt>0</asrwt>
<pdfrwt beam="1">  1       13 0.10000000E+01 0.51422060E+02</pdfrwt>
<pdfrwt beam="2">  1       22 0.16718004E+00 0.51422060E+02</pdfrwt>
<totfact> 0.62529746E-01</totfact>
</mgrwt>
</event>
<event>
 4    1  0.2503484E+000  0.5391062E+02  0.7957747E-01  0.1425322E+00
         13   -1    0    0    0    0  0.00000000000E+00  0.00000000000E+00  0.99999944180E+02  0.10000000000E+03  0.10566000000E+00 0.  1.
         22   -1    0    0    0    0 -0.00000000000E+00 -0.00000000000E+00 -0.13863763063E+02  0.13863763063E+02  0.00000000000E+00 0.  1.
         13    1    1    2    0    0  0.12449703272E+02  0.15854337600E+02  0.28899188126E+02  0.35235342635E+02  0.10566000000E+00 0. -1.
        996    1    1    2    0    0 -0.12449703272E+02 -0.15854337600E+02  0.57236992991E+02  0.78628420428E+02  0.50000000000E+02 0.  0.
<mgrwt>
<rscale>  0 0.53910622E+02</rscale>
<asrwt>0</asrwt>
<pdfrwt beam="1">  1       13 0.10000000E+01 0.53910622E+02</pdfrwt>
<pdfrwt beam="2">  1       22 0.13863787E+00 0.53910622E+02</pdfrwt>
<totfact> 0.86011517E-01</totfact>
</mgrwt>
</event>
<event>
 4    1  0.2503484E+000  0.5362305E+02  0.7957747E-01  0.1426725E+00
         13   -1    0    0    0    0  0.00000000000E+00  0.00000000000E+00  0.99999944171E+02  0.99999999991E+02  0.10566000000E+00 0. -1.
         22   -1    0    0    0    0 -0.00000000000E+00 -0.00000000000E+00 -0.20906221587E+02  0.20906221587E+02  0.00000000000E+00 0.  1.
         13    1    1    2    0    0  0.17225125978E+02 -0.88728049626E+01 -0.60367422654E+01  0.20294951443E+02  0.10566000000E+00 0.  1.
        996    1    1    2    0    0 -0.17225125978E+02  0.88728049626E+01  0.85130464849E+02  0.10061127014E+03  0.50000000000E+02 0.  0.
<mgrwt>
<rscale>  0 0.53623051E+02</rscale>
<asrwt>0</asrwt>
<pdfrwt beam="1">  1       13 0.10000000E+01 0.53623051E+02</pdfrwt>
<pdfrwt beam="2">  1       22 0.20906244E+00 0.53623051E+02</pdfrwt>
<totfact> 0.41803766E-01</totfact>
</mgrwt>
</event>
<event>
 4    1  0.2503484E+000  0.5285320E+02  0.7957747E-01  0.1430533E+00
         13   -1    0    0    0    0  0.00000000000E+00  0.00000000000E+00  0.99999944175E+02  0.99999999995E+02  0.10566000000E+00 0. -1.
         22   -1    0    0    0    0 -0.00000000000E+00 -0.00000000000E+00 -0.18856073400E+02  0.18856073400E+02  0.00000000000E+00 0.  1.
         13    1    1    2    0    0  0.26548516716E+01  0.16923711234E+02 -0.49512457784E+01  0.17832168632E+02  0.10566000000E+00 0.  1.
        996    1    1    2    0    0 -0.26548516716E+01 -0.16923711234E+02  0.86095116553E+02  0.10102390476E+03  0.50000000000E+02 0.  0.
<mgrwt>
<rscale>  0 0.52853195E+02</rscale>
<asrwt>0</asrwt>
<pdfrwt beam="1">  1       13 0.10000000E+01 0.52853195E+02</pdfrwt>
<pdfrwt beam="2">  1       22 0.18856096E+00 0.52853195E+02</pdfrwt>
<totfact> 0.50589700E-01</totfact>
</mgrwt>
</event>
<event>
 4    1  0.2503484E+000  0.5297068E+02  0.7957747E-01  0.1429947E+00
         13   -1    0    0    0    0  0.00000000000E+00  0.00000000000E+00  0.99999944182E+02  0.10000000000E+03  0.10566000000E+00 0. -1.
         22   -1    0    0    0    0 -0.00000000000E+00 -0.00000000000E+00 -0.15379564328E+02  0.15379564328E+02  0.00000000000E+00 0. -1.
         13    1    1    2    0    0 -0.15243463064E+02  0.85749303964E+01  0.25152017333E+01  0.17670031163E+02  0.10566000000E+00 0.  1.
        996    1    1    2    0    0  0.15243463064E+02 -0.85749303964E+01  0.82105178121E+02  0.97709533167E+02  0.50000000000E+02 0.  0.
<mgrwt>
<rscale>  0 0.52970677E+02</rscale>
<asrwt>0</asrwt>
<pdfrwt beam="1">  1       13 0.10000000E+01 0.52970677E+02</pdfrwt>
<pdfrwt beam="2">  1       22 0.15379588E+00 0.52970677E+02</pdfrwt>
<totfact> 0.72349301E-01</totfact>
</mgrwt>
</event>
<event>
 4    1  0.2503484E+000  0.5130582E+02  0.7957747E-01  0.1438423E+00
         13   -1    0    0    0    0  0.00000000000E+00  0.00000000000E+00  0.99999944177E+02  0.99999999997E+02  0.10566000000E+00 0. -1.
         22   -1    0    0    0    0 -0.00000000000E+00 -0.00000000000E+00 -0.14533073647E+02  0.14533073647E+02  0.00000000000E+00 0.  1.
         13    1    1    2    0    0  0.69729405702E+01  0.91468882809E+01 -0.33346828112E+01  0.11975756298E+02  0.10566000000E+00 0.  1.
        996    1    1    2    0    0 -0.69729405702E+01 -0.91468882809E+01  0.88801553341E+02  0.10255731735E+03  0.50000000000E+02 0.  0.
<mgrwt>
<rscale>  0 0.51305823E+02</rscale>
<asrwt>0</asrwt>
<pdfrwt beam="1">  1       13 0.10000000E+01 0.51305823E+02</pdfrwt>
<pdfrwt beam="2">  1       22 0.14533098E+00 0.51305823E+02</pdfrwt>
<totfact> 0.79222351E-01</totfact>
</mgrwt>
</event>
<event>
 4    1  0.2503484E+000  0.5198375E+02  0.7957747E-01  0.1434926E+00
         13   -1    0    0    0    0  0.00000000000E+00  0.00000000000E+00  0.99999944180E+02  0.10000000000E+03  0.10566000000E+00 0.  1.
         22   -1    0    0    0    0 -0.00000000000E+00 -0.00000000000E+00 -0.15472862487E+02  0.15472862487E+02  0.00000000000E+00 0. -1.
         13    1    1    2    0    0  0.15962648517E+01  0.14133716358E+02 -0.21667939476E+01  0.14388056145E+02  0.10566000000E+00 0. -1.
        996    1    1    2    0    0 -0.15962648517E+01 -0.14133716358E+02  0.86693875641E+02  0.10108480634E+03  0.50000000000E+02 0.  0.
<mgrwt>
<rscale>  0 0.51983747E+02</rscale>
<asrwt>0</asrwt>
<pdfrwt beam="1">  1       13 0.10000000E+01 0.51983747E+02</pdfrwt>
<pdfrwt beam="2">  1       22 0.15472886E+00 0.51983747E+02</pdfrwt>
<totfact> 0.71474770E-01</totfact>
</mgrwt>
</event>
<event>
 4    1  0.2503484E+000  0.5147268E+02  0.7957747E-01  0.1437556E+00
         13   -1    0    0    0    0  0.00000000000E+00  0.00000000000E+00  0.99999944177E+02  0.99999999997E+02  0.10566000000E+00 0.  1.
         22   -1    0    0    0    0 -0.00000000000E+00 -0.00000000000E+00 -0.12230718284E+02  0.12230718284E+02  0.00000000000E+00 0. -1.
         13    1    1    2    0    0 -0.11282429237E+02  0.47057059287E+01  0.22710562857E+01  0.12434055592E+02  0.10566000000E+00 0. -1.
        996    1    1    2    0    0  0.11282429237E+02 -0.47057059287E+01  0.85498169607E+02  0.99796662689E+02  0.50000000000E+02 0.  0.
<mgrwt>
<rscale>  0 0.51472681E+02</rscale>
<asrwt>0</asrwt>
<pdfrwt beam="1">  1       13 0.10000000E+01 0.51472681E+02</pdfrwt>
<pdfrwt beam="2">  1       22 0.12230743E+00 0.51472681E+02</pdfrwt>
<totfact> 0.10427079E+00</totfact>
</mgrwt>
</event>
<event>
 4    1  0.2503484E+000  0.5203535E+02  0.7957747E-01  0.1434663E+00
         13   -1    0    0    0    0  0.00000000000E+00  0.00000000000E+00  0.99999944180E+02  0.10000000000E+03  0.10566000000E+00 0. -1.
         22   -1    0    0    0    0 -0.00000000000E+00 -0.00000000000E+00 -0.29899841778E+02  0.29899841778E+02  0.00000000000E+00 0.  1.
         13    1    1    2    0    0 -0.14295455664E+02  0.18214761160E+01 -0.20714120772E+02  0.25234179029E+02  0.10566000000E+00 0.  1.
        996    1    1    2    0    0  0.14295455664E+02 -0.18214761160E+01  0.90814223174E+02  0.10466566275E+03  0.50000000000E+02 0.  0.
<mgrwt>
<rscale>  0 0.52035352E+02</rscale>
<asrwt>0</asrwt>
<pdfrwt beam="1">  1       13 0.10000000E+01 0.52035352E+02</pdfrwt>
<pdfrwt beam="2">  1       22 0.29899861E+00 0.52035352E+02</pdfrwt>
<totfact> 0.20834096E-01</totfact>
</mgrwt>
</event>
<event>
 4    1  0.2503484E+000  0.7022229E+02  0.7957747E-01  0.1359339E+00
         13   -1    0    0    0    0  0.00000000000E+00  0.00000000000E+00  0.99999944176E+02  0.99999999996E+02  0.10566000000E+00 0.  1.
         22   -1    0    0    0    0 -0.00000000000E+00 -0.00000000000E+00 -0.37774651061E+02  0.37774651061E+02  0.00000000000E+00 0. -1.
         13    1    1    2    0    0 -0.14197128798E+02  0.47218766193E+02  0.10125953526E+02  0.50336035261E+02  0.10566000000E+00 0. -1.
        996    1    1    2    0    0  0.14197128798E+02 -0.47218766193E+02  0.52099339588E+02  0.87438615797E+02  0.50000000000E+02 0.  0.
<mgrwt>
<rscale>  0 0.70222292E+02</rscale>
<asrwt>0</asrwt>
<pdfrwt beam="1">  1       13 0.10000000E+01 0.70222292E+02</pdfrwt>
<pdfrwt beam="2">  1       22 0.37774668E+00 0.70222292E+02</pdfrwt>
<totfact> 0.13932292E-01</totfact>
</mgrwt>
</event>
<event>
 4    1  0.2503484E+000  0.5739911E+02  0.7957747E-01  0.1409082E+00
         13   -1    0    0    0    0  0.00000000000E+00  0.00000000000E+00  0.99999944173E+02  0.99999999993E+02  0.10566000000E+00 0. -1.
         22   -1    0    0    0    0 -0.00000000000E+00 -0.00000000000E+00 -0.81398759634E+02  0.81398759634E+02  0.00000000000E+00 0.  1.
         13    1    1    2    0    0 -0.28102061971E+02 -0.22206937680E+01 -0.70207466523E+02  0.75655514588E+02  0.10566000000E+00 0.  1.
        996    1    1    2    0    0  0.28102061971E+02  0.22206937680E+01  0.88808651063E+02  0.10574324504E+03  0.50000000000E+02 0.  0.
<mgrwt>
<rscale>  0 0.57399106E+02</rscale>
<asrwt>0</asrwt>
<pdfrwt beam="1">  1       13 0.10000000E+01 0.57399106E+02</pdfrwt>
<pdfrwt beam="2">  1       22 0.81398765E+00 0.57399106E+02</pdfrwt>
<totfact> 0.27106050E-02</totfact>
</mgrwt>
</event>
<event>
 4    1  0.2503484E+000  0.5353656E+02  0.7957747E-01  0.1427149E+00
         13   -1    0    0    0    0  0.00000000000E+00  0.00000000000E+00  0.99999944181E+02  0.10000000000E+03  0.10566000000E+00 0. -1.
         22   -1    0    0    0    0 -0.00000000000E+00 -0.00000000000E+00 -0.13785873523E+02  0.13785873523E+02  0.00000000000E+00 0.  1.
         13    1    1    2    0    0 -0.17696260616E+02 -0.72805303717E+01  0.13197667034E+02  0.23245501532E+02  0.10566000000E+00 0.  1.
        996    1    1    2    0    0  0.17696260616E+02  0.72805303717E+01  0.73016403625E+02  0.90540371993E+02  0.50000000000E+02 0.  0.
<mgrwt>
<rscale>  0 0.53536565E+02</rscale>
<asrwt>0</asrwt>
<pdfrwt beam="1">  1       13 0.10000000E+01 0.53536565E+02</pdfrwt>
<pdfrwt beam="2">  1       22 0.13785898E+00 0.53536565E+02</pdfrwt>
<totfact> 0.86731169E-01</totfact>
</mgrwt>
</event>
<event>
 4    1  0.2503484E+000  0.5101730E+02  0.7957747E-01  0.1439930E+00
         13   -1    0    0    0    0  0.00000000000E+00  0.00000000000E+00  0.99999944179E+02  0.99999999999E+02  0.10566000000E+00 0.  1.
         22   -1    0    0    0    0 -0.00000000000E+00 -0.00000000000E+00 -0.17569159657E+02  0.17569159657E+02  0.00000000000E+00 0.  1.
         13    1    1    2    0    0 -0.25004555734E+01 -0.98240977828E+01 -0.85491449611E+01  0.13261380732E+02  0.10566000000E+00 0. -1.
        996    1    1    2    0    0  0.25004555734E+01  0.98240977828E+01  0.90979929483E+02  0.10430777892E+03  0.50000000000E+02 0.  0.
<mgrwt>
<rscale>  0 0.51017303E+02</rscale>
<asrwt>0</asrwt>
<pdfrwt beam="1">  1       13 0.10000000E+01 0.51017303E+02</pdfrwt>
<pdfrwt beam="2">  1       22 0.17569183E+00 0.51017303E+02</pdfrwt>
<totfact> 0.57258760E-01</totfact>
</mgrwt>
</event>
<event>
 4    1  0.2503484E+000  0.5150555E+02  0.7957747E-01  0.1437386E+00
         13   -1    0    0    0    0  0.00000000000E+00  0.00000000000E+00  0.99999944178E+02  0.99999999998E+02  0.10566000000E+00 0. -1.
         22   -1    0    0    0    0 -0.00000000000E+00 -0.00000000000E+00 -0.15059340186E+02  0.15059340186E+02  0.00000000000E+00 0.  1.
         13    1    1    2    0    0  0.35236650136E+01 -0.11849265857E+02 -0.33812757654E+01  0.12816610562E+02  0.10566000000E+00 0.  1.
        996    1    1    2    0    0 -0.35236650136E+01  0.11849265857E+02  0.88321879758E+02  0.10224272962E+03  0.50000000000E+02 0.  0.
<mgrwt>
<rscale>  0 0.51505546E+02</rscale>
<asrwt>0</asrwt>
<pdfrwt beam="1">  1       13 0.10000000E+01 0.51505546E+02</pdfrwt>
<pdfrwt beam="2">  1       22 0.15059364E+00 0.51505546E+02</pdfrwt>
<totfact> 0.74722907E-01</totfact>
</mgrwt>
</event>
<event>
 4    1  0.2503484E+000  0.5136315E+02  0.7957747E-01  0.1438125E+00
         13   -1    0    0    0    0  0.00000000000E+00  0.00000000000E+00  0.99999944180E+02  0.10000000000E+03  0.10566000000E+00 0. -1.
         22   -1    0    0    0    0 -0.00000000000E+00 -0.00000000000E+00 -0.38667881862E+02  0.38667881862E+02  0.00000000000E+00 0.  1.
         13    1    1    2    0    0  0.90131942716E+01 -0.75455462330E+01 -0.30920951237E+02  0.33080044262E+02  0.10566000000E+00 0.  1.
        996    1    1    2    0    0 -0.90131942716E+01  0.75455462330E+01  0.92253013555E+02  0.10558783760E+03  0.50000000000E+02 0.  0.
<mgrwt>
<rscale>  0 0.51363148E+02</rscale>
<asrwt>0</asrwt>
<pdfrwt beam="1">  1       13 0.10000000E+01 0.51363148E+02</pdfrwt>
<pdfrwt beam="2">  1       22 0.38667899E+00 0.51363148E+02</pdfrwt>
<totfact> 0.13164792E-01</totfact>
</mgrwt>
</event>
<event>
 4    1  0.2503484E+000  0.5113928E+02  0.7957747E-01  0.1439292E+00
         13   -1    0    0    0    0  0.00000000000E+00  0.00000000000E+00  0.99999944180E+02  0.10000000000E+03  0.10566000000E+00 0.  1.
         22   -1    0    0    0    0 -0.00000000000E+00 -0.00000000000E+00 -0.97846583282E+01  0.97846583282E+01  0.00000000000E+00 0.  1.
         13    1    1    2    0    0 -0.25620083470E+01  0.10424103811E+02  0.10102165479E+02  0.14740784865E+02  0.10566000000E+00 0. -1.
        996    1    1    2    0    0  0.25620083470E+01 -0.10424103811E+02  0.80113120373E+02  0.95043873463E+02  0.50000000000E+02 0.  0.
<mgrwt>
<rscale>  0 0.51139279E+02</rscale>
<asrwt>0</asrwt>
<pdfrwt beam="1">  1       13 0.10000000E+01 0.51139279E+02</pdfrwt>
<pdfrwt beam="2">  1       22 0.97846835E-01 0.51139279E+02</pdfrwt>
<totfact> 0.14517741E+00</totfact>
</mgrwt>
</event>
<event>
 4    1  0.2503484E+000  0.5148077E+02  0.7957747E-01  0.1437514E+00
         13   -1    0    0    0    0  0.00000000000E+00  0.00000000000E+00  0.99999944177E+02  0.99999999997E+02  0.10566000000E+00 0. -1.
         22   -1    0    0    0    0 -0.00000000000E+00 -0.00000000000E+00 -0.13906178381E+02  0.13906178381E+02  0.00000000000E+00 0. -1.
         13    1    1    2    0    0 -0.11303409827E+02  0.47436947659E+01 -0.14531212003E+01  0.12344733250E+02  0.10566000000E+00 0.  1.
        996    1    1    2    0    0  0.11303409827E+02 -0.47436947659E+01  0.87546886997E+02  0.10156144513E+03  0.50000000000E+02 0.  0.
<mgrwt>
<rscale>  0 0.51480770E+02</rscale>
<asrwt>0</asrwt>
<pdfrwt beam="1">  1       13 0.10000000E+01 0.51480770E+02</pdfrwt>
<pdfrwt beam="2">  1       22 0.13906202E+00 0.51480770E+02</pdfrwt>
<totfact> 0.85156594E-01</totfact>
</mgrwt>
</event>
<event>
 4    1  0.2503484E+000  0.6161084E+02  0.7957747E-01  0.1391193E+00
         13   -1    0    0    0    0  0.00000000000E+00  0.00000000000E+00  0.99999944171E+02  0.99999999991E+02  0.10566000000E+00 0. -1.
         22   -1    0    0    0    0 -0.00000000000E+00 -0.00000000000E+00 -0.29772845920E+02  0.29772845920E+02  0.00000000000E+00 0.  1.
         13    1    1    2    0    0 -0.35595015879E+02 -0.53749373660E+01 -0.46332893747E+00  0.36001679751E+02  0.10566000000E+00 0.  1.
        996    1    1    2    0    0  0.35595015879E+02  0.53749373660E+01  0.70690427188E+02  0.93771166161E+02  0.50000000000E+02 0.  0.
<mgrwt>
<rscale>  0 0.61610836E+02</rscale>
<asrwt>0</asrwt>
<pdfrwt beam="1">  1       13 0.10000000E+01 0.61610836E+02</pdfrwt>
<pdfrwt beam="2">  1       22 0.29772866E+00 0.61610836E+02</pdfrwt>
<totfact> 0.21246739E-01</totfact>
</mgrwt>
</event>
<event>
 4    1  0.2503484E+000  0.5197279E+02  0.7957747E-01  0.1434982E+00
         13   -1    0    0    0    0  0.00000000000E+00  0.00000000000E+00  0.99999944176E+02  0.99999999996E+02  0.10566000000E+00 0.  1.
         22   -1    0    0    0    0 -0.00000000000E+00 -0.00000000000E+00 -0.10952339345E+02  0.10952339345E+02  0.00000000000E+00 0.  1.
         13    1    1    2    0    0  0.13851885078E+02 -0.30490233705E+01  0.20533262076E+02  0.24955906700E+02  0.10566000000E+00 0. -1.
        996    1    1    2    0    0 -0.13851885078E+02  0.30490233705E+01  0.68514342755E+02  0.85996432640E+02  0.50000000000E+02 0.  0.
<mgrwt>
<rscale>  0 0.51972793E+02</rscale>
<asrwt>0</asrwt>
<pdfrwt beam="1">  1       13 0.10000000E+01 0.51972793E+02</pdfrwt>
<pdfrwt beam="2">  1       22 0.10952364E+00 0.51972793E+02</pdfrwt>
<totfact> 0.12335868E+00</totfact>
</mgrwt>
</event>
<event>
 4    1  0.2503484E+000  0.5599110E+02  0.7957747E-01  0.1415469E+00
         13   -1    0    0    0    0  0.00000000000E+00  0.00000000000E+00  0.99999944171E+02  0.99999999992E+02  0.10566000000E+00 0.  1.
         22   -1    0    0    0    0 -0.00000000000E+00 -0.00000000000E+00 -0.24982518334E+02  0.24982518334E+02  0.00000000000E+00 0. -1.
         13    1    1    2    0    0 -0.22054541478E+02  0.12190162153E+02 -0.65593981262E+01  0.26039195858E+02  0.10566000000E+00 0. -1.
        996    1    1    2    0    0  0.22054541478E+02 -0.12190162153E+02  0.81576823963E+02  0.98943322468E+02  0.50000000000E+02 0.  0.
<mgrwt>
<rscale>  0 0.55991096E+02</rscale>
<asrwt>0</asrwt>
<pdfrwt beam="1">  1       13 0.10000000E+01 0.55991096E+02</pdfrwt>
<pdfrwt beam="2">  1       22 0.24982539E+00 0.55991096E+02</pdfrwt>
<totfact> 0.29698294E-01</totfact>
</mgrwt>
</event>
<event>
 4    1  0.2503484E+000  0.5142751E+02  0.7957747E-01  0.1437791E+00
         13   -1    0    0    0    0  0.00000000000E+00  0.00000000000E+00  0.99999944182E+02  0.10000000000E+03  0.10566000000E+00 0.  1.
         22   -1    0    0    0    0 -0.00000000000E+00 -0.00000000000E+00 -0.20269216974E+02  0.20269216974E+02  0.00000000000E+00 0. -1.
         13    1    1    2    0    0 -0.11962493683E+02  0.12990782652E+01 -0.10788226173E+02  0.16161245232E+02  0.10566000000E+00 0. -1.
        996    1    1    2    0    0  0.11962493683E+02 -0.12990782652E+01  0.90518953381E+02  0.10410797174E+03  0.50000000000E+02 0.  0.
<mgrwt>
<rscale>  0 0.51427511E+02</rscale>
<asrwt>0</asrwt>
<pdfrwt beam="1">  1       13 0.10000000E+01 0.51427511E+02</pdfrwt>
<pdfrwt beam="2">  1       22 0.20269239E+00 0.51427511E+02</pdfrwt>
<totfact> 0.44143820E-01</totfact>
</mgrwt>
</event>
<event>
 4    1  0.2503484E+000  0.5562448E+02  0.7957747E-01  0.1417169E+00
         13   -1    0    0    0    0  0.00000000000E+00  0.00000000000E+00  0.99999944178E+02  0.99999999998E+02  0.10566000000E+00 0.  1.
         22   -1    0    0    0    0 -0.00000000000E+00 -0.00000000000E+00 -0.17472136192E+02  0.17472136192E+02  0.00000000000E+00 0.  1.
         13    1    1    2    0    0  0.23204971844E+02  0.74573793388E+01  0.10686839554E+02  0.26613961159E+02  0.10566000000E+00 0. -1.
        996    1    1    2    0    0 -0.23204971844E+02 -0.74573793388E+01  0.71840968432E+02  0.90858175032E+02  0.50000000000E+02 0.  0.
<mgrwt>
<rscale>  0 0.55624484E+02</rscale>
<asrwt>0</asrwt>
<pdfrwt beam="1">  1       13 0.10000000E+01 0.55624484E+02</pdfrwt>
<pdfrwt beam="2">  1       22 0.17472159E+00 0.55624484E+02</pdfrwt>
<totfact> 0.58322364E-01</totfact>
</mgrwt>
</event>
<event>
 4    1  0.2503484E+000  0.5694093E+02  0.7957747E-01  0.1411137E+00
         13   -1    0    0    0    0  0.00000000000E+00  0.00000000000E+00  0.99999944180E+02  0.10000000000E+03  0.10566000000E+00 0. -1.
         22   -1    0    0    0    0 -0.00000000000E+00 -0.00000000000E+00 -0.18014221667E+02  0.18014221667E+02  0.00000000000E+00 0.  1.
         13    1    1    2    0    0  0.26775691367E+02  0.50330363152E+01  0.19682926620E+02  0.33610978372E+02  0.10566000000E+00 0.  1.
        996    1    1    2    0    0 -0.26775691367E+02 -0.50330363152E+01  0.62302795893E+02  0.84403243295E+02  0.50000000000E+02 0.  0.
<mgrwt>
<rscale>  0 0.56940926E+02</rscale>
<asrwt>0</asrwt>
<pdfrwt beam="1">  1       13 0.10000000E+01 0.56940926E+02</pdfrwt>
<pdfrwt beam="2">  1       22 0.18014245E+00 0.56940926E+02</pdfrwt>
<totfact> 0.55351765E-01</totfact>
</mgrwt>
</event>
<event>
 4    1  0.2503484E+000  0.5166440E+02  0.7957747E-01  0.1436566E+00
         13   -1    0    0    0    0  0.00000000000E+00  0.00000000000E+00  0.99999944178E+02  0.99999999998E+02  0.10566000000E+00 0.  1.
         22   -1    0    0    0    0 -0.00000000000E+00 -0.00000000000E+00 -0.12395090838E+02  0.12395090838E+02  0.00000000000E+00 0. -1.
         13    1    1    2    0    0 -0.96622837057E+01 -0.87092092547E+01  0.31395978115E+01  0.13382013701E+02  0.10566000000E+00 0. -1.
        996    1    1    2    0    0  0.96622837057E+01  0.87092092547E+01  0.84465255528E+02  0.99013077135E+02  0.50000000000E+02 0.  0.
<mgrwt>
<rscale>  0 0.51664398E+02</rscale>
<asrwt>0</asrwt>
<pdfrwt beam="1">  1       13 0.10000000E+01 0.51664398E+02</pdfrwt>
<pdfrwt beam="2">  1       22 0.12395115E+00 0.51664398E+02</pdfrwt>
<totfact> 0.10218581E+00</totfact>
</mgrwt>
</event>
<event>
 4    1  0.2503484E+000  0.5368328E+02  0.7957747E-01  0.1426430E+00
         13   -1    0    0    0    0  0.00000000000E+00  0.00000000000E+00  0.99999944177E+02  0.99999999998E+02  0.10566000000E+00 0.  1.
         22   -1    0    0    0    0 -0.00000000000E+00 -0.00000000000E+00 -0.26138236685E+02  0.26138236685E+02  0.00000000000E+00 0. -1.
         13    1    1    2    0    0 -0.18957900193E+02 -0.47426490029E+01 -0.13393322003E+02  0.23691495048E+02  0.10566000000E+00 0. -1.
        996    1    1    2    0    0  0.18957900193E+02  0.47426490029E+01  0.87255029496E+02  0.10244674163E+03  0.50000000000E+02 0.  0.
<mgrwt>
<rscale>  0 0.53683281E+02</rscale>
<asrwt>0</asrwt>
<pdfrwt beam="1">  1       13 0.10000000E+01 0.53683281E+02</pdfrwt>
<pdfrwt beam="2">  1       22 0.26138257E+00 0.53683281E+02</pdfrwt>
<totfact> 0.27074708E-01</totfact>
</mgrwt>
</event>
<event>
 4    1  0.2503484E+000  0.5121454E+02  0.7957747E-01  0.1438899E+00
         13   -1    0    0    0    0  0.00000000000E+00  0.00000000000E+00  0.99999944180E+02  0.10000000000E+03  0.10566000000E+00 0.  1.
         22   -1    0    0    0    0 -0.00000000000E+00 -0.00000000000E+00 -0.61978404425E+02  0.61978404425E+02  0.00000000000E+00 0. -1.
         13    1    1    2    0    0 -0.59477750703E+01  0.93569736849E+01 -0.54829576637E+02  0.55939454977E+02  0.10566000000E+00 0. -1.
        996    1    1    2    0    0  0.59477750703E+01 -0.93569736849E+01  0.92851116392E+02  0.10603894945E+03  0.50000000000E+02 0.  0.
<mgrwt>
<rscale>  0 0.51214539E+02</rscale>
<asrwt>0</asrwt>
<pdfrwt beam="1">  1       13 0.10000000E+01 0.51214539E+02</pdfrwt>
<pdfrwt beam="2">  1       22 0.61978415E+00 0.51214539E+02</pdfrwt>
<totfact> 0.72779949E-02</totfact>
</mgrwt>
</event>
<event>
 4    1  0.2503484E+000  0.5263311E+02  0.7957747E-01  0.1431635E+00
         13   -1    0    0    0    0  0.00000000000E+00  0.00000000000E+00  0.99999944181E+02  0.10000000000E+03  0.10566000000E+00 0. -1.
         22   -1    0    0    0    0 -0.00000000000E+00 -0.00000000000E+00 -0.35315292205E+02  0.35315292205E+02  0.00000000000E+00 0.  1.
         13    1    1    2    0    0 -0.95340076665E+01 -0.13392048903E+02 -0.25825629071E+02  0.30614025494E+02  0.10566000000E+00 0.  1.
        996    1    1    2    0    0  0.95340076665E+01  0.13392048903E+02  0.90510281047E+02  0.10470126671E+03  0.50000000000E+02 0.  0.
<mgrwt>
<rscale>  0 0.52633110E+02</rscale>
<asrwt>0</asrwt>
<pdfrwt beam="1">  1       13 0.10000000E+01 0.52633110E+02</pdfrwt>
<pdfrwt beam="2">  1       22 0.35315310E+00 0.52633110E+02</pdfrwt>
<totfact> 0.15480561E-01</totfact>
</mgrwt>
</event>
<event>
 4    1  0.2503484E+000  0.5105840E+02  0.7957747E-01  0.1439715E+00
         13   -1    0    0    0    0  0.00000000000E+00  0.00000000000E+00  0.99999944169E+02  0.99999999989E+02  0.10566000000E+00 0.  1.
         22   -1    0    0    0    0 -0.00000000000E+00 -0.00000000000E+00 -0.97960350432E+01  0.97960350432E+01  0.00000000000E+00 0. -1.
         13    1    1    2    0    0 -0.10172395246E+02 -0.18660371301E+01  0.82135210990E+01  0.13207301484E+02  0.10566000000E+00 0. -1.
        996    1    1    2    0    0  0.10172395246E+02  0.18660371301E+01  0.81990388027E+02  0.96588733548E+02  0.50000000000E+02 0.  0.
<mgrwt>
<rscale>  0 0.51058395E+02</rscale>
<asrwt>0</asrwt>
<pdfrwt beam="1">  1       13 0.10000000E+01 0.51058395E+02</pdfrwt>
<pdfrwt beam="2">  1       22 0.97960602E-01 0.51058395E+02</pdfrwt>
<totfact> 0.14490588E+00</totfact>
</mgrwt>
</event>
<event>
 4    1  0.2503484E+000  0.5214085E+02  0.7957747E-01  0.1434125E+00
         13   -1    0    0    0    0  0.00000000000E+00  0.00000000000E+00  0.99999944184E+02  0.10000000000E+03  0.10566000000E+00 0. -1.
         22   -1    0    0    0    0 -0.00000000000E+00 -0.00000000000E+00 -0.11240069285E+02  0.11240069285E+02  0.00000000000E+00 0.  1.
         13    1    1    2    0    0  0.13409547530E+02  0.62331269855E+01  0.16896628761E+02  0.22453842979E+02  0.10566000000E+00 0.  1.
        996    1    1    2    0    0 -0.13409547530E+02 -0.62331269855E+01  0.71863246138E+02  0.88786226310E+02  0.50000000000E+02 0.  0.
<mgrwt>
<rscale>  0 0.52140846E+02</rscale>
<asrwt>0</asrwt>
<pdfrwt beam="1">  1       13 0.10000000E+01 0.52140846E+02</pdfrwt>
<pdfrwt beam="2">  1       22 0.11240094E+00 0.52140846E+02</pdfrwt>
<totfact> 0.11872326E+00</totfact>
</mgrwt>
</event>
<event>
 4    1  0.2503484E+000  0.5160452E+02  0.7957747E-01  0.1436874E+00
         13   -1    0    0    0    0  0.00000000000E+00  0.00000000000E+00  0.99999944181E+02  0.10000000000E+03  0.10566000000E+00 0.  1.
         22   -1    0    0    0    0 -0.00000000000E+00 -0.00000000000E+00 -0.27860459808E+02  0.27860459808E+02  0.00000000000E+00 0. -1.
         13    1    1    2    0    0 -0.12638685402E+02  0.18138953320E+01 -0.19137269383E+02  0.23005930288E+02  0.10566000000E+00 0. -1.
        996    1    1    2    0    0  0.12638685402E+02 -0.18138953320E+01  0.91276753755E+02  0.10485452952E+03  0.50000000000E+02 0.  0.
<mgrwt>
<rscale>  0 0.51604521E+02</rscale>
<asrwt>0</asrwt>
<pdfrwt beam="1">  1       13 0.10000000E+01 0.51604521E+02</pdfrwt>
<pdfrwt beam="2">  1       22 0.27860480E+00 0.51604521E+02</pdfrwt>
<totfact> 0.23826882E-01</totfact>
</mgrwt>
</event>
<event>
 4    1  0.2503484E+000  0.5130918E+02  0.7957747E-01  0.1438405E+00
         13   -1    0    0    0    0  0.00000000000E+00  0.00000000000E+00  0.99999944182E+02  0.10000000000E+03  0.10566000000E+00 0.  1.
         22   -1    0    0    0    0 -0.00000000000E+00 -0.00000000000E+00 -0.99490796829E+01  0.99490796829E+01  0.00000000000E+00 0.  1.
         13    1    1    2    0    0  0.11351309656E+02  0.19442114364E+01  0.12885625609E+02  0.17282439075E+02  0.10566000000E+00 0. -1.
        996    1    1    2    0    0 -0.11351309656E+02 -0.19442114364E+01  0.77165238890E+02  0.92666640610E+02  0.50000000000E+02 0.  0.
<mgrwt>
<rscale>  0 0.51309182E+02</rscale>
<asrwt>0</asrwt>
<pdfrwt beam="1">  1       13 0.10000000E+01 0.51309182E+02</pdfrwt>
<pdfrwt beam="2">  1       22 0.99491048E-01 0.51309182E+02</pdfrwt>
<totfact> 0.14178709E+00</totfact>
</mgrwt>
</event>
<event>
 4    1  0.2503484E+000  0.5161271E+02  0.7957747E-01  0.1436832E+00
         13   -1    0    0    0    0  0.00000000000E+00  0.00000000000E+00  0.99999944170E+02  0.99999999991E+02  0.10566000000E+00 0. -1.
         22   -1    0    0    0    0 -0.00000000000E+00 -0.00000000000E+00 -0.17278779257E+02  0.17278779257E+02  0.00000000000E+00 0.  1.
         13    1    1    2    0    0  0.75277030286E+01  0.10354015140E+02 -0.63838407920E+01  0.14305122499E+02  0.10566000000E+00 0.  1.
        996    1    1    2    0    0 -0.75277030286E+01 -0.10354015140E+02  0.89105005705E+02  0.10297365675E+03  0.50000000000E+02 0.  0.
<mgrwt>
<rscale>  0 0.51612711E+02</rscale>
<asrwt>0</asrwt>
<pdfrwt beam="1">  1       13 0.10000000E+01 0.51612711E+02</pdfrwt>
<pdfrwt beam="2">  1       22 0.17278802E+00 0.51612711E+02</pdfrwt>
<totfact> 0.59040388E-01</totfact>
</mgrwt>
</event>
<event>
 4    1  0.2503484E+000  0.5128854E+02  0.7957747E-01  0.1438513E+00
         13   -1    0    0    0    0  0.00000000000E+00  0.00000000000E+00  0.99999944176E+02  0.99999999996E+02  0.10566000000E+00 0.  1.
         22   -1    0    0    0    0 -0.00000000000E+00 -0.00000000000E+00 -0.98496715036E+01  0.98496715036E+01  0.00000000000E+00 0.  1.
         13    1    1    2    0    0 -0.33288236392E+01  0.10928550948E+02  0.18251324515E+02  0.21532215475E+02  0.10566000000E+00 0. -1.
        996    1    1    2    0    0  0.33288236392E+01 -0.10928550948E+02  0.71898948157E+02  0.88317456025E+02  0.50000000000E+02 0.  0.
<mgrwt>
<rscale>  0 0.51288540E+02</rscale>
<asrwt>0</asrwt>
<pdfrwt beam="1">  1       13 0.10000000E+01 0.51288540E+02</pdfrwt>
<pdfrwt beam="2">  1       22 0.98496967E-01 0.51288540E+02</pdfrwt>
<totfact> 0.14385120E+00</totfact>
</mgrwt>
</event>
<event>
 4    1  0.2503484E+000  0.5153099E+02  0.7957747E-01  0.1437255E+00
         13   -1    0    0    0    0  0.00000000000E+00  0.00000000000E+00  0.99999944179E+02  0.99999999999E+02  0.10566000000E+00 0. -1.
         22   -1    0    0    0    0 -0.00000000000E+00 -0.00000000000E+00 -0.10246593861E+02  0.10246593861E+02  0.00000000000E+00 0. -1.
         13    1    1    2    0    0  0.12444103086E+02  0.76606113553E+00  0.16369917926E+02  0.20577364462E+02  0.10566000000E+00 0.  1.
        996    1    1    2    0    0 -0.12444103086E+02 -0.76606113553E+00  0.73383432391E+02  0.89669229398E+02  0.50000000000E+02 0.  0.
<mgrwt>
<rscale>  0 0.51530986E+02</rscale>
<asrwt>0</asrwt>
<pdfrwt beam="1">  1       13 0.10000000E+01 0.51530986E+02</pdfrwt>
<pdfrwt beam="2">  1       22 0.10246619E+00 0.51530986E+02</pdfrwt>
<totfact> 0.13592193E+00</totfact>
</mgrwt>
</event>
<event>
 4    1  0.2503484E+000  0.7731937E+02  0.7957747E-01  0.1336836E+00
         13   -1    0    0    0    0  0.00000000000E+00  0.00000000000E+00  0.99999944186E+02  0.10000000001E+03  0.10566000000E+00 0. -1.
         22   -1    0    0    0    0 -0.00000000000E+00 -0.00000000000E+00 -0.62092754733E+02  0.62092754733E+02  0.00000000000E+00 0.  1.
         13    1    1    2    0    0  0.49317125962E+02  0.32343552787E+02 -0.23367283042E+02  0.63437570894E+02  0.10566000000E+00 0.  1.
        996    1    1    2    0    0 -0.49317125962E+02 -0.32343552787E+02  0.61274472495E+02  0.98655183846E+02  0.50000000000E+02 0.  0.
<mgrwt>
<rscale>  0 0.77319366E+02</rscale>
<asrwt>0</asrwt>
<pdfrwt beam="1">  1       13 0.10000000E+01 0.77319366E+02</pdfrwt>
<pdfrwt beam="2">  1       22 0.62092765E+00 0.77319366E+02</pdfrwt>
<totfact> 0.73560294E-02</totfact>
</mgrwt>
</event>
<event>
 4    1  0.2503484E+000  0.5286543E+02  0.7957747E-01  0.1430472E+00
         13   -1    0    0    0    0  0.00000000000E+00  0.00000000000E+00  0.99999944178E+02  0.99999999998E+02  0.10566000000E+00 0.  1.
         22   -1    0    0    0    0 -0.00000000000E+00 -0.00000000000E+00 -0.12480787989E+02  0.12480787989E+02  0.00000000000E+00 0.  1.
         13    1    1    2    0    0 -0.15244068039E+02  0.78976223162E+01  0.15419215024E+02  0.23076338631E+02  0.10566000000E+00 0. -1.
        996    1    1    2    0    0  0.15244068039E+02 -0.78976223162E+01  0.72099941165E+02  0.89404449356E+02  0.50000000000E+02 0.  0.
<mgrwt>
<rscale>  0 0.52865433E+02</rscale>
<asrwt>0</asrwt>
<pdfrwt beam="1">  1       13 0.10000000E+01 0.52865433E+02</pdfrwt>
<pdfrwt beam="2">  1       22 0.12480812E+00 0.52865433E+02</pdfrwt>
<totfact> 0.10136607E+00</totfact>
</mgrwt>
</event>
<event>
 4    1  0.2503484E+000  0.5268226E+02  0.7957747E-01  0.1431389E+00
         13   -1    0    0    0    0  0.00000000000E+00  0.00000000000E+00  0.99999944183E+02  0.10000000000E+03  0.10566000000E+00 0.  1.
         22   -1    0    0    0    0 -0.00000000000E+00 -0.00000000000E+00 -0.15494079906E+02  0.15494079906E+02  0.00000000000E+00 0. -1.
         13    1    1    2    0    0 -0.16584863731E+02 -0.60271634900E+00  0.83236613612E+00  0.16617008437E+02  0.10566000000E+00 0. -1.
        996    1    1    2    0    0  0.16584863731E+02  0.60271634900E+00  0.83673498141E+02  0.98877071473E+02  0.50000000000E+02 0.  0.
<mgrwt>
<rscale>  0 0.52682264E+02</rscale>
<asrwt>0</asrwt>
<pdfrwt beam="1">  1       13 0.10000000E+01 0.52682264E+02</pdfrwt>
<pdfrwt beam="2">  1       22 0.15494103E+00 0.52682264E+02</pdfrwt>
<totfact> 0.71409631E-01</totfact>
</mgrwt>
</event>
<event>
 4    1  0.2503484E+000  0.5410298E+02  0.7957747E-01  0.1424389E+00
         13   -1    0    0    0    0  0.00000000000E+00  0.00000000000E+00  0.99999944183E+02  0.10000000000E+03  0.10566000000E+00 0.  1.
         22   -1    0    0    0    0 -0.00000000000E+00 -0.00000000000E+00 -0.31794779972E+02  0.31794779972E+02  0.00000000000E+00 0. -1.
         13    1    1    2    0    0  0.13027445259E+02 -0.16044266571E+02 -0.19714320616E+02  0.28562185161E+02  0.10566000000E+00 0. -1.
        996    1    1    2    0    0 -0.13027445259E+02  0.16044266571E+02  0.87919484827E+02  0.10323259481E+03  0.50000000000E+02 0.  0.
<mgrwt>
<rscale>  0 0.54102983E+02</rscale>
<asrwt>0</asrwt>
<pdfrwt beam="1">  1       13 0.10000000E+01 0.54102983E+02</pdfrwt>
<pdfrwt beam="2">  1       22 0.31794799E+00 0.54102983E+02</pdfrwt>
<totfact> 0.18658754E-01</totfact>
</mgrwt>
</event>
<event>
 4    1  0.2503484E+000  0.5656498E+02  0.7957747E-01  0.1412840E+00
         13   -1    0    0    0    0  0.00000000000E+00  0.00000000000E+00  0.99999944187E+02  0.10000000001E+03  0.10566000000E+00 0.  1.
         22   -1    0    0    0    0 -0.00000000000E+00 -0.00000000000E+00 -0.36332514768E+02  0.36332514768E+02  0.00000000000E+00 0. -1.
         13    1    1    2    0    0  0.15863613128E+02  0.21164646572E+02 -0.21504194372E+02  0.34088678848E+02  0.10566000000E+00 0. -1.
        996    1    1    2    0    0 -0.15863613128E+02 -0.21164646572E+02  0.85171623790E+02  0.10224383593E+03  0.50000000000E+02 0.  0.
<mgrwt>
<rscale>  0 0.56564976E+02</rscale>
<asrwt>0</asrwt>
<pdfrwt beam="1">  1       13 0.10000000E+01 0.56564976E+02</pdfrwt>
<pdfrwt beam="2">  1       22 0.36332533E+00 0.56564976E+02</pdfrwt>
<totfact> 0.14783460E-01</totfact>
</mgrwt>
</event>
<event>
 4    1  0.2503484E+000  0.5863572E+02  0.7957747E-01  0.1403648E+00
         13   -1    0    0    0    0  0.00000000000E+00  0.00000000000E+00  0.99999944179E+02  0.99999999999E+02  0.10566000000E+00 0. -1.
         22   -1    0    0    0    0 -0.00000000000E+00 -0.00000000000E+00 -0.20385867555E+02  0.20385867555E+02  0.00000000000E+00 0.  1.
         13    1    1    2    0    0 -0.18373488890E+02  0.24506379520E+02  0.18957962596E+02  0.36021705137E+02  0.10566000000E+00 0.  1.
        996    1    1    2    0    0  0.18373488890E+02 -0.24506379520E+02  0.60656114028E+02  0.84364162416E+02  0.50000000000E+02 0.  0.
<mgrwt>
<rscale>  0 0.58635721E+02</rscale>
<asrwt>0</asrwt>
<pdfrwt beam="1">  1       13 0.10000000E+01 0.58635721E+02</pdfrwt>
<pdfrwt beam="2">  1       22 0.20385890E+00 0.58635721E+02</pdfrwt>
<totfact> 0.44201740E-01</totfact>
</mgrwt>
</event>
<event>
 4    1  0.2503484E+000  0.5540287E+02  0.7957747E-01  0.1418203E+00
         13   -1    0    0    0    0  0.00000000000E+00  0.00000000000E+00  0.99999944183E+02  0.10000000000E+03  0.10566000000E+00 0. -1.
         22   -1    0    0    0    0 -0.00000000000E+00 -0.00000000000E+00 -0.15916713485E+02  0.15916713485E+02  0.00000000000E+00 0. -1.
         13    1    1    2    0    0  0.12974454935E+02  0.20028508840E+02  0.31628922107E+02  0.39621679986E+02  0.10566000000E+00 0.  1.
        996    1    1    2    0    0 -0.12974454935E+02 -0.20028508840E+02  0.52454308591E+02  0.76295033501E+02  0.50000000000E+02 0.  0.
<mgrwt>
<rscale>  0 0.55402867E+02</rscale>
<asrwt>0</asrwt>
<pdfrwt beam="1">  1       13 0.10000000E+01 0.55402867E+02</pdfrwt>
<pdfrwt beam="2">  1       22 0.15916737E+00 0.55402867E+02</pdfrwt>
<totfact> 0.68577146E-01</totfact>
</mgrwt>
</event>
<event>
 4    1  0.2503484E+000  0.5104821E+02  0.7957747E-01  0.1439768E+00
         13   -1    0    0    0    0  0.00000000000E+00  0.00000000000E+00  0.99999944175E+02  0.99999999996E+02  0.10566000000E+00 0. -1.
         22   -1    0    0    0    0 -0.00000000000E+00 -0.00000000000E+00 -0.94445474158E+01  0.94445474158E+01  0.00000000000E+00 0. -1.
         13    1    1    2    0    0  0.14895203131E+01 -0.10183357895E+02  0.12718837748E+02  0.16361523354E+02  0.10566000000E+00 0.  1.
        996    1    1    2    0    0 -0.14895203131E+01  0.10183357895E+02  0.77836559012E+02  0.93083024057E+02  0.50000000000E+02 0.  0.
<mgrwt>
<rscale>  0 0.51048207E+02</rscale>
<asrwt>0</asrwt>
<pdfrwt beam="1">  1       13 0.10000000E+01 0.51048207E+02</pdfrwt>
<pdfrwt beam="2">  1       22 0.94445727E-01 0.51048207E+02</pdfrwt>
<totfact> 0.15269308E+00</totfact>
</mgrwt>
</event>
<event>
 4    1  0.2503484E+000  0.5343661E+02  0.7957747E-01  0.1427640E+00
         13   -1    0    0    0    0  0.00000000000E+00  0.00000000000E+00  0.99999944174E+02  0.99999999994E+02  0.10566000000E+00 0. -1.
         22   -1    0    0    0    0 -0.00000000000E+00 -0.00000000000E+00 -0.13798674428E+02  0.13798674428E+02  0.00000000000E+00 0. -1.
         13    1    1    2    0    0  0.42603820073E+01  0.18366298549E+02  0.35191545551E+02  0.39924025593E+02  0.10566000000E+00 0.  1.
        996    1    1    2    0    0 -0.42603820073E+01 -0.18366298549E+02  0.51009724195E+02  0.73874648829E+02  0.50000000000E+02 0.  0.
<mgrwt>
<rscale>  0 0.53436615E+02</rscale>
<asrwt>0</asrwt>
<pdfrwt beam="1">  1       13 0.10000000E+01 0.53436615E+02</pdfrwt>
<pdfrwt beam="2">  1       22 0.13798698E+00 0.53436615E+02</pdfrwt>
<totfact> 0.86583706E-01</totfact>
</mgrwt>
</event>
<event>
 4    1  0.2503484E+000  0.5109282E+02  0.7957747E-01  0.1439535E+00
         13   -1    0    0    0    0  0.00000000000E+00  0.00000000000E+00  0.99999944180E+02  0.10000000000E+03  0.10566000000E+00 0.  1.
         22   -1    0    0    0    0 -0.00000000000E+00 -0.00000000000E+00 -0.14668136290E+02  0.14668136290E+02  0.00000000000E+00 0.  1.
         13    1    1    2    0    0 -0.10216314454E+02  0.24704376696E+01 -0.44117830604E+01  0.11399611270E+02  0.10566000000E+00 0. -1.
        996    1    1    2    0    0  0.10216314454E+02 -0.24704376696E+01  0.89743590950E+02  0.10326852502E+03  0.50000000000E+02 0.  0.
<mgrwt>
<rscale>  0 0.51092819E+02</rscale>
<asrwt>0</asrwt>
<pdfrwt beam="1">  1       13 0.10000000E+01 0.51092819E+02</pdfrwt>
<pdfrwt beam="2">  1       22 0.14668160E+00 0.51092819E+02</pdfrwt>
<totfact> 0.77989834E-01</totfact>
</mgrwt>
</event>
<event>
 4    1  0.2503484E+000  0.5105648E+02  0.7957747E-01  0.1439725E+00
         13   -1    0    0    0    0  0.00000000000E+00  0.00000000000E+00  0.99999944177E+02  0.99999999997E+02  0.10566000000E+00 0.  1.
         22   -1    0    0    0    0 -0.00000000000E+00 -0.00000000000E+00 -0.95265215236E+01  0.95265215236E+01  0.00000000000E+00 0.  1.
         13    1    1    2    0    0 -0.99592287990E+01 -0.27527971298E+01  0.11241886539E+02  0.15269423935E+02  0.10566000000E+00 0. -1.
        996    1    1    2    0    0  0.99592287990E+01  0.27527971298E+01  0.79231536115E+02  0.94257097586E+02  0.50000000000E+02 0.  0.
<mgrwt>
<rscale>  0 0.51056480E+02</rscale>
<asrwt>0</asrwt>
<pdfrwt beam="1">  1       13 0.10000000E+01 0.51056480E+02</pdfrwt>
<pdfrwt beam="2">  1       22 0.95265468E-01 0.51056480E+02</pdfrwt>
<totfact> 0.15082327E+00</totfact>
</mgrwt>
</event>
<event>
 4    1  0.2503484E+000  0.5679260E+02  0.7957747E-01  0.1411807E+00
         13   -1    0    0    0    0  0.00000000000E+00  0.00000000000E+00  0.99999944171E+02  0.99999999991E+02  0.10566000000E+00 0. -1.
         22   -1    0    0    0    0 -0.00000000000E+00 -0.00000000000E+00 -0.19072193034E+02  0.19072193034E+02  0.00000000000E+00 0. -1.
         13    1    1    2    0    0  0.12778319774E+02 -0.23708948028E+02  0.43138766646E+02  0.50856307619E+02  0.10566000000E+00 0.  1.
        996    1    1    2    0    0 -0.12778319774E+02  0.23708948028E+02  0.37788984492E+02  0.68215885406E+02  0.50000000000E+02 0.  0.
<mgrwt>
<rscale>  0 0.56792602E+02</rscale>
<asrwt>0</asrwt>
<pdfrwt beam="1">  1       13 0.10000000E+01 0.56792602E+02</pdfrwt>
<pdfrwt beam="2">  1       22 0.19072216E+00 0.56792602E+02</pdfrwt>
<totfact> 0.49885514E-01</totfact>
</mgrwt>
</event>
<event>
 4    1  0.2503484E+000  0.5744303E+02  0.7957747E-01  0.1408887E+00
         13   -1    0    0    0    0  0.00000000000E+00  0.00000000000E+00  0.99999944177E+02  0.99999999997E+02  0.10566000000E+00 0.  1.
         22   -1    0    0    0    0 -0.00000000000E+00 -0.00000000000E+00 -0.22804987207E+02  0.22804987207E+02  0.00000000000E+00 0. -1.
         13    1    1    2    0    0 -0.12105122455E+02  0.25557138591E+02  0.22367257578E+01  0.28367506566E+02  0.10566000000E+00 0. -1.
        996    1    1    2    0    0  0.12105122455E+02 -0.25557138591E+02  0.74958231212E+02  0.94437480637E+02  0.50000000000E+02 0.  0.
<mgrwt>
<rscale>  0 0.57443027E+02</rscale>
<asrwt>0</asrwt>
<pdfrwt beam="1">  1       13 0.10000000E+01 0.57443027E+02</pdfrwt>
<pdfrwt beam="2">  1       22 0.22805009E+00 0.57443027E+02</pdfrwt>
<totfact> 0.35589964E-01</totfact>
</mgrwt>
</event>
<event>
 4    1  0.2503484E+000  0.5137728E+02  0.7957747E-01  0.1438051E+00
         13   -1    0    0    0    0  0.00000000000E+00  0.00000000000E+00  0.99999944176E+02  0.99999999996E+02  0.10566000000E+00 0.  1.
         22   -1    0    0    0    0 -0.00000000000E+00 -0.00000000000E+00 -0.10859292035E+02  0.10859292035E+02  0.00000000000E+00 0.  1.
         13    1    1    2    0    0 -0.12465626355E+01  0.11750339295E+02  0.63295284176E+01  0.13405166391E+02  0.10566000000E+00 0. -1.
        996    1    1    2    0    0  0.12465626355E+01 -0.11750339295E+02  0.82811123724E+02  0.97454125640E+02  0.50000000000E+02 0.  0.
<mgrwt>
<rscale>  0 0.51377275E+02</rscale>
<asrwt>0</asrwt>
<pdfrwt beam="1">  1       13 0.10000000E+01 0.51377275E+02</pdfrwt>
<pdfrwt beam="2">  1       22 0.10859317E+00 0.51377275E+02</pdfrwt>
<totfact> 0.12475691E+00</totfact>
</mgrwt>
</event>
<event>
 4    1  0.2503484E+000  0.5115530E+02  0.7957747E-01  0.1439208E+00
         13   -1    0    0    0    0  0.00000000000E+00  0.00000000000E+00  0.99999944174E+02  0.99999999994E+02  0.10566000000E+00 0. -1.
         22   -1    0    0    0    0 -0.00000000000E+00 -0.00000000000E+00 -0.99130174066E+01  0.99130174066E+01  0.00000000000E+00 0. -1.
         13    1    1    2    0    0 -0.46478522881E+01  0.97602337162E+01  0.24148434185E+02  0.26457942677E+02  0.10566000000E+00 0.  1.
        996    1    1    2    0    0  0.46478522881E+01 -0.97602337162E+01  0.65938492583E+02  0.83455074724E+02  0.50000000000E+02 0.  0.
<mgrwt>
<rscale>  0 0.51155300E+02</rscale>
<asrwt>0</asrwt>
<pdfrwt beam="1">  1       13 0.10000000E+01 0.51155300E+02</pdfrwt>
<pdfrwt beam="2">  1       22 0.99130426E-01 0.51155300E+02</pdfrwt>
<totfact> 0.14247975E+00</totfact>
</mgrwt>
</event>
<event>
 4    1  0.2503484E+000  0.5648625E+02  0.7957747E-01  0.1413198E+00
         13   -1    0    0    0    0  0.00000000000E+00  0.00000000000E+00  0.99999944185E+02  0.10000000000E+03  0.10566000000E+00 0. -1.
         22   -1    0    0    0    0 -0.00000000000E+00 -0.00000000000E+00 -0.34593226931E+02  0.34593226931E+02  0.00000000000E+00 0.  1.
         13    1    1    2    0    0 -0.25579711947E+02 -0.60311318466E+01 -0.19421616147E+02  0.32678839521E+02  0.10566000000E+00 0.  1.
        996    1    1    2    0    0  0.25579711947E+02  0.60311318466E+01  0.84828333401E+02  0.10191438741E+03  0.50000000000E+02 0.  0.
<mgrwt>
<rscale>  0 0.56486248E+02</rscale>
<asrwt>0</asrwt>
<pdfrwt beam="1">  1       13 0.10000000E+01 0.56486248E+02</pdfrwt>
<pdfrwt beam="2">  1       22 0.34593245E+00 0.56486248E+02</pdfrwt>
<totfact> 0.16111079E-01</totfact>
</mgrwt>
</event>
<event>
 4    1  0.2503484E+000  0.5359920E+02  0.7957747E-01  0.1426842E+00
         13   -1    0    0    0    0  0.00000000000E+00  0.00000000000E+00  0.99999944184E+02  0.10000000000E+03  0.10566000000E+00 0.  1.
         22   -1    0    0    0    0 -0.00000000000E+00 -0.00000000000E+00 -0.24822123803E+02  0.24822123803E+02  0.00000000000E+00 0. -1.
         13    1    1    2    0    0  0.57756612119E+01 -0.18425970266E+02 -0.11818439234E+02  0.22639816975E+02  0.10566000000E+00 0. -1.
        996    1    1    2    0    0 -0.57756612119E+01  0.18425970266E+02  0.86996259615E+02  0.10218230683E+03  0.50000000000E+02 0.  0.
<mgrwt>
<rscale>  0 0.53599204E+02</rscale>
<asrwt>0</asrwt>
<pdfrwt beam="1">  1       13 0.10000000E+01 0.53599204E+02</pdfrwt>
<pdfrwt beam="2">  1       22 0.24822145E+00 0.53599204E+02</pdfrwt>
<totfact> 0.29970590E-01</totfact>
</mgrwt>
</event>
<event>
 4    1  0.2503484E+000  0.5275049E+02  0.7957747E-01  0.1431047E+00
         13   -1    0    0    0    0  0.00000000000E+00  0.00000000000E+00  0.99999944178E+02  0.99999999998E+02  0.10566000000E+00 0.  1.
         22   -1    0    0    0    0 -0.00000000000E+00 -0.00000000000E+00 -0.14550092415E+02  0.14550092415E+02  0.00000000000E+00 0. -1.
         13    1    1    2    0    0  0.48963404615E+01  0.16082280640E+02  0.36287455758E+01  0.17198629567E+02  0.10566000000E+00 0. -1.
        996    1    1    2    0    0 -0.48963404615E+01 -0.16082280640E+02  0.81821106187E+02  0.97351462845E+02  0.50000000000E+02 0.  0.
<mgrwt>
<rscale>  0 0.52750487E+02</rscale>
<asrwt>0</asrwt>
<pdfrwt beam="1">  1       13 0.10000000E+01 0.52750487E+02</pdfrwt>
<pdfrwt beam="2">  1       22 0.14550116E+00 0.52750487E+02</pdfrwt>
<totfact> 0.79306670E-01</totfact>
</mgrwt>
</event>
<event>
 4    1  0.2503484E+000  0.5259647E+02  0.7957747E-01  0.1431820E+00
         13   -1    0    0    0    0  0.00000000000E+00  0.00000000000E+00  0.99999944182E+02  0.10000000000E+03  0.10566000000E+00 0.  1.
         22   -1    0    0    0    0 -0.00000000000E+00 -0.00000000000E+00 -0.47957921843E+02  0.47957921843E+02  0.00000000000E+00 0. -1.
         13    1    1    2    0    0  0.65843460305E+01 -0.14934367007E+02 -0.39300307146E+02  0.42554837990E+02  0.10566000000E+00 0. -1.
        996    1    1    2    0    0 -0.65843460305E+01  0.14934367007E+02  0.91342329485E+02  0.10540308386E+03  0.50000000000E+02 0.  0.
<mgrwt>
<rscale>  0 0.52596473E+02</rscale>
<asrwt>0</asrwt>
<pdfrwt beam="1">  1       13 0.10000000E+01 0.52596473E+02</pdfrwt>
<pdfrwt beam="2">  1       22 0.47957936E+00 0.52596473E+02</pdfrwt>
<totfact> 0.82470809E-02</totfact>
</mgrwt>
</event>
<event>
 4    1  0.2503484E+000  0.6490661E+02  0.7957747E-01  0.1378323E+00
         13   -1    0    0    0    0  0.00000000000E+00  0.00000000000E+00  0.99999944176E+02  0.99999999996E+02  0.10566000000E+00 0. -1.
         22   -1    0    0    0    0 -0.00000000000E+00 -0.00000000000E+00 -0.56775015391E+02  0.56775015391E+02  0.00000000000E+00 0.  1.
         13    1    1    2    0    0 -0.25318991442E+02 -0.32738620656E+02 -0.35652294358E+02  0.54625688710E+02  0.10566000000E+00 0.  1.
        996    1    1    2    0    0  0.25318991442E+02  0.32738620656E+02  0.78877223143E+02  0.10214932668E+03  0.50000000000E+02 0.  0.
<mgrwt>
<rscale>  0 0.64906615E+02</rscale>
<asrwt>0</asrwt>
<pdfrwt beam="1">  1       13 0.10000000E+01 0.64906615E+02</pdfrwt>
<pdfrwt beam="2">  1       22 0.56775027E+00 0.64906615E+02</pdfrwt>
<totfact> 0.58061434E-02</totfact>
</mgrwt>
</event>
<event>
 4    1  0.2503484E+000  0.5182366E+02  0.7957747E-01  0.1435746E+00
         13   -1    0    0    0    0  0.00000000000E+00  0.00000000000E+00  0.99999944181E+02  0.10000000000E+03  0.10566000000E+00 0.  1.
         22   -1    0    0    0    0 -0.00000000000E+00 -0.00000000000E+00 -0.11581827082E+02  0.11581827082E+02  0.00000000000E+00 0.  1.
         13    1    1    2    0    0 -0.88400059797E+01  0.10370433565E+02  0.76794715794E+01  0.15642156048E+02  0.10566000000E+00 0. -1.
        996    1    1    2    0    0  0.88400059797E+01 -0.10370433565E+02  0.80738645519E+02  0.95939671035E+02  0.50000000000E+02 0.  0.
<mgrwt>
<rscale>  0 0.51823659E+02</rscale>
<asrwt>0</asrwt>
<pdfrwt beam="1">  1       13 0.10000000E+01 0.51823659E+02</pdfrwt>
<pdfrwt beam="2">  1       22 0.11581852E+00 0.51823659E+02</pdfrwt>
<totfact> 0.11340911E+00</totfact>
</mgrwt>
</event>
<event>
 4    1  0.2503484E+000  0.5142155E+02  0.7957747E-01  0.1437822E+00
         13   -1    0    0    0    0  0.00000000000E+00  0.00000000000E+00  0.99999944177E+02  0.99999999997E+02  0.10566000000E+00 0.  1.
         22   -1    0    0    0    0 -0.00000000000E+00 -0.00000000000E+00 -0.10286968893E+02  0.10286968893E+02  0.00000000000E+00 0.  1.
         13    1    1    2    0    0 -0.11499671672E+02 -0.34544652561E+01  0.11115153173E+02  0.16362566207E+02  0.10566000000E+00 0. -1.
        996    1    1    2    0    0  0.11499671672E+02  0.34544652561E+01  0.78597822111E+02  0.93924402683E+02  0.50000000000E+02 0.  0.
<mgrwt>
<rscale>  0 0.51421550E+02</rscale>
<asrwt>0</asrwt>
<pdfrwt beam="1">  1       13 0.10000000E+01 0.51421550E+02</pdfrwt>
<pdfrwt beam="2">  1       22 0.10286994E+00 0.51421550E+02</pdfrwt>
<totfact> 0.13510910E+00</totfact>
</mgrwt>
</event>
<event>
 4    1  0.2503484E+000  0.5927705E+02  0.7957747E-01  0.1400891E+00
         13   -1    0    0    0    0  0.00000000000E+00  0.00000000000E+00  0.99999944177E+02  0.99999999997E+02  0.10566000000E+00 0.  1.
         22   -1    0    0    0    0 -0.00000000000E+00 -0.00000000000E+00 -0.21171089569E+02  0.21171089569E+02  0.00000000000E+00 0. -1.
         13    1    1    2    0    0 -0.30778207516E+02  0.81529322597E+01  0.19678598391E+02  0.37430292024E+02  0.10566000000E+00 0. -1.
        996    1    1    2    0    0  0.30778207516E+02 -0.81529322597E+01  0.59150256218E+02  0.83740797542E+02  0.50000000000E+02 0.  0.
<mgrwt>
<rscale>  0 0.59277048E+02</rscale>
<asrwt>0</asrwt>
<pdfrwt beam="1">  1       13 0.10000000E+01 0.59277048E+02</pdfrwt>
<pdfrwt beam="2">  1       22 0.21171112E+00 0.59277048E+02</pdfrwt>
<totfact> 0.41186267E-01</totfact>
</mgrwt>
</event>
<event>
 4    1  0.2503484E+000  0.5442161E+02  0.7957747E-01  0.1422854E+00
         13   -1    0    0    0    0  0.00000000000E+00  0.00000000000E+00  0.99999944181E+02  0.10000000000E+03  0.10566000000E+00 0. -1.
         22   -1    0    0    0    0 -0.00000000000E+00 -0.00000000000E+00 -0.14406599851E+02  0.14406599851E+02  0.00000000000E+00 0. -1.
         13    1    1    2    0    0 -0.19999943947E+02  0.78557946762E+01  0.24671655934E+02  0.32717167335E+02  0.10566000000E+00 0.  1.
        996    1    1    2    0    0  0.19999943947E+02 -0.78557946762E+01  0.60921688397E+02  0.81689432517E+02  0.50000000000E+02 0.  0.
<mgrwt>
<rscale>  0 0.54421607E+02</rscale>
<asrwt>0</asrwt>
<pdfrwt beam="1">  1       13 0.10000000E+01 0.54421607E+02</pdfrwt>
<pdfrwt beam="2">  1       22 0.14406624E+00 0.54421607E+02</pdfrwt>
<totfact> 0.80879630E-01</totfact>
</mgrwt>
</event>
<event>
 4    1  0.2503484E+000  0.5460379E+02  0.7957747E-01  0.1421982E+00
         13   -1    0    0    0    0  0.00000000000E+00  0.00000000000E+00  0.99999944171E+02  0.99999999991E+02  0.10566000000E+00 0. -1.
         22   -1    0    0    0    0 -0.00000000000E+00 -0.00000000000E+00 -0.25211302571E+02  0.25211302571E+02  0.00000000000E+00 0.  1.
         13    1    1    2    0    0  0.20226841368E+02 -0.85116824404E+01 -0.10194914871E+02  0.24197547458E+02  0.10566000000E+00 0.  1.
        996    1    1    2    0    0 -0.20226841368E+02  0.85116824404E+01  0.84983556471E+02  0.10101375510E+03  0.50000000000E+02 0.  0.
<mgrwt>
<rscale>  0 0.54603790E+02</rscale>
<asrwt>0</asrwt>
<pdfrwt beam="1">  1       13 0.10000000E+01 0.54603790E+02</pdfrwt>
<pdfrwt beam="2">  1       22 0.25211323E+00 0.54603790E+02</pdfrwt>
<totfact> 0.29110138E-01</totfact>
</mgrwt>
</event>
<event>
 4    1  0.2503484E+000  0.7496926E+02  0.7957747E-01  0.1343966E+00
         13   -1    0    0    0    0  0.00000000000E+00  0.00000000000E+00  0.99999944176E+02  0.99999999996E+02  0.10566000000E+00 0. -1.
         22   -1    0    0    0    0 -0.00000000000E+00 -0.00000000000E+00 -0.43946119979E+02  0.43946119979E+02  0.00000000000E+00 0.  1.
         13    1    1    2    0    0  0.55325320395E+02  0.77135111369E+01  0.12494446428E+02  0.57240821853E+02  0.10566000000E+00 0.  1.
        996    1    1    2    0    0 -0.55325320395E+02 -0.77135111369E+01  0.43559377769E+02  0.86705298122E+02  0.50000000000E+02 0.  0.
<mgrwt>
<rscale>  0 0.74969256E+02</rscale>
<asrwt>0</asrwt>
<pdfrwt beam="1">  1       13 0.10000000E+01 0.74969256E+02</pdfrwt>
<pdfrwt beam="2">  1       22 0.43946136E+00 0.74969256E+02</pdfrwt>
<totfact> 0.10321768E-01</totfact>
</mgrwt>
</event>
<event>
 4    1  0.2503484E+000  0.6232134E+02  0.7957747E-01  0.1388340E+00
         13   -1    0    0    0    0  0.00000000000E+00  0.00000000000E+00  0.99999944179E+02  0.99999999999E+02  0.10566000000E+00 0.  1.
         22   -1    0    0    0    0 -0.00000000000E+00 -0.00000000000E+00 -0.25678502953E+02  0.25678502953E+02  0.00000000000E+00 0. -1.
         13    1    1    2    0    0 -0.37170939730E+02  0.15069928403E+01  0.16615000810E+02  0.40743333244E+02  0.10566000000E+00 0. -1.
        996    1    1    2    0    0  0.37170939730E+02 -0.15069928403E+01  0.57706440415E+02  0.84935169708E+02  0.50000000000E+02 0.  0.
<mgrwt>
<rscale>  0 0.62321343E+02</rscale>
<asrwt>0</asrwt>
<pdfrwt beam="1">  1       13 0.10000000E+01 0.62321343E+02</pdfrwt>
<pdfrwt beam="2">  1       22 0.25678524E+00 0.62321343E+02</pdfrwt>
<totfact> 0.28371297E-01</totfact>
</mgrwt>
</event>
<event>
 4    1  0.2503484E+000  0.5993652E+02  0.7957747E-01  0.1398098E+00
         13   -1    0    0    0    0  0.00000000000E+00  0.00000000000E+00  0.99999944190E+02  0.10000000001E+03  0.10566000000E+00 0.  1.
         22   -1    0    0    0    0 -0.00000000000E+00 -0.00000000000E+00 -0.89513043661E+02  0.89513043661E+02  0.00000000000E+00 0. -1.
         13    1    1    2    0    0 -0.68545091747E+01  0.32332681571E+02 -0.76810993069E+02  0.83620131631E+02  0.10566000000E+00 0. -1.
        996    1    1    2    0    0  0.68545091747E+01 -0.32332681571E+02  0.87297893598E+02  0.10589291204E+03  0.50000000000E+02 0.  0.
<mgrwt>
<rscale>  0 0.59936521E+02</rscale>
<asrwt>0</asrwt>
<pdfrwt beam="1">  1       13 0.10000000E+01 0.59936521E+02</pdfrwt>
<pdfrwt beam="2">  1       22 0.89513047E+00 0.59936521E+02</pdfrwt>
<totfact> 0.11114410E-02</totfact>
</mgrwt>
</event>
<event>
 4    1  0.2503484E+000  0.5190671E+02  0.7957747E-01  0.1435320E+00
         13   -1    0    0    0    0  0.00000000000E+00  0.00000000000E+00  0.99999944182E+02  0.10000000000E+03  0.10566000000E+00 0.  1.
         22   -1    0    0    0    0 -0.00000000000E+00 -0.00000000000E+00 -0.15807531381E+02  0.15807531381E+02  0.00000000000E+00 0.  1.
         13    1    1    2    0    0  0.18431057562E+01  0.13816998542E+02 -0.30702520734E+01  0.14273895732E+02  0.10566000000E+00 0. -1.
        996    1    1    2    0    0 -0.18431057562E+01 -0.13816998542E+02  0.87262664875E+02  0.10153363565E+03  0.50000000000E+02 0.  0.
<mgrwt>
<rscale>  0 0.51906709E+02</rscale>
<asrwt>0</asrwt>
<pdfrwt beam="1">  1       13 0.10000000E+01 0.51906709E+02</pdfrwt>
<pdfrwt beam="2">  1       22 0.15807555E+00 0.51906709E+02</pdfrwt>
<totfact> 0.68919990E-01</totfact>
</mgrwt>
</event>
<event>
 4    1  0.2503484E+000  0.5264752E+02  0.7957747E-01  0.1431563E+00
         13   -1    0    0    0    0  0.00000000000E+00  0.00000000000E+00  0.99999944183E+02  0.10000000000E+03  0.10566000000E+00 0.  1.
         22   -1    0    0    0    0 -0.00000000000E+00 -0.00000000000E+00 -0.16738949973E+02  0.16738949973E+02  0.00000000000E+00 0. -1.
         13    1    1    2    0    0  0.15897754557E+02 -0.43614953885E+01 -0.19244264840E+01  0.16597464363E+02  0.10566000000E+00 0. -1.
        996    1    1    2    0    0 -0.15897754557E+02  0.43614953885E+01  0.85185420694E+02  0.10014148561E+03  0.50000000000E+02 0.  0.
<mgrwt>
<rscale>  0 0.52647519E+02</rscale>
<asrwt>0</asrwt>
<pdfrwt beam="1">  1       13 0.10000000E+01 0.52647519E+02</pdfrwt>
<pdfrwt beam="2">  1       22 0.16738973E+00 0.52647519E+02</pdfrwt>
<totfact> 0.62542726E-01</totfact>
</mgrwt>
</event>
<event>
 4    1  0.2503484E+000  0.5340653E+02  0.7957747E-01  0.1427788E+00
         13   -1    0    0    0    0  0.00000000000E+00  0.00000000000E+00  0.99999944183E+02  0.10000000000E+03  0.10566000000E+00 0.  1.
         22   -1    0    0    0    0 -0.00000000000E+00 -0.00000000000E+00 -0.14580200764E+02  0.14580200764E+02  0.00000000000E+00 0.  1.
         13    1    1    2    0    0 -0.18502781605E+02  0.31472060057E+01  0.77166264287E+01  0.20293233361E+02  0.10566000000E+00 0. -1.
        996    1    1    2    0    0  0.18502781605E+02 -0.31472060057E+01  0.77703116991E+02  0.94286967407E+02  0.50000000000E+02 0.  0.
<mgrwt>
<rscale>  0 0.53406534E+02</rscale>
<asrwt>0</asrwt>
<pdfrwt beam="1">  1       13 0.10000000E+01 0.53406534E+02</pdfrwt>
<pdfrwt beam="2">  1       22 0.14580225E+00 0.53406534E+02</pdfrwt>
<totfact> 0.79142140E-01</totfact>
</mgrwt>
</event>
<event>
 4    1  0.2503484E+000  0.5364506E+02  0.7957747E-01  0.1426617E+00
         13   -1    0    0    0    0  0.00000000000E+00  0.00000000000E+00  0.99999944181E+02  0.10000000000E+03  0.10566000000E+00 0.  1.
         22   -1    0    0    0    0 -0.00000000000E+00 -0.00000000000E+00 -0.14141158554E+02  0.14141158554E+02  0.00000000000E+00 0. -1.
         13    1    1    2    0    0 -0.32147400132E+01  0.19169182653E+02  0.11953066701E+02  0.22818393557E+02  0.10566000000E+00 0. -1.
        996    1    1    2    0    0  0.32147400132E+01 -0.19169182653E+02  0.73905718926E+02  0.91322764998E+02  0.50000000000E+02 0.  0.
<mgrwt>
<rscale>  0 0.53645057E+02</rscale>
<asrwt>0</asrwt>
<pdfrwt beam="1">  1       13 0.10000000E+01 0.53645057E+02</pdfrwt>
<pdfrwt beam="2">  1       22 0.14141183E+00 0.53645057E+02</pdfrwt>
<totfact> 0.83246452E-01</totfact>
</mgrwt>
</event>
<event>
 4    1  0.2503484E+000  0.5221093E+02  0.7957747E-01  0.1433769E+00
         13   -1    0    0    0    0  0.00000000000E+00  0.00000000000E+00  0.99999944188E+02  0.10000000001E+03  0.10566000000E+00 0.  1.
         22   -1    0    0    0    0 -0.00000000000E+00 -0.00000000000E+00 -0.22412578221E+02  0.22412578221E+02  0.00000000000E+00 0. -1.
         13    1    1    2    0    0  0.11105789353E+02  0.10131293549E+02 -0.11653215049E+02  0.19020784714E+02  0.10566000000E+00 0. -1.
        996    1    1    2    0    0 -0.11105789353E+02 -0.10131293549E+02  0.89240581017E+02  0.10339179352E+03  0.50000000000E+02 0.  0.
<mgrwt>
<rscale>  0 0.52210934E+02</rscale>
<asrwt>0</asrwt>
<pdfrwt beam="1">  1       13 0.10000000E+01 0.52210934E+02</pdfrwt>
<pdfrwt beam="2">  1       22 0.22412600E+00 0.52210934E+02</pdfrwt>
<totfact> 0.36503617E-01</totfact>
</mgrwt>
</event>
<event>
 4    1  0.2503484E+000  0.6049727E+02  0.7957747E-01  0.1395757E+00
         13   -1    0    0    0    0  0.00000000000E+00  0.00000000000E+00  0.99999944178E+02  0.99999999998E+02  0.10566000000E+00 0.  1.
         22   -1    0    0    0    0 -0.00000000000E+00 -0.00000000000E+00 -0.27392483557E+02  0.27392483557E+02  0.00000000000E+00 0. -1.
         13    1    1    2    0    0 -0.33885029515E+02  0.34241220890E+01  0.15821413955E+01  0.34094488891E+02  0.10566000000E+00 0. -1.
        996    1    1    2    0    0  0.33885029515E+02 -0.34241220890E+01  0.71025319226E+02  0.93297994664E+02  0.50000000000E+02 0.  0.
<mgrwt>
<rscale>  0 0.60497271E+02</rscale>
<asrwt>0</asrwt>
<pdfrwt beam="1">  1       13 0.10000000E+01 0.60497271E+02</pdfrwt>
<pdfrwt beam="2">  1       22 0.27392504E+00 0.60497271E+02</pdfrwt>
<totfact> 0.24920759E-01</totfact>
</mgrwt>
</event>
<event>
 4    1  0.2503484E+000  0.5128974E+02  0.7957747E-01  0.1438507E+00
         13   -1    0    0    0    0  0.00000000000E+00  0.00000000000E+00  0.99999944175E+02  0.99999999996E+02  0.10566000000E+00 0. -1.
         22   -1    0    0    0    0 -0.00000000000E+00 -0.00000000000E+00 -0.18255211691E+02  0.18255211691E+02  0.00000000000E+00 0.  1.
         13    1    1    2    0    0 -0.74728191083E-01 -0.11429421249E+02 -0.86425530413E+01  0.14329764181E+02  0.10566000000E+00 0.  1.
        996    1    1    2    0    0  0.74728191083E-01  0.11429421249E+02  0.90387285526E+02  0.10392544751E+03  0.50000000000E+02 0.  0.
<mgrwt>
<rscale>  0 0.51289738E+02</rscale>
<asrwt>0</asrwt>
<pdfrwt beam="1">  1       13 0.10000000E+01 0.51289738E+02</pdfrwt>
<pdfrwt beam="2">  1       22 0.18255235E+00 0.51289738E+02</pdfrwt>
<totfact> 0.53495351E-01</totfact>
</mgrwt>
</event>
<event>
 4    1  0.2503484E+000  0.5173970E+02  0.7957747E-01  0.1436178E+00
         13   -1    0    0    0    0  0.00000000000E+00  0.00000000000E+00  0.99999944180E+02  0.10000000000E+03  0.10566000000E+00 0.  1.
         22   -1    0    0    0    0 -0.00000000000E+00 -0.00000000000E+00 -0.13316689683E+02  0.13316689683E+02  0.00000000000E+00 0.  1.
         13    1    1    2    0    0  0.65018160195E+01 -0.11607040967E+02  0.11526359735E+01  0.13354278164E+02  0.10566000000E+00 0. -1.
        996    1    1    2    0    0 -0.65018160195E+01  0.11607040967E+02  0.85530618524E+02  0.99962411519E+02  0.50000000000E+02 0.  0.
<mgrwt>
<rscale>  0 0.51739704E+02</rscale>
<asrwt>0</asrwt>
<pdfrwt beam="1">  1       13 0.10000000E+01 0.51739704E+02</pdfrwt>
<pdfrwt beam="2">  1       22 0.13316714E+00 0.51739704E+02</pdfrwt>
<totfact> 0.91327796E-01</totfact>
</mgrwt>
</event>
<event>
 4    1  0.2503484E+000  0.5348177E+02  0.7957747E-01  0.1427418E+00
         13   -1    0    0    0    0  0.00000000000E+00  0.00000000000E+00  0.99999944175E+02  0.99999999995E+02  0.10566000000E+00 0. -1.
         22   -1    0    0    0    0 -0.00000000000E+00 -0.00000000000E+00 -0.26339140533E+02  0.26339140533E+02  0.00000000000E+00 0.  1.
         13    1    1    2    0    0  0.12102757933E+01 -0.18942949808E+02 -0.14045180983E+02  0.23613097802E+02  0.10566000000E+00 0.  1.
        996    1    1    2    0    0 -0.12102757933E+01  0.18942949808E+02  0.87705984625E+02  0.10272604273E+03  0.50000000000E+02 0.  0.
<mgrwt>
<rscale>  0 0.53481774E+02</rscale>
<asrwt>0</asrwt>
<pdfrwt beam="1">  1       13 0.10000000E+01 0.53481774E+02</pdfrwt>
<pdfrwt beam="2">  1       22 0.26339161E+00 0.53481774E+02</pdfrwt>
<totfact> 0.26662142E-01</totfact>
</mgrwt>
</event>
<event>
 4    1  0.2503484E+000  0.5193455E+02  0.7957747E-01  0.1435178E+00
         13   -1    0    0    0    0  0.00000000000E+00  0.00000000000E+00  0.99999944171E+02  0.99999999991E+02  0.10566000000E+00 0.  1.
         22   -1    0    0    0    0 -0.00000000000E+00 -0.00000000000E+00 -0.16947507691E+02  0.16947507691E+02  0.00000000000E+00 0. -1.
         13    1    1    2    0    0 -0.12457503430E+02 -0.64813480893E+01 -0.48435352460E+01  0.14854907017E+02  0.10566000000E+00 0. -1.
        996    1    1    2    0    0  0.12457503430E+02  0.64813480893E+01  0.87895971726E+02  0.10209260066E+03  0.50000000000E+02 0.  0.
<mgrwt>
<rscale>  0 0.51934548E+02</rscale>
<asrwt>0</asrwt>
<pdfrwt beam="1">  1       13 0.10000000E+01 0.51934548E+02</pdfrwt>
<pdfrwt beam="2">  1       22 0.16947531E+00 0.51934548E+02</pdfrwt>
<totfact> 0.61120825E-01</totfact>
</mgrwt>
</event>
<event>
 4    1  0.2503484E+000  0.5206598E+02  0.7957747E-01  0.1434506E+00
         13   -1    0    0    0    0  0.00000000000E+00  0.00000000000E+00  0.99999944178E+02  0.99999999998E+02  0.10566000000E+00 0.  1.
         22   -1    0    0    0    0 -0.00000000000E+00 -0.00000000000E+00 -0.43676252761E+02  0.43676252761E+02  0.00000000000E+00 0. -1.
         13    1    1    2    0    0  0.10486137584E+02  0.10045235123E+02 -0.35368051556E+02  0.38233180158E+02  0.10566000000E+00 0. -1.
        996    1    1    2    0    0 -0.10486137584E+02 -0.10045235123E+02  0.91691742973E+02  0.10544307260E+03  0.50000000000E+02 0.  0.
<mgrwt>
<rscale>  0 0.52065976E+02</rscale>
<asrwt>0</asrwt>
<pdfrwt beam="1">  1       13 0.10000000E+01 0.52065976E+02</pdfrwt>
<pdfrwt beam="2">  1       22 0.43676269E+00 0.52065976E+02</pdfrwt>
<totfact> 0.10340106E-01</totfact>
</mgrwt>
</event>
<event>
 4    1  0.2503484E+000  0.5143219E+02  0.7957747E-01  0.1437766E+00
         13   -1    0    0    0    0  0.00000000000E+00  0.00000000000E+00  0.99999944180E+02  0.10000000000E+03  0.10566000000E+00 0.  1.
         22   -1    0    0    0    0 -0.00000000000E+00 -0.00000000000E+00 -0.10344505016E+02  0.10344505016E+02  0.00000000000E+00 0.  1.
         13    1    1    2    0    0  0.80572442470E+01 -0.89638541876E+01  0.10714859183E+02  0.16127282415E+02  0.10566000000E+00 0. -1.
        996    1    1    2    0    0 -0.80572442470E+01  0.89638541876E+01  0.78940579981E+02  0.94217222600E+02  0.50000000000E+02 0.  0.
<mgrwt>
<rscale>  0 0.51432187E+02</rscale>
<asrwt>0</asrwt>
<pdfrwt beam="1">  1       13 0.10000000E+01 0.51432187E+02</pdfrwt>
<pdfrwt beam="2">  1       22 0.10344530E+00 0.51432187E+02</pdfrwt>
<totfact> 0.13401647E+00</totfact>
</mgrwt>
</event>
<event>
 4    1  0.2503484E+000  0.5316472E+02  0.7957747E-01  0.1428983E+00
         13   -1    0    0    0    0  0.00000000000E+00  0.00000000000E+00  0.99999944175E+02  0.99999999995E+02  0.10566000000E+00 0. -1.
         22   -1    0    0    0    0 -0.00000000000E+00 -0.00000000000E+00 -0.13702327299E+02  0.13702327299E+02  0.00000000000E+00 0. -1.
         13    1    1    2    0    0 -0.91563859519E+01  0.15577175015E+02  0.98326157936E+01  0.20571321847E+02  0.10566000000E+00 0.  1.
        996    1    1    2    0    0  0.91563859519E+01 -0.15577175015E+02  0.76465001082E+02  0.93131005448E+02  0.50000000000E+02 0.  0.
<mgrwt>
<rscale>  0 0.53164723E+02</rscale>
<asrwt>0</asrwt>
<pdfrwt beam="1">  1       13 0.10000000E+01 0.53164723E+02</pdfrwt>
<pdfrwt beam="2">  1       22 0.13702351E+00 0.53164723E+02</pdfrwt>
<totfact> 0.87517281E-01</totfact>
</mgrwt>
</event>
<event>
 4    1  0.2503484E+000  0.5215608E+02  0.7957747E-01  0.1434047E+00
         13   -1    0    0    0    0  0.00000000000E+00  0.00000000000E+00  0.99999944188E+02  0.10000000001E+03  0.10566000000E+00 0. -1.
         22   -1    0    0    0    0 -0.00000000000E+00 -0.00000000000E+00 -0.20482617477E+02  0.20482617477E+02  0.00000000000E+00 0.  1.
         13    1    1    2    0    0  0.12736138665E+02 -0.76188566163E+01 -0.92779050368E+01  0.17502768071E+02  0.10566000000E+00 0.  1.
        996    1    1    2    0    0 -0.12736138665E+02  0.76188566163E+01  0.88795231748E+02  0.10297984941E+03  0.50000000000E+02 0.  0.
<mgrwt>
<rscale>  0 0.52156075E+02</rscale>
<asrwt>0</asrwt>
<pdfrwt beam="1">  1       13 0.10000000E+01 0.52156075E+02</pdfrwt>
<pdfrwt beam="2">  1       22 0.20482640E+00 0.52156075E+02</pdfrwt>
<totfact> 0.43340732E-01</totfact>
</mgrwt>
</event>
<event>
 4    1  0.2503484E+000  0.6584837E+02  0.7957747E-01  0.1374808E+00
         13   -1    0    0    0    0  0.00000000000E+00  0.00000000000E+00  0.99999944181E+02  0.10000000000E+03  0.10566000000E+00 0.  1.
         22   -1    0    0    0    0 -0.00000000000E+00 -0.00000000000E+00 -0.29538168261E+02  0.29538168261E+02  0.00000000000E+00 0.  1.
         13    1    1    2    0    0  0.11208674652E+02  0.41356665759E+02  0.27515570240E+02  0.50922745014E+02  0.10566000000E+00 0. -1.
        996    1    1    2    0    0 -0.11208674652E+02 -0.41356665759E+02  0.42946205679E+02  0.78615423247E+02  0.50000000000E+02 0.  0.
<mgrwt>
<rscale>  0 0.65848373E+02</rscale>
<asrwt>0</asrwt>
<pdfrwt beam="1">  1       13 0.10000000E+01 0.65848373E+02</pdfrwt>
<pdfrwt beam="2">  1       22 0.29538188E+00 0.65848373E+02</pdfrwt>
<totfact> 0.21667271E-01</totfact>
</mgrwt>
</event>
<event>
 4    1  0.2503484E+000  0.5254918E+02  0.7957747E-01  0.1432058E+00
         13   -1    0    0    0    0  0.00000000000E+00  0.00000000000E+00  0.99999944178E+02  0.99999999999E+02  0.10566000000E+00 0.  1.
         22   -1    0    0    0    0 -0.00000000000E+00 -0.00000000000E+00 -0.20832120717E+02  0.20832120717E+02  0.00000000000E+00 0. -1.
         13    1    1    2    0    0  0.12570317828E+02  0.10168724895E+02 -0.87666663583E+01  0.18392429404E+02  0.10566000000E+00 0. -1.
        996    1    1    2    0    0 -0.12570317828E+02 -0.10168724895E+02  0.87934489820E+02  0.10243969131E+03  0.50000000000E+02 0.  0.
<mgrwt>
<rscale>  0 0.52549176E+02</rscale>
<asrwt>0</asrwt>
<pdfrwt beam="1">  1       13 0.10000000E+01 0.52549176E+02</pdfrwt>
<pdfrwt beam="2">  1       22 0.20832143E+00 0.52549176E+02</pdfrwt>
<totfact> 0.42008183E-01</totfact>
</mgrwt>
</event>
<event>
 4    1  0.2503484E+000  0.5423848E+02  0.7957747E-01  0.1423735E+00
         13   -1    0    0    0    0  0.00000000000E+00  0.00000000000E+00  0.99999944167E+02  0.99999999987E+02  0.10566000000E+00 0. -1.
         22   -1    0    0    0    0 -0.00000000000E+00 -0.00000000000E+00 -0.20492143389E+02  0.20492143389E+02  0.00000000000E+00 0.  1.
         13    1    1    2    0    0  0.11487815167E+02 -0.17602360546E+02 -0.35260882328E+01  0.21313316410E+02  0.10566000000E+00 0.  1.
        996    1    1    2    0    0 -0.11487815167E+02  0.17602360546E+02  0.83033889011E+02  0.99178826966E+02  0.50000000000E+02 0.  0.
<mgrwt>
<rscale>  0 0.54238483E+02</rscale>
<asrwt>0</asrwt>
<pdfrwt beam="1">  1       13 0.10000000E+01 0.54238483E+02</pdfrwt>
<pdfrwt beam="2">  1       22 0.20492166E+00 0.54238483E+02</pdfrwt>
<totfact> 0.43459216E-01</totfact>
</mgrwt>
</event>
<event>
 4    1  0.2503484E+000  0.5204707E+02  0.7957747E-01  0.1434603E+00
         13   -1    0    0    0    0  0.00000000000E+00  0.00000000000E+00  0.99999944177E+02  0.99999999998E+02  0.10566000000E+00 0.  1.
         22   -1    0    0    0    0 -0.00000000000E+00 -0.00000000000E+00 -0.14896229968E+02  0.14896229968E+02  0.00000000000E+00 0. -1.
         13    1    1    2    0    0  0.35745938658E+01 -0.14004287515E+02 -0.77764832896E+00  0.14474587768E+02  0.10566000000E+00 0. -1.
        996    1    1    2    0    0 -0.35745938658E+01  0.14004287515E+02  0.85881362539E+02  0.10042164220E+03  0.50000000000E+02 0.  0.
<mgrwt>
<rscale>  0 0.52047073E+02</rscale>
<asrwt>0</asrwt>
<pdfrwt beam="1">  1       13 0.10000000E+01 0.52047073E+02</pdfrwt>
<pdfrwt beam="2">  1       22 0.14896254E+00 0.52047073E+02</pdfrwt>
<totfact> 0.76173927E-01</totfact>
</mgrwt>
</event>
<event>
 4    1  0.2503484E+000  0.6489869E+02  0.7957747E-01  0.1378353E+00
         13   -1    0    0    0    0  0.00000000000E+00  0.00000000000E+00  0.99999944182E+02  0.10000000000E+03  0.10566000000E+00 0.  1.
         22   -1    0    0    0    0 -0.00000000000E+00 -0.00000000000E+00 -0.34658571284E+02  0.34658571284E+02  0.00000000000E+00 0. -1.
         13    1    1    2    0    0  0.39963522549E+02  0.10712490444E+02 -0.16223544111E+01  0.41406325409E+02  0.10566000000E+00 0. -1.
        996    1    1    2    0    0 -0.39963522549E+02 -0.10712490444E+02  0.66963727309E+02  0.93252245877E+02  0.50000000000E+02 0.  0.
<mgrwt>
<rscale>  0 0.64898695E+02</rscale>
<asrwt>0</asrwt>
<pdfrwt beam="1">  1       13 0.10000000E+01 0.64898695E+02</pdfrwt>
<pdfrwt beam="2">  1       22 0.34658590E+00 0.64898695E+02</pdfrwt>
<totfact> 0.16179973E-01</totfact>
</mgrwt>
</event>
<event>
 4    1  0.2503484E+000  0.5137875E+02  0.7957747E-01  0.1438044E+00
         13   -1    0    0    0    0  0.00000000000E+00  0.00000000000E+00  0.99999944178E+02  0.99999999998E+02  0.10566000000E+00 0.  1.
         22   -1    0    0    0    0 -0.00000000000E+00 -0.00000000000E+00 -0.14749206952E+02  0.14749206952E+02  0.00000000000E+00 0. -1.
         13    1    1    2    0    0 -0.47955213215E+01 -0.10806414768E+02 -0.33856213583E+01  0.12298342201E+02  0.10566000000E+00 0. -1.
        996    1    1    2    0    0  0.47955213215E+01  0.10806414768E+02  0.88636358584E+02  0.10245086475E+03  0.50000000000E+02 0.  0.
<mgrwt>
<rscale>  0 0.51378747E+02</rscale>
<asrwt>0</asrwt>
<pdfrwt beam="1">  1       13 0.10000000E+01 0.51378747E+02</pdfrwt>
<pdfrwt beam="2">  1       22 0.14749231E+00 0.51378747E+02</pdfrwt>
<totfact> 0.77329384E-01</totfact>
</mgrwt>
</event>
<event>
 4    1  0.2503484E+000  0.5391906E+02  0.7957747E-01  0.1425281E+00
         13   -1    0    0    0    0  0.00000000000E+00  0.00000000000E+00  0.99999944179E+02  0.99999999999E+02  0.10566000000E+00 0. -1.
         22   -1    0    0    0    0 -0.00000000000E+00 -0.00000000000E+00 -0.21249425420E+02  0.21249425420E+02  0.00000000000E+00 0.  1.
         13    1    1    2    0    0 -0.20017220412E+02 -0.25644021269E+01 -0.57745517325E+01  0.20990995285E+02  0.10566000000E+00 0.  1.
        996    1    1    2    0    0  0.20017220412E+02  0.25644021269E+01  0.84525070492E+02  0.10025843013E+03  0.50000000000E+02 0.  0.
<mgrwt>
<rscale>  0 0.53919062E+02</rscale>
<asrwt>0</asrwt>
<pdfrwt beam="1">  1       13 0.10000000E+01 0.53919062E+02</pdfrwt>
<pdfrwt beam="2">  1       22 0.21249447E+00 0.53919062E+02</pdfrwt>
<totfact> 0.40550444E-01</totfact>
</mgrwt>
</event>
<event>
 4    1  0.2503484E+000  0.5107134E+02  0.7957747E-01  0.1439647E+00
         13   -1    0    0    0    0  0.00000000000E+00  0.00000000000E+00  0.99999944183E+02  0.10000000000E+03  0.10566000000E+00 0. -1.
         22   -1    0    0    0    0 -0.00000000000E+00 -0.00000000000E+00 -0.11728695278E+02  0.11728695278E+02  0.00000000000E+00 0. -1.
         13    1    1    2    0    0 -0.10268549969E+02  0.16848053121E+01  0.40436539637E+02  0.41754120626E+02  0.10566000000E+00 0.  1.
        996    1    1    2    0    0  0.10268549969E+02 -0.16848053121E+01  0.47834709268E+02  0.69974574655E+02  0.50000000000E+02 0.  0.
<mgrwt>
<rscale>  0 0.51071339E+02</rscale>
<asrwt>0</asrwt>
<pdfrwt beam="1">  1       13 0.10000000E+01 0.51071339E+02</pdfrwt>
<pdfrwt beam="2">  1       22 0.11728720E+00 0.51071339E+02</pdfrwt>
<totfact> 0.11107413E+00</totfact>
</mgrwt>
</event>
<event>
 4    1  0.2503484E+000  0.6281024E+02  0.7957747E-01  0.1386403E+00
         13   -1    0    0    0    0  0.00000000000E+00  0.00000000000E+00  0.99999944173E+02  0.99999999994E+02  0.10566000000E+00 0.  1.
         22   -1    0    0    0    0 -0.00000000000E+00 -0.00000000000E+00 -0.60193438064E+02  0.60193438064E+02  0.00000000000E+00 0. -1.
         13    1    1    2    0    0  0.37913477001E+02 -0.27737959082E+01 -0.42264485018E+02  0.56845611439E+02  0.10566000000E+00 0. -1.
        996    1    1    2    0    0 -0.37913477001E+02  0.27737959082E+01  0.82070991127E+02  0.10334782662E+03  0.50000000000E+02 0.  0.
<mgrwt>
<rscale>  0 0.62810235E+02</rscale>
<asrwt>0</asrwt>
<pdfrwt beam="1">  1       13 0.10000000E+01 0.62810235E+02</pdfrwt>
<pdfrwt beam="2">  1       22 0.60193449E+00 0.62810235E+02</pdfrwt>
<totfact> 0.64357012E-02</totfact>
</mgrwt>
</event>
<event>
 4    1  0.2503484E+000  0.5619468E+02  0.7957747E-01  0.1414532E+00
         13   -1    0    0    0    0  0.00000000000E+00  0.00000000000E+00  0.99999944177E+02  0.99999999998E+02  0.10566000000E+00 0. -1.
         22   -1    0    0    0    0 -0.00000000000E+00 -0.00000000000E+00 -0.23039675756E+02  0.23039675756E+02  0.00000000000E+00 0.  1.
         13    1    1    2    0    0  0.13367157569E+02 -0.21889760000E+02 -0.24412583072E+01  0.25764576467E+02  0.10566000000E+00 0.  1.
        996    1    1    2    0    0 -0.13367157569E+02  0.21889760000E+02  0.79401526729E+02  0.97275099287E+02  0.50000000000E+02 0.  0.
<mgrwt>
<rscale>  0 0.56194684E+02</rscale>
<asrwt>0</asrwt>
<pdfrwt beam="1">  1       13 0.10000000E+01 0.56194684E+02</pdfrwt>
<pdfrwt beam="2">  1       22 0.23039697E+00 0.56194684E+02</pdfrwt>
<totfact> 0.34821686E-01</totfact>
</mgrwt>
</event>
<event>
 4    1  0.2503484E+000  0.5125792E+02  0.7957747E-01  0.1438672E+00
         13   -1    0    0    0    0  0.00000000000E+00  0.00000000000E+00  0.99999944183E+02  0.10000000000E+03  0.10566000000E+00 0.  1.
         22   -1    0    0    0    0 -0.00000000000E+00 -0.00000000000E+00 -0.23445734020E+02  0.23445734020E+02  0.00000000000E+00 0. -1.
         13    1    1    2    0    0  0.91436276464E+01  0.66157902547E+01 -0.14848740823E+02  0.18651296880E+02  0.10566000000E+00 0. -1.
        996    1    1    2    0    0 -0.91436276464E+01 -0.66157902547E+01  0.91402950986E+02  0.10479443714E+03  0.50000000000E+02 0.  0.
<mgrwt>
<rscale>  0 0.51257922E+02</rscale>
<asrwt>0</asrwt>
<pdfrwt beam="1">  1       13 0.10000000E+01 0.51257922E+02</pdfrwt>
<pdfrwt beam="2">  1       22 0.23445755E+00 0.51257922E+02</pdfrwt>
<totfact> 0.33391613E-01</totfact>
</mgrwt>
</event>
<event>
 4    1  0.2503484E+000  0.5267751E+02  0.7957747E-01  0.1431413E+00
         13   -1    0    0    0    0  0.00000000000E+00  0.00000000000E+00  0.99999944181E+02  0.10000000000E+03  0.10566000000E+00 0.  1.
         22   -1    0    0    0    0 -0.00000000000E+00 -0.00000000000E+00 -0.13848737674E+02  0.13848737674E+02  0.00000000000E+00 0.  1.
         13    1    1    2    0    0  0.10882650388E+01  0.16544948054E+02  0.54067324756E+01  0.17440285176E+02  0.10566000000E+00 0. -1.
        996    1    1    2    0    0 -0.10882650388E+01 -0.16544948054E+02  0.80744474030E+02  0.96408452500E+02  0.50000000000E+02 0.  0.
<mgrwt>
<rscale>  0 0.52677506E+02</rscale>
<asrwt>0</asrwt>
<pdfrwt beam="1">  1       13 0.10000000E+01 0.52677506E+02</pdfrwt>
<pdfrwt beam="2">  1       22 0.13848762E+00 0.52677506E+02</pdfrwt>
<totfact> 0.85944210E-01</totfact>
</mgrwt>
</event>
<event>
 4    1  0.2503484E+000  0.5577902E+02  0.7957747E-01  0.1416450E+00
         13   -1    0    0    0    0  0.00000000000E+00  0.00000000000E+00  0.99999944185E+02  0.10000000000E+03  0.10566000000E+00 0. -1.
         22   -1    0    0    0    0 -0.00000000000E+00 -0.00000000000E+00 -0.17421843759E+02  0.17421843759E+02  0.00000000000E+00 0.  1.
         13    1    1    2    0    0  0.14785852104E+02  0.19816091531E+02  0.12056945787E+02  0.27507817284E+02  0.10566000000E+00 0.  1.
        996    1    1    2    0    0 -0.14785852104E+02 -0.19816091531E+02  0.70521154639E+02  0.89914026479E+02  0.50000000000E+02 0.  0.
<mgrwt>
<rscale>  0 0.55779019E+02</rscale>
<asrwt>0</asrwt>
<pdfrwt beam="1">  1       13 0.10000000E+01 0.55779019E+02</pdfrwt>
<pdfrwt beam="2">  1       22 0.17421867E+00 0.55779019E+02</pdfrwt>
<totfact> 0.58637427E-01</totfact>
</mgrwt>
</event>
<event>
 4    1  0.2503484E+000  0.5166795E+02  0.7957747E-01  0.1436547E+00
         13   -1    0    0    0    0  0.00000000000E+00  0.00000000000E+00  0.99999944178E+02  0.99999999998E+02  0.10566000000E+00 0. -1.
         22   -1    0    0    0    0 -0.00000000000E+00 -0.00000000000E+00 -0.11488461753E+02  0.11488461753E+02  0.00000000000E+00 0. -1.
         13    1    1    2    0    0 -0.11877107511E+02  0.53395717767E+01  0.64909204402E+01  0.14550598675E+02  0.10566000000E+00 0.  1.
        996    1    1    2    0    0  0.11877107511E+02 -0.53395717767E+01  0.82020561984E+02  0.96937863076E+02  0.50000000000E+02 0.  0.
<mgrwt>
<rscale>  0 0.51667947E+02</rscale>
<asrwt>0</asrwt>
<pdfrwt beam="1">  1       13 0.10000000E+01 0.51667947E+02</pdfrwt>
<pdfrwt beam="2">  1       22 0.11488486E+00 0.51667947E+02</pdfrwt>
<totfact> 0.11476269E+00</totfact>
</mgrwt>
</event>
<event>
 4    1  0.2503484E+000  0.5187292E+02  0.7957747E-01  0.1435494E+00
         13   -1    0    0    0    0  0.00000000000E+00  0.00000000000E+00  0.99999944179E+02  0.10000000000E+03  0.10566000000E+00 0.  1.
         22   -1    0    0    0    0 -0.00000000000E+00 -0.00000000000E+00 -0.18567347848E+02  0.18567347848E+02  0.00000000000E+00 0. -1.
         13    1    1    2    0    0 -0.54811009233E+00 -0.13802156258E+02 -0.74206871581E+01  0.15680488002E+02  0.10566000000E+00 0. -1.
        996    1    1    2    0    0  0.54811009233E+00  0.13802156258E+02  0.88853283489E+02  0.10288685985E+03  0.50000000000E+02 0.  0.
<mgrwt>
<rscale>  0 0.51872921E+02</rscale>
<asrwt>0</asrwt>
<pdfrwt beam="1">  1       13 0.10000000E+01 0.51872921E+02</pdfrwt>
<pdfrwt beam="2">  1       22 0.18567371E+00 0.51872921E+02</pdfrwt>
<totfact> 0.51937105E-01</totfact>
</mgrwt>
</event>
<event>
 4    1  0.2503484E+000  0.5285620E+02  0.7957747E-01  0.1430518E+00
         13   -1    0    0    0    0  0.00000000000E+00  0.00000000000E+00  0.99999944185E+02  0.10000000001E+03  0.10566000000E+00 0. -1.
         22   -1    0    0    0    0 -0.00000000000E+00 -0.00000000000E+00 -0.24141913645E+02  0.24141913645E+02  0.00000000000E+00 0.  1.
         13    1    1    2    0    0 -0.63635686697E+01 -0.15914862768E+02 -0.12477211074E+02  0.21200703369E+02  0.10566000000E+00 0.  1.
        996    1    1    2    0    0  0.63635686697E+01  0.15914862768E+02  0.88335241614E+02  0.10294121028E+03  0.50000000000E+02 0.  0.
<mgrwt>
<rscale>  0 0.52856200E+02</rscale>
<asrwt>0</asrwt>
<pdfrwt beam="1">  1       13 0.10000000E+01 0.52856200E+02</pdfrwt>
<pdfrwt beam="2">  1       22 0.24141935E+00 0.52856200E+02</pdfrwt>
<totfact> 0.31615853E-01</totfact>
</mgrwt>
</event>
<event>
 4    1  0.2503484E+000  0.5190519E+02  0.7957747E-01  0.1435328E+00
         13   -1    0    0    0    0  0.00000000000E+00  0.00000000000E+00  0.99999944182E+02  0.10000000000E+03  0.10566000000E+00 0. -1.
         22   -1    0    0    0    0 -0.00000000000E+00 -0.00000000000E+00 -0.13131338436E+02  0.13131338436E+02  0.00000000000E+00 0.  1.
         13    1    1    2    0    0 -0.13212136809E+02  0.44258626524E+01  0.26220765331E+01  0.14178690654E+02  0.10566000000E+00 0.  1.
        996    1    1    2    0    0  0.13212136809E+02 -0.44258626524E+01  0.84246529212E+02  0.98952647784E+02  0.50000000000E+02 0.  0.
<mgrwt>
<rscale>  0 0.51905191E+02</rscale>
<asrwt>0</asrwt>
<pdfrwt beam="1">  1       13 0.10000000E+01 0.51905191E+02</pdfrwt>
<pdfrwt beam="2">  1       22 0.13131363E+00 0.51905191E+02</pdfrwt>
<totfact> 0.93413085E-01</totfact>
</mgrwt>
</event>
<event>
 4    1  0.2503484E+000  0.5186672E+02  0.7957747E-01  0.1435525E+00
         13   -1    0    0    0    0  0.00000000000E+00  0.00000000000E+00  0.99999944179E+02  0.99999999999E+02  0.10566000000E+00 0. -1.
         22   -1    0    0    0    0 -0.00000000000E+00 -0.00000000000E+00 -0.11102951677E+02  0.11102951677E+02  0.00000000000E+00 0. -1.
         13    1    1    2    0    0 -0.91858701620E+01 -0.10284759725E+02  0.11616807779E+02  0.18031025491E+02  0.10566000000E+00 0.  1.
        996    1    1    2    0    0  0.91858701620E+01  0.10284759725E+02  0.77280184722E+02  0.93071926186E+02  0.50000000000E+02 0.  0.
<mgrwt>
<rscale>  0 0.51866719E+02</rscale>
<asrwt>0</asrwt>
<pdfrwt beam="1">  1       13 0.10000000E+01 0.51866719E+02</pdfrwt>
<pdfrwt beam="2">  1       22 0.11102976E+00 0.51866719E+02</pdfrwt>
<totfact> 0.12084563E+00</totfact>
</mgrwt>
</event>
<event>
 4    1  0.2503484E+000  0.5377951E+02  0.7957747E-01  0.1425960E+00
         13   -1    0    0    0    0  0.00000000000E+00  0.00000000000E+00  0.99999944178E+02  0.99999999999E+02  0.10566000000E+00 0. -1.
         22   -1    0    0    0    0 -0.00000000000E+00 -0.00000000000E+00 -0.13537453532E+02  0.13537453532E+02  0.00000000000E+00 0. -1.
         13    1    1    2    0    0  0.18637365448E+02 -0.66995897936E+01  0.22912041650E+02  0.30285453784E+02  0.10566000000E+00 0.  1.
        996    1    1    2    0    0 -0.18637365448E+02  0.66995897936E+01  0.63550448996E+02  0.83251999747E+02  0.50000000000E+02 0.  0.
<mgrwt>
<rscale>  0 0.53779512E+02</rscale>
<asrwt>0</asrwt>
<pdfrwt beam="1">  1       13 0.10000000E+01 0.53779512E+02</pdfrwt>
<pdfrwt beam="2">  1       22 0.13537478E+00 0.53779512E+02</pdfrwt>
<totfact> 0.89346707E-01</totfact>
</mgrwt>
</event>
