<event>
 5    1  0.1303633E-008  0.3739492E+03  0.7957747E-01  0.3477936E+00
         13   -1    0    0    0    0  0.00000000000E+00  0.00000000000E+00  0.14999999963E+04  0.15000000000E+04  0.10566000000E+00 0. -1.
        994   -1    0    0    0    0 -0.00000000000E+00 -0.00000000000E+00  0.11368683772E-12  0.17120000000E+03  0.17120000000E+03 0.  0.
         13    1    1    2    0    0 -0.17345953493E+03  0.61713450953E+01  0.10103807130E+04  0.10251807120E+04  0.10566000000E+00 0. -1.
        994    1    1    2    0    0  0.15915203660E+03 -0.47065186919E+02  0.10789821371E+03  0.26171734199E+03  0.17120000000E+03 0.  0.
        998    1    1    2    0    0  0.14307498331E+02  0.40893841824E+02  0.38172106953E+03  0.38430194604E+03  0.10000000000E+02 0. -1.
</event>
<event>
 5    1  0.1303633E-008  0.3802119E+03  0.7957747E-01  0.3450236E+00
         13   -1    0    0    0    0  0.00000000000E+00  0.00000000000E+00  0.14999999963E+04  0.15000000000E+04  0.10566000000E+00 0. -1.
        994   -1    0    0    0    0 -0.00000000000E+00 -0.00000000000E+00  0.11368683772E-12  0.17120000000E+03  0.17120000000E+03 0.  0.
         13    1    1    2    0    0 -0.78146508930E+01 -0.88228972548E+01  0.15759295165E+02  0.19679401228E+02  0.10566000000E+00 0. -1.
        994    1    1    2    0    0 -0.13989138469E+01  0.48965024617E+01  0.41128614490E+01  0.17132509543E+03  0.17120000000E+03 0.  0.
        998    1    1    2    0    0  0.92135647399E+01  0.39263947931E+01  0.14801278397E+04  0.14801955033E+04  0.10000000000E+02 0. -1.
</event>
<event>
 5    1  0.1303633E-008  0.3849570E+03  0.7957747E-01  0.3429854E+00
         13   -1    0    0    0    0  0.00000000000E+00  0.00000000000E+00  0.14999999963E+04  0.15000000000E+04  0.10566000000E+00 0. -1.
        994   -1    0    0    0    0 -0.00000000000E+00 -0.00000000000E+00  0.11368683772E-12  0.17120000000E+03  0.17120000000E+03 0.  0.
         13    1    1    2    0    0  0.29580369840E+02  0.20599111883E+03  0.12063562084E+04  0.12241742736E+04  0.10566000000E+00 0. -1.
        994    1    1    2    0    0 -0.27746466786E+02 -0.20825954639E+03  0.16360871992E+03  0.31657409609E+03  0.17120000000E+03 0.  0.
        998    1    1    2    0    0 -0.18339030537E+01  0.22684275617E+01  0.13003506794E+03  0.13045163034E+03  0.10000000000E+02 0. -1.
</event>
<event>
 5    1  0.1303633E-008  0.3821209E+03  0.7957747E-01  0.3441975E+00
         13   -1    0    0    0    0  0.00000000000E+00  0.00000000000E+00  0.14999999963E+04  0.15000000000E+04  0.10566000000E+00 0. -1.
        994   -1    0    0    0    0 -0.00000000000E+00 -0.00000000000E+00  0.11368683772E-12  0.17120000000E+03  0.17120000000E+03 0.  0.
         13    1    1    2    0    0  0.10944488116E+02  0.16106414491E+01  0.18394200818E+02  0.21464709962E+02  0.10566000000E+00 0. -1.
        994    1    1    2    0    0 -0.14750543019E+02  0.25821544164E+01  0.38111178189E+01  0.17189592974E+03  0.17120000000E+03 0.  0.
        998    1    1    2    0    0  0.38060549033E+01 -0.41927958655E+01  0.14777946776E+04  0.14778393603E+04  0.10000000000E+02 0. -1.
</event>
<event>
 5    1  0.1303633E-008  0.3773865E+03  0.7957747E-01  0.3462618E+00
         13   -1    0    0    0    0  0.00000000000E+00  0.00000000000E+00  0.14999999963E+04  0.15000000000E+04  0.10566000000E+00 0.  1.
        994   -1    0    0    0    0 -0.00000000000E+00 -0.00000000000E+00  0.11368683772E-12  0.17120000000E+03  0.17120000000E+03 0.  0.
         13    1    1    2    0    0 -0.55664687282E+01 -0.10765055094E+02  0.11132405605E+02  0.16456415280E+02  0.10566000000E+00 0.  1.
        994    1    1    2    0    0  0.10100223081E+02 -0.39021536778E+00  0.58028718257E+01  0.17159627063E+03  0.17120000000E+03 0.  0.
        998    1    1    2    0    0 -0.45337543527E+01  0.11155270461E+02  0.14830647188E+04  0.14831473141E+04  0.10000000000E+02 0.  1.
</event>
<event>
 5    1  0.1303633E-008  0.3848795E+03  0.7957747E-01  0.3430184E+00
         13   -1    0    0    0    0  0.00000000000E+00  0.00000000000E+00  0.14999999963E+04  0.15000000000E+04  0.10566000000E+00 0.  1.
        994   -1    0    0    0    0 -0.00000000000E+00 -0.00000000000E+00  0.11368683772E-12  0.17120000000E+03  0.17120000000E+03 0.  0.
         13    1    1    2    0    0  0.20159790117E+01 -0.14651256715E+02  0.68813725827E+02  0.70385108659E+02  0.10566000000E+00 0.  1.
        994    1    1    2    0    0  0.17277675906E+02  0.28836662787E+01  0.27001020189E+01  0.17211497369E+03  0.17120000000E+03 0.  0.
        998    1    1    2    0    0 -0.19293654918E+02  0.11767590436E+02  0.14284861684E+04  0.14286999177E+04  0.10000000000E+02 0.  1.
</event>
<event>
 5    1  0.1303633E-008  0.3134356E+03  0.7957747E-01  0.3804537E+00
         13   -1    0    0    0    0  0.00000000000E+00  0.00000000000E+00  0.14999999963E+04  0.15000000000E+04  0.10566000000E+00 0. -1.
        994   -1    0    0    0    0 -0.00000000000E+00 -0.00000000000E+00  0.11368683772E-12  0.17120000000E+03  0.17120000000E+03 0.  0.
         13    1    1    2    0    0 -0.50550038808E+02  0.22638113857E+03  0.61229439713E+03  0.65475809750E+03  0.10566000000E+00 0. -1.
        994    1    1    2    0    0  0.42631996019E+02 -0.23557857358E+03  0.27269892102E+03  0.40123421208E+03  0.17120000000E+03 0.  0.
        998    1    1    2    0    0  0.79180427889E+01  0.91974350115E+01  0.61500667813E+03  0.61520769042E+03  0.10000000000E+02 0.  1.
</event>
<event>
 5    1  0.1303633E-008  0.3856465E+03  0.7957747E-01  0.3426935E+00
         13   -1    0    0    0    0  0.00000000000E+00  0.00000000000E+00  0.14999999963E+04  0.15000000000E+04  0.10566000000E+00 0.  1.
        994   -1    0    0    0    0 -0.00000000000E+00 -0.00000000000E+00  0.11368683772E-12  0.17120000000E+03  0.17120000000E+03 0.  0.
         13    1    1    2    0    0  0.11822646835E+02  0.21318495228E+01  0.53725930299E+02  0.55052761158E+02  0.10566000000E+00 0.  1.
        994    1    1    2    0    0 -0.13397330957E+02  0.65349234953E+00  0.19001504007E+01  0.17173516268E+03  0.17120000000E+03 0.  0.
        998    1    1    2    0    0  0.15746841223E+01 -0.27853418723E+01  0.14443739156E+04  0.14444120762E+04  0.10000000000E+02 0.  1.
</event>
<event>
 5    1  0.1303633E-008  0.3737608E+03  0.7957747E-01  0.3478783E+00
         13   -1    0    0    0    0  0.00000000000E+00  0.00000000000E+00  0.14999999963E+04  0.15000000000E+04  0.10566000000E+00 0. -1.
        994   -1    0    0    0    0 -0.00000000000E+00 -0.00000000000E+00  0.11368683772E-12  0.17120000000E+03  0.17120000000E+03 0.  0.
         13    1    1    2    0    0 -0.23736363930E+01  0.24425337690E+02  0.36450758670E+02  0.43942009998E+02  0.10566000000E+00 0. -1.
        994    1    1    2    0    0 -0.18235522608E+02 -0.35222612482E+02  0.12705420067E+02  0.17619317357E+03  0.17120000000E+03 0.  0.
        998    1    1    2    0    0  0.20609159001E+02  0.10797274792E+02  0.14508438175E+04  0.14510648164E+04  0.10000000000E+02 0. -1.
</event>
<event>
 5    1  0.1303633E-008  0.3797295E+03  0.7957747E-01  0.3452337E+00
         13   -1    0    0    0    0  0.00000000000E+00  0.00000000000E+00  0.14999999963E+04  0.15000000000E+04  0.10566000000E+00 0. -1.
        994   -1    0    0    0    0 -0.00000000000E+00 -0.00000000000E+00  0.11368683772E-12  0.17120000000E+03  0.17120000000E+03 0.  0.
         13    1    1    2    0    0 -0.73220633618E+01 -0.14482500924E+02  0.28812730820E+02  0.33068717336E+02  0.10566000000E+00 0. -1.
        994    1    1    2    0    0  0.81563970726E+01  0.12375786241E+02  0.50051221655E+01  0.17191328671E+03  0.17120000000E+03 0.  0.
        998    1    1    2    0    0 -0.83433371082E+00  0.21067146829E+01  0.14661821433E+04  0.14662179960E+04  0.10000000000E+02 0. -1.
</event>
<event>
 5    1  0.1303633E-008  0.3839541E+03  0.7957747E-01  0.3434120E+00
         13   -1    0    0    0    0  0.00000000000E+00  0.00000000000E+00  0.14999999963E+04  0.15000000000E+04  0.10566000000E+00 0. -1.
        994   -1    0    0    0    0 -0.00000000000E+00 -0.00000000000E+00  0.11368683772E-12  0.17120000000E+03  0.17120000000E+03 0.  0.
         13    1    1    2    0    0 -0.96617780016E+01  0.51290056060E+01  0.27570434140E+02  0.29661366378E+02  0.10566000000E+00 0. -1.
        994    1    1    2    0    0  0.54733821708E+01  0.20324555543E+01  0.22628201870E+01  0.17131447441E+03  0.17120000000E+03 0.  0.
        998    1    1    2    0    0  0.41883958308E+01 -0.71614611603E+01  0.14701667420E+04  0.14702241592E+04  0.10000000000E+02 0. -1.
</event>
<event>
 5    1  0.1303633E-008  0.3828239E+03  0.7957747E-01  0.3438954E+00
         13   -1    0    0    0    0  0.00000000000E+00  0.00000000000E+00  0.14999999963E+04  0.15000000000E+04  0.10566000000E+00 0.  1.
        994   -1    0    0    0    0 -0.00000000000E+00 -0.00000000000E+00  0.11368683772E-12  0.17120000000E+03  0.17120000000E+03 0.  0.
         13    1    1    2    0    0  0.93660440299E+01 -0.47067218817E+01  0.19301865206E+02  0.21964725723E+02  0.10566000000E+00 0.  1.
        994    1    1    2    0    0 -0.63951333118E+01  0.12129482251E+00  0.28499377349E+01  0.17134314865E+03  0.17120000000E+03 0.  0.
        998    1    1    2    0    0 -0.29709107181E+01  0.45854270592E+01  0.14778481933E+04  0.14778921256E+04  0.10000000000E+02 0.  1.
</event>
<event>
 5    1  0.1303633E-008  0.3849605E+03  0.7957747E-01  0.3429840E+00
         13   -1    0    0    0    0  0.00000000000E+00  0.00000000000E+00  0.14999999963E+04  0.15000000000E+04  0.10566000000E+00 0.  1.
        994   -1    0    0    0    0 -0.00000000000E+00 -0.00000000000E+00  0.11368683772E-12  0.17120000000E+03  0.17120000000E+03 0.  0.
         13    1    1    2    0    0  0.10099721278E+02  0.57483067101E+01  0.43420339394E+02  0.44948686711E+02  0.10566000000E+00 0.  1.
        994    1    1    2    0    0  0.70191524095E+01 -0.41786913935E+01  0.18692526194E+01  0.17140497095E+03  0.17120000000E+03 0.  0.
        998    1    1    2    0    0 -0.17118873687E+02 -0.15696153166E+01  0.14547104043E+04  0.14548463423E+04  0.10000000000E+02 0.  1.
</event>
<event>
 5    1  0.1303633E-008  0.3806484E+03  0.7957747E-01  0.3448340E+00
         13   -1    0    0    0    0  0.00000000000E+00  0.00000000000E+00  0.14999999963E+04  0.15000000000E+04  0.10566000000E+00 0.  1.
        994   -1    0    0    0    0 -0.00000000000E+00 -0.00000000000E+00  0.11368683772E-12  0.17120000000E+03  0.17120000000E+03 0.  0.
         13    1    1    2    0    0  0.50104237016E+01 -0.36796813176E+02  0.22424900330E+03  0.22730318178E+03  0.10566000000E+00 0.  1.
        994    1    1    2    0    0 -0.28677323962E+02 -0.67510791830E+01  0.67069222805E+01  0.17384587653E+03  0.17120000000E+03 0.  0.
        998    1    1    2    0    0  0.23666900260E+02  0.43547892359E+02  0.12690440707E+04  0.12700509417E+04  0.10000000000E+02 0.  1.
</event>
<event>
 5    1  0.1303633E-008  0.3853673E+03  0.7957747E-01  0.3428116E+00
         13   -1    0    0    0    0  0.00000000000E+00  0.00000000000E+00  0.14999999963E+04  0.15000000000E+04  0.10566000000E+00 0. -1.
        994   -1    0    0    0    0 -0.00000000000E+00 -0.00000000000E+00  0.11368683772E-12  0.17120000000E+03  0.17120000000E+03 0.  0.
         13    1    1    2    0    0 -0.15923200253E+02  0.78867833350E+01  0.10156137806E+03  0.10310419165E+03  0.10566000000E+00 0. -1.
        994    1    1    2    0    0  0.15219748723E+02 -0.15276587411E+02  0.29768184868E+01  0.17257843528E+03  0.17120000000E+03 0.  0.
        998    1    1    2    0    0  0.70345152980E+00  0.73898040758E+01  0.13954617997E+04  0.13955173731E+04  0.10000000000E+02 0. -1.
</event>
<event>
 5    1  0.1303633E-008  0.3850008E+03  0.7957747E-01  0.3429669E+00
         13   -1    0    0    0    0  0.00000000000E+00  0.00000000000E+00  0.14999999963E+04  0.15000000000E+04  0.10566000000E+00 0.  1.
        994   -1    0    0    0    0 -0.00000000000E+00 -0.00000000000E+00  0.11368683772E-12  0.17120000000E+03  0.17120000000E+03 0.  0.
         13    1    1    2    0    0  0.10946489068E+02  0.60782081131E+01  0.49965452142E+02  0.51510463098E+02  0.10566000000E+00 0.  1.
        994    1    1    2    0    0 -0.27314256813E+01  0.21114218451E+01  0.16689168202E+01  0.17124293875E+03  0.17120000000E+03 0.  0.
        998    1    1    2    0    0 -0.82150633871E+01 -0.81896299582E+01  0.14483656273E+04  0.14484465982E+04  0.10000000000E+02 0.  1.
</event>
<event>
 5    1  0.1303633E-008  0.3854072E+03  0.7957747E-01  0.3427947E+00
         13   -1    0    0    0    0  0.00000000000E+00  0.00000000000E+00  0.14999999963E+04  0.15000000000E+04  0.10566000000E+00 0.  1.
        994   -1    0    0    0    0 -0.00000000000E+00 -0.00000000000E+00  0.11368683772E-12  0.17120000000E+03  0.17120000000E+03 0.  0.
         13    1    1    2    0    0  0.91870991522E+01 -0.72153122177E+01  0.47628968356E+02  0.49040731152E+02  0.10566000000E+00 0.  1.
        994    1    1    2    0    0 -0.80006569781E+01  0.42423340392E+01  0.16975023361E+01  0.17144774546E+03  0.17120000000E+03 0.  0.
        998    1    1    2    0    0 -0.11864421741E+01  0.29729781785E+01  0.14506735256E+04  0.14507115234E+04  0.10000000000E+02 0.  1.
</event>
<event>
 5    1  0.1303633E-008  0.3799312E+03  0.7957747E-01  0.3451458E+00
         13   -1    0    0    0    0  0.00000000000E+00  0.00000000000E+00  0.14999999963E+04  0.15000000000E+04  0.10566000000E+00 0.  1.
        994   -1    0    0    0    0 -0.00000000000E+00 -0.00000000000E+00  0.11368683772E-12  0.17120000000E+03  0.17120000000E+03 0.  0.
         13    1    1    2    0    0  0.64628139721E+02  0.27589729411E+02  0.14482511213E+03  0.16097302221E+03  0.10566000000E+00 0.  1.
        994    1    1    2    0    0 -0.29423191689E+02 -0.53180065419E+02  0.29795214243E+02  0.18409518831E+03  0.17120000000E+03 0.  0.
        998    1    1    2    0    0 -0.35204948033E+02  0.25590336007E+02  0.13253796699E+04  0.13261317895E+04  0.10000000000E+02 0.  1.
</event>
<event>
 5    1  0.1303633E-008  0.3724426E+03  0.7957747E-01  0.3484740E+00
         13   -1    0    0    0    0  0.00000000000E+00  0.00000000000E+00  0.14999999963E+04  0.15000000000E+04  0.10566000000E+00 0. -1.
        994   -1    0    0    0    0 -0.00000000000E+00 -0.00000000000E+00  0.11368683772E-12  0.17120000000E+03  0.17120000000E+03 0.  0.
         13    1    1    2    0    0  0.30493420383E+02  0.28736105446E+02  0.12676275618E+03  0.13350812694E+03  0.10566000000E+00 0. -1.
        994    1    1    2    0    0  0.14253944346E+02  0.30677332643E+01  0.87271313198E+01  0.17204124139E+03  0.17120000000E+03 0.  0.
        998    1    1    2    0    0 -0.44747364729E+02 -0.31803838710E+02  0.13645101088E+04  0.13656506317E+04  0.10000000000E+02 0. -1.
</event>
<event>
 5    1  0.1303633E-008  0.3849916E+03  0.7957747E-01  0.3429708E+00
         13   -1    0    0    0    0  0.00000000000E+00  0.00000000000E+00  0.14999999963E+04  0.15000000000E+04  0.10566000000E+00 0.  1.
        994   -1    0    0    0    0 -0.00000000000E+00 -0.00000000000E+00  0.11368683772E-12  0.17120000000E+03  0.17120000000E+03 0.  0.
         13    1    1    2    0    0  0.10619421992E+02  0.39195656390E+01  0.38779045831E+02  0.40397533066E+02  0.10566000000E+00 0.  1.
        994    1    1    2    0    0 -0.11435679223E+02  0.45526592167E+01  0.21327240983E+01  0.17165514841E+03  0.17120000000E+03 0.  0.
        998    1    1    2    0    0  0.81625723121E+00 -0.84722248558E+01  0.14590882263E+04  0.14591473185E+04  0.10000000000E+02 0.  1.
</event>
<event>
 5    1  0.1303633E-008  0.4152673E+03  0.7957747E-01  0.3310644E+00
         13   -1    0    0    0    0  0.00000000000E+00  0.00000000000E+00  0.14999999963E+04  0.15000000000E+04  0.10566000000E+00 0. -1.
        994   -1    0    0    0    0 -0.00000000000E+00 -0.00000000000E+00  0.11368683772E-12  0.17120000000E+03  0.17120000000E+03 0.  0.
         13    1    1    2    0    0 -0.57904133163E+02  0.26976249286E+02  0.40934249108E+02  0.75869826526E+02  0.10566000000E+00 0. -1.
        994    1    1    2    0    0  0.65746176137E+02 -0.69061324014E+01  0.55733036207E+02  0.19179641724E+03  0.17120000000E+03 0.  0.
        998    1    1    2    0    0 -0.78420429736E+01 -0.20070116885E+02  0.14033327110E+04  0.14035337562E+04  0.10000000000E+02 0. -1.
</event>
<event>
 5    1  0.1303633E-008  0.3775646E+03  0.7957747E-01  0.3461832E+00
         13   -1    0    0    0    0  0.00000000000E+00  0.00000000000E+00  0.14999999963E+04  0.15000000000E+04  0.10566000000E+00 0.  1.
        994   -1    0    0    0    0 -0.00000000000E+00 -0.00000000000E+00  0.11368683772E-12  0.17120000000E+03  0.17120000000E+03 0.  0.
         13    1    1    2    0    0 -0.37828365708E+02  0.16745071770E+00  0.15055437421E+03  0.15523415877E+03  0.10566000000E+00 0.  1.
        994    1    1    2    0    0 -0.10621357316E+01 -0.14842726148E+02  0.61141768745E+01  0.17195423173E+03  0.17120000000E+03 0.  0.
        998    1    1    2    0    0  0.38890501440E+02  0.14675275431E+02  0.13433314452E+04  0.13440116095E+04  0.10000000000E+02 0.  1.
</event>
<event>
 5    1  0.1303633E-008  0.3847757E+03  0.7957747E-01  0.3430624E+00
         13   -1    0    0    0    0  0.00000000000E+00  0.00000000000E+00  0.14999999963E+04  0.15000000000E+04  0.10566000000E+00 0. -1.
        994   -1    0    0    0    0 -0.00000000000E+00 -0.00000000000E+00  0.11368683772E-12  0.17120000000E+03  0.17120000000E+03 0.  0.
         13    1    1    2    0    0  0.11371532474E+02  0.99147189394E+01  0.58032866096E+02  0.59961972231E+02  0.10566000000E+00 0. -1.
        994    1    1    2    0    0 -0.26822217141E+02 -0.15637991267E+02  0.49204897560E+01  0.17406214213E+03  0.17120000000E+03 0.  0.
        998    1    1    2    0    0  0.15450684667E+02  0.57232723277E+01  0.14370466404E+04  0.14371758856E+04  0.10000000000E+02 0. -1.
</event>
<event>
 5    1  0.1303633E-008  0.3855187E+03  0.7957747E-01  0.3427475E+00
         13   -1    0    0    0    0  0.00000000000E+00  0.00000000000E+00  0.14999999963E+04  0.15000000000E+04  0.10566000000E+00 0.  1.
        994   -1    0    0    0    0 -0.00000000000E+00 -0.00000000000E+00  0.11368683772E-12  0.17120000000E+03  0.17120000000E+03 0.  0.
         13    1    1    2    0    0 -0.14869065495E+02  0.33091897918E+00  0.76369272118E+02  0.77804084109E+02  0.10566000000E+00 0.  1.
        994    1    1    2    0    0  0.17653243485E+02 -0.12431679861E+02  0.29048549842E+01  0.17258059524E+03  0.17120000000E+03 0.  0.
        998    1    1    2    0    0 -0.27841779899E+01  0.12100760882E+02  0.14207258692E+04  0.14208153207E+04  0.10000000000E+02 0.  1.
</event>
<event>
 5    1  0.1303633E-008  0.3806016E+03  0.7957747E-01  0.3448543E+00
         13   -1    0    0    0    0  0.00000000000E+00  0.00000000000E+00  0.14999999963E+04  0.15000000000E+04  0.10566000000E+00 0.  1.
        994   -1    0    0    0    0 -0.00000000000E+00 -0.00000000000E+00  0.11368683772E-12  0.17120000000E+03  0.17120000000E+03 0.  0.
         13    1    1    2    0    0 -0.27851673087E+01 -0.23718861977E+02  0.69177092795E+02  0.73183487905E+02  0.10566000000E+00 0.  1.
        994    1    1    2    0    0  0.81971626644E+01  0.26753711849E+02  0.64463383237E+01  0.17359133000E+03  0.17120000000E+03 0.  0.
        998    1    1    2    0    0 -0.54119953557E+01 -0.30348498721E+01  0.14243765652E+04  0.14244251821E+04  0.10000000000E+02 0.  1.
</event>
<event>
 5    1  0.1303633E-008  0.3865395E+03  0.7957747E-01  0.3423169E+00
         13   -1    0    0    0    0  0.00000000000E+00  0.00000000000E+00  0.14999999963E+04  0.15000000000E+04  0.10566000000E+00 0. -1.
        994   -1    0    0    0    0 -0.00000000000E+00 -0.00000000000E+00  0.11368683772E-12  0.17120000000E+03  0.17120000000E+03 0.  0.
         13    1    1    2    0    0  0.36637709460E+01  0.98619633630E+01  0.59716120637E+02  0.60635862053E+02  0.10566000000E+00 0. -1.
        994    1    1    2    0    0 -0.17500379688E+02 -0.12922579426E+02  0.24179165505E+01  0.17259357656E+03  0.17120000000E+03 0.  0.
        998    1    1    2    0    0  0.13836608742E+02  0.30606160628E+01  0.14378659591E+04  0.14379705614E+04  0.10000000000E+02 0. -1.
</event>
<event>
 5    1  0.1303633E-008  0.3824920E+03  0.7957747E-01  0.3440379E+00
         13   -1    0    0    0    0  0.00000000000E+00  0.00000000000E+00  0.14999999963E+04  0.15000000000E+04  0.10566000000E+00 0.  1.
        994   -1    0    0    0    0 -0.00000000000E+00 -0.00000000000E+00  0.11368683772E-12  0.17120000000E+03  0.17120000000E+03 0.  0.
         13    1    1    2    0    0  0.25642657068E+02 -0.69437414593E+01  0.12804503095E+03  0.13077194853E+03  0.10566000000E+00 0.  1.
        994    1    1    2    0    0 -0.63053858614E+01  0.99397764672E+01  0.33400121937E+01  0.17163668818E+03  0.17120000000E+03 0.  0.
        998    1    1    2    0    0 -0.19337271206E+02 -0.29960350079E+01  0.13686149531E+04  0.13687913633E+04  0.10000000000E+02 0.  1.
</event>
<event>
 5    1  0.1303633E-008  0.3846711E+03  0.7957747E-01  0.3431068E+00
         13   -1    0    0    0    0  0.00000000000E+00  0.00000000000E+00  0.14999999963E+04  0.15000000000E+04  0.10566000000E+00 0.  1.
        994   -1    0    0    0    0 -0.00000000000E+00 -0.00000000000E+00  0.11368683772E-12  0.17120000000E+03  0.17120000000E+03 0.  0.
         13    1    1    2    0    0  0.12381036337E+02 -0.22796714167E+00  0.41297975393E+02  0.43114683872E+02  0.10566000000E+00 0.  1.
        994    1    1    2    0    0 -0.14199081460E+02  0.31206198211E+00  0.24578585170E+01  0.17180568199E+03  0.17120000000E+03 0.  0.
        998    1    1    2    0    0  0.18180451231E+01 -0.84094840445E-01  0.14562441624E+04  0.14562796341E+04  0.10000000000E+02 0.  1.
</event>
<event>
 5    1  0.1303633E-008  0.3838021E+03  0.7957747E-01  0.3434769E+00
         13   -1    0    0    0    0  0.00000000000E+00  0.00000000000E+00  0.14999999963E+04  0.15000000000E+04  0.10566000000E+00 0.  1.
        994   -1    0    0    0    0 -0.00000000000E+00 -0.00000000000E+00  0.11368683772E-12  0.17120000000E+03  0.17120000000E+03 0.  0.
         13    1    1    2    0    0  0.20645067289E+03  0.10153837456E+02  0.10208690384E+04  0.10415846512E+04  0.10566000000E+00 0.  1.
        994    1    1    2    0    0 -0.22553015749E+03  0.29572374154E+01  0.19370990417E+03  0.34308244514E+03  0.17120000000E+03 0.  0.
        998    1    1    2    0    0  0.19079484604E+02 -0.13111074871E+02  0.28542105367E+03  0.28653290369E+03  0.10000000000E+02 0. -1.
</event>
<event>
 5    1  0.1303633E-008  0.3836852E+03  0.7957747E-01  0.3435268E+00
         13   -1    0    0    0    0  0.00000000000E+00  0.00000000000E+00  0.14999999963E+04  0.15000000000E+04  0.10566000000E+00 0.  1.
        994   -1    0    0    0    0 -0.00000000000E+00 -0.00000000000E+00  0.11368683772E-12  0.17120000000E+03  0.17120000000E+03 0.  0.
         13    1    1    2    0    0 -0.11269044706E+02  0.23731474975E+02  0.14462297319E+03  0.14698976091E+03  0.10566000000E+00 0.  1.
        994    1    1    2    0    0  0.15792115351E+02 -0.15590205860E+02  0.39124242033E+01  0.17267655454E+03  0.17120000000E+03 0.  0.
        998    1    1    2    0    0 -0.45230706449E+01 -0.81412691147E+01  0.13514645989E+04  0.13515336845E+04  0.10000000000E+02 0.  1.
</event>
<event>
 5    1  0.1303633E-008  0.3777792E+03  0.7957747E-01  0.3460886E+00
         13   -1    0    0    0    0  0.00000000000E+00  0.00000000000E+00  0.14999999963E+04  0.15000000000E+04  0.10566000000E+00 0. -1.
        994   -1    0    0    0    0 -0.00000000000E+00 -0.00000000000E+00  0.11368683772E-12  0.17120000000E+03  0.17120000000E+03 0.  0.
         13    1    1    2    0    0  0.20084665804E+02  0.60058034145E+00  0.34796468658E+02  0.40181586483E+02  0.10566000000E+00 0. -1.
        994    1    1    2    0    0 -0.27383775487E+02 -0.24486114291E+01  0.78080877384E+01  0.17356921701E+03  0.17120000000E+03 0.  0.
        998    1    1    2    0    0  0.72991096836E+01  0.18480310876E+01  0.14573954399E+04  0.14574491965E+04  0.10000000000E+02 0. -1.
</event>
<event>
 5    1  0.1303633E-008  0.3811171E+03  0.7957747E-01  0.3446309E+00
         13   -1    0    0    0    0  0.00000000000E+00  0.00000000000E+00  0.14999999963E+04  0.15000000000E+04  0.10566000000E+00 0.  1.
        994   -1    0    0    0    0 -0.00000000000E+00 -0.00000000000E+00  0.11368683772E-12  0.17120000000E+03  0.17120000000E+03 0.  0.
         13    1    1    2    0    0 -0.15041240153E+03  0.81131122728E+02  0.97377567656E+03  0.98865829741E+03  0.10566000000E+00 0.  1.
        994    1    1    2    0    0  0.15753927422E+03 -0.80756158022E+02  0.11615703919E+03  0.27229042902E+03  0.17120000000E+03 0.  0.
        998    1    1    2    0    0 -0.71268726872E+01 -0.37496470626E+00  0.41006728053E+03  0.41025127358E+03  0.10000000000E+02 0.  0.
</event>
<event>
 5    1  0.1303633E-008  0.3816249E+03  0.7957747E-01  0.3444114E+00
         13   -1    0    0    0    0  0.00000000000E+00  0.00000000000E+00  0.14999999963E+04  0.15000000000E+04  0.10566000000E+00 0. -1.
        994   -1    0    0    0    0 -0.00000000000E+00 -0.00000000000E+00  0.11368683772E-12  0.17120000000E+03  0.17120000000E+03 0.  0.
         13    1    1    2    0    0  0.31946064482E+02 -0.29878074175E+02  0.24096711675E+03  0.24490490577E+03  0.10566000000E+00 0. -1.
        994    1    1    2    0    0 -0.33831661864E+02  0.29837993644E+02  0.10111022611E+02  0.17733177941E+03  0.17120000000E+03 0.  0.
        998    1    1    2    0    0  0.18855973826E+01  0.40080530908E-01  0.12489218569E+04  0.12489633148E+04  0.10000000000E+02 0. -1.
</event>
<event>
 5    1  0.1303633E-008  0.3789142E+03  0.7957747E-01  0.3455900E+00
         13   -1    0    0    0    0  0.00000000000E+00  0.00000000000E+00  0.14999999963E+04  0.15000000000E+04  0.10566000000E+00 0. -1.
        994   -1    0    0    0    0 -0.00000000000E+00 -0.00000000000E+00  0.11368683772E-12  0.17120000000E+03  0.17120000000E+03 0.  0.
         13    1    1    2    0    0 -0.18398685912E+02 -0.51478068017E+01  0.36962332057E+02  0.41608132778E+02  0.10566000000E+00 0. -1.
        994    1    1    2    0    0  0.76742103265E+01  0.25369686789E+02  0.70427290477E+01  0.17338268237E+03  0.17120000000E+03 0.  0.
        998    1    1    2    0    0  0.10724475586E+02 -0.20221879987E+02  0.14559949352E+04  0.14562091849E+04  0.10000000000E+02 0. -1.
</event>
<event>
 5    1  0.1303633E-008  0.3862520E+03  0.7957747E-01  0.3424380E+00
         13   -1    0    0    0    0  0.00000000000E+00  0.00000000000E+00  0.14999999963E+04  0.15000000000E+04  0.10566000000E+00 0. -1.
        994   -1    0    0    0    0 -0.00000000000E+00 -0.00000000000E+00  0.11368683772E-12  0.17120000000E+03  0.17120000000E+03 0.  0.
         13    1    1    2    0    0 -0.10590824701E+02  0.49102350809E+00  0.55349937473E+02  0.56356307671E+02  0.10566000000E+00 0. -1.
        994    1    1    2    0    0  0.10678669375E+02  0.91118611551E+01  0.16555095648E+01  0.17178253900E+03  0.17120000000E+03 0.  0.
        998    1    1    2    0    0 -0.87844673708E-01 -0.96028846632E+01  0.14429945492E+04  0.14430611533E+04  0.10000000000E+02 0. -1.
</event>
<event>
 5    1  0.1303633E-008  0.3840417E+03  0.7957747E-01  0.3433747E+00
         13   -1    0    0    0    0  0.00000000000E+00  0.00000000000E+00  0.14999999963E+04  0.15000000000E+04  0.10566000000E+00 0. -1.
        994   -1    0    0    0    0 -0.00000000000E+00 -0.00000000000E+00  0.11368683772E-12  0.17120000000E+03  0.17120000000E+03 0.  0.
         13    1    1    2    0    0 -0.94330653358E+01 -0.35481831777E+01  0.23092312073E+02  0.25195999016E+02  0.10566000000E+00 0. -1.
        994    1    1    2    0    0  0.11556846534E+02  0.18942821116E+01  0.25592207541E+01  0.17161916740E+03  0.17120000000E+03 0.  0.
        998    1    1    2    0    0 -0.21237811986E+01  0.16539010661E+01  0.14743484635E+04  0.14743848336E+04  0.10000000000E+02 0. -1.
</event>
<event>
 5    1  0.1303633E-008  0.3857031E+03  0.7957747E-01  0.3426696E+00
         13   -1    0    0    0    0  0.00000000000E+00  0.00000000000E+00  0.14999999963E+04  0.15000000000E+04  0.10566000000E+00 0. -1.
        994   -1    0    0    0    0 -0.00000000000E+00 -0.00000000000E+00  0.11368683772E-12  0.17120000000E+03  0.17120000000E+03 0.  0.
         13    1    1    2    0    0  0.64228443556E+01  0.10363466175E+02  0.61367774913E+02  0.62567318327E+02  0.10566000000E+00 0. -1.
        994    1    1    2    0    0 -0.30426291987E+01  0.57004871424E+00  0.13129015335E+01  0.17123301743E+03  0.17120000000E+03 0.  0.
        998    1    1    2    0    0 -0.33802151569E+01 -0.10933514889E+02  0.14373193198E+04  0.14373996642E+04  0.10000000000E+02 0. -1.
</event>
<event>
 5    1  0.1303633E-008  0.3862970E+03  0.7957747E-01  0.3424190E+00
         13   -1    0    0    0    0  0.00000000000E+00  0.00000000000E+00  0.14999999963E+04  0.15000000000E+04  0.10566000000E+00 0.  1.
        994   -1    0    0    0    0 -0.00000000000E+00 -0.00000000000E+00  0.11368683772E-12  0.17120000000E+03  0.17120000000E+03 0.  0.
         13    1    1    2    0    0  0.56676720890E+01  0.86534361648E+01  0.51517699842E+02  0.52546065746E+02  0.10566000000E+00 0.  1.
        994    1    1    2    0    0 -0.11825978293E+02 -0.11987370001E+02  0.19166877841E+01  0.17203681145E+03  0.17120000000E+03 0.  0.
        998    1    1    2    0    0  0.61583062037E+01  0.33339338358E+01  0.14465656087E+04  0.14466171228E+04  0.10000000000E+02 0.  1.
</event>
<event>
 5    1  0.1303633E-008  0.3842942E+03  0.7957747E-01  0.3432671E+00
         13   -1    0    0    0    0  0.00000000000E+00  0.00000000000E+00  0.14999999963E+04  0.15000000000E+04  0.10566000000E+00 0.  1.
        994   -1    0    0    0    0 -0.00000000000E+00 -0.00000000000E+00  0.11368683772E-12  0.17120000000E+03  0.17120000000E+03 0.  0.
         13    1    1    2    0    0 -0.45680923145E+01  0.71611271175E+02  0.41957844840E+03  0.42567020938E+03  0.10566000000E+00 0.  1.
        994    1    1    2    0    0  0.65889425763E+01 -0.12726713445E+03  0.57485802153E+02  0.22103030363E+03  0.17120000000E+03 0.  0.
        998    1    1    2    0    0 -0.20208502618E+01  0.55655863276E+02  0.10229357457E+04  0.10244994870E+04  0.10000000000E+02 0.  1.
</event>
<event>
 5    1  0.1303633E-008  0.3810921E+03  0.7957747E-01  0.3446417E+00
         13   -1    0    0    0    0  0.00000000000E+00  0.00000000000E+00  0.14999999963E+04  0.15000000000E+04  0.10566000000E+00 0.  1.
        994   -1    0    0    0    0 -0.00000000000E+00 -0.00000000000E+00  0.11368683772E-12  0.17120000000E+03  0.17120000000E+03 0.  0.
         13    1    1    2    0    0 -0.30698472034E+01  0.43062303509E+02  0.21953944877E+03  0.22374397573E+03  0.10566000000E+00 0.  1.
        994    1    1    2    0    0  0.69585867795E+01 -0.44838488615E+02  0.10471505742E+02  0.17742041716E+03  0.17120000000E+03 0.  0.
        998    1    1    2    0    0 -0.38887395760E+01  0.17761851057E+01  0.12699890418E+04  0.12700356071E+04  0.10000000000E+02 0.  1.
</event>
<event>
 5    1  0.1303633E-008  0.3838929E+03  0.7957747E-01  0.3434381E+00
         13   -1    0    0    0    0  0.00000000000E+00  0.00000000000E+00  0.14999999963E+04  0.15000000000E+04  0.10566000000E+00 0. -1.
        994   -1    0    0    0    0 -0.00000000000E+00 -0.00000000000E+00  0.11368683772E-12  0.17120000000E+03  0.17120000000E+03 0.  0.
         13    1    1    2    0    0  0.38454118165E+01 -0.19591882983E+02  0.98782969048E+02  0.10078052991E+03  0.10566000000E+00 0. -1.
        994    1    1    2    0    0 -0.36426577303E+01 -0.63256925572E-01  0.22245828426E+01  0.17125320939E+03  0.17120000000E+03 0.  0.
        998    1    1    2    0    0 -0.20275408614E+00  0.19655139909E+02  0.13989924444E+04  0.13991662607E+04  0.10000000000E+02 0. -1.
</event>
<event>
 5    1  0.1303633E-008  0.3729895E+03  0.7957747E-01  0.3482263E+00
         13   -1    0    0    0    0  0.00000000000E+00  0.00000000000E+00  0.14999999963E+04  0.15000000000E+04  0.10566000000E+00 0. -1.
        994   -1    0    0    0    0 -0.00000000000E+00 -0.00000000000E+00  0.11368683772E-12  0.17120000000E+03  0.17120000000E+03 0.  0.
         13    1    1    2    0    0 -0.30431050732E+02 -0.10648061049E+02  0.36040732280E+02  0.48356753407E+02  0.10566000000E+00 0. -1.
        994    1    1    2    0    0  0.24806694757E+02  0.14062324691E+02  0.15406459208E+02  0.17424098274E+03  0.17120000000E+03 0.  0.
        998    1    1    2    0    0  0.56243559754E+01 -0.34142636419E+01  0.14485528048E+04  0.14486022639E+04  0.10000000000E+02 0. -1.
</event>
<event>
 5    1  0.1303633E-008  0.3839273E+03  0.7957747E-01  0.3434235E+00
         13   -1    0    0    0    0  0.00000000000E+00  0.00000000000E+00  0.14999999963E+04  0.15000000000E+04  0.10566000000E+00 0.  1.
        994   -1    0    0    0    0 -0.00000000000E+00 -0.00000000000E+00  0.11368683772E-12  0.17120000000E+03  0.17120000000E+03 0.  0.
         13    1    1    2    0    0 -0.24738372848E+02  0.12155628876E+01  0.13316802719E+03  0.13545183392E+03  0.10566000000E+00 0.  1.
        994    1    1    2    0    0  0.22910547673E+02  0.51976239937E+01  0.39871621587E+01  0.17285035711E+03  0.17120000000E+03 0.  0.
        998    1    1    2    0    0  0.18278251748E+01 -0.64131868813E+01  0.13628448069E+04  0.13628978090E+04  0.10000000000E+02 0.  1.
</event>
<event>
 5    1  0.1303633E-008  0.3921341E+03  0.7957747E-01  0.3399968E+00
         13   -1    0    0    0    0  0.00000000000E+00  0.00000000000E+00  0.14999999963E+04  0.15000000000E+04  0.10566000000E+00 0.  1.
        994   -1    0    0    0    0 -0.00000000000E+00 -0.00000000000E+00  0.11368683772E-12  0.17120000000E+03  0.17120000000E+03 0.  0.
         13    1    1    2    0    0  0.51064545308E+01 -0.53534575512E+02  0.51153622189E+02  0.74220825112E+02  0.10566000000E+00 0.  1.
        994    1    1    2    0    0  0.46493991895E+02  0.64387479505E+02  0.47506280146E+02  0.19461173000E+03  0.17120000000E+03 0.  0.
        998    1    1    2    0    0 -0.51600446426E+02 -0.10852903992E+02  0.14013400939E+04  0.14023674449E+04  0.10000000000E+02 0.  1.
</event>
<event>
 5    1  0.1303633E-008  0.3805476E+03  0.7957747E-01  0.3448778E+00
         13   -1    0    0    0    0  0.00000000000E+00  0.00000000000E+00  0.14999999963E+04  0.15000000000E+04  0.10566000000E+00 0.  1.
        994   -1    0    0    0    0 -0.00000000000E+00 -0.00000000000E+00  0.11368683772E-12  0.17120000000E+03  0.17120000000E+03 0.  0.
         13    1    1    2    0    0  0.15435963977E+02  0.61219347522E+01  0.33463207493E+02  0.37356987148E+02  0.10566000000E+00 0.  1.
        994    1    1    2    0    0 -0.19057128104E+02 -0.17891903197E+01  0.50804955651E+01  0.17234159907E+03  0.17120000000E+03 0.  0.
        998    1    1    2    0    0  0.36211641277E+01 -0.43327444325E+01  0.14614562932E+04  0.14615014138E+04  0.10000000000E+02 0.  1.
</event>
<event>
 5    1  0.1303633E-008  0.3835091E+03  0.7957747E-01  0.3436020E+00
         13   -1    0    0    0    0  0.00000000000E+00  0.00000000000E+00  0.14999999963E+04  0.15000000000E+04  0.10566000000E+00 0. -1.
        994   -1    0    0    0    0 -0.00000000000E+00 -0.00000000000E+00  0.11368683772E-12  0.17120000000E+03  0.17120000000E+03 0.  0.
         13    1    1    2    0    0  0.16446204890E+02  0.43105645940E+01  0.61974717876E+02  0.64264573773E+02  0.10566000000E+00 0. -1.
        994    1    1    2    0    0 -0.88911852740E+01  0.10134896261E+02  0.29730620458E+01  0.17175578126E+03  0.17120000000E+03 0.  0.
        998    1    1    2    0    0 -0.75550196157E+01 -0.14445460855E+02  0.14350522164E+04  0.14351796450E+04  0.10000000000E+02 0. -1.
</event>
<event>
 5    1  0.1303633E-008  0.3859115E+03  0.7957747E-01  0.3425816E+00
         13   -1    0    0    0    0  0.00000000000E+00  0.00000000000E+00  0.14999999963E+04  0.15000000000E+04  0.10566000000E+00 0. -1.
        994   -1    0    0    0    0 -0.00000000000E+00 -0.00000000000E+00  0.11368683772E-12  0.17120000000E+03  0.17120000000E+03 0.  0.
         13    1    1    2    0    0  0.94521345427E+01  0.71500366206E+01  0.64931674532E+02  0.66004540697E+02  0.10566000000E+00 0. -1.
        994    1    1    2    0    0  0.43505325339E+01 -0.23019378128E+01  0.12577198359E+01  0.17127535698E+03  0.17120000000E+03 0.  0.
        998    1    1    2    0    0 -0.13802667077E+02 -0.48480988079E+01  0.14338106019E+04  0.14339201023E+04  0.10000000000E+02 0. -1.
</event>
<event>
 5    1  0.1303633E-008  0.3824633E+03  0.7957747E-01  0.3440502E+00
         13   -1    0    0    0    0  0.00000000000E+00  0.00000000000E+00  0.14999999963E+04  0.15000000000E+04  0.10566000000E+00 0.  1.
        994   -1    0    0    0    0 -0.00000000000E+00 -0.00000000000E+00  0.11368683772E-12  0.17120000000E+03  0.17120000000E+03 0.  0.
         13    1    1    2    0    0  0.20910002858E+02  0.12487202755E+02  0.10012944781E+03  0.10304890070E+03  0.10566000000E+00 0.  1.
        994    1    1    2    0    0 -0.14231152777E+02 -0.10034118936E+02  0.39008682357E+01  0.17212747028E+03  0.17120000000E+03 0.  0.
        998    1    1    2    0    0 -0.66788500806E+01 -0.24530838193E+01  0.13959696802E+04  0.13960236290E+04  0.10000000000E+02 0.  1.
</event>
<event>
 5    1  0.1303633E-008  0.3764987E+03  0.7957747E-01  0.3466547E+00
         13   -1    0    0    0    0  0.00000000000E+00  0.00000000000E+00  0.14999999963E+04  0.15000000000E+04  0.10566000000E+00 0. -1.
        994   -1    0    0    0    0 -0.00000000000E+00 -0.00000000000E+00  0.11368683772E-12  0.17120000000E+03  0.17120000000E+03 0.  0.
         13    1    1    2    0    0 -0.19330021388E+02  0.12491749497E+02  0.42912570591E+02  0.48694901285E+02  0.10566000000E+00 0. -1.
        994    1    1    2    0    0  0.39733756721E+01 -0.15888558732E+02  0.68188152169E+01  0.17211673438E+03  0.17120000000E+03 0.  0.
        998    1    1    2    0    0  0.15356645716E+02  0.33968092352E+01  0.14502686105E+04  0.14503883643E+04  0.10000000000E+02 0. -1.
</event>
<event>
 5    1  0.1303633E-008  0.3817911E+03  0.7957747E-01  0.3443396E+00
         13   -1    0    0    0    0  0.00000000000E+00  0.00000000000E+00  0.14999999963E+04  0.15000000000E+04  0.10566000000E+00 0. -1.
        994   -1    0    0    0    0 -0.00000000000E+00 -0.00000000000E+00  0.11368683772E-12  0.17120000000E+03  0.17120000000E+03 0.  0.
         13    1    1    2    0    0 -0.12525786001E+02  0.42555184542E+01  0.24836109677E+02  0.28139798510E+02  0.10566000000E+00 0. -1.
        994    1    1    2    0    0  0.20303453664E+02 -0.78351207208E+01  0.48072492376E+01  0.17264463210E+03  0.17120000000E+03 0.  0.
        998    1    1    2    0    0 -0.77776676623E+01  0.35796022666E+01  0.14703566374E+04  0.14704155694E+04  0.10000000000E+02 0. -1.
</event>
<event>
 5    1  0.1303633E-008  0.3852831E+03  0.7957747E-01  0.3428472E+00
         13   -1    0    0    0    0  0.00000000000E+00  0.00000000000E+00  0.14999999963E+04  0.15000000000E+04  0.10566000000E+00 0. -1.
        994   -1    0    0    0    0 -0.00000000000E+00 -0.00000000000E+00  0.11368683772E-12  0.17120000000E+03  0.17120000000E+03 0.  0.
         13    1    1    2    0    0 -0.64453570420E+01  0.17473481718E+02  0.11223590850E+03  0.11377071465E+03  0.10566000000E+00 0. -1.
        994    1    1    2    0    0  0.85923312002E+01 -0.14240872704E+02  0.23990775291E+01  0.17202274903E+03  0.17120000000E+03 0.  0.
        998    1    1    2    0    0 -0.21469741582E+01 -0.32326090144E+01  0.13853650103E+04  0.13854065363E+04  0.10000000000E+02 0. -1.
</event>
<event>
 5    1  0.1303633E-008  0.3792944E+03  0.7957747E-01  0.3454237E+00
         13   -1    0    0    0    0  0.00000000000E+00  0.00000000000E+00  0.14999999963E+04  0.15000000000E+04  0.10566000000E+00 0.  1.
        994   -1    0    0    0    0 -0.00000000000E+00 -0.00000000000E+00  0.11368683772E-12  0.17120000000E+03  0.17120000000E+03 0.  0.
         13    1    1    2    0    0 -0.15145196450E+02 -0.45327484594E+02  0.17531460181E+03  0.18171180095E+03  0.10566000000E+00 0.  1.
        994    1    1    2    0    0  0.78969959372E+01  0.88071519746E+02  0.31151289273E+02  0.19518913381E+03  0.17120000000E+03 0.  0.
        998    1    1    2    0    0  0.72482005129E+01 -0.42744035152E+02  0.12935341052E+04  0.12942990652E+04  0.10000000000E+02 0.  1.
</event>
<event>
 5    1  0.1303633E-008  0.3734212E+03  0.7957747E-01  0.3480314E+00
         13   -1    0    0    0    0  0.00000000000E+00  0.00000000000E+00  0.14999999963E+04  0.15000000000E+04  0.10566000000E+00 0.  1.
        994   -1    0    0    0    0 -0.00000000000E+00 -0.00000000000E+00  0.11368683772E-12  0.17120000000E+03  0.17120000000E+03 0.  0.
         13    1    1    2    0    0 -0.65958094061E+01 -0.34811506248E+02  0.82273038012E+02  0.89577952738E+02  0.10566000000E+00 0.  1.
        994    1    1    2    0    0  0.16854728572E+02  0.15439486121E+02  0.92791952156E+01  0.17296821405E+03  0.17120000000E+03 0.  0.
        998    1    1    2    0    0 -0.10258919166E+02  0.19372020127E+02  0.14084477631E+04  0.14086538332E+04  0.10000000000E+02 0.  1.
</event>
<event>
 5    1  0.1303633E-008  0.3841939E+03  0.7957747E-01  0.3433098E+00
         13   -1    0    0    0    0  0.00000000000E+00  0.00000000000E+00  0.14999999963E+04  0.15000000000E+04  0.10566000000E+00 0.  1.
        994   -1    0    0    0    0 -0.00000000000E+00 -0.00000000000E+00  0.11368683772E-12  0.17120000000E+03  0.17120000000E+03 0.  0.
         13    1    1    2    0    0  0.14922490939E+00 -0.18626447521E+02  0.93448660301E+02  0.95287092994E+02  0.10566000000E+00 0.  1.
        994    1    1    2    0    0 -0.21699922173E+01 -0.16144049994E+01  0.20550158021E+01  0.17123369487E+03  0.17120000000E+03 0.  0.
        998    1    1    2    0    0  0.20207673079E+01  0.20240852520E+02  0.14044963202E+04  0.14046792121E+04  0.10000000000E+02 0.  1.
</event>
<event>
 5    1  0.1303633E-008  0.3839254E+03  0.7957747E-01  0.3434243E+00
         13   -1    0    0    0    0  0.00000000000E+00  0.00000000000E+00  0.14999999963E+04  0.15000000000E+04  0.10566000000E+00 0. -1.
        994   -1    0    0    0    0 -0.00000000000E+00 -0.00000000000E+00  0.11368683772E-12  0.17120000000E+03  0.17120000000E+03 0.  0.
         13    1    1    2    0    0 -0.41814981801E+01 -0.21780677626E+02  0.13120540222E+03  0.13306671853E+03  0.10566000000E+00 0. -1.
        994    1    1    2    0    0 -0.13065174325E+01 -0.42997533479E+01  0.22312613513E+01  0.17127350465E+03  0.17120000000E+03 0.  0.
        998    1    1    2    0    0  0.54880156126E+01  0.26080430973E+02  0.13665633327E+04  0.13668597768E+04  0.10000000000E+02 0. -1.
</event>
<event>
 5    1  0.1303633E-008  0.3858804E+03  0.7957747E-01  0.3425947E+00
         13   -1    0    0    0    0  0.00000000000E+00  0.00000000000E+00  0.14999999963E+04  0.15000000000E+04  0.10566000000E+00 0.  1.
        994   -1    0    0    0    0 -0.00000000000E+00 -0.00000000000E+00  0.11368683772E-12  0.17120000000E+03  0.17120000000E+03 0.  0.
         13    1    1    2    0    0 -0.66150443927E+01 -0.97688332433E+01  0.56773046074E+02  0.57986022797E+02  0.10566000000E+00 0.  1.
        994    1    1    2    0    0  0.71302290566E+01  0.11153497191E+02  0.17685625942E+01  0.17172014582E+03  0.17120000000E+03 0.  0.
        998    1    1    2    0    0 -0.51518466390E+00 -0.13846639478E+01  0.14414583876E+04  0.14414938314E+04  0.10000000000E+02 0.  1.
</event>
<event>
 5    1  0.1303633E-008  0.3733633E+03  0.7957747E-01  0.3480575E+00
         13   -1    0    0    0    0  0.00000000000E+00  0.00000000000E+00  0.14999999963E+04  0.15000000000E+04  0.10566000000E+00 0. -1.
        994   -1    0    0    0    0 -0.00000000000E+00 -0.00000000000E+00  0.11368683772E-12  0.17120000000E+03  0.17120000000E+03 0.  0.
         13    1    1    2    0    0 -0.53426239167E+02  0.88838157528E+01  0.16994980607E+03  0.17837105415E+03  0.10566000000E+00 0. -1.
        994    1    1    2    0    0  0.54692786298E+02 -0.12245509891E+02  0.18335799746E+02  0.18107151885E+03  0.17120000000E+03 0.  0.
        998    1    1    2    0    0 -0.12665471311E+01  0.33616941387E+01  0.13117143905E+04  0.13117574270E+04  0.10000000000E+02 0. -1.
</event>
<event>
 5    1  0.1303633E-008  0.3838034E+03  0.7957747E-01  0.3434763E+00
         13   -1    0    0    0    0  0.00000000000E+00  0.00000000000E+00  0.14999999963E+04  0.15000000000E+04  0.10566000000E+00 0.  1.
        994   -1    0    0    0    0 -0.00000000000E+00 -0.00000000000E+00  0.11368683772E-12  0.17120000000E+03  0.17120000000E+03 0.  0.
         13    1    1    2    0    0  0.50195019611E+01  0.17713092089E+02  0.77901801100E+02  0.80047803280E+02  0.10566000000E+00 0.  1.
        994    1    1    2    0    0 -0.34027262717E+01 -0.62779499673E+01  0.23937659731E+01  0.17136557798E+03  0.17120000000E+03 0.  0.
        998    1    1    2    0    0 -0.16167756895E+01 -0.11435142122E+02  0.14197044292E+04  0.14197866187E+04  0.10000000000E+02 0.  1.
</event>
<event>
 5    1  0.1303633E-008  0.3838949E+03  0.7957747E-01  0.3434373E+00
         13   -1    0    0    0    0  0.00000000000E+00  0.00000000000E+00  0.14999999963E+04  0.15000000000E+04  0.10566000000E+00 0. -1.
        994   -1    0    0    0    0 -0.00000000000E+00 -0.00000000000E+00  0.11368683772E-12  0.17120000000E+03  0.17120000000E+03 0.  0.
         13    1    1    2    0    0 -0.10528721438E+02 -0.13971226131E+02  0.68866386123E+02  0.71053778481E+02  0.10566000000E+00 0. -1.
        994    1    1    2    0    0  0.86621705945E+01  0.10419871146E+02  0.27860230502E+01  0.17175799498E+03  0.17120000000E+03 0.  0.
        998    1    1    2    0    0  0.18665508431E+01  0.35513549843E+01  0.14283475871E+04  0.14283882265E+04  0.10000000000E+02 0. -1.
</event>
<event>
 5    1  0.1303633E-008  0.3802554E+03  0.7957747E-01  0.3450047E+00
         13   -1    0    0    0    0  0.00000000000E+00  0.00000000000E+00  0.14999999963E+04  0.15000000000E+04  0.10566000000E+00 0.  1.
        994   -1    0    0    0    0 -0.00000000000E+00 -0.00000000000E+00  0.11368683772E-12  0.17120000000E+03  0.17120000000E+03 0.  0.
         13    1    1    2    0    0  0.25546238177E+02 -0.28624030605E+01  0.73924652332E+02  0.78266653325E+02  0.10566000000E+00 0.  1.
        994    1    1    2    0    0 -0.36318074566E+02  0.55875519359E+01  0.85273421227E+01  0.17530652823E+03  0.17120000000E+03 0.  0.
        998    1    1    2    0    0  0.10771836390E+02 -0.27251488753E+01  0.14175480018E+04  0.14176268184E+04  0.10000000000E+02 0.  1.
</event>
<event>
 5    1  0.2081949E-008  0.3863305E+03  0.7957747E-01  0.3424049E+00
         13   -1    0    0    0    0  0.00000000000E+00  0.00000000000E+00  0.14999999963E+04  0.15000000000E+04  0.10566000000E+00 0.  1.
        994   -1    0    0    0    0 -0.00000000000E+00 -0.00000000000E+00  0.11368683772E-12  0.17120000000E+03  0.17120000000E+03 0.  0.
         13    1    1    2    0    0 -0.70538565149E+01  0.86528537333E+01  0.60613899713E+02  0.61633471198E+02  0.10566000000E+00 0.  1.
        994    1    1    2    0    0  0.10262309628E+02 -0.13731767991E+02  0.19339156511E+01  0.17206701160E+03  0.17120000000E+03 0.  0.
        998    1    1    2    0    0 -0.32084531127E+01  0.50789142572E+01  0.14374521809E+04  0.14374995172E+04  0.10000000000E+02 0.  1.
</event>
<event>
 5    1  0.1303633E-008  0.3811297E+03  0.7957747E-01  0.3446254E+00
         13   -1    0    0    0    0  0.00000000000E+00  0.00000000000E+00  0.14999999963E+04  0.15000000000E+04  0.10566000000E+00 0. -1.
        994   -1    0    0    0    0 -0.00000000000E+00 -0.00000000000E+00  0.11368683772E-12  0.17120000000E+03  0.17120000000E+03 0.  0.
         13    1    1    2    0    0  0.67633450043E+01  0.22182074422E+02  0.70952412695E+02  0.74646120412E+02  0.10566000000E+00 0. -1.
        994    1    1    2    0    0  0.10198308154E+01 -0.25803731382E+02  0.57881347908E+01  0.17323341223E+03  0.17120000000E+03 0.  0.
        998    1    1    2    0    0 -0.77831758197E+01  0.36216569598E+01  0.14232594488E+04  0.14233204674E+04  0.10000000000E+02 0. -1.
</event>
<event>
 5    1  0.1303633E-008  0.3842596E+03  0.7957747E-01  0.3432819E+00
         13   -1    0    0    0    0  0.00000000000E+00  0.00000000000E+00  0.14999999963E+04  0.15000000000E+04  0.10566000000E+00 0.  1.
        994   -1    0    0    0    0 -0.00000000000E+00 -0.00000000000E+00  0.11368683772E-12  0.17120000000E+03  0.17120000000E+03 0.  0.
         13    1    1    2    0    0  0.52632471447E+01  0.97377739575E+01  0.29320897729E+02  0.31340903303E+02  0.10566000000E+00 0.  1.
        994    1    1    2    0    0 -0.99609947637E+01 -0.11178878453E+02  0.27375997811E+01  0.17187531292E+03  0.17120000000E+03 0.  0.
        998    1    1    2    0    0  0.46977476190E+01  0.14411044954E+01  0.14679414988E+04  0.14679837838E+04  0.10000000000E+02 0.  1.
</event>
<event>
 5    1  0.1303633E-008  0.3749357E+03  0.7957747E-01  0.3473510E+00
         13   -1    0    0    0    0  0.00000000000E+00  0.00000000000E+00  0.14999999963E+04  0.15000000000E+04  0.10566000000E+00 0. -1.
        994   -1    0    0    0    0 -0.00000000000E+00 -0.00000000000E+00  0.11368683772E-12  0.17120000000E+03  0.17120000000E+03 0.  0.
         13    1    1    2    0    0 -0.20872144480E+02 -0.59212763493E+01  0.32579301478E+02  0.39142431933E+02  0.10566000000E+00 0. -1.
        994    1    1    2    0    0  0.13397268834E+02 -0.35388828179E+01  0.73648391104E+01  0.17191768774E+03  0.17120000000E+03 0.  0.
        998    1    1    2    0    0  0.74748756455E+01  0.94601591672E+01  0.14600558557E+04  0.14601398803E+04  0.10000000000E+02 0. -1.
</event>
<event>
 5    1  0.1303633E-008  0.3687581E+03  0.7957747E-01  0.3501618E+00
         13   -1    0    0    0    0  0.00000000000E+00  0.00000000000E+00  0.14999999963E+04  0.15000000000E+04  0.10566000000E+00 0.  1.
        994   -1    0    0    0    0 -0.00000000000E+00 -0.00000000000E+00  0.11368683772E-12  0.17120000000E+03  0.17120000000E+03 0.  0.
         13    1    1    2    0    0  0.55873739951E+01  0.19874974852E+02  0.16958686119E+02  0.26717813766E+02  0.10566000000E+00 0.  1.
        994    1    1    2    0    0 -0.10969473699E+02 -0.18947457923E+02  0.11585922999E+02  0.17298268447E+03  0.17120000000E+03 0.  0.
        998    1    1    2    0    0  0.53820997034E+01 -0.92751692896E+00  0.14714553872E+04  0.14714995018E+04  0.10000000000E+02 0.  1.
</event>
<event>
 5    1  0.1303633E-008  0.3710693E+03  0.7957747E-01  0.3490991E+00
         13   -1    0    0    0    0  0.00000000000E+00  0.00000000000E+00  0.14999999963E+04  0.15000000000E+04  0.10566000000E+00 0.  1.
        994   -1    0    0    0    0 -0.00000000000E+00 -0.00000000000E+00  0.11368683772E-12  0.17120000000E+03  0.17120000000E+03 0.  0.
         13    1    1    2    0    0  0.26375307257E+02  0.11123688810E+02  0.42245723384E+02  0.51030437916E+02  0.10566000000E+00 0.  1.
        994    1    1    2    0    0 -0.29393364105E+02 -0.90060915712E+01  0.11973913218E+02  0.17434991866E+03  0.17120000000E+03 0.  0.
        998    1    1    2    0    0  0.30180568487E+01 -0.21175972389E+01  0.14457803597E+04  0.14458196434E+04  0.10000000000E+02 0.  1.
</event>
<event>
 5    1  0.1303633E-008  0.3730363E+03  0.7957747E-01  0.3482052E+00
         13   -1    0    0    0    0  0.00000000000E+00  0.00000000000E+00  0.14999999963E+04  0.15000000000E+04  0.10566000000E+00 0. -1.
        994   -1    0    0    0    0 -0.00000000000E+00 -0.00000000000E+00  0.11368683772E-12  0.17120000000E+03  0.17120000000E+03 0.  0.
         13    1    1    2    0    0  0.44809430045E+01 -0.49994513655E+02  0.21841333556E+03  0.22410695339E+03  0.10566000000E+00 0. -1.
        994    1    1    2    0    0 -0.19950800116E+02 -0.21110229591E+02  0.10582983128E+02  0.17396872061E+03  0.17120000000E+03 0.  0.
        998    1    1    2    0    0  0.15469857111E+02  0.71104743246E+02  0.12710036776E+04  0.12731243260E+04  0.10000000000E+02 0. -1.
</event>
<event>
 5    1  0.1303633E-008  0.3734410E+03  0.7957747E-01  0.3480225E+00
         13   -1    0    0    0    0  0.00000000000E+00  0.00000000000E+00  0.14999999963E+04  0.15000000000E+04  0.10566000000E+00 0. -1.
        994   -1    0    0    0    0 -0.00000000000E+00 -0.00000000000E+00  0.11368683772E-12  0.17120000000E+03  0.17120000000E+03 0.  0.
         13    1    1    2    0    0  0.33133976771E+02  0.72821990496E+02  0.42941059129E+03  0.43680014858E+03  0.10566000000E+00 0. -1.
        994    1    1    2    0    0  0.17545159335E+02  0.17668668579E+02  0.14967059162E+02  0.17364753763E+03  0.17120000000E+03 0.  0.
        998    1    1    2    0    0 -0.50679136106E+02 -0.90490659075E+02  0.10556223458E+04  0.10607523138E+04  0.10000000000E+02 0. -1.
</event>
<event>
 5    1  0.1303633E-008  0.3819954E+03  0.7957747E-01  0.3442516E+00
         13   -1    0    0    0    0  0.00000000000E+00  0.00000000000E+00  0.14999999963E+04  0.15000000000E+04  0.10566000000E+00 0. -1.
        994   -1    0    0    0    0 -0.00000000000E+00 -0.00000000000E+00  0.11368683772E-12  0.17120000000E+03  0.17120000000E+03 0.  0.
         13    1    1    2    0    0  0.17668909262E+02  0.94832110476E+00  0.50999813461E+02  0.53982236009E+02  0.10566000000E+00 0. -1.
        994    1    1    2    0    0 -0.17725376929E+01 -0.47110850966E+01  0.32134048544E+01  0.17130412191E+03  0.17120000000E+03 0.  0.
        998    1    1    2    0    0 -0.15896371569E+02  0.37627639918E+01  0.14457867780E+04  0.14459136421E+04  0.10000000000E+02 0. -1.
</event>
<event>
 5    1  0.1303633E-008  0.3806731E+03  0.7957747E-01  0.3448233E+00
         13   -1    0    0    0    0  0.00000000000E+00  0.00000000000E+00  0.14999999963E+04  0.15000000000E+04  0.10566000000E+00 0. -1.
        994   -1    0    0    0    0 -0.00000000000E+00 -0.00000000000E+00  0.11368683772E-12  0.17120000000E+03  0.17120000000E+03 0.  0.
         13    1    1    2    0    0  0.13887335983E+02 -0.30215567407E+02  0.15022271608E+03  0.15385939752E+03  0.10566000000E+00 0. -1.
        994    1    1    2    0    0 -0.15161774359E+02  0.82587791435E+01  0.47886597242E+01  0.17213499963E+03  0.17120000000E+03 0.  0.
        998    1    1    2    0    0  0.12744383758E+01  0.21956788263E+02  0.13449886205E+04  0.13452056029E+04  0.10000000000E+02 0. -1.
</event>
<event>
 5    1  0.1303633E-008  0.3725127E+03  0.7957747E-01  0.3484422E+00
         13   -1    0    0    0    0  0.00000000000E+00  0.00000000000E+00  0.14999999963E+04  0.15000000000E+04  0.10566000000E+00 0.  1.
        994   -1    0    0    0    0 -0.00000000000E+00 -0.00000000000E+00  0.11368683772E-12  0.17120000000E+03  0.17120000000E+03 0.  0.
         13    1    1    2    0    0  0.37576562551E+02  0.44988727466E+02  0.19803364603E+03  0.20652680159E+03  0.10566000000E+00 0.  1.
        994    1    1    2    0    0 -0.28777375127E+02 -0.38076834408E+02  0.15811114339E+02  0.17843041774E+03  0.17120000000E+03 0.  0.
        998    1    1    2    0    0 -0.87991874243E+01 -0.69118930576E+01  0.12861552359E+04  0.12862427807E+04  0.10000000000E+02 0.  1.
</event>
<event>
 5    1  0.1303633E-008  0.3506266E+03  0.7957747E-01  0.3589958E+00
         13   -1    0    0    0    0  0.00000000000E+00  0.00000000000E+00  0.14999999963E+04  0.15000000000E+04  0.10566000000E+00 0.  1.
        994   -1    0    0    0    0 -0.00000000000E+00 -0.00000000000E+00  0.11368683772E-12  0.17120000000E+03  0.17120000000E+03 0.  0.
         13    1    1    2    0    0  0.60269313648E+02 -0.22423962355E+03  0.10710345086E+04  0.10959154751E+04  0.10566000000E+00 0.  1.
        994    1    1    2    0    0 -0.80941955170E+02  0.17129966513E+03  0.16256970944E+03  0.30271030014E+03  0.17120000000E+03 0.  0.
        998    1    1    2    0    0  0.20672641522E+02  0.52939958424E+02  0.26639577827E+03  0.27257422473E+03  0.10000000000E+02 0.  0.
</event>
<event>
 5    1  0.1303633E-008  0.3860041E+03  0.7957747E-01  0.3425425E+00
         13   -1    0    0    0    0  0.00000000000E+00  0.00000000000E+00  0.14999999963E+04  0.15000000000E+04  0.10566000000E+00 0. -1.
        994   -1    0    0    0    0 -0.00000000000E+00 -0.00000000000E+00  0.11368683772E-12  0.17120000000E+03  0.17120000000E+03 0.  0.
         13    1    1    2    0    0 -0.11589625224E+02 -0.27292527079E+01  0.61015147811E+02  0.62166129521E+02  0.10566000000E+00 0. -1.
        994    1    1    2    0    0  0.12274004164E+02  0.50150058817E+01  0.17089208411E+01  0.17172117479E+03  0.17120000000E+03 0.  0.
        998    1    1    2    0    0 -0.68437893996E+00 -0.22857531739E+01  0.14372759276E+04  0.14373126957E+04  0.10000000000E+02 0. -1.
</event>
<event>
 5    1  0.1303633E-008  0.3807899E+03  0.7957747E-01  0.3447726E+00
         13   -1    0    0    0    0  0.00000000000E+00  0.00000000000E+00  0.14999999963E+04  0.15000000000E+04  0.10566000000E+00 0. -1.
        994   -1    0    0    0    0 -0.00000000000E+00 -0.00000000000E+00  0.11368683772E-12  0.17120000000E+03  0.17120000000E+03 0.  0.
         13    1    1    2    0    0 -0.76665225980E+01 -0.23540200355E+02  0.85994807330E+02  0.89487622905E+02  0.10566000000E+00 0. -1.
        994    1    1    2    0    0  0.75815957563E+01  0.65237695551E+00  0.39280571534E+01  0.17141404792E+03  0.17120000000E+03 0.  0.
        998    1    1    2    0    0  0.84926841746E-01  0.22887823399E+02  0.14100771318E+04  0.14102983292E+04  0.10000000000E+02 0. -1.
</event>
<event>
 5    1  0.1303633E-008  0.3829740E+03  0.7957747E-01  0.3438310E+00
         13   -1    0    0    0    0  0.00000000000E+00  0.00000000000E+00  0.14999999963E+04  0.15000000000E+04  0.10566000000E+00 0. -1.
        994   -1    0    0    0    0 -0.00000000000E+00 -0.00000000000E+00  0.11368683772E-12  0.17120000000E+03  0.17120000000E+03 0.  0.
         13    1    1    2    0    0  0.10954262446E+01  0.28441179990E+02  0.16198333617E+03  0.16446492951E+03  0.10566000000E+00 0. -1.
        994    1    1    2    0    0 -0.15315008256E+01 -0.96478116549E+01  0.29553113175E+01  0.17150393473E+03  0.17120000000E+03 0.  0.
        998    1    1    2    0    0  0.43607458095E+00 -0.18793368335E+02  0.13350613488E+04  0.13352311358E+04  0.10000000000E+02 0. -1.
</event>
<event>
 5    1  0.1303633E-008  0.3849853E+03  0.7957747E-01  0.3429735E+00
         13   -1    0    0    0    0  0.00000000000E+00  0.00000000000E+00  0.14999999963E+04  0.15000000000E+04  0.10566000000E+00 0.  1.
        994   -1    0    0    0    0 -0.00000000000E+00 -0.00000000000E+00  0.11368683772E-12  0.17120000000E+03  0.17120000000E+03 0.  0.
         13    1    1    2    0    0 -0.14030915641E+02 -0.53224475011E+01  0.69544137113E+02  0.71144874812E+02  0.10566000000E+00 0.  1.
        994    1    1    2    0    0  0.85806497975E+01  0.43409951499E+00  0.18802537335E+01  0.17142576045E+03  0.17120000000E+03 0.  0.
        998    1    1    2    0    0  0.54502658437E+01  0.48883479861E+01  0.14285756054E+04  0.14286293647E+04  0.10000000000E+02 0.  1.
</event>
<event>
 5    1  0.1303633E-008  0.3858198E+03  0.7957747E-01  0.3426203E+00
         13   -1    0    0    0    0  0.00000000000E+00  0.00000000000E+00  0.14999999963E+04  0.15000000000E+04  0.10566000000E+00 0.  1.
        994   -1    0    0    0    0 -0.00000000000E+00 -0.00000000000E+00  0.11368683772E-12  0.17120000000E+03  0.17120000000E+03 0.  0.
         13    1    1    2    0    0  0.44135382472E+01 -0.11475819196E+02  0.64417539893E+02  0.65580518114E+02  0.10566000000E+00 0.  1.
        994    1    1    2    0    0 -0.72469063410E+01  0.12005234128E+01  0.14006858379E+01  0.17136324235E+03  0.17120000000E+03 0.  0.
        998    1    1    2    0    0  0.28333680937E+01  0.10275295783E+02  0.14341817705E+04  0.14342562395E+04  0.10000000000E+02 0.  1.
</event>
<event>
 5    1  0.1303633E-008  0.3835198E+03  0.7957747E-01  0.3435974E+00
         13   -1    0    0    0    0  0.00000000000E+00  0.00000000000E+00  0.14999999963E+04  0.15000000000E+04  0.10566000000E+00 0.  1.
        994   -1    0    0    0    0 -0.00000000000E+00 -0.00000000000E+00  0.11368683772E-12  0.17120000000E+03  0.17120000000E+03 0.  0.
         13    1    1    2    0    0  0.23086405025E+02  0.14690895781E+01  0.12268156898E+03  0.12484357754E+03  0.10566000000E+00 0.  1.
        994    1    1    2    0    0 -0.26986747129E+01  0.23274921351E+01  0.24087866408E+01  0.17125402862E+03  0.17120000000E+03 0.  0.
        998    1    1    2    0    0 -0.20387730313E+02 -0.37965817133E+01  0.13749096407E+04  0.13751023938E+04  0.10000000000E+02 0.  1.
</event>
<event>
 5    1  0.1303633E-008  0.3758838E+03  0.7957747E-01  0.3469279E+00
         13   -1    0    0    0    0  0.00000000000E+00  0.00000000000E+00  0.14999999963E+04  0.15000000000E+04  0.10566000000E+00 0.  1.
        994   -1    0    0    0    0 -0.00000000000E+00 -0.00000000000E+00  0.11368683772E-12  0.17120000000E+03  0.17120000000E+03 0.  0.
         13    1    1    2    0    0 -0.41949696443E+02 -0.56782608399E+00  0.39223545159E+02  0.57433414638E+02  0.10566000000E+00 0.  1.
        994    1    1    2    0    0  0.15662382457E+03 -0.12104947876E+01  0.10772315361E+03  0.25582456009E+03  0.17120000000E+03 0.  0.
        998    1    1    2    0    0 -0.11467412813E+03  0.17783208716E+01  0.13530532975E+04  0.13579420253E+04  0.10000000000E+02 0.  1.
</event>
<event>
 5    1  0.1303633E-008  0.3862246E+03  0.7957747E-01  0.3424495E+00
         13   -1    0    0    0    0  0.00000000000E+00  0.00000000000E+00  0.14999999963E+04  0.15000000000E+04  0.10566000000E+00 0. -1.
        994   -1    0    0    0    0 -0.00000000000E+00 -0.00000000000E+00  0.11368683772E-12  0.17120000000E+03  0.17120000000E+03 0.  0.
         13    1    1    2    0    0 -0.11178005903E+02  0.18588601011E+01  0.67878065183E+02  0.68817483780E+02  0.10566000000E+00 0. -1.
        994    1    1    2    0    0 -0.86849897072E+00 -0.46299527493E+01  0.10960437458E+01  0.17126830432E+03  0.17120000000E+03 0.  0.
        998    1    1    2    0    0  0.12046504874E+02  0.27710926481E+01  0.14310258874E+04  0.14311142119E+04  0.10000000000E+02 0. -1.
</event>
<event>
 5    1  0.1590704E-008  0.3844301E+03  0.7957747E-01  0.3432093E+00
         13   -1    0    0    0    0  0.00000000000E+00  0.00000000000E+00  0.14999999963E+04  0.15000000000E+04  0.10566000000E+00 0.  1.
        994   -1    0    0    0    0 -0.00000000000E+00 -0.00000000000E+00  0.11368683772E-12  0.17120000000E+03  0.17120000000E+03 0.  0.
         13    1    1    2    0    0 -0.18641349767E+01 -0.16001103684E+02  0.70062627199E+02  0.71890842341E+02  0.10566000000E+00 0.  1.
        994    1    1    2    0    0  0.42283661227E+01  0.41352230254E+01  0.20286246027E+01  0.17131413972E+03  0.17120000000E+03 0.  0.
        998    1    1    2    0    0 -0.23642311460E+01  0.11865880659E+02  0.14279087445E+04  0.14279950179E+04  0.10000000000E+02 0.  1.
</event>
<event>
 5    1  0.1303633E-008  0.3789563E+03  0.7957747E-01  0.3455716E+00
         13   -1    0    0    0    0  0.00000000000E+00  0.00000000000E+00  0.14999999963E+04  0.15000000000E+04  0.10566000000E+00 0.  1.
        994   -1    0    0    0    0 -0.00000000000E+00 -0.00000000000E+00  0.11368683772E-12  0.17120000000E+03  0.17120000000E+03 0.  0.
         13    1    1    2    0    0  0.43549310605E+02  0.11648949069E+02  0.18306977328E+03  0.18853857303E+03  0.10566000000E+00 0.  1.
        994    1    1    2    0    0 -0.50092940647E+02 -0.13121981942E+02  0.13709117589E+02  0.17938469561E+03  0.17120000000E+03 0.  0.
        998    1    1    2    0    0  0.65436300420E+01  0.14730328731E+01  0.13032211054E+04  0.13032767314E+04  0.10000000000E+02 0.  1.
</event>
<event>
 5    1  0.1303633E-008  0.3792379E+03  0.7957747E-01  0.3454484E+00
         13   -1    0    0    0    0  0.00000000000E+00  0.00000000000E+00  0.14999999963E+04  0.15000000000E+04  0.10566000000E+00 0. -1.
        994   -1    0    0    0    0 -0.00000000000E+00 -0.00000000000E+00  0.11368683772E-12  0.17120000000E+03  0.17120000000E+03 0.  0.
         13    1    1    2    0    0  0.19151820311E+02 -0.23986803106E+01  0.38869869924E+02  0.43398431313E+02  0.10566000000E+00 0. -1.
        994    1    1    2    0    0 -0.17652569560E+02 -0.75704901499E-01  0.55633735497E+01  0.17219759019E+03  0.17120000000E+03 0.  0.
        998    1    1    2    0    0 -0.14992507515E+01  0.24743852121E+01  0.14555667528E+04  0.14556039785E+04  0.10000000000E+02 0. -1.
</event>
<event>
 5    1  0.1303633E-008  0.3831455E+03  0.7957747E-01  0.3437575E+00
         13   -1    0    0    0    0  0.00000000000E+00  0.00000000000E+00  0.14999999963E+04  0.15000000000E+04  0.10566000000E+00 0.  1.
        994   -1    0    0    0    0 -0.00000000000E+00 -0.00000000000E+00  0.11368683772E-12  0.17120000000E+03  0.17120000000E+03 0.  0.
         13    1    1    2    0    0 -0.72626977260E+01 -0.22123004845E+02  0.13435389941E+03  0.13635672177E+03  0.10566000000E+00 0.  1.
        994    1    1    2    0    0 -0.45120895594E+02  0.21314299285E+00  0.93190199246E+01  0.17729135563E+03  0.17120000000E+03 0.  0.
        998    1    1    2    0    0  0.52383593320E+02  0.21909861852E+02  0.13563270769E+04  0.13575519226E+04  0.10000000000E+02 0.  1.
</event>
<event>
 5    1  0.1702982E-008  0.3857438E+03  0.7957747E-01  0.3426524E+00
         13   -1    0    0    0    0  0.00000000000E+00  0.00000000000E+00  0.14999999963E+04  0.15000000000E+04  0.10566000000E+00 0. -1.
        994   -1    0    0    0    0 -0.00000000000E+00 -0.00000000000E+00  0.11368683772E-12  0.17120000000E+03  0.17120000000E+03 0.  0.
         13    1    1    2    0    0 -0.14100119076E+02  0.13118552452E+01  0.81679455758E+02  0.82898003468E+02  0.10566000000E+00 0. -1.
        994    1    1    2    0    0  0.66829902042E+01 -0.24741979942E+01  0.14279249908E+01  0.17135420329E+03  0.17120000000E+03 0.  0.
        998    1    1    2    0    0  0.74171288721E+01  0.11623427489E+01  0.14168926155E+04  0.14169477932E+04  0.10000000000E+02 0. -1.
</event>
<event>
 5    1  0.1303633E-008  0.3835570E+03  0.7957747E-01  0.3435815E+00
         13   -1    0    0    0    0  0.00000000000E+00  0.00000000000E+00  0.14999999963E+04  0.15000000000E+04  0.10566000000E+00 0. -1.
        994   -1    0    0    0    0 -0.00000000000E+00 -0.00000000000E+00  0.11368683772E-12  0.17120000000E+03  0.17120000000E+03 0.  0.
         13    1    1    2    0    0  0.23955028589E+02  0.55160053379E+01  0.14045216489E+03  0.14258713650E+03  0.10566000000E+00 0. -1.
        994    1    1    2    0    0 -0.28703966223E+01 -0.29756254186E+01  0.24047571169E+01  0.17126679883E+03  0.17120000000E+03 0.  0.
        998    1    1    2    0    0 -0.21084631967E+02 -0.25403799192E+01  0.13571430743E+04  0.13573460647E+04  0.10000000000E+02 0. -1.
</event>
<event>
 5    1  0.1303633E-008  0.3829555E+03  0.7957747E-01  0.3438390E+00
         13   -1    0    0    0    0  0.00000000000E+00  0.00000000000E+00  0.14999999963E+04  0.15000000000E+04  0.10566000000E+00 0.  1.
        994   -1    0    0    0    0 -0.00000000000E+00 -0.00000000000E+00  0.11368683772E-12  0.17120000000E+03  0.17120000000E+03 0.  0.
         13    1    1    2    0    0 -0.19668769382E+02  0.51820246751E+01  0.84271147884E+02  0.86691126412E+02  0.10566000000E+00 0.  1.
        994    1    1    2    0    0 -0.21265144466E+01 -0.89841546742E+00  0.26662452173E+01  0.17123632231E+03  0.17120000000E+03 0.  0.
        998    1    1    2    0    0  0.21795283828E+02 -0.42836092077E+01  0.14130626032E+04  0.14132725513E+04  0.10000000000E+02 0.  1.
</event>
<event>
 5    1  0.1303633E-008  0.3727164E+03  0.7957747E-01  0.3483499E+00
         13   -1    0    0    0    0  0.00000000000E+00  0.00000000000E+00  0.14999999963E+04  0.15000000000E+04  0.10566000000E+00 0. -1.
        994   -1    0    0    0    0 -0.00000000000E+00 -0.00000000000E+00  0.11368683772E-12  0.17120000000E+03  0.17120000000E+03 0.  0.
         13    1    1    2    0    0 -0.21163719269E+02 -0.10797483604E+02  0.32362558840E+02  0.40147665489E+02  0.10566000000E+00 0. -1.
        994    1    1    2    0    0  0.20902516271E+02  0.40302388490E+01  0.94099560003E+01  0.17277483985E+03  0.17120000000E+03 0.  0.
        998    1    1    2    0    0  0.26120299757E+00  0.67672447548E+01  0.14582274814E+04  0.14582774947E+04  0.10000000000E+02 0. -1.
</event>
<event>
 5    1  0.1303633E-008  0.3734118E+03  0.7957747E-01  0.3480357E+00
         13   -1    0    0    0    0  0.00000000000E+00  0.00000000000E+00  0.14999999963E+04  0.15000000000E+04  0.10566000000E+00 0.  1.
        994   -1    0    0    0    0 -0.00000000000E+00 -0.00000000000E+00  0.11368683772E-12  0.17120000000E+03  0.17120000000E+03 0.  0.
         13    1    1    2    0    0 -0.56514798098E+02 -0.54781922807E+01  0.23646994770E+03  0.24319124228E+03  0.10566000000E+00 0.  1.
        994    1    1    2    0    0  0.22993291886E+02 -0.44931235526E+02  0.16253232605E+02  0.17922364511E+03  0.17120000000E+03 0.  0.
        998    1    1    2    0    0  0.33521506212E+02  0.50409427807E+02  0.12472768160E+04  0.12487851126E+04  0.10000000000E+02 0.  1.
</event>
<event>
 5    1  0.1303633E-008  0.3728573E+03  0.7957747E-01  0.3482861E+00
         13   -1    0    0    0    0  0.00000000000E+00  0.00000000000E+00  0.14999999963E+04  0.15000000000E+04  0.10566000000E+00 0.  1.
        994   -1    0    0    0    0 -0.00000000000E+00 -0.00000000000E+00  0.11368683772E-12  0.17120000000E+03  0.17120000000E+03 0.  0.
         13    1    1    2    0    0 -0.76991391754E+01 -0.58023863005E+02  0.19666903675E+03  0.20519446045E+03  0.10566000000E+00 0.  1.
        994    1    1    2    0    0  0.10581111045E+02  0.51548682672E+02  0.17324992093E+02  0.17994116246E+03  0.17120000000E+03 0.  0.
        998    1    1    2    0    0 -0.28819718694E+01  0.64751803326E+01  0.12860059674E+04  0.12860643771E+04  0.10000000000E+02 0.  1.
</event>
<event>
 5    1  0.1303633E-008  0.3849096E+03  0.7957747E-01  0.3430056E+00
         13   -1    0    0    0    0  0.00000000000E+00  0.00000000000E+00  0.14999999963E+04  0.15000000000E+04  0.10566000000E+00 0. -1.
        994   -1    0    0    0    0 -0.00000000000E+00 -0.00000000000E+00  0.11368683772E-12  0.17120000000E+03  0.17120000000E+03 0.  0.
         13    1    1    2    0    0 -0.95282075440E+01  0.98564747921E+01  0.57946508227E+02  0.59546165401E+02  0.10566000000E+00 0. -1.
        994    1    1    2    0    0 -0.18594314670E+01 -0.66583310318E+01  0.18322548704E+01  0.17134931577E+03  0.17120000000E+03 0.  0.
        998    1    1    2    0    0  0.11387639011E+02 -0.31981437604E+01  0.14402212332E+04  0.14403045188E+04  0.10000000000E+02 0. -1.
</event>
<event>
 5    1  0.1303633E-008  0.3713177E+03  0.7957747E-01  0.3489857E+00
         13   -1    0    0    0    0  0.00000000000E+00  0.00000000000E+00  0.14999999963E+04  0.15000000000E+04  0.10566000000E+00 0.  1.
        994   -1    0    0    0    0 -0.00000000000E+00 -0.00000000000E+00  0.11368683772E-12  0.17120000000E+03  0.17120000000E+03 0.  0.
         13    1    1    2    0    0 -0.48589661202E+02 -0.48982473027E+02  0.16944616468E+03  0.18295423397E+03  0.10566000000E+00 0.  1.
        994    1    1    2    0    0  0.54289164509E+02  0.59174043795E+02  0.34645539590E+02  0.19224628541E+03  0.17120000000E+03 0.  0.
        998    1    1    2    0    0 -0.56995033066E+01 -0.10191570768E+02  0.12959082920E+04  0.12959994806E+04  0.10000000000E+02 0.  1.
</event>
<event>
 5    1  0.1303633E-008  0.3848747E+03  0.7957747E-01  0.3430204E+00
         13   -1    0    0    0    0  0.00000000000E+00  0.00000000000E+00  0.14999999963E+04  0.15000000000E+04  0.10566000000E+00 0.  1.
        994   -1    0    0    0    0 -0.00000000000E+00 -0.00000000000E+00  0.11368683772E-12  0.17120000000E+03  0.17120000000E+03 0.  0.
         13    1    1    2    0    0 -0.10695221725E+01 -0.16856879103E+02  0.89175985144E+02  0.90761587366E+02  0.10566000000E+00 0.  1.
        994    1    1    2    0    0 -0.31994938158E+01  0.34383141393E+01  0.17649448716E+01  0.17127350582E+03  0.17120000000E+03 0.  0.
        998    1    1    2    0    0  0.42690159883E+01  0.13418564964E+02  0.14090590663E+04  0.14091649068E+04  0.10000000000E+02 0.  1.
</event>
<event>
 5    1  0.1303633E-008  0.3882535E+03  0.7957747E-01  0.3415990E+00
         13   -1    0    0    0    0  0.00000000000E+00  0.00000000000E+00  0.14999999963E+04  0.15000000000E+04  0.10566000000E+00 0.  1.
        994   -1    0    0    0    0 -0.00000000000E+00 -0.00000000000E+00  0.11368683772E-12  0.17120000000E+03  0.17120000000E+03 0.  0.
         13    1    1    2    0    0  0.14784476966E+02  0.28936561859E+02  0.16236483759E+02  0.36325472334E+02  0.10566000000E+00 0.  1.
        994    1    1    2    0    0 -0.11085055294E+02 -0.33288674071E+02  0.25550687650E+02  0.17661622777E+03  0.17120000000E+03 0.  0.
        998    1    1    2    0    0 -0.36994216721E+01  0.43521122117E+01  0.14582128249E+04  0.14582582999E+04  0.10000000000E+02 0.  1.
</event>
<event>
 5    1  0.1303633E-008  0.3835227E+03  0.7957747E-01  0.3435962E+00
         13   -1    0    0    0    0  0.00000000000E+00  0.00000000000E+00  0.14999999963E+04  0.15000000000E+04  0.10566000000E+00 0. -1.
        994   -1    0    0    0    0 -0.00000000000E+00 -0.00000000000E+00  0.11368683772E-12  0.17120000000E+03  0.17120000000E+03 0.  0.
         13    1    1    2    0    0 -0.13848170271E+02 -0.12293905855E+02  0.69248363968E+02  0.71681650493E+02  0.10566000000E+00 0. -1.
        994    1    1    2    0    0  0.17190296141E+02  0.89364768804E+01  0.36067206631E+01  0.17233054092E+03  0.17120000000E+03 0.  0.
        998    1    1    2    0    0 -0.33421258703E+01  0.33574289741E+01  0.14271449116E+04  0.14271878086E+04  0.10000000000E+02 0. -1.
</event>
<event>
 5    1  0.1303633E-008  0.3824531E+03  0.7957747E-01  0.3440546E+00
         13   -1    0    0    0    0  0.00000000000E+00  0.00000000000E+00  0.14999999963E+04  0.15000000000E+04  0.10566000000E+00 0.  1.
        994   -1    0    0    0    0 -0.00000000000E+00 -0.00000000000E+00  0.11368683772E-12  0.17120000000E+03  0.17120000000E+03 0.  0.
         13    1    1    2    0    0  0.11908852018E+02  0.41552848758E+01  0.25861562728E+02  0.28773577107E+02  0.10566000000E+00 0.  1.
        994    1    1    2    0    0 -0.19360231865E+02  0.11318509310E+02  0.45694195324E+01  0.17272303502E+03  0.17120000000E+03 0.  0.
        998    1    1    2    0    0  0.74513798473E+01 -0.15473794186E+02  0.14695690140E+04  0.14697033879E+04  0.10000000000E+02 0.  1.
</event>
<event>
 5    1  0.1303633E-008  0.3830666E+03  0.7957747E-01  0.3437914E+00
         13   -1    0    0    0    0  0.00000000000E+00  0.00000000000E+00  0.14999999963E+04  0.15000000000E+04  0.10566000000E+00 0.  1.
        994   -1    0    0    0    0 -0.00000000000E+00 -0.00000000000E+00  0.11368683772E-12  0.17120000000E+03  0.17120000000E+03 0.  0.
         13    1    1    2    0    0 -0.23718583072E+02 -0.86751089347E+01  0.12623168614E+03  0.12873336182E+03  0.10566000000E+00 0.  1.
        994    1    1    2    0    0  0.48199334212E+01  0.19672425815E+02  0.39519158793E+01  0.17243924650E+03  0.17120000000E+03 0.  0.
        998    1    1    2    0    0  0.18898649651E+02 -0.10997316880E+02  0.13698163943E+04  0.13700273917E+04  0.10000000000E+02 0.  1.
</event>
<event>
 5    1  0.1303633E-008  0.3856772E+03  0.7957747E-01  0.3426805E+00
         13   -1    0    0    0    0  0.00000000000E+00  0.00000000000E+00  0.14999999963E+04  0.15000000000E+04  0.10566000000E+00 0.  1.
        994   -1    0    0    0    0 -0.00000000000E+00 -0.00000000000E+00  0.11368683772E-12  0.17120000000E+03  0.17120000000E+03 0.  0.
         13    1    1    2    0    0  0.72281740592E+01  0.12497054640E+02  0.86552871140E+02  0.87748695383E+02  0.10566000000E+00 0.  1.
        994    1    1    2    0    0  0.17735586429E+01 -0.28132859622E+01  0.13305885594E+01  0.17123746831E+03  0.17120000000E+03 0.  0.
        998    1    1    2    0    0 -0.90017327021E+01 -0.96837686779E+01  0.14121165366E+04  0.14122138363E+04  0.10000000000E+02 0.  1.
</event>
<event>
 5    1  0.1303633E-008  0.3789679E+03  0.7957747E-01  0.3455665E+00
         13   -1    0    0    0    0  0.00000000000E+00  0.00000000000E+00  0.14999999963E+04  0.15000000000E+04  0.10566000000E+00 0.  1.
        994   -1    0    0    0    0 -0.00000000000E+00 -0.00000000000E+00  0.11368683772E-12  0.17120000000E+03  0.17120000000E+03 0.  0.
         13    1    1    2    0    0  0.33078258593E+02  0.33237748223E+02  0.21765005174E+03  0.22264427971E+03  0.10566000000E+00 0.  1.
        994    1    1    2    0    0 -0.28642480972E+02 -0.24070162845E+02  0.93647001203E+01  0.17549046146E+03  0.17120000000E+03 0.  0.
        998    1    1    2    0    0 -0.44357776211E+01 -0.91675853782E+01  0.12729852444E+04  0.12730652588E+04  0.10000000000E+02 0.  1.
</event>
<event>
 5    1  0.1303633E-008  0.3813675E+03  0.7957747E-01  0.3445225E+00
         13   -1    0    0    0    0  0.00000000000E+00  0.00000000000E+00  0.14999999963E+04  0.15000000000E+04  0.10566000000E+00 0. -1.
        994   -1    0    0    0    0 -0.00000000000E+00 -0.00000000000E+00  0.11368683772E-12  0.17120000000E+03  0.17120000000E+03 0.  0.
         13    1    1    2    0    0 -0.19403404499E+02  0.85361083867E+01  0.67227146038E+02  0.70490123996E+02  0.10566000000E+00 0. -1.
        994    1    1    2    0    0  0.46445942682E+01  0.29137178522E+01  0.35444600060E+01  0.17132444427E+03  0.17120000000E+03 0.  0.
        998    1    1    2    0    0  0.14758810231E+02 -0.11449826239E+02  0.14292283902E+04  0.14293854317E+04  0.10000000000E+02 0. -1.
</event>
<event>
 5    1  0.1303633E-008  0.3824024E+03  0.7957747E-01  0.3440764E+00
         13   -1    0    0    0    0  0.00000000000E+00  0.00000000000E+00  0.14999999963E+04  0.15000000000E+04  0.10566000000E+00 0. -1.
        994   -1    0    0    0    0 -0.00000000000E+00 -0.00000000000E+00  0.11368683772E-12  0.17120000000E+03  0.17120000000E+03 0.  0.
         13    1    1    2    0    0  0.29467629346E+02  0.20626656088E+01  0.12473819133E+03  0.12818823390E+03  0.10566000000E+00 0. -1.
        994    1    1    2    0    0 -0.43326936974E+02 -0.15626767023E+02  0.99933080389E+01  0.17756893174E+03  0.17120000000E+03 0.  0.
        998    1    1    2    0    0  0.13859307628E+02  0.13564101414E+02  0.13652684969E+04  0.13654428344E+04  0.10000000000E+02 0. -1.
</event>
<event>
 5    1  0.1303633E-008  0.3732582E+03  0.7957747E-01  0.3481049E+00
         13   -1    0    0    0    0  0.00000000000E+00  0.00000000000E+00  0.14999999963E+04  0.15000000000E+04  0.10566000000E+00 0. -1.
        994   -1    0    0    0    0 -0.00000000000E+00 -0.00000000000E+00  0.11368683772E-12  0.17120000000E+03  0.17120000000E+03 0.  0.
         13    1    1    2    0    0  0.51576083044E+02 -0.67290896686E+02  0.33727146785E+03  0.34776459179E+03  0.10566000000E+00 0. -1.
        994    1    1    2    0    0 -0.75115663048E+02  0.61822537834E+02  0.40663393805E+02  0.20106551324E+03  0.17120000000E+03 0.  0.
        998    1    1    2    0    0  0.23539580004E+02  0.54683588528E+01  0.11220651346E+04  0.11223698950E+04  0.10000000000E+02 0. -1.
</event>
<event>
 5    1  0.1303633E-008  0.3838000E+03  0.7957747E-01  0.3434777E+00
         13   -1    0    0    0    0  0.00000000000E+00  0.00000000000E+00  0.14999999963E+04  0.15000000000E+04  0.10566000000E+00 0. -1.
        994   -1    0    0    0    0 -0.00000000000E+00 -0.00000000000E+00  0.11368683772E-12  0.17120000000E+03  0.17120000000E+03 0.  0.
         13    1    1    2    0    0 -0.13877077571E+02 -0.10401955746E+01  0.47238779360E+02  0.49246002155E+02  0.10566000000E+00 0. -1.
        994    1    1    2    0    0 -0.11146297830E+02  0.48600145199E+01  0.27153919440E+01  0.17165276884E+03  0.17120000000E+03 0.  0.
        998    1    1    2    0    0  0.25023375401E+02 -0.38198189453E+01  0.14500458250E+04  0.14503012290E+04  0.10000000000E+02 0. -1.
</event>
<event>
 5    1  0.1303633E-008  0.3846169E+03  0.7957747E-01  0.3431299E+00
         13   -1    0    0    0    0  0.00000000000E+00  0.00000000000E+00  0.14999999963E+04  0.15000000000E+04  0.10566000000E+00 0.  1.
        994   -1    0    0    0    0 -0.00000000000E+00 -0.00000000000E+00  0.11368683772E-12  0.17120000000E+03  0.17120000000E+03 0.  0.
         13    1    1    2    0    0  0.20590461185E+02 -0.28693672202E+01  0.12383284912E+03  0.12556586338E+03  0.10566000000E+00 0.  1.
        994    1    1    2    0    0 -0.62981166962E+01  0.12927271674E+02  0.25016422003E+01  0.17182106635E+03  0.17120000000E+03 0.  0.
        998    1    1    2    0    0 -0.14292344489E+02 -0.10057904454E+02  0.13736655050E+04  0.13738130703E+04  0.10000000000E+02 0.  1.
</event>
<event>
 5    1  0.1303633E-008  0.3829382E+03  0.7957747E-01  0.3438464E+00
         13   -1    0    0    0    0  0.00000000000E+00  0.00000000000E+00  0.14999999963E+04  0.15000000000E+04  0.10566000000E+00 0.  1.
        994   -1    0    0    0    0 -0.00000000000E+00 -0.00000000000E+00  0.11368683772E-12  0.17120000000E+03  0.17120000000E+03 0.  0.
         13    1    1    2    0    0 -0.31762486912E+02 -0.58037911202E+01  0.21366454176E+02  0.38717904053E+02  0.10566000000E+00 0.  1.
        994    1    1    2    0    0  0.29918972639E+02  0.11330419627E+02  0.21708762009E+02  0.17551134915E+03  0.17120000000E+03 0.  0.
        998    1    1    2    0    0  0.18435142728E+01 -0.55266285066E+01  0.14569247801E+04  0.14569707468E+04  0.10000000000E+02 0.  1.
</event>
<event>
 5    1  0.1303633E-008  0.3831686E+03  0.7957747E-01  0.3437477E+00
         13   -1    0    0    0    0  0.00000000000E+00  0.00000000000E+00  0.14999999963E+04  0.15000000000E+04  0.10566000000E+00 0. -1.
        994   -1    0    0    0    0 -0.00000000000E+00 -0.00000000000E+00  0.11368683772E-12  0.17120000000E+03  0.17120000000E+03 0.  0.
         13    1    1    2    0    0 -0.12029397957E+02 -0.23453730602E+02  0.15777620545E+03  0.15996288965E+03  0.10566000000E+00 0. -1.
        994    1    1    2    0    0 -0.26202782070E+01 -0.92527910531E+00  0.25676874962E+01  0.17124180278E+03  0.17120000000E+03 0.  0.
        998    1    1    2    0    0  0.14649676164E+02  0.24379009707E+02  0.13396561033E+04  0.13399953076E+04  0.10000000000E+02 0. -1.
</event>
<event>
 5    1  0.1303633E-008  0.3815656E+03  0.7957747E-01  0.3444370E+00
         13   -1    0    0    0    0  0.00000000000E+00  0.00000000000E+00  0.14999999963E+04  0.15000000000E+04  0.10566000000E+00 0.  1.
        994   -1    0    0    0    0 -0.00000000000E+00 -0.00000000000E+00  0.11368683772E-12  0.17120000000E+03  0.17120000000E+03 0.  0.
         13    1    1    2    0    0  0.26927760877E+02 -0.12424979780E+02  0.12564216477E+03  0.12909472941E+03  0.10566000000E+00 0.  1.
        994    1    1    2    0    0 -0.21917351059E+02  0.88586032308E+01  0.52057098000E+01  0.17290281820E+03  0.17120000000E+03 0.  0.
        998    1    1    2    0    0 -0.50104098181E+01  0.35663765491E+01  0.13691521217E+04  0.13692024524E+04  0.10000000000E+02 0.  1.
</event>
<event>
 5    1  0.1303633E-008  0.3763696E+03  0.7957747E-01  0.3467120E+00
         13   -1    0    0    0    0  0.00000000000E+00  0.00000000000E+00  0.14999999963E+04  0.15000000000E+04  0.10566000000E+00 0. -1.
        994   -1    0    0    0    0 -0.00000000000E+00 -0.00000000000E+00  0.11368683772E-12  0.17120000000E+03  0.17120000000E+03 0.  0.
         13    1    1    2    0    0  0.37589763371E+02  0.82705875215E+01  0.11676782799E+03  0.12294767076E+03  0.10566000000E+00 0. -1.
        994    1    1    2    0    0 -0.23385046075E+02 -0.47964172882E+02  0.15673015840E+02  0.18000696010E+03  0.17120000000E+03 0.  0.
        998    1    1    2    0    0 -0.14204717296E+02  0.39693585360E+02  0.13675591525E+04  0.13682453691E+04  0.10000000000E+02 0. -1.
</event>
<event>
 5    1  0.1303633E-008  0.3824142E+03  0.7957747E-01  0.3440713E+00
         13   -1    0    0    0    0  0.00000000000E+00  0.00000000000E+00  0.14999999963E+04  0.15000000000E+04  0.10566000000E+00 0.  1.
        994   -1    0    0    0    0 -0.00000000000E+00 -0.00000000000E+00  0.11368683772E-12  0.17120000000E+03  0.17120000000E+03 0.  0.
         13    1    1    2    0    0  0.19650400044E+02 -0.18216908733E+02  0.12157447861E+03  0.12449240539E+03  0.10566000000E+00 0.  1.
        994    1    1    2    0    0 -0.14591679454E+02  0.90054512013E+01  0.38951019652E+01  0.17210063068E+03  0.17120000000E+03 0.  0.
        998    1    1    2    0    0 -0.50587205894E+01  0.92114575320E+01  0.13745304157E+04  0.13746069639E+04  0.10000000000E+02 0.  1.
</event>
<event>
 5    1  0.1303633E-008  0.3824890E+03  0.7957747E-01  0.3440392E+00
         13   -1    0    0    0    0  0.00000000000E+00  0.00000000000E+00  0.14999999963E+04  0.15000000000E+04  0.10566000000E+00 0. -1.
        994   -1    0    0    0    0 -0.00000000000E+00 -0.00000000000E+00  0.11368683772E-12  0.17120000000E+03  0.17120000000E+03 0.  0.
         13    1    1    2    0    0  0.10718536779E+02  0.32321477098E+02  0.17058463379E+03  0.17395026118E+03  0.10566000000E+00 0. -1.
        994    1    1    2    0    0 -0.70694285053E+01 -0.40497559841E+02  0.85058194015E+01  0.17627200043E+03  0.17120000000E+03 0.  0.
        998    1    1    2    0    0 -0.36491082738E+01  0.81760827427E+01  0.13209095431E+04  0.13209777384E+04  0.10000000000E+02 0. -1.
</event>
<event>
 5    1  0.1303633E-008  0.3719888E+03  0.7957747E-01  0.3486801E+00
         13   -1    0    0    0    0  0.00000000000E+00  0.00000000000E+00  0.14999999963E+04  0.15000000000E+04  0.10566000000E+00 0. -1.
        994   -1    0    0    0    0 -0.00000000000E+00 -0.00000000000E+00  0.11368683772E-12  0.17120000000E+03  0.17120000000E+03 0.  0.
         13    1    1    2    0    0  0.30718734994E+02 -0.15275421910E+02  0.72586153890E+02  0.80285366628E+02  0.10566000000E+00 0. -1.
        994    1    1    2    0    0 -0.39922548453E+01  0.25344810481E+01  0.83100566063E+01  0.17146678609E+03  0.17120000000E+03 0.  0.
        998    1    1    2    0    0 -0.26726480149E+02  0.12740940861E+02  0.14191037858E+04  0.14194478473E+04  0.10000000000E+02 0. -1.
</event>
<event>
 5    1  0.1303633E-008  0.3850356E+03  0.7957747E-01  0.3429521E+00
         13   -1    0    0    0    0  0.00000000000E+00  0.00000000000E+00  0.14999999963E+04  0.15000000000E+04  0.10566000000E+00 0. -1.
        994   -1    0    0    0    0 -0.00000000000E+00 -0.00000000000E+00  0.11368683772E-12  0.17120000000E+03  0.17120000000E+03 0.  0.
         13    1    1    2    0    0  0.82564945879E+01  0.11707948570E+02  0.64146719326E+02  0.65727152128E+02  0.10566000000E+00 0. -1.
        994    1    1    2    0    0 -0.12986727786E+02 -0.11298872013E+01  0.21714384168E+01  0.17170930927E+03  0.17120000000E+03 0.  0.
        998    1    1    2    0    0  0.47302331977E+01 -0.10578061369E+02  0.14336818385E+04  0.14337635386E+04  0.10000000000E+02 0. -1.
</event>
<event>
 5    1  0.1303633E-008  0.3786081E+03  0.7957747E-01  0.3457242E+00
         13   -1    0    0    0    0  0.00000000000E+00  0.00000000000E+00  0.14999999963E+04  0.15000000000E+04  0.10566000000E+00 0. -1.
        994   -1    0    0    0    0 -0.00000000000E+00 -0.00000000000E+00  0.11368683772E-12  0.17120000000E+03  0.17120000000E+03 0.  0.
         13    1    1    2    0    0 -0.36139797116E+01 -0.69722175670E+02  0.38438213297E+03  0.39067106105E+03  0.10566000000E+00 0. -1.
        994    1    1    2    0    0  0.30780419013E+02  0.67275368272E+02  0.23444658805E+02  0.18796941612E+03  0.17120000000E+03 0.  0.
        998    1    1    2    0    0 -0.27166439302E+02  0.24468073975E+01  0.10921732045E+04  0.10925595228E+04  0.10000000000E+02 0. -1.
</event>
<event>
 5    1  0.1303633E-008  0.3705608E+03  0.7957747E-01  0.3493318E+00
         13   -1    0    0    0    0  0.00000000000E+00  0.00000000000E+00  0.14999999963E+04  0.15000000000E+04  0.10566000000E+00 0. -1.
        994   -1    0    0    0    0 -0.00000000000E+00 -0.00000000000E+00  0.11368683772E-12  0.17120000000E+03  0.17120000000E+03 0.  0.
         13    1    1    2    0    0 -0.11288998755E+03  0.84380615366E+01  0.47322135133E+03  0.48657353883E+03  0.10566000000E+00 0. -1.
        994    1    1    2    0    0  0.11242591835E+03 -0.13531006972E+02  0.54621434929E+02  0.21240437006E+03  0.17120000000E+03 0.  0.
        998    1    1    2    0    0  0.46406920570E+00  0.50929454355E+01  0.97215721002E+03  0.97222209111E+03  0.10000000000E+02 0. -1.
</event>
<event>
 5    1  0.1303633E-008  0.3833020E+03  0.7957747E-01  0.3436906E+00
         13   -1    0    0    0    0  0.00000000000E+00  0.00000000000E+00  0.14999999963E+04  0.15000000000E+04  0.10566000000E+00 0. -1.
        994   -1    0    0    0    0 -0.00000000000E+00 -0.00000000000E+00  0.11368683772E-12  0.17120000000E+03  0.17120000000E+03 0.  0.
         13    1    1    2    0    0  0.17536203228E+02 -0.18042882684E+02  0.12220258868E+03  0.12476597246E+03  0.10566000000E+00 0. -1.
        994    1    1    2    0    0 -0.14383914843E+02  0.15216016655E+02  0.39266818792E+01  0.17252038430E+03  0.17120000000E+03 0.  0.
        998    1    1    2    0    0 -0.31522883851E+01  0.28268660291E+01  0.13738707257E+04  0.13739136432E+04  0.10000000000E+02 0. -1.
</event>
<event>
 5    1  0.1303633E-008  0.3842227E+03  0.7957747E-01  0.3432976E+00
         13   -1    0    0    0    0  0.00000000000E+00  0.00000000000E+00  0.14999999963E+04  0.15000000000E+04  0.10566000000E+00 0.  1.
        994   -1    0    0    0    0 -0.00000000000E+00 -0.00000000000E+00  0.11368683772E-12  0.17120000000E+03  0.17120000000E+03 0.  0.
         13    1    1    2    0    0  0.10472499933E+03 -0.23152279064E+02  0.61466608596E+03  0.62395333312E+03  0.10566000000E+00 0.  1.
        994    1    1    2    0    0 -0.15253751700E+03  0.50633705289E+02  0.92418824247E+02  0.25235321531E+03  0.17120000000E+03 0.  0.
        998    1    1    2    0    0  0.47812517672E+02 -0.27481426225E+02  0.79291508607E+03  0.79489345157E+03  0.10000000000E+02 0.  1.
</event>
<event>
 5    1  0.1303633E-008  0.3835323E+03  0.7957747E-01  0.3435921E+00
         13   -1    0    0    0    0  0.00000000000E+00  0.00000000000E+00  0.14999999963E+04  0.15000000000E+04  0.10566000000E+00 0. -1.
        994   -1    0    0    0    0 -0.00000000000E+00 -0.00000000000E+00  0.11368683772E-12  0.17120000000E+03  0.17120000000E+03 0.  0.
         13    1    1    2    0    0 -0.15707650169E+02 -0.84998135404E+01  0.67103659989E+02  0.69439826123E+02  0.10566000000E+00 0. -1.
        994    1    1    2    0    0  0.82853231351E+01  0.82197423882E+01  0.28107827135E+01  0.17162036955E+03  0.17120000000E+03 0.  0.
        998    1    1    2    0    0  0.74223270335E+01  0.28007115218E+00  0.14300855536E+04  0.14301398043E+04  0.10000000000E+02 0. -1.
</event>
<event>
 5    1  0.1303633E-008  0.3821664E+03  0.7957747E-01  0.3441779E+00
         13   -1    0    0    0    0  0.00000000000E+00  0.00000000000E+00  0.14999999963E+04  0.15000000000E+04  0.10566000000E+00 0. -1.
        994   -1    0    0    0    0 -0.00000000000E+00 -0.00000000000E+00  0.11368683772E-12  0.17120000000E+03  0.17120000000E+03 0.  0.
         13    1    1    2    0    0 -0.45982528835E+02 -0.21365483632E+03  0.10149952531E+04  0.10382572692E+04  0.10566000000E+00 0. -1.
        994    1    1    2    0    0  0.49389819301E+02  0.22450879941E+03  0.20466523280E+03  0.35219433950E+03  0.17120000000E+03 0.  0.
        998    1    1    2    0    0 -0.34072904668E+01 -0.10853963086E+02  0.28033951037E+03  0.28074839130E+03  0.10000000000E+02 0. -1.
</event>
<event>
 5    1  0.1303633E-008  0.3840960E+03  0.7957747E-01  0.3433515E+00
         13   -1    0    0    0    0  0.00000000000E+00  0.00000000000E+00  0.14999999963E+04  0.15000000000E+04  0.10566000000E+00 0.  1.
        994   -1    0    0    0    0 -0.00000000000E+00 -0.00000000000E+00  0.11368683772E-12  0.17120000000E+03  0.17120000000E+03 0.  0.
         13    1    1    2    0    0 -0.19292261820E+02  0.21702721242E+01  0.88963182977E+02  0.91056908231E+02  0.10566000000E+00 0.  1.
        994    1    1    2    0    0  0.14736665231E+02  0.13543103357E+01  0.28022757655E+01  0.17186127024E+03  0.17120000000E+03 0.  0.
        998    1    1    2    0    0  0.45555965885E+01 -0.35245824600E+01  0.14082345375E+04  0.14082818215E+04  0.10000000000E+02 0.  1.
</event>
<event>
 5    1  0.1303633E-008  0.3825744E+03  0.7957747E-01  0.3440025E+00
         13   -1    0    0    0    0  0.00000000000E+00  0.00000000000E+00  0.14999999963E+04  0.15000000000E+04  0.10566000000E+00 0. -1.
        994   -1    0    0    0    0 -0.00000000000E+00 -0.00000000000E+00  0.11368683772E-12  0.17120000000E+03  0.17120000000E+03 0.  0.
         13    1    1    2    0    0  0.10738004136E+00  0.17187883681E+02  0.51582228874E+02  0.54370694088E+02  0.10566000000E+00 0. -1.
        994    1    1    2    0    0  0.96174924511E+01 -0.93734684742E+01  0.34372513744E+01  0.17176033526E+03  0.17120000000E+03 0.  0.
        998    1    1    2    0    0 -0.97248724925E+01 -0.78144152071E+01  0.14449805160E+04  0.14450689707E+04  0.10000000000E+02 0. -1.
</event>
<event>
 5    1  0.1303633E-008  0.3802488E+03  0.7957747E-01  0.3450076E+00
         13   -1    0    0    0    0  0.00000000000E+00  0.00000000000E+00  0.14999999963E+04  0.15000000000E+04  0.10566000000E+00 0. -1.
        994   -1    0    0    0    0 -0.00000000000E+00 -0.00000000000E+00  0.11368683772E-12  0.17120000000E+03  0.17120000000E+03 0.  0.
         13    1    1    2    0    0 -0.19135033560E+02 -0.35121077914E+01  0.45056343256E+02  0.49077180462E+02  0.10566000000E+00 0. -1.
        994    1    1    2    0    0  0.17868014638E+02 -0.40821496760E+01  0.51304925332E+01  0.17225472953E+03  0.17120000000E+03 0.  0.
        998    1    1    2    0    0  0.12670189219E+01  0.75942574674E+01  0.14498131605E+04  0.14498680900E+04  0.10000000000E+02 0. -1.
</event>
<event>
 5    1  0.1303633E-008  0.3747394E+03  0.7957747E-01  0.3474389E+00
         13   -1    0    0    0    0  0.00000000000E+00  0.00000000000E+00  0.14999999963E+04  0.15000000000E+04  0.10566000000E+00 0. -1.
        994   -1    0    0    0    0 -0.00000000000E+00 -0.00000000000E+00  0.11368683772E-12  0.17120000000E+03  0.17120000000E+03 0.  0.
         13    1    1    2    0    0 -0.15885499767E+02 -0.11489855349E+02  0.25534643185E+02  0.32193090026E+02  0.10566000000E+00 0. -1.
        994    1    1    2    0    0  0.62996056357E+01  0.98470597629E+01  0.72776403984E+01  0.17175288547E+03  0.17120000000E+03 0.  0.
        998    1    1    2    0    0  0.95858941311E+01  0.16427955860E+01  0.14671877127E+04  0.14672540245E+04  0.10000000000E+02 0. -1.
</event>
<event>
 5    1  0.1303633E-008  0.3851036E+03  0.7957747E-01  0.3429233E+00
         13   -1    0    0    0    0  0.00000000000E+00  0.00000000000E+00  0.14999999963E+04  0.15000000000E+04  0.10566000000E+00 0. -1.
        994   -1    0    0    0    0 -0.00000000000E+00 -0.00000000000E+00  0.11368683772E-12  0.17120000000E+03  0.17120000000E+03 0.  0.
         13    1    1    2    0    0  0.93218621092E+01 -0.11673993012E+02  0.72005456147E+02  0.73538942779E+02  0.10566000000E+00 0. -1.
        994    1    1    2    0    0 -0.57839484880E+01  0.46820089492E+01  0.17607623200E+01  0.17137069630E+03  0.17120000000E+03 0.  0.
        998    1    1    2    0    0 -0.35379136212E+01  0.69919840625E+01  0.14262337778E+04  0.14262903609E+04  0.10000000000E+02 0. -1.
</event>
<event>
 5    1  0.1303633E-008  0.3764855E+03  0.7957747E-01  0.3466605E+00
         13   -1    0    0    0    0  0.00000000000E+00  0.00000000000E+00  0.14999999963E+04  0.15000000000E+04  0.10566000000E+00 0.  1.
        994   -1    0    0    0    0 -0.00000000000E+00 -0.00000000000E+00  0.11368683772E-12  0.17120000000E+03  0.17120000000E+03 0.  0.
         13    1    1    2    0    0  0.83784577984E+01 -0.94365169618E+01  0.10758325643E+02  0.16583098086E+02  0.10566000000E+00 0.  1.
        994    1    1    2    0    0 -0.71355330123E+01  0.86551136342E+01  0.63435373814E+01  0.17168432453E+03  0.17120000000E+03 0.  0.
        998    1    1    2    0    0 -0.12429247861E+01  0.78140332767E+00  0.14828981333E+04  0.14829325774E+04  0.10000000000E+02 0.  1.
</event>
<event>
 5    1  0.1303633E-008  0.3696667E+03  0.7957747E-01  0.3497424E+00
         13   -1    0    0    0    0  0.00000000000E+00  0.00000000000E+00  0.14999999963E+04  0.15000000000E+04  0.10566000000E+00 0.  1.
        994   -1    0    0    0    0 -0.00000000000E+00 -0.00000000000E+00  0.11368683772E-12  0.17120000000E+03  0.17120000000E+03 0.  0.
         13    1    1    2    0    0  0.25379166772E+02 -0.17366566610E+02  0.38776553077E+02  0.49490726146E+02  0.10566000000E+00 0.  1.
        994    1    1    2    0    0 -0.25717316043E+02  0.15665120997E+02  0.13935583447E+02  0.17438582754E+03  0.17120000000E+03 0.  0.
        998    1    1    2    0    0  0.33814927152E+00  0.17014456123E+01  0.14472878598E+04  0.14473234463E+04  0.10000000000E+02 0.  1.
</event>
<event>
 5    1  0.1303633E-008  0.3786113E+03  0.7957747E-01  0.3457228E+00
         13   -1    0    0    0    0  0.00000000000E+00  0.00000000000E+00  0.14999999963E+04  0.15000000000E+04  0.10566000000E+00 0.  1.
        994   -1    0    0    0    0 -0.00000000000E+00 -0.00000000000E+00  0.11368683772E-12  0.17120000000E+03  0.17120000000E+03 0.  0.
         13    1    1    2    0    0  0.15564414827E+02 -0.31761611122E+02  0.12644778340E+03  0.13130157669E+03  0.10566000000E+00 0.  1.
        994    1    1    2    0    0 -0.18059121912E+01  0.24657943630E+02  0.68913624796E+01  0.17311327615E+03  0.17120000000E+03 0.  0.
        998    1    1    2    0    0 -0.13758502635E+02  0.71036674927E+01  0.13666608504E+04  0.13667851472E+04  0.10000000000E+02 0.  1.
</event>
<event>
 5    1  0.1303633E-008  0.3705124E+03  0.7957747E-01  0.3493539E+00
         13   -1    0    0    0    0  0.00000000000E+00  0.00000000000E+00  0.14999999963E+04  0.15000000000E+04  0.10566000000E+00 0. -1.
        994   -1    0    0    0    0 -0.00000000000E+00 -0.00000000000E+00  0.11368683772E-12  0.17120000000E+03  0.17120000000E+03 0.  0.
         13    1    1    2    0    0  0.29814717537E+02  0.26715158891E+02  0.82809697764E+02  0.91978662223E+02  0.10566000000E+00 0. -1.
        994    1    1    2    0    0 -0.26582436688E+02 -0.23529495992E+02  0.13363830550E+02  0.17535191784E+03  0.17120000000E+03 0.  0.
        998    1    1    2    0    0 -0.32322808493E+01 -0.31856628990E+01  0.14038264680E+04  0.14038694199E+04  0.10000000000E+02 0. -1.
</event>
<event>
 5    1  0.1303633E-008  0.3809944E+03  0.7957747E-01  0.3446840E+00
         13   -1    0    0    0    0  0.00000000000E+00  0.00000000000E+00  0.14999999963E+04  0.15000000000E+04  0.10566000000E+00 0. -1.
        994   -1    0    0    0    0 -0.00000000000E+00 -0.00000000000E+00  0.11368683772E-12  0.17120000000E+03  0.17120000000E+03 0.  0.
         13    1    1    2    0    0  0.14360145079E+02  0.11554074953E+02  0.44168546579E+02  0.47860025968E+02  0.10566000000E+00 0. -1.
        994    1    1    2    0    0  0.36019549294E+02 -0.78773280439E+02  0.29048460274E+02  0.19405125788E+03  0.17120000000E+03 0.  0.
        998    1    1    2    0    0 -0.50379694372E+02  0.67219205486E+02  0.14267829894E+04  0.14292887161E+04  0.10000000000E+02 0. -1.
</event>
<event>
 5    1  0.1616441E-008  0.3864086E+03  0.7957747E-01  0.3423720E+00
         13   -1    0    0    0    0  0.00000000000E+00  0.00000000000E+00  0.14999999963E+04  0.15000000000E+04  0.10566000000E+00 0. -1.
        994   -1    0    0    0    0 -0.00000000000E+00 -0.00000000000E+00  0.11368683772E-12  0.17120000000E+03  0.17120000000E+03 0.  0.
         13    1    1    2    0    0 -0.11034101189E+02 -0.17309723664E+00  0.61980486095E+02  0.62955326799E+02  0.10566000000E+00 0. -1.
        994    1    1    2    0    0  0.16399238803E+02 -0.27305303391E+01  0.18377464942E+01  0.17201513928E+03  0.17120000000E+03 0.  0.
        998    1    1    2    0    0 -0.53651376132E+01  0.29036275758E+01  0.14361817637E+04  0.14362295339E+04  0.10000000000E+02 0. -1.
</event>
<event>
 5    1  0.1303633E-008  0.3799099E+03  0.7957747E-01  0.3451551E+00
         13   -1    0    0    0    0  0.00000000000E+00  0.00000000000E+00  0.14999999963E+04  0.15000000000E+04  0.10566000000E+00 0. -1.
        994   -1    0    0    0    0 -0.00000000000E+00 -0.00000000000E+00  0.11368683772E-12  0.17120000000E+03  0.17120000000E+03 0.  0.
         13    1    1    2    0    0  0.32286020119E+02 -0.32977135038E+02  0.22684154638E+03  0.23148861064E+03  0.10566000000E+00 0. -1.
        994    1    1    2    0    0 -0.31116753323E+02  0.26576538686E+02  0.97986499840E+01  0.17629525883E+03  0.17120000000E+03 0.  0.
        998    1    1    2    0    0 -0.11692667965E+01  0.64005963529E+01  0.12633597999E+04  0.12634161305E+04  0.10000000000E+02 0. -1.
</event>
<event>
 5    1  0.1303633E-008  0.3824189E+03  0.7957747E-01  0.3440693E+00
         13   -1    0    0    0    0  0.00000000000E+00  0.00000000000E+00  0.14999999963E+04  0.15000000000E+04  0.10566000000E+00 0. -1.
        994   -1    0    0    0    0 -0.00000000000E+00 -0.00000000000E+00  0.11368683772E-12  0.17120000000E+03  0.17120000000E+03 0.  0.
         13    1    1    2    0    0  0.10912801304E+02 -0.24347644208E+01  0.21044900722E+02  0.23830994954E+02  0.10566000000E+00 0. -1.
        994    1    1    2    0    0  0.30333430207E+01 -0.45331851929E+01  0.30157120832E+01  0.17131341295E+03  0.17120000000E+03 0.  0.
        998    1    1    2    0    0 -0.13946144324E+02  0.69679496137E+01  0.14759393835E+04  0.14760555921E+04  0.10000000000E+02 0. -1.
</event>
<event>
 5    1  0.1303633E-008  0.3844879E+03  0.7957747E-01  0.3431847E+00
         13   -1    0    0    0    0  0.00000000000E+00  0.00000000000E+00  0.14999999963E+04  0.15000000000E+04  0.10566000000E+00 0. -1.
        994   -1    0    0    0    0 -0.00000000000E+00 -0.00000000000E+00  0.11368683772E-12  0.17120000000E+03  0.17120000000E+03 0.  0.
         13    1    1    2    0    0  0.12424884989E+02  0.11449180187E+02  0.71574575266E+02  0.73541773725E+02  0.10566000000E+00 0. -1.
        994    1    1    2    0    0 -0.15771955156E+02 -0.11925414168E+02  0.31735724442E+01  0.17236728702E+03  0.17120000000E+03 0.  0.
        998    1    1    2    0    0  0.33470701666E+01  0.47623398058E+00  0.14252518486E+04  0.14252909393E+04  0.10000000000E+02 0. -1.
</event>
<event>
 5    1  0.1303633E-008  0.4395178E+03  0.7957747E-01  0.3226954E+00
         13   -1    0    0    0    0  0.00000000000E+00  0.00000000000E+00  0.14999999963E+04  0.15000000000E+04  0.10566000000E+00 0.  1.
        994   -1    0    0    0    0 -0.00000000000E+00 -0.00000000000E+00  0.11368683772E-12  0.17120000000E+03  0.17120000000E+03 0.  0.
         13    1    1    2    0    0 -0.33056721945E+02  0.58527870851E+02  0.29967989570E+02  0.73595856507E+02  0.10566000000E+00 0.  1.
        994    1    1    2    0    0  0.43999044013E+01  0.12369526205E+02  0.54746919808E+02  0.18021939287E+03  0.17120000000E+03 0.  0.
        998    1    1    2    0    0  0.28656817544E+02 -0.70897397057E+02  0.14152850869E+04  0.14173847506E+04  0.10000000000E+02 0.  1.
</event>
<event>
 5    1  0.1303633E-008  0.3743683E+03  0.7957747E-01  0.3476053E+00
         13   -1    0    0    0    0  0.00000000000E+00  0.00000000000E+00  0.14999999963E+04  0.15000000000E+04  0.10566000000E+00 0.  1.
        994   -1    0    0    0    0 -0.00000000000E+00 -0.00000000000E+00  0.11368683772E-12  0.17120000000E+03  0.17120000000E+03 0.  0.
         13    1    1    2    0    0 -0.31072497848E+02  0.54879356110E+01  0.65655938147E+02  0.72844566975E+02  0.10566000000E+00 0.  1.
        994    1    1    2    0    0  0.12790409090E+02 -0.11514056848E+03  0.54193711622E+02  0.21369918917E+03  0.17120000000E+03 0.  0.
        998    1    1    2    0    0  0.18282088757E+02  0.10965263287E+03  0.13801503465E+04  0.13846562439E+04  0.10000000000E+02 0.  1.
</event>
<event>
 5    1  0.1303633E-008  0.3722049E+03  0.7957747E-01  0.3485819E+00
         13   -1    0    0    0    0  0.00000000000E+00  0.00000000000E+00  0.14999999963E+04  0.15000000000E+04  0.10566000000E+00 0.  1.
        994   -1    0    0    0    0 -0.00000000000E+00 -0.00000000000E+00  0.11368683772E-12  0.17120000000E+03  0.17120000000E+03 0.  0.
         13    1    1    2    0    0 -0.47341803945E+02  0.29181428258E+01  0.92352027339E+02  0.10382037409E+03  0.10566000000E+00 0.  1.
        994    1    1    2    0    0  0.18851060730E+02  0.56754724321E+01  0.13476087020E+02  0.17285432711E+03  0.17120000000E+03 0.  0.
        998    1    1    2    0    0  0.28490743215E+02 -0.85936152579E+01  0.13941718819E+04  0.13945252988E+04  0.10000000000E+02 0.  1.
</event>
<event>
 5    1  0.1303633E-008  0.3807459E+03  0.7957747E-01  0.3447917E+00
         13   -1    0    0    0    0  0.00000000000E+00  0.00000000000E+00  0.14999999963E+04  0.15000000000E+04  0.10566000000E+00 0.  1.
        994   -1    0    0    0    0 -0.00000000000E+00 -0.00000000000E+00  0.11368683772E-12  0.17120000000E+03  0.17120000000E+03 0.  0.
         13    1    1    2    0    0  0.28894090200E+01 -0.18388750285E+02  0.43478409048E+02  0.47295645031E+02  0.10566000000E+00 0.  1.
        994    1    1    2    0    0 -0.38018704447E+01  0.19622747664E+02  0.50904791564E+01  0.17243798718E+03  0.17120000000E+03 0.  0.
        998    1    1    2    0    0  0.91246142470E+00 -0.12339973789E+01  0.14514311081E+04  0.14514663678E+04  0.10000000000E+02 0.  1.
</event>
<event>
 5    1  0.1303633E-008  0.3749163E+03  0.7957747E-01  0.3473597E+00
         13   -1    0    0    0    0  0.00000000000E+00  0.00000000000E+00  0.14999999963E+04  0.15000000000E+04  0.10566000000E+00 0.  1.
        994   -1    0    0    0    0 -0.00000000000E+00 -0.00000000000E+00  0.11368683772E-12  0.17120000000E+03  0.17120000000E+03 0.  0.
         13    1    1    2    0    0 -0.10942081283E+03 -0.16631320885E+03  0.82510071579E+03  0.84877806291E+03  0.10566000000E+00 0.  1.
        994    1    1    2    0    0  0.13469618559E+03  0.16484770107E+03  0.18083960115E+03  0.32761292451E+03  0.17120000000E+03 0.  0.
        998    1    1    2    0    0 -0.25275372768E+02  0.14655077827E+01  0.49405967934E+03  0.49480901258E+03  0.10000000000E+02 0. -1.
</event>
<event>
 5    1  0.1303633E-008  0.3860078E+03  0.7957747E-01  0.3425409E+00
         13   -1    0    0    0    0  0.00000000000E+00  0.00000000000E+00  0.14999999963E+04  0.15000000000E+04  0.10566000000E+00 0.  1.
        994   -1    0    0    0    0 -0.00000000000E+00 -0.00000000000E+00  0.11368683772E-12  0.17120000000E+03  0.17120000000E+03 0.  0.
         13    1    1    2    0    0  0.61873370550E+01  0.97092094825E+01  0.62009842333E+02  0.63069672575E+02  0.10566000000E+00 0.  1.
        994    1    1    2    0    0  0.61090176201E+01 -0.60822915233E+01  0.13742404193E+01  0.17142241074E+03  0.17120000000E+03 0.  0.
        998    1    1    2    0    0 -0.12296354675E+02 -0.36269179592E+01  0.14366159135E+04  0.14367079167E+04  0.10000000000E+02 0.  1.
</event>
<event>
 5    1  0.1303633E-008  0.3833589E+03  0.7957747E-01  0.3436662E+00
         13   -1    0    0    0    0  0.00000000000E+00  0.00000000000E+00  0.14999999963E+04  0.15000000000E+04  0.10566000000E+00 0.  1.
        994   -1    0    0    0    0 -0.00000000000E+00 -0.00000000000E+00  0.11368683772E-12  0.17120000000E+03  0.17120000000E+03 0.  0.
         13    1    1    2    0    0 -0.83862668796E+01 -0.13770957432E+02  0.53029556376E+02  0.55426652021E+02  0.10566000000E+00 0.  1.
        994    1    1    2    0    0  0.62107945530E+01  0.59314246070E+01  0.26910194699E+01  0.17143639448E+03  0.17120000000E+03 0.  0.
        998    1    1    2    0    0  0.21754723266E+01  0.78395328252E+01  0.14442794204E+04  0.14443369535E+04  0.10000000000E+02 0.  1.
</event>
<event>
 5    1  0.1303633E-008  0.3829750E+03  0.7957747E-01  0.3438306E+00
         13   -1    0    0    0    0  0.00000000000E+00  0.00000000000E+00  0.14999999963E+04  0.15000000000E+04  0.10566000000E+00 0.  1.
        994   -1    0    0    0    0 -0.00000000000E+00 -0.00000000000E+00  0.11368683772E-12  0.17120000000E+03  0.17120000000E+03 0.  0.
         13    1    1    2    0    0 -0.77690768243E+01  0.14034410508E+02  0.47080838864E+02  0.49738715154E+02  0.10566000000E+00 0.  1.
        994    1    1    2    0    0  0.60292834650E+01 -0.13583157508E+02  0.33703358287E+01  0.17187685589E+03  0.17120000000E+03 0.  0.
        998    1    1    2    0    0  0.17397933593E+01 -0.45125300048E+00  0.14495488216E+04  0.14495844290E+04  0.10000000000E+02 0.  1.
</event>
<event>
 5    1  0.1303633E-008  0.3844566E+03  0.7957747E-01  0.3431980E+00
         13   -1    0    0    0    0  0.00000000000E+00  0.00000000000E+00  0.14999999963E+04  0.15000000000E+04  0.10566000000E+00 0. -1.
        994   -1    0    0    0    0 -0.00000000000E+00 -0.00000000000E+00  0.11368683772E-12  0.17120000000E+03  0.17120000000E+03 0.  0.
         13    1    1    2    0    0  0.71158322427E+01  0.13294852250E+02  0.63353407730E+02  0.65123372148E+02  0.10566000000E+00 0. -1.
        994    1    1    2    0    0 -0.41183314716E+01  0.27763140778E+01  0.19814447816E+01  0.17128349219E+03  0.17120000000E+03 0.  0.
        998    1    1    2    0    0 -0.29975007712E+01 -0.16071166328E+02  0.14346651438E+04  0.14347931357E+04  0.10000000000E+02 0. -1.
</event>
<event>
 5    1  0.1303633E-008  0.3727141E+03  0.7957747E-01  0.3483509E+00
         13   -1    0    0    0    0  0.00000000000E+00  0.00000000000E+00  0.14999999963E+04  0.15000000000E+04  0.10566000000E+00 0. -1.
        994   -1    0    0    0    0 -0.00000000000E+00 -0.00000000000E+00  0.11368683772E-12  0.17120000000E+03  0.17120000000E+03 0.  0.
         13    1    1    2    0    0 -0.30015099853E+02 -0.16997959760E+01  0.52112152910E+02  0.60162140674E+02  0.10566000000E+00 0. -1.
        994    1    1    2    0    0  0.34133708379E+02  0.39121672045E+01  0.11911678823E+02  0.17501926520E+03  0.17120000000E+03 0.  0.
        998    1    1    2    0    0 -0.41186085267E+01 -0.22123712285E+01  0.14359761645E+04  0.14360185941E+04  0.10000000000E+02 0. -1.
</event>
<event>
 5    1  0.1303633E-008  0.3810807E+03  0.7957747E-01  0.3446466E+00
         13   -1    0    0    0    0  0.00000000000E+00  0.00000000000E+00  0.14999999963E+04  0.15000000000E+04  0.10566000000E+00 0.  1.
        994   -1    0    0    0    0 -0.00000000000E+00 -0.00000000000E+00  0.11368683772E-12  0.17120000000E+03  0.17120000000E+03 0.  0.
         13    1    1    2    0    0 -0.61241895124E+01  0.29834560500E+02  0.14362195904E+03  0.14681581993E+03  0.10566000000E+00 0.  1.
        994    1    1    2    0    0 -0.65997046849E+01 -0.24450707164E+01  0.37536410872E+01  0.17138571788E+03  0.17120000000E+03 0.  0.
        998    1    1    2    0    0  0.12723894197E+02 -0.27389489783E+02  0.13526243961E+04  0.13529984622E+04  0.10000000000E+02 0.  1.
</event>
<event>
 5    1  0.1303633E-008  0.3846753E+03  0.7957747E-01  0.3431050E+00
         13   -1    0    0    0    0  0.00000000000E+00  0.00000000000E+00  0.14999999963E+04  0.15000000000E+04  0.10566000000E+00 0.  1.
        994   -1    0    0    0    0 -0.00000000000E+00 -0.00000000000E+00  0.11368683772E-12  0.17120000000E+03  0.17120000000E+03 0.  0.
         13    1    1    2    0    0 -0.12542369757E+02  0.24840298378E+01  0.48181206833E+02  0.49848984937E+02  0.10566000000E+00 0.  1.
        994    1    1    2    0    0 -0.15344005001E+01  0.57633463775E+01  0.19085295902E+01  0.17131448576E+03  0.17120000000E+03 0.  0.
        998    1    1    2    0    0  0.14076770257E+02 -0.82473762153E+01  0.14499102599E+04  0.14500365293E+04  0.10000000000E+02 0.  1.
</event>
<event>
 5    1  0.1303633E-008  0.3828998E+03  0.7957747E-01  0.3438629E+00
         13   -1    0    0    0    0  0.00000000000E+00  0.00000000000E+00  0.14999999963E+04  0.15000000000E+04  0.10566000000E+00 0.  1.
        994   -1    0    0    0    0 -0.00000000000E+00 -0.00000000000E+00  0.11368683772E-12  0.17120000000E+03  0.17120000000E+03 0.  0.
         13    1    1    2    0    0  0.22753138939E+01 -0.13982494700E+02  0.35700442287E+02  0.38408592201E+02  0.10566000000E+00 0.  1.
        994    1    1    2    0    0 -0.77856572806E+01  0.15067358334E+02  0.36294783983E+01  0.17207630534E+03  0.17120000000E+03 0.  0.
        998    1    1    2    0    0  0.55103433867E+01 -0.10848636337E+01  0.14606700756E+04  0.14607151025E+04  0.10000000000E+02 0.  1.
</event>
<event>
 5    1  0.1694033E-008  0.3846713E+03  0.7957747E-01  0.3431067E+00
         13   -1    0    0    0    0  0.00000000000E+00  0.00000000000E+00  0.14999999963E+04  0.15000000000E+04  0.10566000000E+00 0.  1.
        994   -1    0    0    0    0 -0.00000000000E+00 -0.00000000000E+00  0.11368683772E-12  0.17120000000E+03  0.17120000000E+03 0.  0.
         13    1    1    2    0    0  0.10445465008E+02  0.98883159047E+01  0.59053737667E+02  0.60780273339E+02  0.10566000000E+00 0.  1.
        994    1    1    2    0    0 -0.15743123153E+01 -0.55366655454E+01  0.19025036050E+01  0.17130730470E+03  0.17120000000E+03 0.  0.
        998    1    1    2    0    0 -0.88711526926E+01 -0.43516503594E+01  0.14390437550E+04  0.14391124220E+04  0.10000000000E+02 0.  1.
</event>
<event>
 5    1  0.1303633E-008  0.3773712E+03  0.7957747E-01  0.3462686E+00
         13   -1    0    0    0    0  0.00000000000E+00  0.00000000000E+00  0.14999999963E+04  0.15000000000E+04  0.10566000000E+00 0. -1.
        994   -1    0    0    0    0 -0.00000000000E+00 -0.00000000000E+00  0.11368683772E-12  0.17120000000E+03  0.17120000000E+03 0.  0.
         13    1    1    2    0    0  0.10848786775E+03 -0.69185661709E+02  0.46484750700E+03  0.48232715989E+03  0.10566000000E+00 0. -1.
        994    1    1    2    0    0 -0.73703280514E+02  0.70014269335E+02  0.52982446968E+02  0.20603580067E+03  0.17120000000E+03 0.  0.
        998    1    1    2    0    0 -0.34784587237E+02 -0.82860762609E+00  0.98217004231E+03  0.98283703945E+03  0.10000000000E+02 0. -1.
</event>
<event>
 5    1  0.1303633E-008  0.3857380E+03  0.7957747E-01  0.3426548E+00
         13   -1    0    0    0    0  0.00000000000E+00  0.00000000000E+00  0.14999999963E+04  0.15000000000E+04  0.10566000000E+00 0.  1.
        994   -1    0    0    0    0 -0.00000000000E+00 -0.00000000000E+00  0.11368683772E-12  0.17120000000E+03  0.17120000000E+03 0.  0.
         13    1    1    2    0    0  0.54333835824E+01 -0.13787802202E+02  0.83784749060E+02  0.85085371750E+02  0.10566000000E+00 0.  1.
        994    1    1    2    0    0 -0.71634310597E+01  0.13394858936E+02  0.20215355317E+01  0.17188444838E+03  0.17120000000E+03 0.  0.
        998    1    1    2    0    0  0.17300474773E+01  0.39294326581E+00  0.14141937117E+04  0.14142301799E+04  0.10000000000E+02 0.  1.
</event>
<event>
 5    1  0.1303633E-008  0.3722061E+03  0.7957747E-01  0.3485813E+00
         13   -1    0    0    0    0  0.00000000000E+00  0.00000000000E+00  0.14999999963E+04  0.15000000000E+04  0.10566000000E+00 0. -1.
        994   -1    0    0    0    0 -0.00000000000E+00 -0.00000000000E+00  0.11368683772E-12  0.17120000000E+03  0.17120000000E+03 0.  0.
         13    1    1    2    0    0  0.10655043743E+02  0.87207145868E+02  0.25580148946E+03  0.27046816711E+03  0.10566000000E+00 0. -1.
        994    1    1    2    0    0 -0.11045839292E+02 -0.90011896945E+02  0.41680302285E+02  0.19816871538E+03  0.17120000000E+03 0.  0.
        998    1    1    2    0    0  0.39079554812E+00  0.28047510775E+01  0.12025182045E+04  0.12025631175E+04  0.10000000000E+02 0. -1.
</event>
<event>
 5    1  0.1303633E-008  0.3781852E+03  0.7957747E-01  0.3459099E+00
         13   -1    0    0    0    0  0.00000000000E+00  0.00000000000E+00  0.14999999963E+04  0.15000000000E+04  0.10566000000E+00 0.  1.
        994   -1    0    0    0    0 -0.00000000000E+00 -0.00000000000E+00  0.11368683772E-12  0.17120000000E+03  0.17120000000E+03 0.  0.
         13    1    1    2    0    0 -0.10846785950E+02 -0.28843169129E+01  0.10320101539E+02  0.15247547649E+02  0.10566000000E+00 0.  1.
        994    1    1    2    0    0  0.24455709865E+01  0.40999020078E+01  0.51287119206E+01  0.17134332114E+03  0.17120000000E+03 0.  0.
        998    1    1    2    0    0  0.84012149635E+01 -0.12155850949E+01  0.14845511828E+04  0.14846091312E+04  0.10000000000E+02 0.  1.
</event>
<event>
 5    1  0.1303633E-008  0.3800921E+03  0.7957747E-01  0.3450757E+00
         13   -1    0    0    0    0  0.00000000000E+00  0.00000000000E+00  0.14999999963E+04  0.15000000000E+04  0.10566000000E+00 0. -1.
        994   -1    0    0    0    0 -0.00000000000E+00 -0.00000000000E+00  0.11368683772E-12  0.17120000000E+03  0.17120000000E+03 0.  0.
         13    1    1    2    0    0 -0.15525035038E+02  0.21032124066E+01  0.28922230859E+02  0.32893112003E+02  0.10566000000E+00 0. -1.
        994    1    1    2    0    0  0.49929967842E+01  0.14941302087E+01  0.41774272192E+01  0.17133024643E+03  0.17120000000E+03 0.  0.
        998    1    1    2    0    0  0.10532038254E+02 -0.35973426153E+01  0.14669003382E+04  0.14669766416E+04  0.10000000000E+02 0. -1.
</event>
<event>
 5    1  0.1303633E-008  0.3781546E+03  0.7957747E-01  0.3459233E+00
         13   -1    0    0    0    0  0.00000000000E+00  0.00000000000E+00  0.14999999963E+04  0.15000000000E+04  0.10566000000E+00 0. -1.
        994   -1    0    0    0    0 -0.00000000000E+00 -0.00000000000E+00  0.11368683772E-12  0.17120000000E+03  0.17120000000E+03 0.  0.
         13    1    1    2    0    0 -0.25303560724E+02  0.34560290067E+02  0.15999702957E+03  0.16563135111E+03  0.10566000000E+00 0. -1.
        994    1    1    2    0    0  0.28975904793E+02 -0.33746973783E+02  0.11751053481E+02  0.17727376725E+03  0.17120000000E+03 0.  0.
        998    1    1    2    0    0 -0.36723440691E+01 -0.81331628449E+00  0.13282519132E+04  0.13282948816E+04  0.10000000000E+02 0.  1.
</event>
<event>
 5    1  0.1303633E-008  0.3839454E+03  0.7957747E-01  0.3434157E+00
         13   -1    0    0    0    0  0.00000000000E+00  0.00000000000E+00  0.14999999963E+04  0.15000000000E+04  0.10566000000E+00 0. -1.
        994   -1    0    0    0    0 -0.00000000000E+00 -0.00000000000E+00  0.11368683772E-12  0.17120000000E+03  0.17120000000E+03 0.  0.
         13    1    1    2    0    0  0.31750789912E+01  0.14083228748E+02  0.48909333305E+02  0.50995612624E+02  0.10566000000E+00 0. -1.
        994    1    1    2    0    0 -0.86423875304E+01 -0.34276839302E+01  0.24399207656E+01  0.17146962732E+03  0.17120000000E+03 0.  0.
        998    1    1    2    0    0  0.54673085393E+01 -0.10655544818E+02  0.14486507422E+04  0.14487347601E+04  0.10000000000E+02 0. -1.
</event>
<event>
 5    1  0.1303633E-008  0.3775893E+03  0.7957747E-01  0.3461723E+00
         13   -1    0    0    0    0  0.00000000000E+00  0.00000000000E+00  0.14999999963E+04  0.15000000000E+04  0.10566000000E+00 0. -1.
        994   -1    0    0    0    0 -0.00000000000E+00 -0.00000000000E+00  0.11368683772E-12  0.17120000000E+03  0.17120000000E+03 0.  0.
         13    1    1    2    0    0  0.12178582648E+02 -0.94709322962E+01  0.98474566401E+00  0.15459538219E+02  0.10566000000E+00 0. -1.
        994    1    1    2    0    0 -0.18820921539E+02  0.10485064745E+02  0.16678199529E+02  0.17335445195E+03  0.17120000000E+03 0.  0.
        998    1    1    2    0    0  0.66423388907E+01 -0.10141324486E+01  0.14823370511E+04  0.14823860098E+04  0.10000000000E+02 0. -1.
</event>
<event>
 5    1  0.1303633E-008  0.3795992E+03  0.7957747E-01  0.3452906E+00
         13   -1    0    0    0    0  0.00000000000E+00  0.00000000000E+00  0.14999999963E+04  0.15000000000E+04  0.10566000000E+00 0. -1.
        994   -1    0    0    0    0 -0.00000000000E+00 -0.00000000000E+00  0.11368683772E-12  0.17120000000E+03  0.17120000000E+03 0.  0.
         13    1    1    2    0    0 -0.19841366320E+02  0.10041705492E+02  0.53514548077E+02  0.57951131883E+02  0.10566000000E+00 0. -1.
        994    1    1    2    0    0  0.21198516767E+02 -0.10375696028E+02  0.62024282722E+01  0.17293045509E+03  0.17120000000E+03 0.  0.
        998    1    1    2    0    0 -0.13571504476E+01  0.33399053549E+00  0.14402830199E+04  0.14403184130E+04  0.10000000000E+02 0. -1.
</event>
<event>
 5    1  0.1303633E-008  0.3801528E+03  0.7957747E-01  0.3450493E+00
         13   -1    0    0    0    0  0.00000000000E+00  0.00000000000E+00  0.14999999963E+04  0.15000000000E+04  0.10566000000E+00 0.  1.
        994   -1    0    0    0    0 -0.00000000000E+00 -0.00000000000E+00  0.11368683772E-12  0.17120000000E+03  0.17120000000E+03 0.  0.
         13    1    1    2    0    0  0.22756539668E+02 -0.10734567848E+01  0.92152082330E+01  0.24575264677E+02  0.10566000000E+00 0.  1.
        994    1    1    2    0    0  0.49430653688E+01  0.15448524987E+02  0.17365686302E+02  0.17284125052E+03  0.17120000000E+03 0.  0.
        998    1    1    2    0    0 -0.27699605036E+02 -0.14375068202E+02  0.14734191017E+04  0.14737834848E+04  0.10000000000E+02 0.  1.
</event>
<event>
 5    1  0.1303633E-008  0.3698057E+03  0.7957747E-01  0.3496784E+00
         13   -1    0    0    0    0  0.00000000000E+00  0.00000000000E+00  0.14999999963E+04  0.15000000000E+04  0.10566000000E+00 0.  1.
        994   -1    0    0    0    0 -0.00000000000E+00 -0.00000000000E+00  0.11368683772E-12  0.17120000000E+03  0.17120000000E+03 0.  0.
         13    1    1    2    0    0  0.10732393105E+03  0.37046688299E+02  0.39847766979E+03  0.41433723918E+03  0.10566000000E+00 0.  1.
        994    1    1    2    0    0 -0.11282643407E+03 -0.44272467889E+02  0.64076142679E+02  0.21932862946E+03  0.17120000000E+03 0.  0.
        998    1    1    2    0    0  0.55025030210E+01  0.72257795908E+01  0.10374461838E+04  0.10375341314E+04  0.10000000000E+02 0.  1.
</event>
<event>
 5    1  0.1303633E-008  0.3781166E+03  0.7957747E-01  0.3459401E+00
         13   -1    0    0    0    0  0.00000000000E+00  0.00000000000E+00  0.14999999963E+04  0.15000000000E+04  0.10566000000E+00 0.  1.
        994   -1    0    0    0    0 -0.00000000000E+00 -0.00000000000E+00  0.11368683772E-12  0.17120000000E+03  0.17120000000E+03 0.  0.
         13    1    1    2    0    0 -0.29320724151E+02  0.95927948225E+01  0.93127985072E+02  0.98104838540E+02  0.10566000000E+00 0.  1.
        994    1    1    2    0    0  0.19865760417E+02  0.10062795630E+02  0.67568683763E+01  0.17277442971E+03  0.17120000000E+03 0.  0.
        998    1    1    2    0    0  0.94549637341E+01 -0.19655590453E+02  0.14001151428E+04  0.14003207317E+04  0.10000000000E+02 0.  1.
</event>
<event>
 5    1  0.1303633E-008  0.3816539E+03  0.7957747E-01  0.3443989E+00
         13   -1    0    0    0    0  0.00000000000E+00  0.00000000000E+00  0.14999999963E+04  0.15000000000E+04  0.10566000000E+00 0.  1.
        994   -1    0    0    0    0 -0.00000000000E+00 -0.00000000000E+00  0.11368683772E-12  0.17120000000E+03  0.17120000000E+03 0.  0.
         13    1    1    2    0    0  0.54576826509E+01  0.30356132381E+02  0.12945722255E+03  0.13308066992E+03  0.10566000000E+00 0.  1.
        994    1    1    2    0    0 -0.13150175333E+02 -0.32256888691E+02  0.73454671395E+01  0.17486231689E+03  0.17120000000E+03 0.  0.
        998    1    1    2    0    0  0.76924926823E+01  0.19007563094E+01  0.13631973066E+04  0.13632570132E+04  0.10000000000E+02 0.  1.
</event>
<event>
 5    1  0.1303633E-008  0.4033201E+03  0.7957747E-01  0.3355506E+00
         13   -1    0    0    0    0  0.00000000000E+00  0.00000000000E+00  0.14999999963E+04  0.15000000000E+04  0.10566000000E+00 0. -1.
        994   -1    0    0    0    0 -0.00000000000E+00 -0.00000000000E+00  0.11368683772E-12  0.17120000000E+03  0.17120000000E+03 0.  0.
         13    1    1    2    0    0  0.82002095296E+02 -0.11438887514E+03  0.45139484115E+03  0.47282816347E+03  0.10566000000E+00 0. -1.
        994    1    1    2    0    0 -0.14491784745E+02  0.25855978995E+02  0.33272303435E+02  0.17690401253E+03  0.17120000000E+03 0.  0.
        998    1    1    2    0    0 -0.67510310551E+02  0.88532896148E+02  0.10153328517E+04  0.10214678240E+04  0.10000000000E+02 0. -1.
</event>
<event>
 5    1  0.1303633E-008  0.3797024E+03  0.7957747E-01  0.3452455E+00
         13   -1    0    0    0    0  0.00000000000E+00  0.00000000000E+00  0.14999999963E+04  0.15000000000E+04  0.10566000000E+00 0.  1.
        994   -1    0    0    0    0 -0.00000000000E+00 -0.00000000000E+00  0.11368683772E-12  0.17120000000E+03  0.17120000000E+03 0.  0.
         13    1    1    2    0    0  0.24342518004E+02 -0.47660833687E+02  0.30321360273E+03  0.30790033013E+03  0.10566000000E+00 0.  1.
        994    1    1    2    0    0 -0.81885888479E+01  0.41772126218E+02  0.10370598576E+02  0.17671715489E+03  0.17120000000E+03 0.  0.
        998    1    1    2    0    0 -0.16153929156E+02  0.58887074693E+01  0.11864157950E+04  0.11865825150E+04  0.10000000000E+02 0.  1.
</event>
<event>
 5    1  0.1303633E-008  0.3830098E+03  0.7957747E-01  0.3438157E+00
         13   -1    0    0    0    0  0.00000000000E+00  0.00000000000E+00  0.14999999963E+04  0.15000000000E+04  0.10566000000E+00 0. -1.
        994   -1    0    0    0    0 -0.00000000000E+00 -0.00000000000E+00  0.11368683772E-12  0.17120000000E+03  0.17120000000E+03 0.  0.
         13    1    1    2    0    0  0.29829235336E+01 -0.23485021972E+02  0.10582920655E+03  0.10844480722E+03  0.10566000000E+00 0. -1.
        994    1    1    2    0    0 -0.75077338725E+01  0.14258309457E+02  0.34814531414E+01  0.17199193578E+03  0.17120000000E+03 0.  0.
        998    1    1    2    0    0  0.45248103389E+01  0.92267125147E+01  0.13906893366E+04  0.13907632570E+04  0.10000000000E+02 0. -1.
</event>
<event>
 5    1  0.1303633E-008  0.2681149E+03  0.7957747E-01  0.4153718E+00
         13   -1    0    0    0    0  0.00000000000E+00  0.00000000000E+00  0.14999999963E+04  0.15000000000E+04  0.10566000000E+00 0.  1.
        994   -1    0    0    0    0 -0.00000000000E+00 -0.00000000000E+00  0.11368683772E-12  0.17120000000E+03  0.17120000000E+03 0.  0.
         13    1    1    2    0    0 -0.22710161862E+02  0.17747520456E+03  0.44203040738E+03  0.47686905110E+03  0.10566000000E+00 0.  1.
        994    1    1    2    0    0  0.66454610350E+02 -0.15240713421E+03  0.14360887427E+03  0.27852665683E+03  0.17120000000E+03 0.  0.
        998    1    1    2    0    0 -0.43744448487E+02 -0.25068070351E+02  0.91436071463E+03  0.91580429207E+03  0.10000000000E+02 0.  1.
</event>
<event>
 5    1  0.1303633E-008  0.3857841E+03  0.7957747E-01  0.3426353E+00
         13   -1    0    0    0    0  0.00000000000E+00  0.00000000000E+00  0.14999999963E+04  0.15000000000E+04  0.10566000000E+00 0. -1.
        994   -1    0    0    0    0 -0.00000000000E+00 -0.00000000000E+00  0.11368683772E-12  0.17120000000E+03  0.17120000000E+03 0.  0.
         13    1    1    2    0    0  0.64426563244E+01 -0.10041003160E+02  0.56801788725E+02  0.58041226136E+02  0.10566000000E+00 0. -1.
        994    1    1    2    0    0 -0.88895265047E+01  0.69338217249E+01  0.16583643979E+01  0.17157882077E+03  0.17120000000E+03 0.  0.
        998    1    1    2    0    0  0.24468701804E+01  0.31071814349E+01  0.14415398432E+04  0.14415799531E+04  0.10000000000E+02 0. -1.
</event>
<event>
 5    1  0.1303633E-008  0.3718800E+03  0.7957747E-01  0.3487295E+00
         13   -1    0    0    0    0  0.00000000000E+00  0.00000000000E+00  0.14999999963E+04  0.15000000000E+04  0.10566000000E+00 0.  1.
        994   -1    0    0    0    0 -0.00000000000E+00 -0.00000000000E+00  0.11368683772E-12  0.17120000000E+03  0.17120000000E+03 0.  0.
         13    1    1    2    0    0 -0.70980908431E+01  0.41282792981E+02  0.11743442468E+03  0.12468162316E+03  0.10566000000E+00 0.  1.
        994    1    1    2    0    0  0.20553164820E+02  0.88767200647E+01  0.10013521195E+02  0.17294779371E+03  0.17120000000E+03 0.  0.
        998    1    1    2    0    0 -0.13455073976E+02 -0.50159513046E+02  0.13725520504E+04  0.13735705831E+04  0.10000000000E+02 0.  1.
</event>
<event>
 5    1  0.1303633E-008  0.3823546E+03  0.7957747E-01  0.3440969E+00
         13   -1    0    0    0    0  0.00000000000E+00  0.00000000000E+00  0.14999999963E+04  0.15000000000E+04  0.10566000000E+00 0. -1.
        994   -1    0    0    0    0 -0.00000000000E+00 -0.00000000000E+00  0.11368683772E-12  0.17120000000E+03  0.17120000000E+03 0.  0.
         13    1    1    2    0    0 -0.12314360033E+02  0.14411869675E+02  0.63469635571E+02  0.66240103065E+02  0.10566000000E+00 0. -1.
        994    1    1    2    0    0  0.52867741018E+01  0.37984969738E+01  0.30898182189E+01  0.17135158457E+03  0.17120000000E+03 0.  0.
        998    1    1    2    0    0  0.70275859309E+01 -0.18210366648E+02  0.14334405425E+04  0.14336083124E+04  0.10000000000E+02 0. -1.
</event>
<event>
 5    1  0.1303633E-008  0.3820618E+03  0.7957747E-01  0.3442230E+00
         13   -1    0    0    0    0  0.00000000000E+00  0.00000000000E+00  0.14999999963E+04  0.15000000000E+04  0.10566000000E+00 0. -1.
        994   -1    0    0    0    0 -0.00000000000E+00 -0.00000000000E+00  0.11368683772E-12  0.17120000000E+03  0.17120000000E+03 0.  0.
         13    1    1    2    0    0  0.45346690195E+02 -0.90228419327E+02  0.24615386807E+03  0.26606245112E+03  0.10566000000E+00 0. -1.
        994    1    1    2    0    0 -0.37770127362E+02  0.86387787617E+02  0.50692476402E+02  0.20191235607E+03  0.17120000000E+03 0.  0.
        998    1    1    2    0    0 -0.75765628335E+01  0.38406317099E+01  0.12031536518E+04  0.12032251928E+04  0.10000000000E+02 0.  0.
</event>
<event>
 5    1  0.1303633E-008  0.3848891E+03  0.7957747E-01  0.3430143E+00
         13   -1    0    0    0    0  0.00000000000E+00  0.00000000000E+00  0.14999999963E+04  0.15000000000E+04  0.10566000000E+00 0.  1.
        994   -1    0    0    0    0 -0.00000000000E+00 -0.00000000000E+00  0.11368683772E-12  0.17120000000E+03  0.17120000000E+03 0.  0.
         13    1    1    2    0    0 -0.61769130645E+01 -0.13253189760E+02  0.61496377681E+02  0.63210892462E+02  0.10566000000E+00 0.  1.
        994    1    1    2    0    0  0.74901711802E+01  0.12679834682E+02  0.23990344831E+01  0.17184899254E+03  0.17120000000E+03 0.  0.
        998    1    1    2    0    0 -0.13132581157E+01  0.57335507804E+00  0.14361045841E+04  0.14361401150E+04  0.10000000000E+02 0.  1.
</event>
<event>
 5    1  0.1303633E-008  0.3853766E+03  0.7957747E-01  0.3428077E+00
         13   -1    0    0    0    0  0.00000000000E+00  0.00000000000E+00  0.14999999963E+04  0.15000000000E+04  0.10566000000E+00 0.  1.
        994   -1    0    0    0    0 -0.00000000000E+00 -0.00000000000E+00  0.11368683772E-12  0.17120000000E+03  0.17120000000E+03 0.  0.
         13    1    1    2    0    0 -0.62513720994E+01 -0.14275723681E+02  0.83250728472E+02  0.84696935570E+02  0.10566000000E+00 0.  1.
        994    1    1    2    0    0  0.28148594113E+01  0.11918887873E+02  0.19360753181E+01  0.17164839559E+03  0.17120000000E+03 0.  0.
        998    1    1    2    0    0  0.34365126882E+01  0.23568358072E+01  0.14148131925E+04  0.14148546688E+04  0.10000000000E+02 0.  1.
</event>
<event>
 5    1  0.1303633E-008  0.3831010E+03  0.7957747E-01  0.3437766E+00
         13   -1    0    0    0    0  0.00000000000E+00  0.00000000000E+00  0.14999999963E+04  0.15000000000E+04  0.10566000000E+00 0. -1.
        994   -1    0    0    0    0 -0.00000000000E+00 -0.00000000000E+00  0.11368683772E-12  0.17120000000E+03  0.17120000000E+03 0.  0.
         13    1    1    2    0    0  0.20147187630E+02  0.85638940872E+01  0.93794684218E+02  0.96315644642E+02  0.10566000000E+00 0. -1.
        994    1    1    2    0    0 -0.10003415657E+02 -0.48025813122E+01  0.29834728197E+01  0.17158518066E+03  0.17120000000E+03 0.  0.
        998    1    1    2    0    0 -0.10143771973E+02 -0.37613127750E+01  0.14032218392E+04  0.14032991747E+04  0.10000000000E+02 0. -1.
</event>
<event>
 5    1  0.1303633E-008  0.3856326E+03  0.7957747E-01  0.3426994E+00
         13   -1    0    0    0    0  0.00000000000E+00  0.00000000000E+00  0.14999999963E+04  0.15000000000E+04  0.10566000000E+00 0.  1.
        994   -1    0    0    0    0 -0.00000000000E+00 -0.00000000000E+00  0.11368683772E-12  0.17120000000E+03  0.17120000000E+03 0.  0.
         13    1    1    2    0    0  0.11241737891E+02 -0.27455199246E+01  0.50284586946E+02  0.51599083314E+02  0.10566000000E+00 0.  1.
        994    1    1    2    0    0 -0.10214197949E+02  0.29877839877E+01  0.16881680367E+01  0.17153876123E+03  0.17120000000E+03 0.  0.
        998    1    1    2    0    0 -0.10275399420E+01 -0.24226406310E+00  0.14480272413E+04  0.14480621555E+04  0.10000000000E+02 0.  1.
</event>
<event>
 5    1  0.1303633E-008  0.3832860E+03  0.7957747E-01  0.3436974E+00
         13   -1    0    0    0    0  0.00000000000E+00  0.00000000000E+00  0.14999999963E+04  0.15000000000E+04  0.10566000000E+00 0.  1.
        994   -1    0    0    0    0 -0.00000000000E+00 -0.00000000000E+00  0.11368683772E-12  0.17120000000E+03  0.17120000000E+03 0.  0.
         13    1    1    2    0    0 -0.21230711881E+02 -0.34455207014E+01  0.94417819053E+02  0.96836720611E+02  0.10566000000E+00 0.  1.
        994    1    1    2    0    0  0.11889579809E+02 -0.89882652009E+01  0.32184954877E+01  0.17187771738E+03  0.17120000000E+03 0.  0.
        998    1    1    2    0    0  0.93411320726E+01  0.12433785902E+02  0.14023636817E+04  0.14024855620E+04  0.10000000000E+02 0.  1.
</event>
<event>
 5    1  0.1303633E-008  0.3733252E+03  0.7957747E-01  0.3480747E+00
         13   -1    0    0    0    0  0.00000000000E+00  0.00000000000E+00  0.14999999963E+04  0.15000000000E+04  0.10566000000E+00 0.  1.
        994   -1    0    0    0    0 -0.00000000000E+00 -0.00000000000E+00  0.11368683772E-12  0.17120000000E+03  0.17120000000E+03 0.  0.
         13    1    1    2    0    0  0.49582851223E+01 -0.11382395230E+02  0.67713098915E+01  0.14142323509E+02  0.10566000000E+00 0.  1.
        994    1    1    2    0    0 -0.55688632151E+01  0.80088533822E+01  0.78666546982E+01  0.17165802698E+03  0.17120000000E+03 0.  0.
        998    1    1    2    0    0  0.61057809278E+00  0.33735418482E+01  0.14853620317E+04  0.14853996495E+04  0.10000000000E+02 0.  1.
</event>
<event>
 5    1  0.1303633E-008  0.3111180E+03  0.7957747E-01  0.3819711E+00
         13   -1    0    0    0    0  0.00000000000E+00  0.00000000000E+00  0.14999999963E+04  0.15000000000E+04  0.10566000000E+00 0. -1.
        994   -1    0    0    0    0 -0.00000000000E+00 -0.00000000000E+00  0.11368683772E-12  0.17120000000E+03  0.17120000000E+03 0.  0.
         13    1    1    2    0    0 -0.21550933818E+03 -0.64214972961E+02  0.55655840221E+03  0.60027085873E+03  0.10566000000E+00 0. -1.
        994    1    1    2    0    0  0.25123964147E+03  0.66993647523E+02  0.32026034480E+03  0.44663814740E+03  0.17120000000E+03 0.  0.
        998    1    1    2    0    0 -0.35730303290E+02 -0.27786745620E+01  0.62318124926E+03  0.62429099388E+03  0.10000000000E+02 0.  1.
</event>
<event>
 5    1  0.1303633E-008  0.3856043E+03  0.7957747E-01  0.3427113E+00
         13   -1    0    0    0    0  0.00000000000E+00  0.00000000000E+00  0.14999999963E+04  0.15000000000E+04  0.10566000000E+00 0.  1.
        994   -1    0    0    0    0 -0.00000000000E+00 -0.00000000000E+00  0.11368683772E-12  0.17120000000E+03  0.17120000000E+03 0.  0.
         13    1    1    2    0    0  0.52868174870E+01 -0.14542293788E+02  0.91561784278E+02  0.92860111200E+02  0.10566000000E+00 0.  1.
        994    1    1    2    0    0  0.46747897367E+01  0.11032546773E+02  0.18017717052E+01  0.17162825271E+03  0.17120000000E+03 0.  0.
        998    1    1    2    0    0 -0.99616072237E+01  0.35097470149E+01  0.14066364403E+04  0.14067116361E+04  0.10000000000E+02 0.  1.
</event>
<event>
 5    1  0.1303633E-008  0.3844926E+03  0.7957747E-01  0.3431827E+00
         13   -1    0    0    0    0  0.00000000000E+00  0.00000000000E+00  0.14999999963E+04  0.15000000000E+04  0.10566000000E+00 0.  1.
        994   -1    0    0    0    0 -0.00000000000E+00 -0.00000000000E+00  0.11368683772E-12  0.17120000000E+03  0.17120000000E+03 0.  0.
         13    1    1    2    0    0 -0.10129813803E+01 -0.11701592229E+02  0.38081989539E+02  0.39852258195E+02  0.10566000000E+00 0.  1.
        994    1    1    2    0    0  0.39723022491E+01 -0.28442429296E+01  0.19608904177E+01  0.17128092128E+03  0.17120000000E+03 0.  0.
        998    1    1    2    0    0 -0.29593208688E+01  0.14545835159E+02  0.14599571163E+04  0.14600668205E+04  0.10000000000E+02 0.  1.
</event>
<event>
 5    1  0.1303633E-008  0.3786319E+03  0.7957747E-01  0.3457137E+00
         13   -1    0    0    0    0  0.00000000000E+00  0.00000000000E+00  0.14999999963E+04  0.15000000000E+04  0.10566000000E+00 0.  1.
        994   -1    0    0    0    0 -0.00000000000E+00 -0.00000000000E+00  0.11368683772E-12  0.17120000000E+03  0.17120000000E+03 0.  0.
         13    1    1    2    0    0 -0.94431574229E+01  0.56755144774E+02  0.25345588233E+03  0.25990424223E+03  0.10566000000E+00 0.  1.
        994    1    1    2    0    0 -0.79058869973E-01 -0.73568409544E+02  0.23220845028E+02  0.18777903178E+03  0.17120000000E+03 0.  0.
        998    1    1    2    0    0  0.95222162929E+01  0.16813264770E+02  0.12233232689E+04  0.12235167260E+04  0.10000000000E+02 0.  1.
</event>
<event>
 5    1  0.1303633E-008  0.3850489E+03  0.7957747E-01  0.3429465E+00
         13   -1    0    0    0    0  0.00000000000E+00  0.00000000000E+00  0.14999999963E+04  0.15000000000E+04  0.10566000000E+00 0. -1.
        994   -1    0    0    0    0 -0.00000000000E+00 -0.00000000000E+00  0.11368683772E-12  0.17120000000E+03  0.17120000000E+03 0.  0.
         13    1    1    2    0    0  0.67984695805E+01  0.11404110402E+02  0.57678239813E+02  0.59186682916E+02  0.10566000000E+00 0. -1.
        994    1    1    2    0    0 -0.12788125894E+02  0.65934182233E+01  0.22868132645E+01  0.17181873833E+03  0.17120000000E+03 0.  0.
        998    1    1    2    0    0  0.59896563139E+01 -0.17997528625E+02  0.14400349432E+04  0.14401945787E+04  0.10000000000E+02 0. -1.
</event>
<event>
 5    1  0.1303633E-008  0.3698963E+03  0.7957747E-01  0.3496368E+00
         13   -1    0    0    0    0  0.00000000000E+00  0.00000000000E+00  0.14999999963E+04  0.15000000000E+04  0.10566000000E+00 0. -1.
        994   -1    0    0    0    0 -0.00000000000E+00 -0.00000000000E+00  0.11368683772E-12  0.17120000000E+03  0.17120000000E+03 0.  0.
         13    1    1    2    0    0 -0.42734509837E+02 -0.11819514099E+03  0.56892865351E+03  0.58264582178E+03  0.10566000000E+00 0. -1.
        994    1    1    2    0    0  0.16604599975E+02  0.11674812516E+03  0.59082977125E+02  0.21611588478E+03  0.17120000000E+03 0.  0.
        998    1    1    2    0    0  0.26129909862E+02  0.14470158256E+01  0.87198836564E+03  0.87243829344E+03  0.10000000000E+02 0.  0.
</event>
<event>
 5    1  0.1303633E-008  0.3831491E+03  0.7957747E-01  0.3437560E+00
         13   -1    0    0    0    0  0.00000000000E+00  0.00000000000E+00  0.14999999963E+04  0.15000000000E+04  0.10566000000E+00 0. -1.
        994   -1    0    0    0    0 -0.00000000000E+00 -0.00000000000E+00  0.11368683772E-12  0.17120000000E+03  0.17120000000E+03 0.  0.
         13    1    1    2    0    0 -0.12505247817E+02  0.10449484205E+02  0.50891443864E+02  0.53437095409E+02  0.10566000000E+00 0. -1.
        994    1    1    2    0    0  0.11212658935E+02 -0.59939886075E+01  0.30868817968E+01  0.17169921508E+03  0.17120000000E+03 0.  0.
        998    1    1    2    0    0  0.12925888818E+01 -0.44554955980E+01  0.14460216706E+04  0.14460636895E+04  0.10000000000E+02 0. -1.
</event>
<event>
 5    1  0.1303633E-008  0.3801043E+03  0.7957747E-01  0.3450704E+00
         13   -1    0    0    0    0  0.00000000000E+00  0.00000000000E+00  0.14999999963E+04  0.15000000000E+04  0.10566000000E+00 0.  1.
        994   -1    0    0    0    0 -0.00000000000E+00 -0.00000000000E+00  0.11368683772E-12  0.17120000000E+03  0.17120000000E+03 0.  0.
         13    1    1    2    0    0 -0.47900127792E+01 -0.39211282506E+02  0.21796887530E+03  0.22151954916E+03  0.10566000000E+00 0.  1.
        994    1    1    2    0    0  0.39643520884E+01  0.50701028342E+01  0.42189429321E+01  0.17137287274E+03  0.17120000000E+03 0.  0.
        998    1    1    2    0    0  0.82566069081E+00  0.34141179671E+02  0.12778121780E+04  0.12783075781E+04  0.10000000000E+02 0.  1.
</event>
<event>
 5    1  0.1303633E-008  0.3847207E+03  0.7957747E-01  0.3430857E+00
         13   -1    0    0    0    0  0.00000000000E+00  0.00000000000E+00  0.14999999963E+04  0.15000000000E+04  0.10566000000E+00 0. -1.
        994   -1    0    0    0    0 -0.00000000000E+00 -0.00000000000E+00  0.11368683772E-12  0.17120000000E+03  0.17120000000E+03 0.  0.
         13    1    1    2    0    0 -0.55383297433E+01  0.15216377382E+02  0.79277902442E+02  0.80914820748E+02  0.10566000000E+00 0. -1.
        994    1    1    2    0    0 -0.24928845723E+01 -0.13694445201E+01  0.17954786751E+01  0.17123303885E+03  0.17120000000E+03 0.  0.
        998    1    1    2    0    0  0.80312143156E+01 -0.13846932862E+02  0.14189266152E+04  0.14190521404E+04  0.10000000000E+02 0. -1.
</event>
<event>
 5    1  0.1303633E-008  0.3821283E+03  0.7957747E-01  0.3441943E+00
         13   -1    0    0    0    0  0.00000000000E+00  0.00000000000E+00  0.14999999963E+04  0.15000000000E+04  0.10566000000E+00 0.  1.
        994   -1    0    0    0    0 -0.00000000000E+00 -0.00000000000E+00  0.11368683772E-12  0.17120000000E+03  0.17120000000E+03 0.  0.
         13    1    1    2    0    0  0.90017768501E+01 -0.55603633512E+01  0.17334939699E+02  0.20309134040E+02  0.10566000000E+00 0.  1.
        994    1    1    2    0    0  0.58300660150E+00  0.37494979692E+01  0.31104305655E+01  0.17127029343E+03  0.17120000000E+03 0.  0.
        998    1    1    2    0    0 -0.95847834516E+01  0.18108653820E+01  0.14795546260E+04  0.14796205725E+04  0.10000000000E+02 0.  1.
</event>
<event>
 5    1  0.1303633E-008  0.3749768E+03  0.7957747E-01  0.3473327E+00
         13   -1    0    0    0    0  0.00000000000E+00  0.00000000000E+00  0.14999999963E+04  0.15000000000E+04  0.10566000000E+00 0. -1.
        994   -1    0    0    0    0 -0.00000000000E+00 -0.00000000000E+00  0.11368683772E-12  0.17120000000E+03  0.17120000000E+03 0.  0.
         13    1    1    2    0    0 -0.36033006174E+00 -0.39583569971E+02  0.11780278585E+03  0.12427588812E+03  0.10566000000E+00 0. -1.
        994    1    1    2    0    0 -0.93359661976E+01  0.18350751230E+02  0.81330364000E+01  0.17262530700E+03  0.17120000000E+03 0.  0.
        998    1    1    2    0    0  0.96962962594E+01  0.21232818741E+02  0.13740641740E+04  0.13742988049E+04  0.10000000000E+02 0. -1.
</event>
<event>
 5    1  0.1303633E-008  0.3798744E+03  0.7957747E-01  0.3451706E+00
         13   -1    0    0    0    0  0.00000000000E+00  0.00000000000E+00  0.14999999963E+04  0.15000000000E+04  0.10566000000E+00 0. -1.
        994   -1    0    0    0    0 -0.00000000000E+00 -0.00000000000E+00  0.11368683772E-12  0.17120000000E+03  0.17120000000E+03 0.  0.
         13    1    1    2    0    0 -0.15637914057E+02  0.10976860833E+02  0.43868934238E+02  0.47849037451E+02  0.10566000000E+00 0. -1.
        994    1    1    2    0    0 -0.83132857616E+01 -0.11248512592E+02  0.48511140588E+01  0.17183891603E+03  0.17120000000E+03 0.  0.
        998    1    1    2    0    0  0.23951199818E+02  0.27165175958E+00  0.14512799480E+04  0.14515120465E+04  0.10000000000E+02 0. -1.
</event>
<event>
 5    1  0.1303633E-008  0.3859023E+03  0.7957747E-01  0.3425854E+00
         13   -1    0    0    0    0  0.00000000000E+00  0.00000000000E+00  0.14999999963E+04  0.15000000000E+04  0.10566000000E+00 0. -1.
        994   -1    0    0    0    0 -0.00000000000E+00 -0.00000000000E+00  0.11368683772E-12  0.17120000000E+03  0.17120000000E+03 0.  0.
         13    1    1    2    0    0  0.75908282955E+01 -0.11368251510E+02  0.76880041321E+02  0.78085912520E+02  0.10566000000E+00 0. -1.
        994    1    1    2    0    0 -0.74288244475E+00  0.16018165371E+02  0.20264317058E+01  0.17196127448E+03  0.17120000000E+03 0.  0.
        998    1    1    2    0    0 -0.68479458507E+01 -0.46499138610E+01  0.14210935233E+04  0.14211528130E+04  0.10000000000E+02 0. -1.
</event>
<event>
 5    1  0.1303633E-008  0.3812270E+03  0.7957747E-01  0.3445833E+00
         13   -1    0    0    0    0  0.00000000000E+00  0.00000000000E+00  0.14999999963E+04  0.15000000000E+04  0.10566000000E+00 0. -1.
        994   -1    0    0    0    0 -0.00000000000E+00 -0.00000000000E+00  0.11368683772E-12  0.17120000000E+03  0.17120000000E+03 0.  0.
         13    1    1    2    0    0  0.13806502515E+02 -0.33330120350E+02  0.16825291757E+03  0.17207722647E+03  0.10566000000E+00 0. -1.
        994    1    1    2    0    0 -0.15939289977E+02  0.29757094873E+02  0.73183692598E+01  0.17464977581E+03  0.17120000000E+03 0.  0.
        998    1    1    2    0    0  0.21327874622E+01  0.35730254768E+01  0.13244287094E+04  0.13244729977E+04  0.10000000000E+02 0. -1.
</event>
<event>
 5    1  0.1303633E-008  0.3841073E+03  0.7957747E-01  0.3433467E+00
         13   -1    0    0    0    0  0.00000000000E+00  0.00000000000E+00  0.14999999963E+04  0.15000000000E+04  0.10566000000E+00 0. -1.
        994   -1    0    0    0    0 -0.00000000000E+00 -0.00000000000E+00  0.11368683772E-12  0.17120000000E+03  0.17120000000E+03 0.  0.
         13    1    1    2    0    0 -0.20377940151E+02  0.14065173174E+02  0.14420963837E+03  0.14631992517E+03  0.10566000000E+00 0. -1.
        994    1    1    2    0    0  0.10753880318E+02 -0.15550034482E+02  0.32538249545E+01  0.17227152084E+03  0.17120000000E+03 0.  0.
        998    1    1    2    0    0  0.96240598334E+01  0.14848613078E+01  0.13525365330E+04  0.13526085540E+04  0.10000000000E+02 0. -1.
</event>
<event>
 5    1  0.1303633E-008  0.3850067E+03  0.7957747E-01  0.3429644E+00
         13   -1    0    0    0    0  0.00000000000E+00  0.00000000000E+00  0.14999999963E+04  0.15000000000E+04  0.10566000000E+00 0.  1.
        994   -1    0    0    0    0 -0.00000000000E+00 -0.00000000000E+00  0.11368683772E-12  0.17120000000E+03  0.17120000000E+03 0.  0.
         13    1    1    2    0    0  0.11916109776E+02 -0.12081607238E+02  0.86387602792E+02  0.88038559654E+02  0.10566000000E+00 0.  1.
        994    1    1    2    0    0 -0.12636032774E+02  0.77587649273E+01  0.23501939828E+01  0.17185700791E+03  0.17120000000E+03 0.  0.
        998    1    1    2    0    0  0.71992299822E+00  0.43228423111E+01  0.14112621995E+04  0.14113044324E+04  0.10000000000E+02 0.  1.
</event>
<event>
 5    1  0.1303633E-008  0.3840906E+03  0.7957747E-01  0.3433538E+00
         13   -1    0    0    0    0  0.00000000000E+00  0.00000000000E+00  0.14999999963E+04  0.15000000000E+04  0.10566000000E+00 0.  1.
        994   -1    0    0    0    0 -0.00000000000E+00 -0.00000000000E+00  0.11368683772E-12  0.17120000000E+03  0.17120000000E+03 0.  0.
         13    1    1    2    0    0 -0.27852144607E+01 -0.19340477162E+02  0.88260786887E+02  0.90397948773E+02  0.10566000000E+00 0.  1.
        994    1    1    2    0    0  0.69772961645E+01  0.16773637787E+02  0.31716402195E+01  0.17219040882E+03  0.17120000000E+03 0.  0.
        998    1    1    2    0    0 -0.41920817039E+01  0.25668393748E+01  0.14085675692E+04  0.14086116424E+04  0.10000000000E+02 0.  1.
</event>
<event>
 5    1  0.1303633E-008  0.3862039E+03  0.7957747E-01  0.3424582E+00
         13   -1    0    0    0    0  0.00000000000E+00  0.00000000000E+00  0.14999999963E+04  0.15000000000E+04  0.10566000000E+00 0.  1.
        994   -1    0    0    0    0 -0.00000000000E+00 -0.00000000000E+00  0.11368683772E-12  0.17120000000E+03  0.17120000000E+03 0.  0.
         13    1    1    2    0    0 -0.71819509347E+02  0.48544020399E+02  0.16545267526E+03  0.18678640945E+03  0.10566000000E+00 0.  1.
        994    1    1    2    0    0  0.72051633558E+02 -0.43515623505E+02  0.46553838334E+02  0.19637145223E+03  0.17120000000E+03 0.  0.
        998    1    1    2    0    0 -0.23212421117E+00 -0.50283968947E+01  0.12879934827E+04  0.12880421383E+04  0.10000000000E+02 0.  1.
</event>
<event>
 5    1  0.1303633E-008  0.3841033E+03  0.7957747E-01  0.3433484E+00
         13   -1    0    0    0    0  0.00000000000E+00  0.00000000000E+00  0.14999999963E+04  0.15000000000E+04  0.10566000000E+00 0. -1.
        994   -1    0    0    0    0 -0.00000000000E+00 -0.00000000000E+00  0.11368683772E-12  0.17120000000E+03  0.17120000000E+03 0.  0.
         13    1    1    2    0    0  0.55601529850E+00  0.21059248381E+02  0.10184649041E+03  0.10400249934E+03  0.10566000000E+00 0. -1.
        994    1    1    2    0    0 -0.10615076891E+01 -0.19532844678E+02  0.33390819624E+01  0.17234630338E+03  0.17120000000E+03 0.  0.
        998    1    1    2    0    0  0.50549239060E+00 -0.15264037034E+01  0.13948144239E+04  0.13948511973E+04  0.10000000000E+02 0.  0.
</event>
<event>
 5    1  0.1303633E-008  0.3093783E+03  0.7957747E-01  0.3831260E+00
         13   -1    0    0    0    0  0.00000000000E+00  0.00000000000E+00  0.14999999963E+04  0.15000000000E+04  0.10566000000E+00 0. -1.
        994   -1    0    0    0    0 -0.00000000000E+00 -0.00000000000E+00  0.11368683772E-12  0.17120000000E+03  0.17120000000E+03 0.  0.
         13    1    1    2    0    0 -0.44343600054E+02 -0.14439488148E+03  0.87491212151E+03  0.88785554467E+03  0.10566000000E+00 0. -1.
        994    1    1    2    0    0 -0.36768606152E+02  0.94424593369E+02  0.56590427403E+02  0.20683290528E+03  0.17120000000E+03 0.  0.
        998    1    1    2    0    0  0.81112206206E+02  0.49970288114E+02  0.56849744736E+03  0.57651155005E+03  0.10000000000E+02 0. -1.
</event>
<event>
 5    1  0.1303633E-008  0.3811223E+03  0.7957747E-01  0.3446286E+00
         13   -1    0    0    0    0  0.00000000000E+00  0.00000000000E+00  0.14999999963E+04  0.15000000000E+04  0.10566000000E+00 0.  1.
        994   -1    0    0    0    0 -0.00000000000E+00 -0.00000000000E+00  0.11368683772E-12  0.17120000000E+03  0.17120000000E+03 0.  0.
         13    1    1    2    0    0 -0.27857690321E+02 -0.46247815272E+02  0.31208391181E+03  0.31671957708E+03  0.10566000000E+00 0.  1.
        994    1    1    2    0    0  0.29491331076E+02  0.49896163421E+02  0.14838286901E+02  0.18135319267E+03  0.17120000000E+03 0.  0.
        998    1    1    2    0    0 -0.16336407554E+01 -0.36483481491E+01  0.11730777976E+04  0.11731272303E+04  0.10000000000E+02 0.  0.
</event>
<event>
 5    1  0.1303633E-008  0.3799548E+03  0.7957747E-01  0.3451356E+00
         13   -1    0    0    0    0  0.00000000000E+00  0.00000000000E+00  0.14999999963E+04  0.15000000000E+04  0.10566000000E+00 0.  1.
        994   -1    0    0    0    0 -0.00000000000E+00 -0.00000000000E+00  0.11368683772E-12  0.17120000000E+03  0.17120000000E+03 0.  0.
         13    1    1    2    0    0  0.10868353088E+03 -0.14213860682E+03  0.95973367604E+03  0.97627057393E+03  0.10566000000E+00 0.  1.
        994    1    1    2    0    0 -0.11742282316E+03  0.14202196507E+03  0.12759244947E+03  0.28204189604E+03  0.17120000000E+03 0.  0.
        998    1    1    2    0    0  0.87392922774E+01  0.11664174388E+00  0.41267387077E+03  0.41288753003E+03  0.10000000000E+02 0.  0.
</event>
<event>
 5    1  0.1303633E-008  0.3850891E+03  0.7957747E-01  0.3429294E+00
         13   -1    0    0    0    0  0.00000000000E+00  0.00000000000E+00  0.14999999963E+04  0.15000000000E+04  0.10566000000E+00 0. -1.
        994   -1    0    0    0    0 -0.00000000000E+00 -0.00000000000E+00  0.11368683772E-12  0.17120000000E+03  0.17120000000E+03 0.  0.
         13    1    1    2    0    0  0.15218980980E+02  0.85052392083E+00  0.70175032611E+02  0.71811469411E+02  0.10566000000E+00 0. -1.
        994    1    1    2    0    0 -0.16737393927E+02  0.71295630341E+00  0.25091246810E+01  0.17203599731E+03  0.17120000000E+03 0.  0.
        998    1    1    2    0    0  0.15184129466E+01 -0.15634802242E+01  0.14273158390E+04  0.14273525333E+04  0.10000000000E+02 0. -1.
</event>
<event>
 5    1  0.1303633E-008  0.3792274E+03  0.7957747E-01  0.3454530E+00
         13   -1    0    0    0    0  0.00000000000E+00  0.00000000000E+00  0.14999999963E+04  0.15000000000E+04  0.10566000000E+00 0. -1.
        994   -1    0    0    0    0 -0.00000000000E+00 -0.00000000000E+00  0.11368683772E-12  0.17120000000E+03  0.17120000000E+03 0.  0.
         13    1    1    2    0    0 -0.34439887218E+02  0.24941461508E+02  0.17371676323E+03  0.17884548450E+03  0.10566000000E+00 0. -1.
        994    1    1    2    0    0  0.39643898755E+02 -0.22427751105E+02  0.11508391427E+02  0.17752894356E+03  0.17120000000E+03 0.  0.
        998    1    1    2    0    0 -0.52040115366E+01 -0.25137104033E+01  0.13147748416E+04  0.13148255719E+04  0.10000000000E+02 0. -1.
</event>
<event>
 5    1  0.1303633E-008  0.3684681E+03  0.7957747E-01  0.3502961E+00
         13   -1    0    0    0    0  0.00000000000E+00  0.00000000000E+00  0.14999999963E+04  0.15000000000E+04  0.10566000000E+00 0.  1.
        994   -1    0    0    0    0 -0.00000000000E+00 -0.00000000000E+00  0.11368683772E-12  0.17120000000E+03  0.17120000000E+03 0.  0.
         13    1    1    2    0    0  0.63772263101E+02 -0.24337584454E+02  0.32149969154E+03  0.32866591302E+03  0.10566000000E+00 0.  1.
        994    1    1    2    0    0  0.15077235636E+02  0.13389206112E+02  0.11486573465E+02  0.17276566570E+03  0.17120000000E+03 0.  0.
        998    1    1    2    0    0 -0.78849498737E+02  0.10948378342E+02  0.11670137313E+04  0.11697684213E+04  0.10000000000E+02 0.  1.
</event>
<event>
 5    1  0.1303633E-008  0.3717879E+03  0.7957747E-01  0.3487714E+00
         13   -1    0    0    0    0  0.00000000000E+00  0.00000000000E+00  0.14999999963E+04  0.15000000000E+04  0.10566000000E+00 0. -1.
        994   -1    0    0    0    0 -0.00000000000E+00 -0.00000000000E+00  0.11368683772E-12  0.17120000000E+03  0.17120000000E+03 0.  0.
         13    1    1    2    0    0 -0.26027454581E+02 -0.25296363099E+02  0.48710557643E+02  0.60745896717E+02  0.10566000000E+00 0. -1.
        994    1    1    2    0    0  0.26964965939E+02  0.30779793208E+02  0.17801431732E+02  0.17692042287E+03  0.17120000000E+03 0.  0.
        998    1    1    2    0    0 -0.93751135835E+00 -0.54834301087E+01  0.14334880069E+04  0.14335336804E+04  0.10000000000E+02 0. -1.
</event>
<event>
 5    1  0.1303633E-008  0.3853247E+03  0.7957747E-01  0.3428296E+00
         13   -1    0    0    0    0  0.00000000000E+00  0.00000000000E+00  0.14999999963E+04  0.15000000000E+04  0.10566000000E+00 0. -1.
        994   -1    0    0    0    0 -0.00000000000E+00 -0.00000000000E+00  0.11368683772E-12  0.17120000000E+03  0.17120000000E+03 0.  0.
         13    1    1    2    0    0  0.12299648310E+02 -0.19928405519E+01  0.55903291674E+02  0.57275142479E+02  0.10566000000E+00 0. -1.
        994    1    1    2    0    0 -0.27166503512E+00 -0.33279651379E+01  0.15056376700E+01  0.17123917805E+03  0.17120000000E+03 0.  0.
        998    1    1    2    0    0 -0.12027983275E+02  0.53208056898E+01  0.14425910669E+04  0.14426856795E+04  0.10000000000E+02 0. -1.
</event>
<event>
 5    1  0.1303633E-008  0.3821974E+03  0.7957747E-01  0.3441646E+00
         13   -1    0    0    0    0  0.00000000000E+00  0.00000000000E+00  0.14999999963E+04  0.15000000000E+04  0.10566000000E+00 0.  1.
        994   -1    0    0    0    0 -0.00000000000E+00 -0.00000000000E+00  0.11368683772E-12  0.17120000000E+03  0.17120000000E+03 0.  0.
         13    1    1    2    0    0 -0.11773513426E+02 -0.23391269192E+01  0.24223340394E+02  0.27034580023E+02  0.10566000000E+00 0.  1.
        994    1    1    2    0    0 -0.13655800881E+02  0.12508750200E+01  0.36523636449E+01  0.17178715128E+03  0.17120000000E+03 0.  0.
        998    1    1    2    0    0  0.25429314307E+02  0.10882518992E+01  0.14721242922E+04  0.14723782687E+04  0.10000000000E+02 0.  1.
</event>
<event>
 5    1  0.1303633E-008  0.3844646E+03  0.7957747E-01  0.3431946E+00
         13   -1    0    0    0    0  0.00000000000E+00  0.00000000000E+00  0.14999999963E+04  0.15000000000E+04  0.10566000000E+00 0. -1.
        994   -1    0    0    0    0 -0.00000000000E+00 -0.00000000000E+00  0.11368683772E-12  0.17120000000E+03  0.17120000000E+03 0.  0.
         13    1    1    2    0    0  0.18256088519E+02  0.66298498179E+01  0.89909018821E+02  0.91983055537E+02  0.10566000000E+00 0. -1.
        994    1    1    2    0    0 -0.26869390784E+02 -0.47307039426E+01  0.43521636332E+01  0.17341489281E+03  0.17120000000E+03 0.  0.
        998    1    1    2    0    0  0.86133022651E+01 -0.18991458753E+01  0.14057388138E+04  0.14058020516E+04  0.10000000000E+02 0. -1.
</event>
<event>
 5    1  0.1303633E-008  0.3819215E+03  0.7957747E-01  0.3442834E+00
         13   -1    0    0    0    0  0.00000000000E+00  0.00000000000E+00  0.14999999963E+04  0.15000000000E+04  0.10566000000E+00 0.  1.
        994   -1    0    0    0    0 -0.00000000000E+00 -0.00000000000E+00  0.11368683772E-12  0.17120000000E+03  0.17120000000E+03 0.  0.
         13    1    1    2    0    0 -0.21772121573E+02 -0.83205506570E+01  0.86556110596E+02  0.89639434886E+02  0.10566000000E+00 0.  1.
        994    1    1    2    0    0  0.11522409135E+02 -0.27992832330E+00  0.36077380194E+01  0.17162546444E+03  0.17120000000E+03 0.  0.
        998    1    1    2    0    0  0.10249712438E+02  0.86004789803E+01  0.14098361477E+04  0.14099351007E+04  0.10000000000E+02 0.  1.
</event>
<event>
 5    1  0.1303633E-008  0.3844626E+03  0.7957747E-01  0.3431954E+00
         13   -1    0    0    0    0  0.00000000000E+00  0.00000000000E+00  0.14999999963E+04  0.15000000000E+04  0.10566000000E+00 0.  1.
        994   -1    0    0    0    0 -0.00000000000E+00 -0.00000000000E+00  0.11368683772E-12  0.17120000000E+03  0.17120000000E+03 0.  0.
         13    1    1    2    0    0 -0.82483095058E+01  0.13352215425E+02  0.62633163129E+02  0.64569656605E+02  0.10566000000E+00 0.  1.
        994    1    1    2    0    0  0.60427166890E+01 -0.14890986982E+02  0.27484237814E+01  0.17197456135E+03  0.17120000000E+03 0.  0.
        998    1    1    2    0    0  0.22055928168E+01  0.15387715563E+01  0.14346184094E+04  0.14346557820E+04  0.10000000000E+02 0.  1.
</event>
<event>
 5    1  0.1303633E-008  0.3735748E+03  0.7957747E-01  0.3479621E+00
         13   -1    0    0    0    0  0.00000000000E+00  0.00000000000E+00  0.14999999963E+04  0.15000000000E+04  0.10566000000E+00 0.  1.
        994   -1    0    0    0    0 -0.00000000000E+00 -0.00000000000E+00  0.11368683772E-12  0.17120000000E+03  0.17120000000E+03 0.  0.
         13    1    1    2    0    0 -0.15272127894E+02  0.14540564887E+02  0.11500406470E+02  0.24019501049E+02  0.10566000000E+00 0.  1.
        994    1    1    2    0    0  0.17879984606E+02 -0.14700175073E+02  0.14740800315E+02  0.17338546707E+03  0.17120000000E+03 0.  0.
        998    1    1    2    0    0 -0.26078567124E+01  0.15961018661E+00  0.14737587895E+04  0.14737950319E+04  0.10000000000E+02 0.  1.
</event>
<event>
 5    1  0.1303633E-008  0.3701193E+03  0.7957747E-01  0.3495343E+00
         13   -1    0    0    0    0  0.00000000000E+00  0.00000000000E+00  0.14999999963E+04  0.15000000000E+04  0.10566000000E+00 0.  1.
        994   -1    0    0    0    0 -0.00000000000E+00 -0.00000000000E+00  0.11368683772E-12  0.17120000000E+03  0.17120000000E+03 0.  0.
         13    1    1    2    0    0  0.46178429948E+02  0.22919899714E+02  0.13975318912E+03  0.14895883401E+03  0.10566000000E+00 0.  1.
        994    1    1    2    0    0 -0.31515842002E+02 -0.12224762620E+02  0.13166396871E+02  0.17500139178E+03  0.17120000000E+03 0.  0.
        998    1    1    2    0    0 -0.14662587946E+02 -0.10695137095E+02  0.13470804103E+04  0.13472397742E+04  0.10000000000E+02 0.  1.
</event>
<event>
 5    1  0.1303633E-008  0.3841274E+03  0.7957747E-01  0.3433381E+00
         13   -1    0    0    0    0  0.00000000000E+00  0.00000000000E+00  0.14999999963E+04  0.15000000000E+04  0.10566000000E+00 0.  1.
        994   -1    0    0    0    0 -0.00000000000E+00 -0.00000000000E+00  0.11368683772E-12  0.17120000000E+03  0.17120000000E+03 0.  0.
         13    1    1    2    0    0 -0.19537075310E+01 -0.10870931605E+02  0.29345412714E+02  0.31355359008E+02  0.10566000000E+00 0.  1.
        994    1    1    2    0    0  0.51693088134E+00  0.45040458455E+01  0.21317794201E+01  0.17127328493E+03  0.17120000000E+03 0.  0.
        998    1    1    2    0    0  0.14367766496E+01  0.63668857599E+01  0.14685228041E+04  0.14685713561E+04  0.10000000000E+02 0.  1.
</event>
<event>
 5    1  0.1303633E-008  0.3815292E+03  0.7957747E-01  0.3444527E+00
         13   -1    0    0    0    0  0.00000000000E+00  0.00000000000E+00  0.14999999963E+04  0.15000000000E+04  0.10566000000E+00 0.  1.
        994   -1    0    0    0    0 -0.00000000000E+00 -0.00000000000E+00  0.11368683772E-12  0.17120000000E+03  0.17120000000E+03 0.  0.
         13    1    1    2    0    0  0.20310551297E+02 -0.16800696902E+02  0.99726522182E+02  0.10315121086E+03  0.10566000000E+00 0.  1.
        994    1    1    2    0    0 -0.18274087907E+02  0.10032577189E+02  0.48100672740E+01  0.17253165403E+03  0.17120000000E+03 0.  0.
        998    1    1    2    0    0 -0.20364633907E+01  0.67681197129E+01  0.13954634068E+04  0.13955171351E+04  0.10000000000E+02 0.  1.
</event>
<event>
 5    1  0.1303633E-008  0.3840499E+03  0.7957747E-01  0.3433712E+00
         13   -1    0    0    0    0  0.00000000000E+00  0.00000000000E+00  0.14999999963E+04  0.15000000000E+04  0.10566000000E+00 0.  1.
        994   -1    0    0    0    0 -0.00000000000E+00 -0.00000000000E+00  0.11368683772E-12  0.17120000000E+03  0.17120000000E+03 0.  0.
         13    1    1    2    0    0 -0.57605671411E+00  0.14748539843E+02  0.51314631332E+02  0.53395260292E+02  0.10566000000E+00 0.  1.
        994    1    1    2    0    0 -0.47290313681E+01 -0.10170323719E+02  0.25176583089E+01  0.17158548256E+03  0.17120000000E+03 0.  0.
        998    1    1    2    0    0  0.53050880822E+01 -0.45782161243E+01  0.14461677066E+04  0.14462192571E+04  0.10000000000E+02 0.  1.
</event>
<event>
 5    1  0.1303633E-008  0.3845833E+03  0.7957747E-01  0.3431441E+00
         13   -1    0    0    0    0  0.00000000000E+00  0.00000000000E+00  0.14999999963E+04  0.15000000000E+04  0.10566000000E+00 0. -1.
        994   -1    0    0    0    0 -0.00000000000E+00 -0.00000000000E+00  0.11368683772E-12  0.17120000000E+03  0.17120000000E+03 0.  0.
         13    1    1    2    0    0 -0.87608348833E+01 -0.17946019500E+02  0.10444236572E+03  0.10633452292E+03  0.10566000000E+00 0. -1.
        994    1    1    2    0    0 -0.25989268927E+01  0.20939891173E+02  0.33047101001E+01  0.17252708359E+03  0.17120000000E+03 0.  0.
        998    1    1    2    0    0  0.11359761776E+02 -0.29938716731E+01  0.13922529205E+04  0.13923383935E+04  0.10000000000E+02 0. -1.
</event>
<event>
 5    1  0.1303633E-008  0.3705228E+03  0.7957747E-01  0.3493492E+00
         13   -1    0    0    0    0  0.00000000000E+00  0.00000000000E+00  0.14999999963E+04  0.15000000000E+04  0.10566000000E+00 0.  1.
        994   -1    0    0    0    0 -0.00000000000E+00 -0.00000000000E+00  0.11368683772E-12  0.17120000000E+03  0.17120000000E+03 0.  0.
         13    1    1    2    0    0  0.19942773213E+02  0.63521258282E+02  0.22968176002E+03  0.23913675273E+03  0.10566000000E+00 0.  1.
        994    1    1    2    0    0 -0.62190728380E+00 -0.78967196297E+01  0.11435309296E+02  0.17176423157E+03  0.17120000000E+03 0.  0.
        998    1    1    2    0    0 -0.19320865930E+02 -0.55624538652E+02  0.12588829270E+04  0.12602990157E+04  0.10000000000E+02 0.  1.
</event>
<event>
 5    1  0.1303633E-008  0.3862889E+03  0.7957747E-01  0.3424224E+00
         13   -1    0    0    0    0  0.00000000000E+00  0.00000000000E+00  0.14999999963E+04  0.15000000000E+04  0.10566000000E+00 0.  1.
        994   -1    0    0    0    0 -0.00000000000E+00 -0.00000000000E+00  0.11368683772E-12  0.17120000000E+03  0.17120000000E+03 0.  0.
         13    1    1    2    0    0 -0.88941795956E+01 -0.59356649856E+01  0.56512661098E+02  0.57515481202E+02  0.10566000000E+00 0.  1.
        994    1    1    2    0    0  0.25237837568E+02 -0.14075458531E+02  0.37311734267E+01  0.17366182261E+03  0.17120000000E+03 0.  0.
        998    1    1    2    0    0 -0.16343657973E+02  0.20011123517E+02  0.14397561618E+04  0.14400226962E+04  0.10000000000E+02 0.  1.
</event>
<event>
 5    1  0.1303633E-008  0.3839073E+03  0.7957747E-01  0.3434320E+00
         13   -1    0    0    0    0  0.00000000000E+00  0.00000000000E+00  0.14999999963E+04  0.15000000000E+04  0.10566000000E+00 0.  1.
        994   -1    0    0    0    0 -0.00000000000E+00 -0.00000000000E+00  0.11368683772E-12  0.17120000000E+03  0.17120000000E+03 0.  0.
         13    1    1    2    0    0 -0.26438194416E+02 -0.88225453491E+01  0.16009266327E+03  0.16250073055E+03  0.10566000000E+00 0.  1.
        994    1    1    2    0    0  0.28586313619E+02  0.62325749670E+01  0.50039001663E+01  0.17375414048E+03  0.17120000000E+03 0.  0.
        998    1    1    2    0    0 -0.21481192036E+01  0.25899703821E+01  0.13349034328E+04  0.13349451290E+04  0.10000000000E+02 0.  1.
</event>
<event>
 5    1  0.1303633E-008  0.3687951E+03  0.7957747E-01  0.3501447E+00
         13   -1    0    0    0    0  0.00000000000E+00  0.00000000000E+00  0.14999999963E+04  0.15000000000E+04  0.10566000000E+00 0. -1.
        994   -1    0    0    0    0 -0.00000000000E+00 -0.00000000000E+00  0.11368683772E-12  0.17120000000E+03  0.17120000000E+03 0.  0.
         13    1    1    2    0    0 -0.16565830139E+02 -0.88749112724E+01  0.13439391858E+02  0.23104527605E+02  0.10566000000E+00 0. -1.
        994    1    1    2    0    0  0.14426997006E+02  0.63630120101E+01  0.10763919766E+02  0.17226122063E+03  0.17120000000E+03 0.  0.
        998    1    1    2    0    0  0.21388331326E+01  0.25118992623E+01  0.14757966847E+04  0.14758342518E+04  0.10000000000E+02 0. -1.
</event>
<event>
 5    1  0.1303633E-008  0.3854973E+03  0.7957747E-01  0.3427566E+00
         13   -1    0    0    0    0  0.00000000000E+00  0.00000000000E+00  0.14999999963E+04  0.15000000000E+04  0.10566000000E+00 0.  1.
        994   -1    0    0    0    0 -0.00000000000E+00 -0.00000000000E+00  0.11368683772E-12  0.17120000000E+03  0.17120000000E+03 0.  0.
         13    1    1    2    0    0 -0.55748059889E+01  0.16623586227E+02  0.10345790896E+03  0.10493317955E+03  0.10566000000E+00 0.  1.
        994    1    1    2    0    0 -0.34514008179E+00 -0.21383891059E+02  0.28866565263E+01  0.17255481073E+03  0.17120000000E+03 0.  0.
        998    1    1    2    0    0  0.59199460707E+01  0.47603048327E+01  0.13936554308E+04  0.13937120097E+04  0.10000000000E+02 0.  1.
</event>
<event>
 5    1  0.1303633E-008  0.3800347E+03  0.7957747E-01  0.3451008E+00
         13   -1    0    0    0    0  0.00000000000E+00  0.00000000000E+00  0.14999999963E+04  0.15000000000E+04  0.10566000000E+00 0.  1.
        994   -1    0    0    0    0 -0.00000000000E+00 -0.00000000000E+00  0.11368683772E-12  0.17120000000E+03  0.17120000000E+03 0.  0.
         13    1    1    2    0    0 -0.33581882433E+02 -0.12739889036E+02  0.18143907502E+03  0.18495998678E+03  0.10566000000E+00 0.  1.
        994    1    1    2    0    0  0.17160749037E+01 -0.60780868894E+01  0.42489837439E+01  0.17136913933E+03  0.17120000000E+03 0.  0.
        998    1    1    2    0    0  0.31865807529E+02  0.18817975926E+02  0.13143119375E+04  0.13148708739E+04  0.10000000000E+02 0.  1.
</event>
<event>
 5    1  0.1303633E-008  0.3770951E+03  0.7957747E-01  0.3463905E+00
         13   -1    0    0    0    0  0.00000000000E+00  0.00000000000E+00  0.14999999963E+04  0.15000000000E+04  0.10566000000E+00 0.  1.
        994   -1    0    0    0    0 -0.00000000000E+00 -0.00000000000E+00  0.11368683772E-12  0.17120000000E+03  0.17120000000E+03 0.  0.
         13    1    1    2    0    0 -0.38034817536E+01 -0.14918246595E+02  0.18813966802E+02  0.24310431214E+02  0.10566000000E+00 0.  1.
        994    1    1    2    0    0  0.41235625710E+01  0.83538362813E+01  0.58997560101E+01  0.17155476522E+03  0.17120000000E+03 0.  0.
        998    1    1    2    0    0 -0.32008081746E+00  0.65644103137E+01  0.14752862735E+04  0.14753348036E+04  0.10000000000E+02 0.  1.
</event>
<event>
 5    1  0.1303633E-008  0.3839911E+03  0.7957747E-01  0.3433962E+00
         13   -1    0    0    0    0  0.00000000000E+00  0.00000000000E+00  0.14999999963E+04  0.15000000000E+04  0.10566000000E+00 0.  1.
        994   -1    0    0    0    0 -0.00000000000E+00 -0.00000000000E+00  0.11368683772E-12  0.17120000000E+03  0.17120000000E+03 0.  0.
         13    1    1    2    0    0  0.98545261355E+01 -0.53690681585E+01  0.28787127639E+02  0.30897385973E+02  0.10566000000E+00 0.  1.
        994    1    1    2    0    0 -0.68633355582E+01  0.62229797943E+01  0.24150894296E+01  0.17146749986E+03  0.17120000000E+03 0.  0.
        998    1    1    2    0    0 -0.29911905774E+01 -0.85391163585E+00  0.14687977792E+04  0.14688351142E+04  0.10000000000E+02 0.  1.
</event>
<event>
 5    1  0.1303633E-008  0.3833956E+03  0.7957747E-01  0.3436505E+00
         13   -1    0    0    0    0  0.00000000000E+00  0.00000000000E+00  0.14999999963E+04  0.15000000000E+04  0.10566000000E+00 0. -1.
        994   -1    0    0    0    0 -0.00000000000E+00 -0.00000000000E+00  0.11368683772E-12  0.17120000000E+03  0.17120000000E+03 0.  0.
         13    1    1    2    0    0  0.13491686508E+02  0.86032421994E+01  0.52442930710E+02  0.54829859809E+02  0.10566000000E+00 0. -1.
        994    1    1    2    0    0 -0.13968903348E+01 -0.14633742220E+02  0.31434836231E+01  0.17185871873E+03  0.17120000000E+03 0.  0.
        998    1    1    2    0    0 -0.12094796173E+02  0.60305000209E+01  0.14444135819E+04  0.14445114215E+04  0.10000000000E+02 0. -1.
</event>
<event>
 5    1  0.1303633E-008  0.3724441E+03  0.7957747E-01  0.3484733E+00
         13   -1    0    0    0    0  0.00000000000E+00  0.00000000000E+00  0.14999999963E+04  0.15000000000E+04  0.10566000000E+00 0. -1.
        994   -1    0    0    0    0 -0.00000000000E+00 -0.00000000000E+00  0.11368683772E-12  0.17120000000E+03  0.17120000000E+03 0.  0.
         13    1    1    2    0    0  0.65418149099E+02  0.72383862023E+02  0.39516892989E+03  0.40703495185E+03  0.10566000000E+00 0. -1.
        994    1    1    2    0    0 -0.22916075037E+02 -0.51355852449E+02  0.23473824844E+02  0.18172239963E+03  0.17120000000E+03 0.  0.
        998    1    1    2    0    0 -0.42502074062E+02 -0.21028009574E+02  0.10813572415E+04  0.10824426485E+04  0.10000000000E+02 0. -1.
</event>
<event>
 5    1  0.1303633E-008  0.3820682E+03  0.7957747E-01  0.3442202E+00
         13   -1    0    0    0    0  0.00000000000E+00  0.00000000000E+00  0.14999999963E+04  0.15000000000E+04  0.10566000000E+00 0. -1.
        994   -1    0    0    0    0 -0.00000000000E+00 -0.00000000000E+00  0.11368683772E-12  0.17120000000E+03  0.17120000000E+03 0.  0.
         13    1    1    2    0    0 -0.19780515535E+01 -0.10437720547E+02  0.16985389188E+02  0.20034303284E+02  0.10566000000E+00 0. -1.
        994    1    1    2    0    0 -0.60210664194E+01  0.90443533290E+01  0.34848119767E+01  0.17157982831E+03  0.17120000000E+03 0.  0.
        998    1    1    2    0    0  0.79991179729E+01  0.13933672183E+01  0.14795297951E+04  0.14795858684E+04  0.10000000000E+02 0. -1.
</event>
<event>
 5    1  0.1303633E-008  0.3837383E+03  0.7957747E-01  0.3435041E+00
         13   -1    0    0    0    0  0.00000000000E+00  0.00000000000E+00  0.14999999963E+04  0.15000000000E+04  0.10566000000E+00 0.  1.
        994   -1    0    0    0    0 -0.00000000000E+00 -0.00000000000E+00  0.11368683772E-12  0.17120000000E+03  0.17120000000E+03 0.  0.
         13    1    1    2    0    0 -0.22060439524E+02  0.10294307254E+02  0.13244450849E+03  0.13466326428E+03  0.10566000000E+00 0.  1.
        994    1    1    2    0    0  0.16210041615E+02  0.32894817686E+01  0.31617836016E+01  0.17202622770E+03  0.17120000000E+03 0.  0.
        998    1    1    2    0    0  0.58503979082E+01 -0.13583789023E+02  0.13643937042E+04  0.13645105080E+04  0.10000000000E+02 0.  1.
</event>
<event>
 5    1  0.1303633E-008  0.3841370E+03  0.7957747E-01  0.3433340E+00
         13   -1    0    0    0    0  0.00000000000E+00  0.00000000000E+00  0.14999999963E+04  0.15000000000E+04  0.10566000000E+00 0. -1.
        994   -1    0    0    0    0 -0.00000000000E+00 -0.00000000000E+00  0.11368683772E-12  0.17120000000E+03  0.17120000000E+03 0.  0.
         13    1    1    2    0    0  0.15607146909E+02  0.42321169949E+01  0.63979753546E+02  0.65991771280E+02  0.10566000000E+00 0. -1.
        994    1    1    2    0    0 -0.80688758023E+01 -0.14096860573E+01  0.22804928115E+01  0.17141101079E+03  0.17120000000E+03 0.  0.
        998    1    1    2    0    0 -0.75382711065E+01 -0.28224309376E+01  0.14337397499E+04  0.14337972179E+04  0.10000000000E+02 0. -1.
</event>
<event>
 5    1  0.1303633E-008  0.3838944E+03  0.7957747E-01  0.3434375E+00
         13   -1    0    0    0    0  0.00000000000E+00  0.00000000000E+00  0.14999999963E+04  0.15000000000E+04  0.10566000000E+00 0.  1.
        994   -1    0    0    0    0 -0.00000000000E+00 -0.00000000000E+00  0.11368683772E-12  0.17120000000E+03  0.17120000000E+03 0.  0.
         13    1    1    2    0    0  0.20699043148E+02 -0.20540824574E+02  0.17317215417E+03  0.17561031292E+03  0.10566000000E+00 0.  1.
        994    1    1    2    0    0 -0.16803513534E+02  0.26160595390E+02  0.53772535555E+01  0.17408357095E+03  0.17120000000E+03 0.  0.
        998    1    1    2    0    0 -0.38955296135E+01 -0.56197708159E+01  0.13214505886E+04  0.13215061161E+04  0.10000000000E+02 0.  1.
</event>
<event>
 5    1  0.1303633E-008  0.3788371E+03  0.7957747E-01  0.3456238E+00
         13   -1    0    0    0    0  0.00000000000E+00  0.00000000000E+00  0.14999999963E+04  0.15000000000E+04  0.10566000000E+00 0. -1.
        994   -1    0    0    0    0 -0.00000000000E+00 -0.00000000000E+00  0.11368683772E-12  0.17120000000E+03  0.17120000000E+03 0.  0.
         13    1    1    2    0    0  0.36483212306E+02  0.24824611253E+02  0.18672865828E+03  0.19187206438E+03  0.10566000000E+00 0. -1.
        994    1    1    2    0    0 -0.35448120291E+02 -0.17918132808E+02  0.10033846980E+02  0.17603336843E+03  0.17120000000E+03 0.  0.
        998    1    1    2    0    0 -0.10350920146E+01 -0.69064784453E+01  0.13032374910E+04  0.13032945672E+04  0.10000000000E+02 0. -1.
</event>
<event>
 5    1  0.1303633E-008  0.3716039E+03  0.7957747E-01  0.3488552E+00
         13   -1    0    0    0    0  0.00000000000E+00  0.00000000000E+00  0.14999999963E+04  0.15000000000E+04  0.10566000000E+00 0. -1.
        994   -1    0    0    0    0 -0.00000000000E+00 -0.00000000000E+00  0.11368683772E-12  0.17120000000E+03  0.17120000000E+03 0.  0.
         13    1    1    2    0    0 -0.40200967734E+01  0.39648953288E+02  0.89271179432E+02  0.97762750146E+02  0.10566000000E+00 0. -1.
        994    1    1    2    0    0  0.15990341259E+02 -0.29222326536E+02  0.12258317635E+02  0.17484090406E+03  0.17120000000E+03 0.  0.
        998    1    1    2    0    0 -0.11970244486E+02 -0.10426626752E+02  0.13984704992E+04  0.13985963458E+04  0.10000000000E+02 0. -1.
</event>
<event>
 5    1  0.1303633E-008  0.3759726E+03  0.7957747E-01  0.3468884E+00
         13   -1    0    0    0    0  0.00000000000E+00  0.00000000000E+00  0.14999999963E+04  0.15000000000E+04  0.10566000000E+00 0. -1.
        994   -1    0    0    0    0 -0.00000000000E+00 -0.00000000000E+00  0.11368683772E-12  0.17120000000E+03  0.17120000000E+03 0.  0.
         13    1    1    2    0    0  0.11085904718E+03 -0.69759272790E+02  0.60475965004E+03  0.61878132645E+03  0.10566000000E+00 0. -1.
        994    1    1    2    0    0 -0.13330056648E+03  0.70274614899E+02  0.87463349895E+02  0.24426796781E+03  0.17120000000E+03 0.  0.
        998    1    1    2    0    0  0.22441519302E+02 -0.51534210912E+00  0.80777699634E+03  0.80815070574E+03  0.10000000000E+02 0. -1.
</event>
<event>
 5    1  0.1767159E-008  0.3863310E+03  0.7957747E-01  0.3424047E+00
         13   -1    0    0    0    0  0.00000000000E+00  0.00000000000E+00  0.14999999963E+04  0.15000000000E+04  0.10566000000E+00 0.  1.
        994   -1    0    0    0    0 -0.00000000000E+00 -0.00000000000E+00  0.11368683772E-12  0.17120000000E+03  0.17120000000E+03 0.  0.
         13    1    1    2    0    0  0.10846032109E+02 -0.92508138361E+00  0.63156676552E+02  0.64087979724E+02  0.10566000000E+00 0.  1.
        994    1    1    2    0    0 -0.46897413862E+01  0.77612703862E+01  0.12400804584E+01  0.17144447729E+03  0.17120000000E+03 0.  0.
        998    1    1    2    0    0 -0.61562907227E+01 -0.68361890026E+01  0.14356032393E+04  0.14356675430E+04  0.10000000000E+02 0.  1.
</event>
<event>
 5    1  0.1303633E-008  0.3801661E+03  0.7957747E-01  0.3450436E+00
         13   -1    0    0    0    0  0.00000000000E+00  0.00000000000E+00  0.14999999963E+04  0.15000000000E+04  0.10566000000E+00 0. -1.
        994   -1    0    0    0    0 -0.00000000000E+00 -0.00000000000E+00  0.11368683772E-12  0.17120000000E+03  0.17120000000E+03 0.  0.
         13    1    1    2    0    0  0.22999195250E+01 -0.14965257244E+02  0.27028119517E+02  0.30980299593E+02  0.10566000000E+00 0. -1.
        994    1    1    2    0    0  0.11100186942E+02  0.78372055831E+01  0.46664534977E+01  0.17180178035E+03  0.17120000000E+03 0.  0.
        998    1    1    2    0    0 -0.13400106467E+02  0.71280516606E+01  0.14683054233E+04  0.14684179201E+04  0.10000000000E+02 0. -1.
</event>
<event>
 5    1  0.1303633E-008  0.3768219E+03  0.7957747E-01  0.3465114E+00
         13   -1    0    0    0    0  0.00000000000E+00  0.00000000000E+00  0.14999999963E+04  0.15000000000E+04  0.10566000000E+00 0. -1.
        994   -1    0    0    0    0 -0.00000000000E+00 -0.00000000000E+00  0.11368683772E-12  0.17120000000E+03  0.17120000000E+03 0.  0.
         13    1    1    2    0    0 -0.17580170473E+02  0.28926425655E+02  0.32976059305E+02  0.47257085674E+02  0.10566000000E+00 0. -1.
        994    1    1    2    0    0 -0.52255789424E+01 -0.38467618826E+02  0.20009762621E+02  0.17668303533E+03  0.17120000000E+03 0.  0.
        998    1    1    2    0    0  0.22805749415E+02  0.95411931704E+01  0.14470141744E+04  0.14472598790E+04  0.10000000000E+02 0. -1.
</event>
<event>
 5    1  0.1303633E-008  0.4187876E+03  0.7957747E-01  0.3297906E+00
         13   -1    0    0    0    0  0.00000000000E+00  0.00000000000E+00  0.14999999963E+04  0.15000000000E+04  0.10566000000E+00 0. -1.
        994   -1    0    0    0    0 -0.00000000000E+00 -0.00000000000E+00  0.11368683772E-12  0.17120000000E+03  0.17120000000E+03 0.  0.
         13    1    1    2    0    0  0.29017878709E+02  0.64060136074E+01 -0.70653976488E+01  0.30545135506E+02  0.10566000000E+00 0. -1.
        994    1    1    2    0    0  0.74436473117E+02 -0.16326335819E+03  0.19585923270E+03  0.31601580924E+03  0.17120000000E+03 0.  0.
        998    1    1    2    0    0 -0.10345435183E+03  0.15685734458E+03  0.13112061612E+04  0.13246390553E+04  0.10000000000E+02 0. -1.
</event>
<event>
 5    1  0.1303633E-008  0.3847650E+03  0.7957747E-01  0.3430669E+00
         13   -1    0    0    0    0  0.00000000000E+00  0.00000000000E+00  0.14999999963E+04  0.15000000000E+04  0.10566000000E+00 0.  1.
        994   -1    0    0    0    0 -0.00000000000E+00 -0.00000000000E+00  0.11368683772E-12  0.17120000000E+03  0.17120000000E+03 0.  0.
         13    1    1    2    0    0 -0.94867755065E+01  0.56511677376E+01  0.34402388054E+02  0.36131289406E+02  0.10566000000E+00 0.  1.
        994    1    1    2    0    0  0.85599443411E+01 -0.30201260037E+01  0.20180626851E+01  0.17145234436E+03  0.17120000000E+03 0.  0.
        998    1    1    2    0    0  0.92683116550E+00 -0.26310417339E+01  0.14635795455E+04  0.14636163662E+04  0.10000000000E+02 0.  1.
</event>
<event>
 5    1  0.1303633E-008  0.3809624E+03  0.7957747E-01  0.3446978E+00
         13   -1    0    0    0    0  0.00000000000E+00  0.00000000000E+00  0.14999999963E+04  0.15000000000E+04  0.10566000000E+00 0.  1.
        994   -1    0    0    0    0 -0.00000000000E+00 -0.00000000000E+00  0.11368683772E-12  0.17120000000E+03  0.17120000000E+03 0.  0.
         13    1    1    2    0    0  0.10550581189E+02 -0.27290748954E+02  0.11565521300E+03  0.11929894886E+03  0.10566000000E+00 0.  1.
        994    1    1    2    0    0 -0.10677329146E+02  0.15505548039E+02  0.48300498124E+01  0.17229972942E+03  0.17120000000E+03 0.  0.
        998    1    1    2    0    0  0.12674795674E+00  0.11785200915E+02  0.13795147335E+04  0.13796013217E+04  0.10000000000E+02 0.  1.
</event>
<event>
 5    1  0.1303633E-008  0.3834516E+03  0.7957747E-01  0.3436266E+00
         13   -1    0    0    0    0  0.00000000000E+00  0.00000000000E+00  0.14999999963E+04  0.15000000000E+04  0.10566000000E+00 0.  1.
        994   -1    0    0    0    0 -0.00000000000E+00 -0.00000000000E+00  0.11368683772E-12  0.17120000000E+03  0.17120000000E+03 0.  0.
         13    1    1    2    0    0 -0.20159691179E+01 -0.15586920569E+02  0.49027380969E+02  0.51485060678E+02  0.10566000000E+00 0.  1.
        994    1    1    2    0    0 -0.24446315681E+01  0.18503948723E+02  0.35531192577E+01  0.17225108707E+03  0.17120000000E+03 0.  0.
        998    1    1    2    0    0  0.44606006861E+01 -0.29170281542E+01  0.14474194961E+04  0.14474638522E+04  0.10000000000E+02 0.  1.
</event>
<event>
 5    1  0.1303633E-008  0.3732634E+03  0.7957747E-01  0.3481026E+00
         13   -1    0    0    0    0  0.00000000000E+00  0.00000000000E+00  0.14999999963E+04  0.15000000000E+04  0.10566000000E+00 0.  1.
        994   -1    0    0    0    0 -0.00000000000E+00 -0.00000000000E+00  0.11368683772E-12  0.17120000000E+03  0.17120000000E+03 0.  0.
         13    1    1    2    0    0 -0.28607935447E+02 -0.39858889725E+01  0.50448763160E+02  0.58132522307E+02  0.10566000000E+00 0.  1.
        994    1    1    2    0    0  0.29102530652E+02  0.75309911381E+01  0.10669294047E+02  0.17414633775E+03  0.17120000000E+03 0.  0.
        998    1    1    2    0    0 -0.49459520520E+00 -0.35451021656E+01  0.14388819391E+04  0.14389211399E+04  0.10000000000E+02 0.  1.
</event>
<event>
 5    1  0.1303633E-008  0.3805448E+03  0.7957747E-01  0.3448790E+00
         13   -1    0    0    0    0  0.00000000000E+00  0.00000000000E+00  0.14999999963E+04  0.15000000000E+04  0.10566000000E+00 0. -1.
        994   -1    0    0    0    0 -0.00000000000E+00 -0.00000000000E+00  0.11368683772E-12  0.17120000000E+03  0.17120000000E+03 0.  0.
         13    1    1    2    0    0  0.80380324170E+01  0.96374048705E+01  0.18818763678E+02  0.22619605836E+02  0.10566000000E+00 0. -1.
        994    1    1    2    0    0 -0.56898591132E+01 -0.64174930161E+01  0.41038816715E+01  0.17146381705E+03  0.17120000000E+03 0.  0.
        998    1    1    2    0    0 -0.23481733038E+01 -0.32199118544E+01  0.14770773509E+04  0.14771165771E+04  0.10000000000E+02 0. -1.
</event>
<event>
 5    1  0.1303633E-008  0.3852432E+03  0.7957747E-01  0.3428641E+00
         13   -1    0    0    0    0  0.00000000000E+00  0.00000000000E+00  0.14999999963E+04  0.15000000000E+04  0.10566000000E+00 0. -1.
        994   -1    0    0    0    0 -0.00000000000E+00 -0.00000000000E+00  0.11368683772E-12  0.17120000000E+03  0.17120000000E+03 0.  0.
         13    1    1    2    0    0 -0.82940492967E+01 -0.99877375163E+01  0.55767441495E+02  0.57258753474E+02  0.10566000000E+00 0. -1.
        994    1    1    2    0    0  0.13187450201E+02  0.10897546170E+01  0.20850055026E+01  0.17172327640E+03  0.17120000000E+03 0.  0.
        998    1    1    2    0    0 -0.48934009042E+01  0.88979828993E+01  0.14421475493E+04  0.14422179701E+04  0.10000000000E+02 0. -1.
</event>
<event>
 5    1  0.1303633E-008  0.3825953E+03  0.7957747E-01  0.3439935E+00
         13   -1    0    0    0    0  0.00000000000E+00  0.00000000000E+00  0.14999999963E+04  0.15000000000E+04  0.10566000000E+00 0. -1.
        994   -1    0    0    0    0 -0.00000000000E+00 -0.00000000000E+00  0.11368683772E-12  0.17120000000E+03  0.17120000000E+03 0.  0.
         13    1    1    2    0    0 -0.20019848335E+01 -0.10055432449E+02  0.17722407531E+02  0.20474729735E+02  0.10566000000E+00 0. -1.
        994    1    1    2    0    0  0.19583570763E+01  0.19965971251E+01  0.28547020081E+01  0.17124663759E+03  0.17120000000E+03 0.  0.
        998    1    1    2    0    0  0.43627757160E-01  0.80588353239E+01  0.14794228867E+04  0.14794786327E+04  0.10000000000E+02 0. -1.
</event>
<event>
 5    1  0.1303633E-008  0.3821428E+03  0.7957747E-01  0.3441881E+00
         13   -1    0    0    0    0  0.00000000000E+00  0.00000000000E+00  0.14999999963E+04  0.15000000000E+04  0.10566000000E+00 0. -1.
        994   -1    0    0    0    0 -0.00000000000E+00 -0.00000000000E+00  0.11368683772E-12  0.17120000000E+03  0.17120000000E+03 0.  0.
         13    1    1    2    0    0  0.50682612486E+01  0.18359920705E+02  0.59923069824E+02  0.62877336311E+02  0.10566000000E+00 0. -1.
        994    1    1    2    0    0 -0.74557881053E+01 -0.48130778971E+01  0.33168456981E+01  0.17146193735E+03  0.17120000000E+03 0.  0.
        998    1    1    2    0    0  0.23875268567E+01 -0.13546842808E+02  0.14367600808E+04  0.14368607263E+04  0.10000000000E+02 0. -1.
</event>
<event>
 5    1  0.1303633E-008  0.3710565E+03  0.7957747E-01  0.3491050E+00
         13   -1    0    0    0    0  0.00000000000E+00  0.00000000000E+00  0.14999999963E+04  0.15000000000E+04  0.10566000000E+00 0.  1.
        994   -1    0    0    0    0 -0.00000000000E+00 -0.00000000000E+00  0.11368683772E-12  0.17120000000E+03  0.17120000000E+03 0.  0.
         13    1    1    2    0    0 -0.27262951059E+02  0.10243142174E+01  0.40282114729E+02  0.48651594539E+02  0.10566000000E+00 0.  1.
        994    1    1    2    0    0  0.87433585476E+01  0.81147174079E+00  0.89835755570E+01  0.17166027332E+03  0.17120000000E+03 0.  0.
        998    1    1    2    0    0  0.18519592512E+02 -0.18357859582E+01  0.14507343060E+04  0.14508881321E+04  0.10000000000E+02 0.  1.
</event>
<event>
 5    1  0.1303633E-008  0.3737588E+03  0.7957747E-01  0.3478793E+00
         13   -1    0    0    0    0  0.00000000000E+00  0.00000000000E+00  0.14999999963E+04  0.15000000000E+04  0.10566000000E+00 0. -1.
        994   -1    0    0    0    0 -0.00000000000E+00 -0.00000000000E+00  0.11368683772E-12  0.17120000000E+03  0.17120000000E+03 0.  0.
         13    1    1    2    0    0  0.34308898724E+01 -0.99350162597E+02  0.46953586144E+03  0.47994391563E+03  0.10566000000E+00 0. -1.
        994    1    1    2    0    0  0.37748991708E+02  0.10077248326E+03  0.47938925397E+02  0.20781641014E+03  0.17120000000E+03 0.  0.
        998    1    1    2    0    0 -0.41179881581E+02 -0.14223206600E+01  0.98252520944E+03  0.98343967422E+03  0.10000000000E+02 0. -1.
</event>
<event>
 5    1  0.1303633E-008  0.3839083E+03  0.7957747E-01  0.3434315E+00
         13   -1    0    0    0    0  0.00000000000E+00  0.00000000000E+00  0.14999999963E+04  0.15000000000E+04  0.10566000000E+00 0. -1.
        994   -1    0    0    0    0 -0.00000000000E+00 -0.00000000000E+00  0.11368683772E-12  0.17120000000E+03  0.17120000000E+03 0.  0.
         13    1    1    2    0    0 -0.11925479941E+00 -0.10247910716E+02  0.23908241955E+02  0.26012479566E+02  0.10566000000E+00 0. -1.
        994    1    1    2    0    0  0.46988862035E+01  0.20330451046E+01  0.22596104453E+01  0.17129144358E+03  0.17120000000E+03 0.  0.
        998    1    1    2    0    0 -0.45796314040E+01  0.82148656111E+01  0.14738321439E+04  0.14738960769E+04  0.10000000000E+02 0. -1.
</event>
<event>
 5    1  0.1303633E-008  0.3858525E+03  0.7957747E-01  0.3426065E+00
         13   -1    0    0    0    0  0.00000000000E+00  0.00000000000E+00  0.14999999963E+04  0.15000000000E+04  0.10566000000E+00 0.  1.
        994   -1    0    0    0    0 -0.00000000000E+00 -0.00000000000E+00  0.11368683772E-12  0.17120000000E+03  0.17120000000E+03 0.  0.
         13    1    1    2    0    0  0.11444362350E+02  0.24349803316E+00  0.53535947131E+02  0.54746155300E+02  0.10566000000E+00 0.  1.
        994    1    1    2    0    0 -0.11043048063E+02 -0.97994471750E+01  0.19226740993E+01  0.17184619504E+03  0.17120000000E+03 0.  0.
        998    1    1    2    0    0 -0.40131428684E+00  0.95559491419E+01  0.14445413750E+04  0.14446076497E+04  0.10000000000E+02 0.  1.
</event>
<event>
 5    1  0.1303633E-008  0.3835078E+03  0.7957747E-01  0.3436025E+00
         13   -1    0    0    0    0  0.00000000000E+00  0.00000000000E+00  0.14999999963E+04  0.15000000000E+04  0.10566000000E+00 0.  1.
        994   -1    0    0    0    0 -0.00000000000E+00 -0.00000000000E+00  0.11368683772E-12  0.17120000000E+03  0.17120000000E+03 0.  0.
         13    1    1    2    0    0 -0.88338624935E+01 -0.99655809088E+01  0.36616741626E+02  0.38963404122E+02  0.10566000000E+00 0.  1.
        994    1    1    2    0    0  0.46453633733E+01  0.84271111670E+01  0.26788457018E+01  0.17149114210E+03  0.17120000000E+03 0.  0.
        998    1    1    2    0    0  0.41884991202E+01  0.15384697418E+01  0.14607044090E+04  0.14607454538E+04  0.10000000000E+02 0.  1.
</event>
<event>
 5    1  0.1303633E-008  0.3836750E+03  0.7957747E-01  0.3435311E+00
         13   -1    0    0    0    0  0.00000000000E+00  0.00000000000E+00  0.14999999963E+04  0.15000000000E+04  0.10566000000E+00 0. -1.
        994   -1    0    0    0    0 -0.00000000000E+00 -0.00000000000E+00  0.11368683772E-12  0.17120000000E+03  0.17120000000E+03 0.  0.
         13    1    1    2    0    0  0.13181798388E+02 -0.72478764428E+01  0.49534509560E+02  0.51768429792E+02  0.10566000000E+00 0. -1.
        994    1    1    2    0    0 -0.83432744771E+01 -0.59197378357E+00  0.25204888288E+01  0.17142273340E+03  0.17120000000E+03 0.  0.
        998    1    1    2    0    0 -0.48385239114E+01  0.78398502264E+01  0.14479449979E+04  0.14480088368E+04  0.10000000000E+02 0. -1.
</event>
<event>
 5    1  0.2861267E-008  0.3859072E+03  0.7957747E-01  0.3425834E+00
         13   -1    0    0    0    0  0.00000000000E+00  0.00000000000E+00  0.14999999963E+04  0.15000000000E+04  0.10566000000E+00 0.  1.
        994   -1    0    0    0    0 -0.00000000000E+00 -0.00000000000E+00  0.11368683772E-12  0.17120000000E+03  0.17120000000E+03 0.  0.
         13    1    1    2    0    0 -0.66322597398E+01  0.89270799081E+01  0.53554426178E+02  0.54697050672E+02  0.10566000000E+00 0.  1.
        994    1    1    2    0    0  0.42115563845E+01 -0.39971299658E+01  0.12909554438E+01  0.17130330067E+03  0.17120000000E+03 0.  0.
        998    1    1    2    0    0  0.24207033553E+01 -0.49299499423E+01  0.14451546147E+04  0.14451996487E+04  0.10000000000E+02 0.  1.
</event>
<event>
 5    1  0.1303633E-008  0.3817302E+03  0.7957747E-01  0.3443659E+00
         13   -1    0    0    0    0  0.00000000000E+00  0.00000000000E+00  0.14999999963E+04  0.15000000000E+04  0.10566000000E+00 0. -1.
        994   -1    0    0    0    0 -0.00000000000E+00 -0.00000000000E+00  0.11368683772E-12  0.17120000000E+03  0.17120000000E+03 0.  0.
         13    1    1    2    0    0  0.15209647209E+02  0.15419139864E+01  0.35480856055E+02  0.38634352297E+02  0.10566000000E+00 0. -1.
        994    1    1    2    0    0 -0.44324199580E+01  0.89975649215E+01  0.35967599065E+01  0.17153127762E+03  0.17120000000E+03 0.  0.
        998    1    1    2    0    0 -0.10777227252E+02 -0.10539478908E+02  0.14609223803E+04  0.14610343701E+04  0.10000000000E+02 0. -1.
</event>
<event>
 5    1  0.1303633E-008  0.3778254E+03  0.7957747E-01  0.3460682E+00
         13   -1    0    0    0    0  0.00000000000E+00  0.00000000000E+00  0.14999999963E+04  0.15000000000E+04  0.10566000000E+00 0.  1.
        994   -1    0    0    0    0 -0.00000000000E+00 -0.00000000000E+00  0.11368683772E-12  0.17120000000E+03  0.17120000000E+03 0.  0.
         13    1    1    2    0    0 -0.99948738481E+02  0.20248263390E+03  0.89628079005E+03  0.92428796007E+03  0.10566000000E+00 0.  1.
        994    1    1    2    0    0  0.95597957044E+02 -0.22063147297E+03  0.23422840355E+03  0.37681507572E+03  0.17120000000E+03 0.  0.
        998    1    1    2    0    0  0.43507814369E+01  0.18148839065E+02  0.36949080268E+03  0.37009696422E+03  0.10000000000E+02 0.  1.
</event>
<event>
 5    1  0.1303633E-008  0.3755844E+03  0.7957747E-01  0.3470613E+00
         13   -1    0    0    0    0  0.00000000000E+00  0.00000000000E+00  0.14999999963E+04  0.15000000000E+04  0.10566000000E+00 0. -1.
        994   -1    0    0    0    0 -0.00000000000E+00 -0.00000000000E+00  0.11368683772E-12  0.17120000000E+03  0.17120000000E+03 0.  0.
         13    1    1    2    0    0  0.46482403921E+01 -0.32825746743E+02  0.34992083117E+02  0.48203659953E+02  0.10566000000E+00 0. -1.
        994    1    1    2    0    0 -0.46856953527E+01  0.11019379463E+02  0.14434109526E+02  0.17222417363E+03  0.17120000000E+03 0.  0.
        998    1    1    2    0    0  0.37454960563E-01  0.21806367280E+02  0.14505738036E+04  0.14507721664E+04  0.10000000000E+02 0. -1.
</event>
<event>
 5    1  0.1303633E-008  0.3823875E+03  0.7957747E-01  0.3440828E+00
         13   -1    0    0    0    0  0.00000000000E+00  0.00000000000E+00  0.14999999963E+04  0.15000000000E+04  0.10566000000E+00 0.  1.
        994   -1    0    0    0    0 -0.00000000000E+00 -0.00000000000E+00  0.11368683772E-12  0.17120000000E+03  0.17120000000E+03 0.  0.
         13    1    1    2    0    0  0.25247424631E+02 -0.13289705038E+02  0.13572192199E+03  0.13868849982E+03  0.10566000000E+00 0.  1.
        994    1    1    2    0    0 -0.16787850514E+02  0.95806910806E+01  0.41729578486E+01  0.17233825792E+03  0.17120000000E+03 0.  0.
        998    1    1    2    0    0 -0.84595741172E+01  0.37090139578E+01  0.13601051164E+04  0.13601732423E+04  0.10000000000E+02 0.  1.
</event>
<event>
 5    1  0.1303633E-008  0.3788974E+03  0.7957747E-01  0.3455973E+00
         13   -1    0    0    0    0  0.00000000000E+00  0.00000000000E+00  0.14999999963E+04  0.15000000000E+04  0.10566000000E+00 0.  1.
        994   -1    0    0    0    0 -0.00000000000E+00 -0.00000000000E+00  0.11368683772E-12  0.17120000000E+03  0.17120000000E+03 0.  0.
         13    1    1    2    0    0  0.88484148064E+02 -0.29113453628E+02  0.55533879947E+03  0.56309699964E+03  0.10566000000E+00 0.  1.
        994    1    1    2    0    0 -0.94005222888E+02  0.20313129825E+02  0.36378544279E+02  0.19970589290E+03  0.17120000000E+03 0.  0.
        998    1    1    2    0    0  0.55210748240E+01  0.88003238026E+01  0.90828265253E+03  0.90839710746E+03  0.10000000000E+02 0.  1.
</event>
<event>
 5    1  0.1303633E-008  0.3725943E+03  0.7957747E-01  0.3484052E+00
         13   -1    0    0    0    0  0.00000000000E+00  0.00000000000E+00  0.14999999963E+04  0.15000000000E+04  0.10566000000E+00 0.  1.
        994   -1    0    0    0    0 -0.00000000000E+00 -0.00000000000E+00  0.11368683772E-12  0.17120000000E+03  0.17120000000E+03 0.  0.
         13    1    1    2    0    0  0.56108882023E+02  0.33688343689E+02  0.26133497321E+03  0.26940506775E+03  0.10566000000E+00 0.  1.
        994    1    1    2    0    0 -0.10057070558E+02 -0.70767396316E+02  0.25636756451E+02  0.18728548350E+03  0.17120000000E+03 0.  0.
        998    1    1    2    0    0 -0.46051811466E+02  0.37079052627E+02  0.12130282666E+04  0.12145094488E+04  0.10000000000E+02 0.  1.
</event>
<event>
 5    1  0.1303633E-008  0.3851543E+03  0.7957747E-01  0.3429018E+00
         13   -1    0    0    0    0  0.00000000000E+00  0.00000000000E+00  0.14999999963E+04  0.15000000000E+04  0.10566000000E+00 0.  1.
        994   -1    0    0    0    0 -0.00000000000E+00 -0.00000000000E+00  0.11368683772E-12  0.17120000000E+03  0.17120000000E+03 0.  0.
         13    1    1    2    0    0 -0.74091123996E+00 -0.11751108770E+02  0.44184475598E+02  0.45726541031E+02  0.10566000000E+00 0.  1.
        994    1    1    2    0    0 -0.17669309896E+01  0.98025790782E+01  0.18797325636E+01  0.17149981340E+03  0.17120000000E+03 0.  0.
        998    1    1    2    0    0  0.25078422295E+01  0.19485296918E+01  0.14539357881E+04  0.14539736456E+04  0.10000000000E+02 0.  1.
</event>
<event>
 5    1  0.1303633E-008  0.3773415E+03  0.7957747E-01  0.3462817E+00
         13   -1    0    0    0    0  0.00000000000E+00  0.00000000000E+00  0.14999999963E+04  0.15000000000E+04  0.10566000000E+00 0. -1.
        994   -1    0    0    0    0 -0.00000000000E+00 -0.00000000000E+00  0.11368683772E-12  0.17120000000E+03  0.17120000000E+03 0.  0.
         13    1    1    2    0    0  0.66888352874E+01 -0.65952866299E+02  0.31171505807E+03  0.31868606760E+03  0.10566000000E+00 0. -1.
        994    1    1    2    0    0 -0.37393527633E+02  0.66252183872E+02  0.25256135921E+02  0.18903687518E+03  0.17120000000E+03 0.  0.
        998    1    1    2    0    0  0.30704692346E+02 -0.29931757370E+00  0.11630288023E+04  0.11634770572E+04  0.10000000000E+02 0. -1.
</event>
<event>
 5    1  0.1303633E-008  0.3749514E+03  0.7957747E-01  0.3473440E+00
         13   -1    0    0    0    0  0.00000000000E+00  0.00000000000E+00  0.14999999963E+04  0.15000000000E+04  0.10566000000E+00 0. -1.
        994   -1    0    0    0    0 -0.00000000000E+00 -0.00000000000E+00  0.11368683772E-12  0.17120000000E+03  0.17120000000E+03 0.  0.
         13    1    1    2    0    0  0.15181294413E+03  0.15580918612E+03  0.87779277544E+03  0.90434719011E+03  0.10566000000E+00 0. -1.
        994    1    1    2    0    0 -0.14222573828E+03 -0.17726594776E+03  0.20946702624E+03  0.35332315512E+03  0.17120000000E+03 0.  0.
        998    1    1    2    0    0 -0.95872058433E+01  0.21456761639E+02  0.41274019460E+03  0.41352965477E+03  0.10000000000E+02 0.  0.
</event>
<event>
 5    1  0.1303633E-008  0.3809369E+03  0.7957747E-01  0.3447089E+00
         13   -1    0    0    0    0  0.00000000000E+00  0.00000000000E+00  0.14999999963E+04  0.15000000000E+04  0.10566000000E+00 0.  1.
        994   -1    0    0    0    0 -0.00000000000E+00 -0.00000000000E+00  0.11368683772E-12  0.17120000000E+03  0.17120000000E+03 0.  0.
         13    1    1    2    0    0 -0.10066489010E+03  0.13449042695E+03  0.81178399957E+03  0.82898393722E+03  0.10566000000E+00 0.  1.
        994    1    1    2    0    0  0.14334652074E+03 -0.14227597060E+03  0.15429643458E+03  0.30644331701E+03  0.17120000000E+03 0.  0.
        998    1    1    2    0    0 -0.42681630638E+02  0.77855436560E+01  0.53391956213E+03  0.53577274577E+03  0.10000000000E+02 0. -1.
</event>
<event>
 5    1  0.1303633E-008  0.3834869E+03  0.7957747E-01  0.3436115E+00
         13   -1    0    0    0    0  0.00000000000E+00  0.00000000000E+00  0.14999999963E+04  0.15000000000E+04  0.10566000000E+00 0. -1.
        994   -1    0    0    0    0 -0.00000000000E+00 -0.00000000000E+00  0.11368683772E-12  0.17120000000E+03  0.17120000000E+03 0.  0.
         13    1    1    2    0    0  0.13262520312E+03 -0.17498416905E+03  0.10975674080E+04  0.11193136872E+04  0.10566000000E+00 0. -1.
        994    1    1    2    0    0 -0.13543993576E+03  0.18084708414E+03  0.19490472397E+03  0.34401589421E+03  0.17120000000E+03 0.  0.
        998    1    1    2    0    0  0.28147326374E+01 -0.58629150976E+01  0.20752786427E+03  0.20787041864E+03  0.10000000000E+02 0. -1.
</event>
<event>
 5    1  0.1303633E-008  0.3807246E+03  0.7957747E-01  0.3448010E+00
         13   -1    0    0    0    0  0.00000000000E+00  0.00000000000E+00  0.14999999963E+04  0.15000000000E+04  0.10566000000E+00 0. -1.
        994   -1    0    0    0    0 -0.00000000000E+00 -0.00000000000E+00  0.11368683772E-12  0.17120000000E+03  0.17120000000E+03 0.  0.
         13    1    1    2    0    0 -0.19072982856E+02 -0.43142376076E+01  0.53595512416E+02  0.57051568220E+02  0.10566000000E+00 0. -1.
        994    1    1    2    0    0 -0.28276234462E+01 -0.21157679543E+02  0.52888534778E+01  0.17260664770E+03  0.17120000000E+03 0.  0.
        998    1    1    2    0    0  0.21900606302E+02  0.25471917151E+02  0.14411156304E+04  0.14415417841E+04  0.10000000000E+02 0. -1.
</event>
<event>
 5    1  0.1303633E-008  0.3879105E+03  0.7957747E-01  0.3417422E+00
         13   -1    0    0    0    0  0.00000000000E+00  0.00000000000E+00  0.14999999963E+04  0.15000000000E+04  0.10566000000E+00 0. -1.
        994   -1    0    0    0    0 -0.00000000000E+00 -0.00000000000E+00  0.11368683772E-12  0.17120000000E+03  0.17120000000E+03 0.  0.
         13    1    1    2    0    0  0.98631489056E+02  0.51700899833E+02  0.24949609501E+03  0.27322054510E+03  0.10566000000E+00 0. -1.
        994    1    1    2    0    0 -0.87491489165E+02 -0.58017806806E+02  0.63156387592E+02  0.21052077303E+03  0.17120000000E+03 0.  0.
        998    1    1    2    0    0 -0.11139999891E+02  0.63169069724E+01  0.11873475137E+04  0.11874586819E+04  0.10000000000E+02 0. -1.
</event>
<event>
 5    1  0.1303633E-008  0.3767771E+03  0.7957747E-01  0.3465313E+00
         13   -1    0    0    0    0  0.00000000000E+00  0.00000000000E+00  0.14999999963E+04  0.15000000000E+04  0.10566000000E+00 0.  1.
        994   -1    0    0    0    0 -0.00000000000E+00 -0.00000000000E+00  0.11368683772E-12  0.17120000000E+03  0.17120000000E+03 0.  0.
         13    1    1    2    0    0 -0.15396006290E+02  0.50206416841E+02  0.26781750437E+03  0.27291747491E+03  0.10566000000E+00 0.  1.
        994    1    1    2    0    0 -0.17468134704E+02 -0.20994322439E+02  0.82934052685E+01  0.17356300837E+03  0.17120000000E+03 0.  0.
        998    1    1    2    0    0  0.32864140995E+02 -0.29212094402E+02  0.12238890866E+04  0.12247195167E+04  0.10000000000E+02 0.  1.
</event>
<event>
 5    1  0.1303633E-008  0.3340955E+03  0.7957747E-01  0.3679144E+00
         13   -1    0    0    0    0  0.00000000000E+00  0.00000000000E+00  0.14999999963E+04  0.15000000000E+04  0.10566000000E+00 0. -1.
        994   -1    0    0    0    0 -0.00000000000E+00 -0.00000000000E+00  0.11368683772E-12  0.17120000000E+03  0.17120000000E+03 0.  0.
         13    1    1    2    0    0  0.23648467792E+03  0.12774372285E+03  0.59801118637E+03  0.65563774434E+03  0.10566000000E+00 0. -1.
        994    1    1    2    0    0 -0.28265726127E+03 -0.91988177967E+02  0.48305602574E+03  0.59246056091E+03  0.17120000000E+03 0.  0.
        998    1    1    2    0    0  0.46172583357E+02 -0.35755544880E+02  0.41893278417E+03  0.42310169475E+03  0.10000000000E+02 0. -1.
</event>
<event>
 5    1  0.1303633E-008  0.3928757E+03  0.7957747E-01  0.3396942E+00
         13   -1    0    0    0    0  0.00000000000E+00  0.00000000000E+00  0.14999999963E+04  0.15000000000E+04  0.10566000000E+00 0.  1.
        994   -1    0    0    0    0 -0.00000000000E+00 -0.00000000000E+00  0.11368683772E-12  0.17120000000E+03  0.17120000000E+03 0.  0.
         13    1    1    2    0    0 -0.47782155010E+02 -0.11936857110E+02  0.40034394927E+02  0.63469574099E+02  0.10566000000E+00 0.  1.
        994    1    1    2    0    0  0.56595645165E+02  0.32162366901E+02  0.39894375332E+02  0.18745262356E+03  0.17120000000E+03 0.  0.
        998    1    1    2    0    0 -0.88134901553E+01 -0.20225509791E+02  0.14200712260E+04  0.14202778023E+04  0.10000000000E+02 0.  1.
</event>
<event>
 5    1  0.1303633E-008  0.3698776E+03  0.7957747E-01  0.3496454E+00
         13   -1    0    0    0    0  0.00000000000E+00  0.00000000000E+00  0.14999999963E+04  0.15000000000E+04  0.10566000000E+00 0.  1.
        994   -1    0    0    0    0 -0.00000000000E+00 -0.00000000000E+00  0.11368683772E-12  0.17120000000E+03  0.17120000000E+03 0.  0.
         13    1    1    2    0    0 -0.29803825415E+02  0.16603920942E+02  0.54295582398E+02  0.64124719352E+02  0.10566000000E+00 0.  1.
        994    1    1    2    0    0 -0.16517267021E+02 -0.69849338817E+01  0.11998723495E+02  0.17255439368E+03  0.17120000000E+03 0.  0.
        998    1    1    2    0    0  0.46321092436E+02 -0.96189870603E+01  0.14337056904E+04  0.14345208870E+04  0.10000000000E+02 0.  1.
</event>
<event>
 5    1  0.1303633E-008  0.3803871E+03  0.7957747E-01  0.3449475E+00
         13   -1    0    0    0    0  0.00000000000E+00  0.00000000000E+00  0.14999999963E+04  0.15000000000E+04  0.10566000000E+00 0. -1.
        994   -1    0    0    0    0 -0.00000000000E+00 -0.00000000000E+00  0.11368683772E-12  0.17120000000E+03  0.17120000000E+03 0.  0.
         13    1    1    2    0    0 -0.10629502290E+02 -0.34289176735E+02  0.14908730556E+03  0.15334852397E+03  0.10566000000E+00 0. -1.
        994    1    1    2    0    0  0.84465442066E+01  0.33440035545E+02  0.79196535345E+01  0.17481916656E+03  0.17120000000E+03 0.  0.
        998    1    1    2    0    0  0.21829580838E+01  0.84914118914E+00  0.13429930372E+04  0.13430323095E+04  0.10000000000E+02 0. -1.
</event>
<event>
 5    1  0.1303633E-008  0.3832934E+03  0.7957747E-01  0.3436943E+00
         13   -1    0    0    0    0  0.00000000000E+00  0.00000000000E+00  0.14999999963E+04  0.15000000000E+04  0.10566000000E+00 0.  1.
        994   -1    0    0    0    0 -0.00000000000E+00 -0.00000000000E+00  0.11368683772E-12  0.17120000000E+03  0.17120000000E+03 0.  0.
         13    1    1    2    0    0  0.21468834526E+01 -0.31715520026E+02  0.18929038868E+03  0.19194099544E+03  0.10566000000E+00 0.  1.
        994    1    1    2    0    0 -0.58586594691E+01  0.26173388191E+02  0.48623595343E+01  0.17335643247E+03  0.17120000000E+03 0.  0.
        998    1    1    2    0    0  0.37117760165E+01  0.55421318349E+01  0.13058472481E+04  0.13059025721E+04  0.10000000000E+02 0.  1.
</event>
<event>
 5    1  0.1303633E-008  0.3827100E+03  0.7957747E-01  0.3439443E+00
         13   -1    0    0    0    0  0.00000000000E+00  0.00000000000E+00  0.14999999963E+04  0.15000000000E+04  0.10566000000E+00 0.  1.
        994   -1    0    0    0    0 -0.00000000000E+00 -0.00000000000E+00  0.11368683772E-12  0.17120000000E+03  0.17120000000E+03 0.  0.
         13    1    1    2    0    0  0.14913266887E+01 -0.23339481644E+02  0.93105232410E+02  0.95997661039E+02  0.10566000000E+00 0.  1.
        994    1    1    2    0    0  0.94613960084E+01  0.23740471049E+02  0.49383480805E+01  0.17316741975E+03  0.17120000000E+03 0.  0.
        998    1    1    2    0    0 -0.10952722697E+02 -0.40098940486E+00  0.14019564158E+04  0.14020349192E+04  0.10000000000E+02 0.  1.
</event>
<event>
 5    1  0.1303633E-008  0.3826887E+03  0.7957747E-01  0.3439534E+00
         13   -1    0    0    0    0  0.00000000000E+00  0.00000000000E+00  0.14999999963E+04  0.15000000000E+04  0.10566000000E+00 0. -1.
        994   -1    0    0    0    0 -0.00000000000E+00 -0.00000000000E+00  0.11368683772E-12  0.17120000000E+03  0.17120000000E+03 0.  0.
         13    1    1    2    0    0  0.12711299527E+02 -0.35651872078E+01  0.29592780175E+02  0.32404189513E+02  0.10566000000E+00 0. -1.
        994    1    1    2    0    0 -0.15556402179E+02  0.45204788701E+01  0.36520939707E+01  0.17200352952E+03  0.17120000000E+03 0.  0.
        998    1    1    2    0    0  0.28451026517E+01 -0.95529166225E+00  0.14667551221E+04  0.14667922810E+04  0.10000000000E+02 0. -1.
</event>
<event>
 5    1  0.1303633E-008  0.3806078E+03  0.7957747E-01  0.3448516E+00
         13   -1    0    0    0    0  0.00000000000E+00  0.00000000000E+00  0.14999999963E+04  0.15000000000E+04  0.10566000000E+00 0.  1.
        994   -1    0    0    0    0 -0.00000000000E+00 -0.00000000000E+00  0.11368683772E-12  0.17120000000E+03  0.17120000000E+03 0.  0.
         13    1    1    2    0    0  0.17193601690E+02  0.11075189649E+02  0.55157559897E+02  0.58827267000E+02  0.10566000000E+00 0.  1.
        994    1    1    2    0    0 -0.34423911443E+01 -0.32130300511E+01  0.39006226352E+01  0.17130916051E+03  0.17120000000E+03 0.  0.
        998    1    1    2    0    0 -0.13751210546E+02 -0.78621595980E+01  0.14409418137E+04  0.14410635725E+04  0.10000000000E+02 0.  1.
</event>
<event>
 5    1  0.1303633E-008  0.3808154E+03  0.7957747E-01  0.3447616E+00
         13   -1    0    0    0    0  0.00000000000E+00  0.00000000000E+00  0.14999999963E+04  0.15000000000E+04  0.10566000000E+00 0. -1.
        994   -1    0    0    0    0 -0.00000000000E+00 -0.00000000000E+00  0.11368683772E-12  0.17120000000E+03  0.17120000000E+03 0.  0.
         13    1    1    2    0    0  0.11570483350E+02  0.82287627516E+00  0.16959714734E+02  0.20547415852E+02  0.10566000000E+00 0. -1.
        994    1    1    2    0    0  0.12839787653E+01  0.87778553239E+01  0.39845080570E+01  0.17147599147E+03  0.17120000000E+03 0.  0.
        998    1    1    2    0    0 -0.12854462115E+02 -0.96007315990E+01  0.14790557735E+04  0.14791765927E+04  0.10000000000E+02 0. -1.
</event>
<event>
 5    1  0.1303633E-008  0.3735662E+03  0.7957747E-01  0.3479660E+00
         13   -1    0    0    0    0  0.00000000000E+00  0.00000000000E+00  0.14999999963E+04  0.15000000000E+04  0.10566000000E+00 0.  1.
        994   -1    0    0    0    0 -0.00000000000E+00 -0.00000000000E+00  0.11368683772E-12  0.17120000000E+03  0.17120000000E+03 0.  0.
         13    1    1    2    0    0 -0.66415901070E+00  0.43514381190E+02  0.11405659255E+03  0.12207727039E+03  0.10566000000E+00 0.  1.
        994    1    1    2    0    0  0.36530129559E+01 -0.47880079420E+02  0.15334240051E+02  0.17846687487E+03  0.17120000000E+03 0.  0.
        998    1    1    2    0    0 -0.29888539453E+01  0.43656982302E+01  0.13706091637E+04  0.13706558547E+04  0.10000000000E+02 0.  1.
</event>
<event>
 5    1  0.1303633E-008  0.3850603E+03  0.7957747E-01  0.3429416E+00
         13   -1    0    0    0    0  0.00000000000E+00  0.00000000000E+00  0.14999999963E+04  0.15000000000E+04  0.10566000000E+00 0. -1.
        994   -1    0    0    0    0 -0.00000000000E+00 -0.00000000000E+00  0.11368683772E-12  0.17120000000E+03  0.17120000000E+03 0.  0.
         13    1    1    2    0    0  0.13359313446E+02 -0.11366838401E+02  0.88903995730E+02  0.90617922575E+02  0.10566000000E+00 0. -1.
        994    1    1    2    0    0 -0.11160644159E+02  0.21095027218E+02  0.34751359836E+01  0.17289036041E+03  0.17120000000E+03 0.  0.
        998    1    1    2    0    0 -0.21986692864E+01 -0.97281888169E+01  0.14076208646E+04  0.14076917170E+04  0.10000000000E+02 0. -1.
</event>
<event>
 5    1  0.1303633E-008  0.3827646E+03  0.7957747E-01  0.3439209E+00
         13   -1    0    0    0    0  0.00000000000E+00  0.00000000000E+00  0.14999999963E+04  0.15000000000E+04  0.10566000000E+00 0.  1.
        994   -1    0    0    0    0 -0.00000000000E+00 -0.00000000000E+00  0.11368683772E-12  0.17120000000E+03  0.17120000000E+03 0.  0.
         13    1    1    2    0    0  0.11465716313E+02  0.64461119921E+01  0.29798438132E+02  0.32572581867E+02  0.10566000000E+00 0.  1.
        994    1    1    2    0    0 -0.13067524416E+02 -0.98597234131E+01  0.36322880318E+01  0.17201920781E+03  0.17120000000E+03 0.  0.
        998    1    1    2    0    0  0.16018081028E+01  0.34136114209E+01  0.14665692701E+04  0.14666082103E+04  0.10000000000E+02 0.  1.
</event>
<event>
 5    1  0.1303633E-008  0.3727062E+03  0.7957747E-01  0.3483545E+00
         13   -1    0    0    0    0  0.00000000000E+00  0.00000000000E+00  0.14999999963E+04  0.15000000000E+04  0.10566000000E+00 0.  1.
        994   -1    0    0    0    0 -0.00000000000E+00 -0.00000000000E+00  0.11368683772E-12  0.17120000000E+03  0.17120000000E+03 0.  0.
         13    1    1    2    0    0  0.92139025127E+02 -0.24683121213E+01  0.47878324687E+03  0.48757471342E+03  0.10566000000E+00 0.  1.
        994    1    1    2    0    0 -0.67658952113E+02 -0.25751138131E+02  0.26034013162E+02  0.18769140832E+03  0.17120000000E+03 0.  0.
        998    1    1    2    0    0 -0.24480073014E+02  0.28219450252E+02  0.99518273625E+03  0.99593387826E+03  0.10000000000E+02 0.  1.
</event>
<event>
 5    1  0.1303633E-008  0.3691633E+03  0.7957747E-01  0.3499745E+00
         13   -1    0    0    0    0  0.00000000000E+00  0.00000000000E+00  0.14999999963E+04  0.15000000000E+04  0.10566000000E+00 0. -1.
        994   -1    0    0    0    0 -0.00000000000E+00 -0.00000000000E+00  0.11368683772E-12  0.17120000000E+03  0.17120000000E+03 0.  0.
         13    1    1    2    0    0 -0.64076141567E+02 -0.10890075139E+02  0.18115404963E+03  0.19246076618E+03  0.10566000000E+00 0. -1.
        994    1    1    2    0    0  0.56943188467E+02  0.83198621624E+01  0.22131717538E+02  0.18196428150E+03  0.17120000000E+03 0.  0.
        998    1    1    2    0    0  0.71329530995E+01  0.25702129764E+01  0.12967142291E+04  0.12967749523E+04  0.10000000000E+02 0. -1.
</event>
<event>
 5    1  0.1303633E-008  0.3778359E+03  0.7957747E-01  0.3460636E+00
         13   -1    0    0    0    0  0.00000000000E+00  0.00000000000E+00  0.14999999963E+04  0.15000000000E+04  0.10566000000E+00 0. -1.
        994   -1    0    0    0    0 -0.00000000000E+00 -0.00000000000E+00  0.11368683772E-12  0.17120000000E+03  0.17120000000E+03 0.  0.
         13    1    1    2    0    0 -0.13011790053E+03  0.70190219919E+02  0.77789309242E+03  0.79181753542E+03  0.10566000000E+00 0. -1.
        994    1    1    2    0    0  0.14519991421E+03 -0.61328665828E+02  0.94039935613E+02  0.25099237006E+03  0.17120000000E+03 0.  0.
        998    1    1    2    0    0 -0.15082013682E+02 -0.88615540905E+01  0.62806696825E+03  0.62839009451E+03  0.10000000000E+02 0. -1.
</event>
<event>
 5    1  0.1303633E-008  0.3816699E+03  0.7957747E-01  0.3443919E+00
         13   -1    0    0    0    0  0.00000000000E+00  0.00000000000E+00  0.14999999963E+04  0.15000000000E+04  0.10566000000E+00 0. -1.
        994   -1    0    0    0    0 -0.00000000000E+00 -0.00000000000E+00  0.11368683772E-12  0.17120000000E+03  0.17120000000E+03 0.  0.
         13    1    1    2    0    0  0.70719196986E+01  0.15202372881E+02  0.39786044009E+02  0.43174815012E+02  0.10566000000E+00 0. -1.
        994    1    1    2    0    0 -0.18520791928E+02 -0.16310576239E+02  0.53200305368E+01  0.17305142980E+03  0.17120000000E+03 0.  0.
        998    1    1    2    0    0  0.11448872230E+02  0.11082033587E+01  0.14548939217E+04  0.14549737552E+04  0.10000000000E+02 0. -1.
</event>
<event>
 5    1  0.1303633E-008  0.4396164E+03  0.7957747E-01  0.3226632E+00
         13   -1    0    0    0    0  0.00000000000E+00  0.00000000000E+00  0.14999999963E+04  0.15000000000E+04  0.10566000000E+00 0. -1.
        994   -1    0    0    0    0 -0.00000000000E+00 -0.00000000000E+00  0.11368683772E-12  0.17120000000E+03  0.17120000000E+03 0.  0.
         13    1    1    2    0    0  0.76828062492E+02  0.12538705636E+02  0.38227659162E+02  0.86724479903E+02  0.10566000000E+00 0. -1.
        994    1    1    2    0    0 -0.75231034379E+02 -0.11267848579E+02  0.81723512630E+02  0.20438895631E+03  0.17120000000E+03 0.  0.
        998    1    1    2    0    0 -0.15970281130E+01 -0.12708570567E+01  0.13800488245E+04  0.13800865638E+04  0.10000000000E+02 0. -1.
</event>
<event>
 5    1  0.1303633E-008  0.3818871E+03  0.7957747E-01  0.3442983E+00
         13   -1    0    0    0    0  0.00000000000E+00  0.00000000000E+00  0.14999999963E+04  0.15000000000E+04  0.10566000000E+00 0. -1.
        994   -1    0    0    0    0 -0.00000000000E+00 -0.00000000000E+00  0.11368683772E-12  0.17120000000E+03  0.17120000000E+03 0.  0.
         13    1    1    2    0    0 -0.29177288453E+02 -0.14225670663E+02  0.15869889060E+03  0.16198466875E+03  0.10566000000E+00 0. -1.
        994    1    1    2    0    0  0.27011625793E+02 -0.18365529099E+00  0.56114180846E+01  0.17340873585E+03  0.17120000000E+03 0.  0.
        998    1    1    2    0    0  0.21656626598E+01  0.14409325954E+02  0.13356896876E+04  0.13358065954E+04  0.10000000000E+02 0.  0.
</event>
<event>
 5    1  0.1303633E-008  0.3859448E+03  0.7957747E-01  0.3425675E+00
         13   -1    0    0    0    0  0.00000000000E+00  0.00000000000E+00  0.14999999963E+04  0.15000000000E+04  0.10566000000E+00 0.  1.
        994   -1    0    0    0    0 -0.00000000000E+00 -0.00000000000E+00  0.11368683772E-12  0.17120000000E+03  0.17120000000E+03 0.  0.
         13    1    1    2    0    0  0.35651769103E+01  0.12980747982E+02  0.77670142454E+02  0.78828119967E+02  0.10566000000E+00 0.  1.
        994    1    1    2    0    0 -0.18403292579E+01 -0.10539586166E+02  0.15371864802E+01  0.17154087743E+03  0.17120000000E+03 0.  0.
        998    1    1    2    0    0 -0.17248476524E+01 -0.24411618163E+01  0.14207926673E+04  0.14208310026E+04  0.10000000000E+02 0.  1.
</event>
<event>
 5    1  0.1303633E-008  0.3693679E+03  0.7957747E-01  0.3498801E+00
         13   -1    0    0    0    0  0.00000000000E+00  0.00000000000E+00  0.14999999963E+04  0.15000000000E+04  0.10566000000E+00 0. -1.
        994   -1    0    0    0    0 -0.00000000000E+00 -0.00000000000E+00  0.11368683772E-12  0.17120000000E+03  0.17120000000E+03 0.  0.
         13    1    1    2    0    0  0.45878770606E+02 -0.27810150066E+02  0.12860248237E+03  0.13934444975E+03  0.10566000000E+00 0. -1.
        994    1    1    2    0    0 -0.33535098685E+02  0.21686996843E+02  0.16189144174E+02  0.17654024206E+03  0.17120000000E+03 0.  0.
        998    1    1    2    0    0 -0.12343671921E+02  0.61231532230E+01  0.13552083697E+04  0.13553153082E+04  0.10000000000E+02 0. -1.
</event>
<event>
 5    1  0.1303633E-008  0.3838038E+03  0.7957747E-01  0.3434761E+00
         13   -1    0    0    0    0  0.00000000000E+00  0.00000000000E+00  0.14999999963E+04  0.15000000000E+04  0.10566000000E+00 0. -1.
        994   -1    0    0    0    0 -0.00000000000E+00 -0.00000000000E+00  0.11368683772E-12  0.17120000000E+03  0.17120000000E+03 0.  0.
         13    1    1    2    0    0 -0.17627806700E+02 -0.12122627482E+02  0.98767390178E+02  0.10105793483E+03  0.10566000000E+00 0. -1.
        994    1    1    2    0    0  0.11986893909E+02  0.15634780188E+02  0.35076364698E+01  0.17236552872E+03  0.17120000000E+03 0.  0.
        998    1    1    2    0    0  0.56409127904E+01 -0.35121527067E+01  0.13977249696E+04  0.13977765364E+04  0.10000000000E+02 0. -1.
</event>
<event>
 5    1  0.1303633E-008  0.3686490E+03  0.7957747E-01  0.3502123E+00
         13   -1    0    0    0    0  0.00000000000E+00  0.00000000000E+00  0.14999999963E+04  0.15000000000E+04  0.10566000000E+00 0.  1.
        994   -1    0    0    0    0 -0.00000000000E+00 -0.00000000000E+00  0.11368683772E-12  0.17120000000E+03  0.17120000000E+03 0.  0.
         13    1    1    2    0    0 -0.10692876936E+02 -0.22286276478E+02  0.26707465453E+02  0.36391147431E+02  0.10566000000E+00 0.  1.
        994    1    1    2    0    0  0.97048590284E+01  0.10912265058E+02  0.10718106593E+02  0.17215568427E+03  0.17120000000E+03 0.  0.
        998    1    1    2    0    0  0.98801790796E+00  0.11374011420E+02  0.14625744242E+04  0.14626531683E+04  0.10000000000E+02 0.  1.
</event>
<event>
 5    1  0.1303633E-008  0.3688012E+03  0.7957747E-01  0.3501418E+00
         13   -1    0    0    0    0  0.00000000000E+00  0.00000000000E+00  0.14999999963E+04  0.15000000000E+04  0.10566000000E+00 0. -1.
        994   -1    0    0    0    0 -0.00000000000E+00 -0.00000000000E+00  0.11368683772E-12  0.17120000000E+03  0.17120000000E+03 0.  0.
         13    1    1    2    0    0  0.11315566703E+02 -0.58529332409E+01  0.37907485485E+01  0.13292095995E+02  0.10566000000E+00 0. -1.
        994    1    1    2    0    0 -0.11718114504E+01 -0.80832132724E+01  0.10128692709E+02  0.17169374448E+03  0.17120000000E+03 0.  0.
        998    1    1    2    0    0 -0.10143755253E+02  0.13936146513E+02  0.14860805550E+04  0.14862141595E+04  0.10000000000E+02 0. -1.
</event>
<event>
 5    1  0.1303633E-008  0.3807292E+03  0.7957747E-01  0.3447989E+00
         13   -1    0    0    0    0  0.00000000000E+00  0.00000000000E+00  0.14999999963E+04  0.15000000000E+04  0.10566000000E+00 0. -1.
        994   -1    0    0    0    0 -0.00000000000E+00 -0.00000000000E+00  0.11368683772E-12  0.17120000000E+03  0.17120000000E+03 0.  0.
         13    1    1    2    0    0  0.11852229592E+02 -0.45425503252E+02  0.27247368144E+03  0.27648846257E+03  0.10566000000E+00 0. -1.
        994    1    1    2    0    0 -0.20526868694E+02  0.30223201764E+02  0.82296896884E+01  0.17524828688E+03  0.17120000000E+03 0.  0.
        998    1    1    2    0    0  0.86746391019E+01  0.15202301488E+02  0.12192966251E+04  0.12194632505E+04  0.10000000000E+02 0. -1.
</event>
<event>
 5    1  0.1303633E-008  0.3707940E+03  0.7957747E-01  0.3492250E+00
         13   -1    0    0    0    0  0.00000000000E+00  0.00000000000E+00  0.14999999963E+04  0.15000000000E+04  0.10566000000E+00 0. -1.
        994   -1    0    0    0    0 -0.00000000000E+00 -0.00000000000E+00  0.11368683772E-12  0.17120000000E+03  0.17120000000E+03 0.  0.
         13    1    1    2    0    0  0.35384314988E+01  0.12994766450E+02  0.26258499113E+01  0.13721906003E+02  0.10566000000E+00 0. -1.
        994    1    1    2    0    0 -0.72284535665E+01 -0.20559107455E+02  0.13025960630E+02  0.17307236374E+03  0.17120000000E+03 0.  0.
        998    1    1    2    0    0  0.36900220676E+01  0.75643410049E+01  0.14843481857E+04  0.14844057303E+04  0.10000000000E+02 0. -1.
</event>
<event>
 5    1  0.1303633E-008  0.3722855E+03  0.7957747E-01  0.3485453E+00
         13   -1    0    0    0    0  0.00000000000E+00  0.00000000000E+00  0.14999999963E+04  0.15000000000E+04  0.10566000000E+00 0.  1.
        994   -1    0    0    0    0 -0.00000000000E+00 -0.00000000000E+00  0.11368683772E-12  0.17120000000E+03  0.17120000000E+03 0.  0.
         13    1    1    2    0    0 -0.16448186770E+02  0.23979980763E+02  0.30554213971E+02  0.42180012812E+02  0.10566000000E+00 0.  1.
        994    1    1    2    0    0 -0.11358589492E+02 -0.21061454236E+02  0.14172981297E+02  0.17344427292E+03  0.17120000000E+03 0.  0.
        998    1    1    2    0    0  0.27806776262E+02 -0.29185265271E+01  0.14552728010E+04  0.14555757143E+04  0.10000000000E+02 0.  1.
</event>
<event>
 5    1  0.1303633E-008  0.3759716E+03  0.7957747E-01  0.3468889E+00
         13   -1    0    0    0    0  0.00000000000E+00  0.00000000000E+00  0.14999999963E+04  0.15000000000E+04  0.10566000000E+00 0.  1.
        994   -1    0    0    0    0 -0.00000000000E+00 -0.00000000000E+00  0.11368683772E-12  0.17120000000E+03  0.17120000000E+03 0.  0.
         13    1    1    2    0    0 -0.14899736619E+02 -0.63457558251E+01  0.18953528491E+02  0.24930266236E+02  0.10566000000E+00 0.  1.
        994    1    1    2    0    0  0.86566998705E+01 -0.13739668386E+02  0.70746531374E+01  0.17211393801E+03  0.17120000000E+03 0.  0.
        998    1    1    2    0    0  0.62430367486E+01  0.20085424211E+02  0.14739718147E+04  0.14741557958E+04  0.10000000000E+02 0.  1.
</event>
<event>
 5    1  0.1303633E-008  0.3858706E+03  0.7957747E-01  0.3425988E+00
         13   -1    0    0    0    0  0.00000000000E+00  0.00000000000E+00  0.14999999963E+04  0.15000000000E+04  0.10566000000E+00 0. -1.
        994   -1    0    0    0    0 -0.00000000000E+00 -0.00000000000E+00  0.11368683772E-12  0.17120000000E+03  0.17120000000E+03 0.  0.
         13    1    1    2    0    0 -0.20287018798E+01 -0.11104140831E+02  0.51800522822E+02  0.53016251315E+02  0.10566000000E+00 0. -1.
        994    1    1    2    0    0  0.24308789460E+01  0.12794398656E+02  0.17549334506E+01  0.17170359810E+03  0.17120000000E+03 0.  0.
        998    1    1    2    0    0 -0.40217706622E+00 -0.16902578253E+01  0.14464445400E+04  0.14464801506E+04  0.10000000000E+02 0. -1.
</event>
<event>
 5    1  0.1303633E-008  0.3746835E+03  0.7957747E-01  0.3474639E+00
         13   -1    0    0    0    0  0.00000000000E+00  0.00000000000E+00  0.14999999963E+04  0.15000000000E+04  0.10566000000E+00 0.  1.
        994   -1    0    0    0    0 -0.00000000000E+00 -0.00000000000E+00  0.11368683772E-12  0.17120000000E+03  0.17120000000E+03 0.  0.
         13    1    1    2    0    0 -0.15296997451E+02  0.14790566074E+02  0.10884945465E+02  0.23900882361E+02  0.10566000000E+00 0.  1.
        994    1    1    2    0    0  0.14367019015E+02 -0.13357357816E+02  0.14805998207E+02  0.17295516132E+03  0.17120000000E+03 0.  0.
        998    1    1    2    0    0  0.92997843656E+00 -0.14332082582E+01  0.14743090526E+04  0.14743439563E+04  0.10000000000E+02 0.  1.
</event>
<event>
 5    1  0.1303633E-008  0.3783038E+03  0.7957747E-01  0.3458577E+00
         13   -1    0    0    0    0  0.00000000000E+00  0.00000000000E+00  0.14999999963E+04  0.15000000000E+04  0.10566000000E+00 0. -1.
        994   -1    0    0    0    0 -0.00000000000E+00 -0.00000000000E+00  0.11368683772E-12  0.17120000000E+03  0.17120000000E+03 0.  0.
         13    1    1    2    0    0 -0.18350732241E+01 -0.15683591230E+02  0.22780845491E+02  0.27718596879E+02  0.10566000000E+00 0. -1.
        994    1    1    2    0    0  0.73332316167E+00  0.12732872227E+02  0.55388327157E+01  0.17176374025E+03  0.17120000000E+03 0.  0.
        998    1    1    2    0    0  0.11017500624E+01  0.29507190033E+01  0.14716803181E+04  0.14717176629E+04  0.10000000000E+02 0. -1.
</event>
<event>
 5    1  0.1303633E-008  0.3845654E+03  0.7957747E-01  0.3431518E+00
         13   -1    0    0    0    0  0.00000000000E+00  0.00000000000E+00  0.14999999963E+04  0.15000000000E+04  0.10566000000E+00 0. -1.
        994   -1    0    0    0    0 -0.00000000000E+00 -0.00000000000E+00  0.11368683772E-12  0.17120000000E+03  0.17120000000E+03 0.  0.
         13    1    1    2    0    0  0.80279270264E+01 -0.15295193977E+02  0.90202686670E+02  0.91841855478E+02  0.10566000000E+00 0. -1.
        994    1    1    2    0    0  0.13941090568E+01 -0.43417298995E+01  0.19145598629E+01  0.17127142114E+03  0.17120000000E+03 0.  0.
        998    1    1    2    0    0 -0.94220360832E+01  0.19636923876E+02  0.14078827497E+04  0.14080867234E+04  0.10000000000E+02 0. -1.
</event>
<event>
 5    1  0.1303633E-008  0.3821668E+03  0.7957747E-01  0.3441778E+00
         13   -1    0    0    0    0  0.00000000000E+00  0.00000000000E+00  0.14999999963E+04  0.15000000000E+04  0.10566000000E+00 0. -1.
        994   -1    0    0    0    0 -0.00000000000E+00 -0.00000000000E+00  0.11368683772E-12  0.17120000000E+03  0.17120000000E+03 0.  0.
         13    1    1    2    0    0  0.10453611375E+02 -0.38844514363E+00  0.17045659461E+02  0.19999863772E+02  0.10566000000E+00 0. -1.
        994    1    1    2    0    0 -0.14023384552E+01 -0.49239098878E+01  0.31303413289E+01  0.17130513851E+03  0.17120000000E+03 0.  0.
        998    1    1    2    0    0 -0.90512729201E+01  0.53123550314E+01  0.14798239955E+04  0.14798949977E+04  0.10000000000E+02 0. -1.
</event>
<event>
 5    1  0.1303633E-008  0.3779256E+03  0.7957747E-01  0.3460241E+00
         13   -1    0    0    0    0  0.00000000000E+00  0.00000000000E+00  0.14999999963E+04  0.15000000000E+04  0.10566000000E+00 0.  1.
        994   -1    0    0    0    0 -0.00000000000E+00 -0.00000000000E+00  0.11368683772E-12  0.17120000000E+03  0.17120000000E+03 0.  0.
         13    1    1    2    0    0  0.31787707859E+01  0.18315114580E+02  0.30713523716E+02  0.35900970863E+02  0.10566000000E+00 0.  1.
        994    1    1    2    0    0 -0.41129374703E+01 -0.17906128314E+02  0.63209605843E+01  0.17229898499E+03  0.17120000000E+03 0.  0.
        998    1    1    2    0    0  0.93416668442E+00 -0.40898626645E+00  0.14629655120E+04  0.14630000441E+04  0.10000000000E+02 0.  1.
</event>
<event>
 5    1  0.1303633E-008  0.3822668E+03  0.7957747E-01  0.3441347E+00
         13   -1    0    0    0    0  0.00000000000E+00  0.00000000000E+00  0.14999999963E+04  0.15000000000E+04  0.10566000000E+00 0.  1.
        994   -1    0    0    0    0 -0.00000000000E+00 -0.00000000000E+00  0.11368683772E-12  0.17120000000E+03  0.17120000000E+03 0.  0.
         13    1    1    2    0    0  0.83061475652E+01 -0.15740670811E+02  0.51322705782E+02  0.54321193818E+02  0.10566000000E+00 0.  1.
        994    1    1    2    0    0 -0.67576349623E+01  0.12669689182E+02  0.36776626535E+01  0.17184048375E+03  0.17120000000E+03 0.  0.
        998    1    1    2    0    0 -0.15485126028E+01  0.30709816295E+01  0.14449996278E+04  0.14450383224E+04  0.10000000000E+02 0.  1.
</event>
<event>
 5    1  0.1303633E-008  0.3846578E+03  0.7957747E-01  0.3431125E+00
         13   -1    0    0    0    0  0.00000000000E+00  0.00000000000E+00  0.14999999963E+04  0.15000000000E+04  0.10566000000E+00 0. -1.
        994   -1    0    0    0    0 -0.00000000000E+00 -0.00000000000E+00  0.11368683772E-12  0.17120000000E+03  0.17120000000E+03 0.  0.
         13    1    1    2    0    0  0.10152493726E+02 -0.23819811650E+01  0.31098498982E+02  0.32800529967E+02  0.10566000000E+00 0. -1.
        994    1    1    2    0    0  0.28664378305E+01  0.14744910810E+01  0.18343209796E+01  0.17124016854E+03  0.17120000000E+03 0.  0.
        998    1    1    2    0    0 -0.13018931557E+02  0.90749008401E+00  0.14670671763E+04  0.14671593015E+04  0.10000000000E+02 0. -1.
</event>
<event>
 5    1  0.2361074E-008  0.3864722E+03  0.7957747E-01  0.3423452E+00
         13   -1    0    0    0    0  0.00000000000E+00  0.00000000000E+00  0.14999999963E+04  0.15000000000E+04  0.10566000000E+00 0. -1.
        994   -1    0    0    0    0 -0.00000000000E+00 -0.00000000000E+00  0.11368683772E-12  0.17120000000E+03  0.17120000000E+03 0.  0.
         13    1    1    2    0    0 -0.74357961957E+01  0.68694666656E+01  0.56710419108E+02  0.57606973856E+02  0.10566000000E+00 0. -1.
        994    1    1    2    0    0  0.52056338174E+01 -0.89317814826E+01  0.12508358872E+01  0.17151641302E+03  0.17120000000E+03 0.  0.
        998    1    1    2    0    0  0.22301623783E+01  0.20623148171E+01  0.14420387413E+04  0.14420766131E+04  0.10000000000E+02 0. -1.
</event>
<event>
 5    1  0.1303633E-008  0.3846530E+03  0.7957747E-01  0.3431145E+00
         13   -1    0    0    0    0  0.00000000000E+00  0.00000000000E+00  0.14999999963E+04  0.15000000000E+04  0.10566000000E+00 0. -1.
        994   -1    0    0    0    0 -0.00000000000E+00 -0.00000000000E+00  0.11368683772E-12  0.17120000000E+03  0.17120000000E+03 0.  0.
         13    1    1    2    0    0  0.12341214410E+02  0.81436181012E+01  0.61287371856E+02  0.63045834136E+02  0.10566000000E+00 0. -1.
        994    1    1    2    0    0 -0.38030513799E+01 -0.78444734988E+01  0.20527691867E+01  0.17143410637E+03  0.17120000000E+03 0.  0.
        998    1    1    2    0    0 -0.85381630305E+01 -0.29914460234E+00  0.14366598552E+04  0.14367200595E+04  0.10000000000E+02 0. -1.
</event>
<event>
 5    1  0.1303633E-008  0.3836662E+03  0.7957747E-01  0.3435349E+00
         13   -1    0    0    0    0  0.00000000000E+00  0.00000000000E+00  0.14999999963E+04  0.15000000000E+04  0.10566000000E+00 0.  1.
        994   -1    0    0    0    0 -0.00000000000E+00 -0.00000000000E+00  0.11368683772E-12  0.17120000000E+03  0.17120000000E+03 0.  0.
         13    1    1    2    0    0  0.11602914325E+02 -0.67948787410E+01  0.38329183905E+02  0.40619398085E+02  0.10566000000E+00 0.  1.
        994    1    1    2    0    0 -0.88273585848E+01  0.82543729462E+01  0.27763454455E+01  0.17164849264E+03  0.17120000000E+03 0.  0.
        998    1    1    2    0    0 -0.27755557405E+01 -0.14594942052E+01  0.14588944669E+04  0.14589321093E+04  0.10000000000E+02 0.  1.
</event>
<event>
 5    1  0.1303633E-008  0.3711793E+03  0.7957747E-01  0.3490488E+00
         13   -1    0    0    0    0  0.00000000000E+00  0.00000000000E+00  0.14999999963E+04  0.15000000000E+04  0.10566000000E+00 0. -1.
        994   -1    0    0    0    0 -0.00000000000E+00 -0.00000000000E+00  0.11368683772E-12  0.17120000000E+03  0.17120000000E+03 0.  0.
         13    1    1    2    0    0 -0.29261907952E+02  0.36280240960E+02  0.10592976888E+03  0.11573090443E+03  0.10566000000E+00 0. -1.
        994    1    1    2    0    0 -0.45862719178E+02 -0.16453823729E+02  0.19945007139E+02  0.17911270372E+03  0.17120000000E+03 0.  0.
        998    1    1    2    0    0  0.75124627130E+02 -0.19826417231E+02  0.13741252203E+04  0.13763563918E+04  0.10000000000E+02 0. -1.
</event>
<event>
 5    1  0.1303633E-008  0.3708864E+03  0.7957747E-01  0.3491827E+00
         13   -1    0    0    0    0  0.00000000000E+00  0.00000000000E+00  0.14999999963E+04  0.15000000000E+04  0.10566000000E+00 0. -1.
        994   -1    0    0    0    0 -0.00000000000E+00 -0.00000000000E+00  0.11368683772E-12  0.17120000000E+03  0.17120000000E+03 0.  0.
         13    1    1    2    0    0 -0.36989156429E+02  0.76047640628E+02  0.29203853598E+03  0.30403611463E+03  0.10566000000E+00 0. -1.
        994    1    1    2    0    0  0.34484475068E+02 -0.49373507711E+02  0.24238146653E+02  0.18309519392E+03  0.17120000000E+03 0.  0.
        998    1    1    2    0    0  0.25046813619E+01 -0.26674132917E+02  0.11837233136E+04  0.11840686914E+04  0.10000000000E+02 0. -1.
</event>
<event>
 5    1  0.1303633E-008  0.3785992E+03  0.7957747E-01  0.3457280E+00
         13   -1    0    0    0    0  0.00000000000E+00  0.00000000000E+00  0.14999999963E+04  0.15000000000E+04  0.10566000000E+00 0.  1.
        994   -1    0    0    0    0 -0.00000000000E+00 -0.00000000000E+00  0.11368683772E-12  0.17120000000E+03  0.17120000000E+03 0.  0.
         13    1    1    2    0    0  0.99887708291E+01 -0.11926511514E+01 -0.40812078582E+01  0.10856582384E+02  0.10566000000E+00 0.  1.
        994    1    1    2    0    0 -0.20591222836E+02 -0.20941282084E+01  0.17105744601E+02  0.17329290329E+03  0.17120000000E+03 0.  0.
        998    1    1    2    0    0  0.10602452007E+02  0.32867793598E+01  0.14869754595E+04  0.14870505143E+04  0.10000000000E+02 0.  1.
</event>
<event>
 5    1  0.1303633E-008  0.3749230E+03  0.7957747E-01  0.3473567E+00
         13   -1    0    0    0    0  0.00000000000E+00  0.00000000000E+00  0.14999999963E+04  0.15000000000E+04  0.10566000000E+00 0. -1.
        994   -1    0    0    0    0 -0.00000000000E+00 -0.00000000000E+00  0.11368683772E-12  0.17120000000E+03  0.17120000000E+03 0.  0.
         13    1    1    2    0    0 -0.11298046130E+03  0.10868516202E+03  0.54788280761E+03  0.56987071439E+03  0.10566000000E+00 0. -1.
        994    1    1    2    0    0  0.11766403985E+03 -0.97940441024E+02  0.10237979065E+03  0.25145221772E+03  0.17120000000E+03 0.  0.
        998    1    1    2    0    0 -0.46835785528E+01 -0.10744720994E+02  0.84973739801E+03  0.84987706789E+03  0.10000000000E+02 0. -1.
</event>
<event>
 5    1  0.1303633E-008  0.3798022E+03  0.7957747E-01  0.3452020E+00
         13   -1    0    0    0    0  0.00000000000E+00  0.00000000000E+00  0.14999999963E+04  0.15000000000E+04  0.10566000000E+00 0. -1.
        994   -1    0    0    0    0 -0.00000000000E+00 -0.00000000000E+00  0.11368683772E-12  0.17120000000E+03  0.17120000000E+03 0.  0.
         13    1    1    2    0    0  0.13952054858E+02  0.22234438232E+01  0.21628573409E+02  0.25834277403E+02  0.10566000000E+00 0. -1.
        994    1    1    2    0    0 -0.13428775097E+02  0.73311134728E+00  0.48382618916E+01  0.17179557105E+03  0.17120000000E+03 0.  0.
        998    1    1    2    0    0 -0.52327976123E+00 -0.29565551705E+01  0.14735331610E+04  0.14735701516E+04  0.10000000000E+02 0. -1.
</event>
<event>
 5    1  0.1303633E-008  0.3836526E+03  0.7957747E-01  0.3435407E+00
         13   -1    0    0    0    0  0.00000000000E+00  0.00000000000E+00  0.14999999963E+04  0.15000000000E+04  0.10566000000E+00 0.  1.
        994   -1    0    0    0    0 -0.00000000000E+00 -0.00000000000E+00  0.11368683772E-12  0.17120000000E+03  0.17120000000E+03 0.  0.
         13    1    1    2    0    0  0.23351001620E+01  0.19516578483E+02  0.90171360211E+02  0.92288866581E+02  0.10566000000E+00 0.  1.
        994    1    1    2    0    0 -0.88288839396E+01  0.59010175681E+00  0.25592635201E+01  0.17144762244E+03  0.17120000000E+03 0.  0.
        998    1    1    2    0    0  0.64937837776E+01 -0.20106680240E+02  0.14072693725E+04  0.14074635110E+04  0.10000000000E+02 0.  1.
</event>
<event>
 5    1  0.1303633E-008  0.3852918E+03  0.7957747E-01  0.3428436E+00
         13   -1    0    0    0    0  0.00000000000E+00  0.00000000000E+00  0.14999999963E+04  0.15000000000E+04  0.10566000000E+00 0. -1.
        994   -1    0    0    0    0 -0.00000000000E+00 -0.00000000000E+00  0.11368683772E-12  0.17120000000E+03  0.17120000000E+03 0.  0.
         13    1    1    2    0    0 -0.79458357418E+01 -0.99986979262E+01  0.58206729570E+02  0.59591482588E+02  0.10566000000E+00 0. -1.
        994    1    1    2    0    0  0.18806167528E+01 -0.18913449082E+01  0.15087327063E+01  0.17122742239E+03  0.17120000000E+03 0.  0.
        998    1    1    2    0    0  0.60652189890E+01  0.11890042834E+02  0.14402845340E+04  0.14403810950E+04  0.10000000000E+02 0. -1.
</event>
<event>
 5    1  0.1303633E-008  0.4103631E+03  0.7957747E-01  0.3328747E+00
         13   -1    0    0    0    0  0.00000000000E+00  0.00000000000E+00  0.14999999963E+04  0.15000000000E+04  0.10566000000E+00 0. -1.
        994   -1    0    0    0    0 -0.00000000000E+00 -0.00000000000E+00  0.11368683772E-12  0.17120000000E+03  0.17120000000E+03 0.  0.
         13    1    1    2    0    0  0.18519636646E+02  0.32105744335E+02  0.61508312252E+01  0.37571260953E+02  0.10566000000E+00 0. -1.
        994    1    1    2    0    0 -0.25764512544E+02 -0.32081292817E+02  0.41075781017E+02  0.18080287399E+03  0.17120000000E+03 0.  0.
        998    1    1    2    0    0  0.72448758982E+01 -0.24451517951E-01  0.14527733840E+04  0.14528258651E+04  0.10000000000E+02 0. -1.
</event>
<event>
 5    1  0.1303633E-008  0.3792961E+03  0.7957747E-01  0.3454229E+00
         13   -1    0    0    0    0  0.00000000000E+00  0.00000000000E+00  0.14999999963E+04  0.15000000000E+04  0.10566000000E+00 0. -1.
        994   -1    0    0    0    0 -0.00000000000E+00 -0.00000000000E+00  0.11368683772E-12  0.17120000000E+03  0.17120000000E+03 0.  0.
         13    1    1    2    0    0  0.19022741512E+02 -0.10735298785E+02  0.50821501372E+02  0.55316792210E+02  0.10566000000E+00 0. -1.
        994    1    1    2    0    0 -0.14493853110E+02  0.10089032624E+02  0.55345313335E+01  0.17219736175E+03  0.17120000000E+03 0.  0.
        998    1    1    2    0    0 -0.45288884014E+01  0.64626616162E+00  0.14436439636E+04  0.14436858460E+04  0.10000000000E+02 0. -1.
</event>
<event>
 5    1  0.1303633E-008  0.3711280E+03  0.7957747E-01  0.3490723E+00
         13   -1    0    0    0    0  0.00000000000E+00  0.00000000000E+00  0.14999999963E+04  0.15000000000E+04  0.10566000000E+00 0. -1.
        994   -1    0    0    0    0 -0.00000000000E+00 -0.00000000000E+00  0.11368683772E-12  0.17120000000E+03  0.17120000000E+03 0.  0.
         13    1    1    2    0    0  0.39319807525E+02  0.14058311658E+02  0.65114639325E+02  0.77353802809E+02  0.10566000000E+00 0. -1.
        994    1    1    2    0    0 -0.51087874169E+02 -0.29318193696E+02  0.23815429627E+02  0.18260926060E+03  0.17120000000E+03 0.  0.
        998    1    1    2    0    0  0.11768066644E+02  0.15259882038E+02  0.14110699273E+04  0.14112369366E+04  0.10000000000E+02 0. -1.
</event>
<event>
 5    1  0.1303633E-008  0.3829802E+03  0.7957747E-01  0.3438284E+00
         13   -1    0    0    0    0  0.00000000000E+00  0.00000000000E+00  0.14999999963E+04  0.15000000000E+04  0.10566000000E+00 0.  1.
        994   -1    0    0    0    0 -0.00000000000E+00 -0.00000000000E+00  0.11368683772E-12  0.17120000000E+03  0.17120000000E+03 0.  0.
         13    1    1    2    0    0 -0.10345294073E+02  0.36758548100E+01  0.21670704138E+02  0.24293365347E+02  0.10566000000E+00 0.  1.
        994    1    1    2    0    0  0.98301923363E+01 -0.50016512457E+01  0.30390665134E+01  0.17158183214E+03  0.17120000000E+03 0.  0.
        998    1    1    2    0    0  0.51510173622E+00  0.13257964357E+01  0.14752902256E+04  0.14753248025E+04  0.10000000000E+02 0.  1.
</event>
<event>
 5    1  0.1303633E-008  0.3750343E+03  0.7957747E-01  0.3473070E+00
         13   -1    0    0    0    0  0.00000000000E+00  0.00000000000E+00  0.14999999963E+04  0.15000000000E+04  0.10566000000E+00 0.  1.
        994   -1    0    0    0    0 -0.00000000000E+00 -0.00000000000E+00  0.11368683772E-12  0.17120000000E+03  0.17120000000E+03 0.  0.
         13    1    1    2    0    0  0.63194563117E+02 -0.22275447684E+02  0.16964062474E+03  0.18239435601E+03  0.10566000000E+00 0.  1.
        994    1    1    2    0    0 -0.28108272641E+02  0.44893290292E+01  0.16514687595E+02  0.17433417328E+03  0.17120000000E+03 0.  0.
        998    1    1    2    0    0 -0.35086290475E+02  0.17786118655E+02  0.13138446839E+04  0.13144714707E+04  0.10000000000E+02 0.  1.
</event>
<event>
 5    1  0.1303633E-008  0.3828704E+03  0.7957747E-01  0.3438755E+00
         13   -1    0    0    0    0  0.00000000000E+00  0.00000000000E+00  0.14999999963E+04  0.15000000000E+04  0.10566000000E+00 0.  1.
        994   -1    0    0    0    0 -0.00000000000E+00 -0.00000000000E+00  0.11368683772E-12  0.17120000000E+03  0.17120000000E+03 0.  0.
         13    1    1    2    0    0  0.12531743368E+02 -0.20596579737E+02  0.11760854122E+03  0.12005433695E+03  0.10566000000E+00 0.  1.
        994    1    1    2    0    0 -0.40660612511E+01 -0.92843047921E+00  0.27487565838E+01  0.17127285395E+03  0.17120000000E+03 0.  0.
        998    1    1    2    0    0 -0.84656821166E+01  0.21525010216E+02  0.13796426985E+04  0.13798728091E+04  0.10000000000E+02 0.  1.
</event>
<event>
 5    1  0.1303633E-008  0.3826435E+03  0.7957747E-01  0.3439728E+00
         13   -1    0    0    0    0  0.00000000000E+00  0.00000000000E+00  0.14999999963E+04  0.15000000000E+04  0.10566000000E+00 0.  1.
        994   -1    0    0    0    0 -0.00000000000E+00 -0.00000000000E+00  0.11368683772E-12  0.17120000000E+03  0.17120000000E+03 0.  0.
         13    1    1    2    0    0 -0.17537556147E+02  0.28942088396E+02  0.19298289497E+03  0.19592758680E+03  0.10566000000E+00 0.  1.
        994    1    1    2    0    0  0.98655532141E+01 -0.24222510313E+02  0.50749019757E+01  0.17326065271E+03  0.17120000000E+03 0.  0.
        998    1    1    2    0    0  0.76720029331E+01 -0.47195780832E+01  0.13019421993E+04  0.13020117605E+04  0.10000000000E+02 0.  1.
</event>
<event>
 5    1  0.1303633E-008  0.3845559E+03  0.7957747E-01  0.3431558E+00
         13   -1    0    0    0    0  0.00000000000E+00  0.00000000000E+00  0.14999999963E+04  0.15000000000E+04  0.10566000000E+00 0.  1.
        994   -1    0    0    0    0 -0.00000000000E+00 -0.00000000000E+00  0.11368683772E-12  0.17120000000E+03  0.17120000000E+03 0.  0.
         13    1    1    2    0    0  0.13899032762E+02 -0.72318966298E+01  0.69181541926E+02  0.70933633404E+02  0.10566000000E+00 0.  1.
        994    1    1    2    0    0 -0.38531048466E+01 -0.10016715469E+01  0.19029682734E+01  0.17125685695E+03  0.17120000000E+03 0.  0.
        998    1    1    2    0    0 -0.10045927916E+02  0.82335681767E+01  0.14289154861E+04  0.14290095096E+04  0.10000000000E+02 0.  1.
</event>
<event>
 5    1  0.1303633E-008  0.3688611E+03  0.7957747E-01  0.3501142E+00
         13   -1    0    0    0    0  0.00000000000E+00  0.00000000000E+00  0.14999999963E+04  0.15000000000E+04  0.10566000000E+00 0.  1.
        994   -1    0    0    0    0 -0.00000000000E+00 -0.00000000000E+00  0.11368683772E-12  0.17120000000E+03  0.17120000000E+03 0.  0.
         13    1    1    2    0    0  0.26461520539E+02 -0.67056925027E+02  0.25986164195E+03  0.26967559657E+03  0.10566000000E+00 0.  1.
        994    1    1    2    0    0 -0.95587561589E+02  0.65678037988E+01  0.43024266057E+02  0.20084980818E+03  0.17120000000E+03 0.  0.
        998    1    1    2    0    0  0.69126041050E+02  0.60489121229E+02  0.11971140883E+04  0.12006745952E+04  0.10000000000E+02 0.  1.
</event>
<event>
 5    1  0.1303633E-008  0.3826330E+03  0.7957747E-01  0.3439773E+00
         13   -1    0    0    0    0  0.00000000000E+00  0.00000000000E+00  0.14999999963E+04  0.15000000000E+04  0.10566000000E+00 0. -1.
        994   -1    0    0    0    0 -0.00000000000E+00 -0.00000000000E+00  0.11368683772E-12  0.17120000000E+03  0.17120000000E+03 0.  0.
         13    1    1    2    0    0 -0.20983877316E+02  0.20248355748E+02  0.13887349054E+03  0.14190199631E+03  0.10566000000E+00 0. -1.
        994    1    1    2    0    0  0.19495965179E+02 -0.21024666946E+02  0.55392569703E+01  0.17367283221E+03  0.17120000000E+03 0.  0.
        998    1    1    2    0    0  0.14879121370E+01  0.77631119821E+00  0.13555872488E+04  0.13556251715E+04  0.10000000000E+02 0. -1.
</event>
<event>
 5    1  0.1303633E-008  0.3805444E+03  0.7957747E-01  0.3448792E+00
         13   -1    0    0    0    0  0.00000000000E+00  0.00000000000E+00  0.14999999963E+04  0.15000000000E+04  0.10566000000E+00 0. -1.
        994   -1    0    0    0    0 -0.00000000000E+00 -0.00000000000E+00  0.11368683772E-12  0.17120000000E+03  0.17120000000E+03 0.  0.
         13    1    1    2    0    0 -0.17177284388E+02  0.36102049735E+01  0.40181525583E+02  0.43848133839E+02  0.10566000000E+00 0. -1.
        994    1    1    2    0    0 -0.94224247437E+00 -0.11023053770E+01  0.38656250755E+01  0.17124977651E+03  0.17120000000E+03 0.  0.
        998    1    1    2    0    0  0.18119526862E+02 -0.25078995965E+01  0.14559528456E+04  0.14561020896E+04  0.10000000000E+02 0. -1.
</event>
<event>
 5    1  0.1303633E-008  0.3799843E+03  0.7957747E-01  0.3451227E+00
         13   -1    0    0    0    0  0.00000000000E+00  0.00000000000E+00  0.14999999963E+04  0.15000000000E+04  0.10566000000E+00 0.  1.
        994   -1    0    0    0    0 -0.00000000000E+00 -0.00000000000E+00  0.11368683772E-12  0.17120000000E+03  0.17120000000E+03 0.  0.
         13    1    1    2    0    0  0.76094249891E+02 -0.82367047791E+02  0.67162678051E+03  0.68092379081E+03  0.10566000000E+00 0.  1.
        994    1    1    2    0    0 -0.64779156524E+02  0.11130313931E+03  0.61739884312E+02  0.22294838249E+03  0.17120000000E+03 0.  0.
        998    1    1    2    0    0 -0.11315093366E+02 -0.28936091515E+02  0.76663333145E+03  0.76732782670E+03  0.10000000000E+02 0.  1.
</event>
<event>
 5    1  0.1303633E-008  0.3686656E+03  0.7957747E-01  0.3502046E+00
         13   -1    0    0    0    0  0.00000000000E+00  0.00000000000E+00  0.14999999963E+04  0.15000000000E+04  0.10566000000E+00 0. -1.
        994   -1    0    0    0    0 -0.00000000000E+00 -0.00000000000E+00  0.11368683772E-12  0.17120000000E+03  0.17120000000E+03 0.  0.
         13    1    1    2    0    0  0.23832288171E+02 -0.81622223245E+01  0.26486005329E+02  0.36552968075E+02  0.10566000000E+00 0. -1.
        994    1    1    2    0    0 -0.12853484228E+02  0.29370467852E+02  0.13819955160E+02  0.17472340312E+03  0.17120000000E+03 0.  0.
        998    1    1    2    0    0 -0.10978803943E+02 -0.21208245527E+02  0.14596940358E+04  0.14599236288E+04  0.10000000000E+02 0. -1.
</event>
<event>
 5    1  0.1303633E-008  0.3827616E+03  0.7957747E-01  0.3439221E+00
         13   -1    0    0    0    0  0.00000000000E+00  0.00000000000E+00  0.14999999963E+04  0.15000000000E+04  0.10566000000E+00 0. -1.
        994   -1    0    0    0    0 -0.00000000000E+00 -0.00000000000E+00  0.11368683772E-12  0.17120000000E+03  0.17120000000E+03 0.  0.
         13    1    1    2    0    0  0.17243471425E+03 -0.12951484276E+02  0.10277080770E+04  0.10421541989E+04  0.10566000000E+00 0. -1.
        994    1    1    2    0    0 -0.17986393594E+03  0.14333363880E+02  0.11934936673E+03  0.27588075705E+03  0.17120000000E+03 0.  0.
        998    1    1    2    0    0  0.74292216921E+01 -0.13818796045E+01  0.35294255258E+03  0.35316504406E+03  0.10000000000E+02 0.  0.
</event>
<event>
 5    1  0.1303633E-008  0.3766297E+03  0.7957747E-01  0.3465966E+00
         13   -1    0    0    0    0  0.00000000000E+00  0.00000000000E+00  0.14999999963E+04  0.15000000000E+04  0.10566000000E+00 0.  1.
        994   -1    0    0    0    0 -0.00000000000E+00 -0.00000000000E+00  0.11368683772E-12  0.17120000000E+03  0.17120000000E+03 0.  0.
         13    1    1    2    0    0 -0.14993083884E+02  0.26390015938E+02  0.76086344367E+02  0.81916838738E+02  0.10566000000E+00 0.  1.
        994    1    1    2    0    0  0.49359782972E+01 -0.21322712316E+02  0.74652728653E+01  0.17275471699E+03  0.17120000000E+03 0.  0.
        998    1    1    2    0    0  0.10057105587E+02 -0.50673036220E+01  0.14164483790E+04  0.14165284443E+04  0.10000000000E+02 0.  1.
</event>
<event>
 5    1  0.1303633E-008  0.3843736E+03  0.7957747E-01  0.3432333E+00
         13   -1    0    0    0    0  0.00000000000E+00  0.00000000000E+00  0.14999999963E+04  0.15000000000E+04  0.10566000000E+00 0. -1.
        994   -1    0    0    0    0 -0.00000000000E+00 -0.00000000000E+00  0.11368683772E-12  0.17120000000E+03  0.17120000000E+03 0.  0.
         13    1    1    2    0    0  0.14715971799E+02  0.14481610005E+02  0.10335436101E+03  0.10539645135E+03  0.10566000000E+00 0. -1.
        994    1    1    2    0    0 -0.16328435862E+02 -0.13206837689E+02  0.33961918042E+01  0.17251670208E+03  0.17120000000E+03 0.  0.
        998    1    1    2    0    0  0.16124640637E+01 -0.12747723163E+01  0.13932494435E+04  0.13932868466E+04  0.10000000000E+02 0. -1.
</event>
<event>
 5    1  0.1303633E-008  0.3835021E+03  0.7957747E-01  0.3436050E+00
         13   -1    0    0    0    0  0.00000000000E+00  0.00000000000E+00  0.14999999963E+04  0.15000000000E+04  0.10566000000E+00 0. -1.
        994   -1    0    0    0    0 -0.00000000000E+00 -0.00000000000E+00  0.11368683772E-12  0.17120000000E+03  0.17120000000E+03 0.  0.
         13    1    1    2    0    0  0.27758527246E+02 -0.39271818301E+01  0.15952499449E+03  0.16196973058E+03  0.10566000000E+00 0. -1.
        994    1    1    2    0    0 -0.23555359526E+02 -0.15177837656E+02  0.49748757131E+01  0.17354944859E+03  0.17120000000E+03 0.  0.
        998    1    1    2    0    0 -0.42031677199E+01  0.19105019486E+02  0.13355001261E+04  0.13356808208E+04  0.10000000000E+02 0. -1.
</event>
<event>
 5    1  0.1303633E-008  0.3740854E+03  0.7957747E-01  0.3477323E+00
         13   -1    0    0    0    0  0.00000000000E+00  0.00000000000E+00  0.14999999963E+04  0.15000000000E+04  0.10566000000E+00 0.  1.
        994   -1    0    0    0    0 -0.00000000000E+00 -0.00000000000E+00  0.11368683772E-12  0.17120000000E+03  0.17120000000E+03 0.  0.
         13    1    1    2    0    0  0.20716195443E+02 -0.41715098512E+02  0.16830743487E+03  0.17463308390E+03  0.10566000000E+00 0.  1.
        994    1    1    2    0    0 -0.27830757061E+02 -0.72541935231E+01  0.99747574820E+01  0.17388533621E+03  0.17120000000E+03 0.  0.
        998    1    1    2    0    0  0.71145616189E+01  0.48969292035E+02  0.13217178039E+04  0.13226815799E+04  0.10000000000E+02 0.  1.
</event>
<event>
 5    1  0.1303633E-008  0.3839760E+03  0.7957747E-01  0.3434027E+00
         13   -1    0    0    0    0  0.00000000000E+00  0.00000000000E+00  0.14999999963E+04  0.15000000000E+04  0.10566000000E+00 0. -1.
        994   -1    0    0    0    0 -0.00000000000E+00 -0.00000000000E+00  0.11368683772E-12  0.17120000000E+03  0.17120000000E+03 0.  0.
         13    1    1    2    0    0 -0.12648568349E+02 -0.39954074450E+01  0.40561428568E+02  0.42675405253E+02  0.10566000000E+00 0. -1.
        994    1    1    2    0    0  0.76845272668E+01  0.59894273144E+01  0.24526608010E+01  0.17149455019E+03  0.17120000000E+03 0.  0.
        998    1    1    2    0    0  0.49640410823E+01 -0.19940198694E+01  0.14569859069E+04  0.14570300446E+04  0.10000000000E+02 0. -1.
</event>
<event>
 5    1  0.1303633E-008  0.3811170E+03  0.7957747E-01  0.3446309E+00
         13   -1    0    0    0    0  0.00000000000E+00  0.00000000000E+00  0.14999999963E+04  0.15000000000E+04  0.10566000000E+00 0.  1.
        994   -1    0    0    0    0 -0.00000000000E+00 -0.00000000000E+00  0.11368683772E-12  0.17120000000E+03  0.17120000000E+03 0.  0.
         13    1    1    2    0    0  0.37803713741E+02 -0.65329603772E+01  0.18274417181E+03  0.18672772649E+03  0.10566000000E+00 0.  1.
        994    1    1    2    0    0 -0.38788934930E+02 -0.19139663873E+01  0.86100729864E+01  0.17576068416E+03  0.17120000000E+03 0.  0.
        998    1    1    2    0    0  0.98522118954E+00  0.84469267645E+01  0.13086457515E+04  0.13087115894E+04  0.10000000000E+02 0.  1.
</event>
<event>
 5    1  0.1303633E-008  0.3707565E+03  0.7957747E-01  0.3492421E+00
         13   -1    0    0    0    0  0.00000000000E+00  0.00000000000E+00  0.14999999963E+04  0.15000000000E+04  0.10566000000E+00 0.  1.
        994   -1    0    0    0    0 -0.00000000000E+00 -0.00000000000E+00  0.11368683772E-12  0.17120000000E+03  0.17120000000E+03 0.  0.
         13    1    1    2    0    0 -0.26870689760E+01  0.31057362240E+02  0.51192980353E+02  0.59937571610E+02  0.10566000000E+00 0.  1.
        994    1    1    2    0    0 -0.14160948584E+02 -0.22916721441E+02  0.11380957890E+02  0.17367980536E+03  0.17120000000E+03 0.  0.
        998    1    1    2    0    0  0.16848017560E+02 -0.81406407996E+01  0.14374260580E+04  0.14375826230E+04  0.10000000000E+02 0.  1.
</event>
<event>
 5    1  0.1303633E-008  0.3850311E+03  0.7957747E-01  0.3429540E+00
         13   -1    0    0    0    0  0.00000000000E+00  0.00000000000E+00  0.14999999963E+04  0.15000000000E+04  0.10566000000E+00 0.  1.
        994   -1    0    0    0    0 -0.00000000000E+00 -0.00000000000E+00  0.11368683772E-12  0.17120000000E+03  0.17120000000E+03 0.  0.
         13    1    1    2    0    0  0.14388388530E+03  0.16530788784E+03  0.10691629239E+04  0.10913929811E+04  0.10566000000E+00 0.  1.
        994    1    1    2    0    0 -0.15413601493E+03 -0.17679772706E+03  0.21038045186E+03  0.35858711901E+03  0.17120000000E+03 0.  0.
        998    1    1    2    0    0  0.10252129631E+02  0.11489839226E+02  0.22045662053E+03  0.22121989988E+03  0.10000000000E+02 0.  1.
</event>
<event>
 5    1  0.1303633E-008  0.3834241E+03  0.7957747E-01  0.3436383E+00
         13   -1    0    0    0    0  0.00000000000E+00  0.00000000000E+00  0.14999999963E+04  0.15000000000E+04  0.10566000000E+00 0.  1.
        994   -1    0    0    0    0 -0.00000000000E+00 -0.00000000000E+00  0.11368683772E-12  0.17120000000E+03  0.17120000000E+03 0.  0.
         13    1    1    2    0    0 -0.52441908795E+01 -0.15946337164E+02  0.56771488295E+02  0.59201353482E+02  0.10566000000E+00 0.  1.
        994    1    1    2    0    0  0.48406196230E+00  0.14899639893E+02  0.31495083392E+01  0.17187667959E+03  0.17120000000E+03 0.  0.
        998    1    1    2    0    0  0.47601289172E+01  0.10466972713E+01  0.14400789996E+04  0.14401219669E+04  0.10000000000E+02 0.  1.
</event>
<event>
 5    1  0.1303633E-008  0.3742365E+03  0.7957747E-01  0.3476644E+00
         13   -1    0    0    0    0  0.00000000000E+00  0.00000000000E+00  0.14999999963E+04  0.15000000000E+04  0.10566000000E+00 0. -1.
        994   -1    0    0    0    0 -0.00000000000E+00 -0.00000000000E+00  0.11368683772E-12  0.17120000000E+03  0.17120000000E+03 0.  0.
         13    1    1    2    0    0  0.15613836489E+01  0.64233942528E+02  0.26103924781E+03  0.26883068529E+03  0.10566000000E+00 0. -1.
        994    1    1    2    0    0 -0.62281661774E+01 -0.52290663820E+02  0.16581460711E+02  0.17988187351E+03  0.17120000000E+03 0.  0.
        998    1    1    2    0    0  0.46667825285E+01 -0.11943278708E+02  0.12223792878E+04  0.12224874412E+04  0.10000000000E+02 0. -1.
</event>
<event>
 5    1  0.1303633E-008  0.3833368E+03  0.7957747E-01  0.3436757E+00
         13   -1    0    0    0    0  0.00000000000E+00  0.00000000000E+00  0.14999999963E+04  0.15000000000E+04  0.10566000000E+00 0.  1.
        994   -1    0    0    0    0 -0.00000000000E+00 -0.00000000000E+00  0.11368683772E-12  0.17120000000E+03  0.17120000000E+03 0.  0.
         13    1    1    2    0    0  0.15205205307E+02 -0.29657303925E+01  0.49597038473E+02  0.51960284973E+02  0.10566000000E+00 0.  1.
        994    1    1    2    0    0 -0.29348010702E+01  0.46601087686E+01  0.25584235963E+01  0.17130766242E+03  0.17120000000E+03 0.  0.
        998    1    1    2    0    0 -0.12270404236E+02 -0.16943783762E+01  0.14478445342E+04  0.14479320526E+04  0.10000000000E+02 0.  1.
</event>
<event>
 5    1  0.1303633E-008  0.3856117E+03  0.7957747E-01  0.3427082E+00
         13   -1    0    0    0    0  0.00000000000E+00  0.00000000000E+00  0.14999999963E+04  0.15000000000E+04  0.10566000000E+00 0. -1.
        994   -1    0    0    0    0 -0.00000000000E+00 -0.00000000000E+00  0.11368683772E-12  0.17120000000E+03  0.17120000000E+03 0.  0.
         13    1    1    2    0    0  0.10100348148E+02 -0.75893300683E+01  0.59011768086E+02  0.60349108529E+02  0.10566000000E+00 0. -1.
        994    1    1    2    0    0 -0.51096765686E+01  0.13734761935E+02  0.20319271263E+01  0.17183806682E+03  0.17120000000E+03 0.  0.
        998    1    1    2    0    0 -0.49906715794E+01 -0.61454318662E+01  0.14389563011E+04  0.14390128247E+04  0.10000000000E+02 0. -1.
</event>
<event>
 5    1  0.1303633E-008  0.3713329E+03  0.7957747E-01  0.3489787E+00
         13   -1    0    0    0    0  0.00000000000E+00  0.00000000000E+00  0.14999999963E+04  0.15000000000E+04  0.10566000000E+00 0. -1.
        994   -1    0    0    0    0 -0.00000000000E+00 -0.00000000000E+00  0.11368683772E-12  0.17120000000E+03  0.17120000000E+03 0.  0.
         13    1    1    2    0    0  0.37503989338E+02 -0.10643030199E+03  0.48569797914E+03  0.49863463227E+03  0.10566000000E+00 0. -1.
        994    1    1    2    0    0 -0.26570833435E+02  0.11052819559E+03  0.54456698244E+02  0.21259695010E+03  0.17120000000E+03 0.  0.
        998    1    1    2    0    0 -0.10933155902E+02 -0.40978936036E+01  0.95984531890E+03  0.95996841763E+03  0.10000000000E+02 0.  1.
</event>
<event>
 5    1  0.1303633E-008  0.3838979E+03  0.7957747E-01  0.3434360E+00
         13   -1    0    0    0    0  0.00000000000E+00  0.00000000000E+00  0.14999999963E+04  0.15000000000E+04  0.10566000000E+00 0.  1.
        994   -1    0    0    0    0 -0.00000000000E+00 -0.00000000000E+00  0.11368683772E-12  0.17120000000E+03  0.17120000000E+03 0.  0.
         13    1    1    2    0    0  0.13635932413E+02 -0.25192405681E+01  0.46522964632E+02  0.48545675688E+02  0.10566000000E+00 0.  1.
        994    1    1    2    0    0  0.44928563744E+01  0.74504572592E+00  0.22467715913E+01  0.17127530130E+03  0.17120000000E+03 0.  0.
        998    1    1    2    0    0 -0.18128788787E+02  0.17741948422E+01  0.14512302601E+04  0.14513790230E+04  0.10000000000E+02 0.  1.
</event>
<event>
 5    1  0.1303633E-008  0.3757272E+03  0.7957747E-01  0.3469977E+00
         13   -1    0    0    0    0  0.00000000000E+00  0.00000000000E+00  0.14999999963E+04  0.15000000000E+04  0.10566000000E+00 0.  1.
        994   -1    0    0    0    0 -0.00000000000E+00 -0.00000000000E+00  0.11368683772E-12  0.17120000000E+03  0.17120000000E+03 0.  0.
         13    1    1    2    0    0  0.13414225416E+02  0.78753264566E+02  0.38995425572E+03  0.39805320102E+03  0.10566000000E+00 0.  1.
        994    1    1    2    0    0 -0.64516778496E+01 -0.74829511099E+02  0.25680664887E+02  0.18870616425E+03  0.17120000000E+03 0.  0.
        998    1    1    2    0    0 -0.69625475668E+01 -0.39237534668E+01  0.10843650757E+04  0.10844406347E+04  0.10000000000E+02 0.  1.
</event>
<event>
 5    1  0.1303633E-008  0.3766636E+03  0.7957747E-01  0.3465816E+00
         13   -1    0    0    0    0  0.00000000000E+00  0.00000000000E+00  0.14999999963E+04  0.15000000000E+04  0.10566000000E+00 0. -1.
        994   -1    0    0    0    0 -0.00000000000E+00 -0.00000000000E+00  0.11368683772E-12  0.17120000000E+03  0.17120000000E+03 0.  0.
         13    1    1    2    0    0  0.42170659716E+02  0.14304099470E+02  0.21067281107E+03  0.21532769513E+03  0.10566000000E+00 0. -1.
        994    1    1    2    0    0  0.10519178641E+02 -0.82476421942E+01  0.64310869957E+01  0.17184142574E+03  0.17120000000E+03 0.  0.
        998    1    1    2    0    0 -0.52689838357E+02 -0.60564572756E+01  0.12828960982E+04  0.12840308791E+04  0.10000000000E+02 0. -1.
</event>
<event>
 5    1  0.1303633E-008  0.3780142E+03  0.7957747E-01  0.3459851E+00
         13   -1    0    0    0    0  0.00000000000E+00  0.00000000000E+00  0.14999999963E+04  0.15000000000E+04  0.10566000000E+00 0.  1.
        994   -1    0    0    0    0 -0.00000000000E+00 -0.00000000000E+00  0.11368683772E-12  0.17120000000E+03  0.17120000000E+03 0.  0.
         13    1    1    2    0    0 -0.98469777260E+01  0.60833487179E+01  0.10630315341E+02  0.15715752297E+02  0.10566000000E+00 0.  1.
        994    1    1    2    0    0  0.10110528886E+02 -0.82948663165E+01  0.57146489425E+01  0.17179384394E+03  0.17120000000E+03 0.  0.
        998    1    1    2    0    0 -0.26355116007E+00  0.22115175987E+01  0.14836550320E+04  0.14836904038E+04  0.10000000000E+02 0.  1.
</event>
<event>
 5    1  0.1303633E-008  0.3720507E+03  0.7957747E-01  0.3486519E+00
         13   -1    0    0    0    0  0.00000000000E+00  0.00000000000E+00  0.14999999963E+04  0.15000000000E+04  0.10566000000E+00 0. -1.
        994   -1    0    0    0    0 -0.00000000000E+00 -0.00000000000E+00  0.11368683772E-12  0.17120000000E+03  0.17120000000E+03 0.  0.
         13    1    1    2    0    0  0.60318121654E+02  0.50135654459E+02  0.32223298515E+03  0.33164132362E+03  0.10566000000E+00 0. -1.
        994    1    1    2    0    0 -0.68013886976E+02 -0.21938500798E+02  0.25945178906E+02  0.18732265999E+03  0.17120000000E+03 0.  0.
        998    1    1    2    0    0  0.76957653223E+01 -0.28197153661E+02  0.11518218322E+04  0.11522360164E+04  0.10000000000E+02 0. -1.
</event>
<event>
 5    1  0.1303633E-008  0.3698654E+03  0.7957747E-01  0.3496510E+00
         13   -1    0    0    0    0  0.00000000000E+00  0.00000000000E+00  0.14999999963E+04  0.15000000000E+04  0.10566000000E+00 0.  1.
        994   -1    0    0    0    0 -0.00000000000E+00 -0.00000000000E+00  0.11368683772E-12  0.17120000000E+03  0.17120000000E+03 0.  0.
         13    1    1    2    0    0 -0.22140830823E+02  0.51679280343E+02  0.15186219986E+03  0.16193549122E+03  0.10566000000E+00 0.  1.
        994    1    1    2    0    0  0.26339786160E+02 -0.89662167939E+01  0.13577603832E+02  0.17397692003E+03  0.17120000000E+03 0.  0.
        998    1    1    2    0    0 -0.41989553363E+01 -0.42713063549E+02  0.13345601926E+04  0.13352875887E+04  0.10000000000E+02 0.  1.
</event>
<event>
 5    1  0.1303633E-008  0.3759534E+03  0.7957747E-01  0.3468970E+00
         13   -1    0    0    0    0  0.00000000000E+00  0.00000000000E+00  0.14999999963E+04  0.15000000000E+04  0.10566000000E+00 0. -1.
        994   -1    0    0    0    0 -0.00000000000E+00 -0.00000000000E+00  0.11368683772E-12  0.17120000000E+03  0.17120000000E+03 0.  0.
         13    1    1    2    0    0 -0.70261025935E+02 -0.56042294611E+02  0.47361584270E+03  0.48206776305E+03  0.10566000000E+00 0. -1.
        994    1    1    2    0    0  0.65186109550E+02  0.51833405455E+02  0.30065457138E+02  0.19274154330E+03  0.17120000000E+03 0.  0.
        998    1    1    2    0    0  0.50749163850E+01  0.42088891561E+01  0.99631869644E+03  0.99639069365E+03  0.10000000000E+02 0. -1.
</event>
<event>
 5    1  0.1303633E-008  0.3744991E+03  0.7957747E-01  0.3475466E+00
         13   -1    0    0    0    0  0.00000000000E+00  0.00000000000E+00  0.14999999963E+04  0.15000000000E+04  0.10566000000E+00 0.  1.
        994   -1    0    0    0    0 -0.00000000000E+00 -0.00000000000E+00  0.11368683772E-12  0.17120000000E+03  0.17120000000E+03 0.  0.
         13    1    1    2    0    0 -0.62069015714E+02 -0.39850259215E+02  0.28852057069E+03  0.29779982664E+03  0.10566000000E+00 0.  1.
        994    1    1    2    0    0 -0.45939783909E+02  0.41863214955E+02  0.27189350645E+02  0.18415127830E+03  0.17120000000E+03 0.  0.
        998    1    1    2    0    0  0.10800879962E+03 -0.20129557396E+01  0.11842900749E+04  0.11892488951E+04  0.10000000000E+02 0.  1.
</event>
<event>
 5    1  0.1303633E-008  0.3802298E+03  0.7957747E-01  0.3450159E+00
         13   -1    0    0    0    0  0.00000000000E+00  0.00000000000E+00  0.14999999963E+04  0.15000000000E+04  0.10566000000E+00 0.  1.
        994   -1    0    0    0    0 -0.00000000000E+00 -0.00000000000E+00  0.11368683772E-12  0.17120000000E+03  0.17120000000E+03 0.  0.
         13    1    1    2    0    0  0.16882906522E+02 -0.31381087469E+01  0.34496248609E+02  0.38534174329E+02  0.10566000000E+00 0.  1.
        994    1    1    2    0    0 -0.17060493322E+02  0.26967600844E+01  0.50143757706E+01  0.17214214159E+03  0.17120000000E+03 0.  0.
        998    1    1    2    0    0  0.17758680093E+00  0.44134866245E+00  0.14604893719E+04  0.14605236841E+04  0.10000000000E+02 0.  0.
</event>
<event>
 5    1  0.1303633E-008  0.3831850E+03  0.7957747E-01  0.3437406E+00
         13   -1    0    0    0    0  0.00000000000E+00  0.00000000000E+00  0.14999999963E+04  0.15000000000E+04  0.10566000000E+00 0. -1.
        994   -1    0    0    0    0 -0.00000000000E+00 -0.00000000000E+00  0.11368683772E-12  0.17120000000E+03  0.17120000000E+03 0.  0.
         13    1    1    2    0    0 -0.11082131978E+02  0.67031026307E+01  0.32002937904E+02  0.34524548260E+02  0.10566000000E+00 0. -1.
        994    1    1    2    0    0  0.15713930782E+02  0.44675986137E+01  0.34173109103E+01  0.17201164226E+03  0.17120000000E+03 0.  0.
        998    1    1    2    0    0 -0.46317988038E+01 -0.11170701244E+02  0.14645797475E+04  0.14646638095E+04  0.10000000000E+02 0. -1.
</event>
<event>
 5    1  0.1303633E-008  0.3779294E+03  0.7957747E-01  0.3460224E+00
         13   -1    0    0    0    0  0.00000000000E+00  0.00000000000E+00  0.14999999963E+04  0.15000000000E+04  0.10566000000E+00 0. -1.
        994   -1    0    0    0    0 -0.00000000000E+00 -0.00000000000E+00  0.11368683772E-12  0.17120000000E+03  0.17120000000E+03 0.  0.
         13    1    1    2    0    0  0.17626168189E+02 -0.71066249686E+02  0.35499351550E+03  0.36246586165E+03  0.10566000000E+00 0. -1.
        994    1    1    2    0    0  0.40921777581E+02  0.10484410168E+03  0.49077668798E+02  0.21067732463E+03  0.17120000000E+03 0.  0.
        998    1    1    2    0    0 -0.58547945770E+02 -0.33777851992E+02  0.10959288120E+04  0.10980568137E+04  0.10000000000E+02 0.  1.
</event>
<event>
 5    1  0.1303633E-008  0.3821734E+03  0.7957747E-01  0.3441749E+00
         13   -1    0    0    0    0  0.00000000000E+00  0.00000000000E+00  0.14999999963E+04  0.15000000000E+04  0.10566000000E+00 0. -1.
        994   -1    0    0    0    0 -0.00000000000E+00 -0.00000000000E+00  0.11368683772E-12  0.17120000000E+03  0.17120000000E+03 0.  0.
         13    1    1    2    0    0  0.28546630897E+02 -0.15623486411E+02  0.16924439302E+03  0.17234465236E+03  0.10566000000E+00 0. -1.
        994    1    1    2    0    0 -0.14229668673E+02  0.20419357687E+02  0.50987069030E+01  0.17307475394E+03  0.17120000000E+03 0.  0.
        998    1    1    2    0    0 -0.14316962224E+02 -0.47958712753E+01  0.13256568964E+04  0.13257805937E+04  0.10000000000E+02 0. -1.
</event>
<event>
 5    1  0.1303633E-008  0.3711518E+03  0.7957747E-01  0.3490614E+00
         13   -1    0    0    0    0  0.00000000000E+00  0.00000000000E+00  0.14999999963E+04  0.15000000000E+04  0.10566000000E+00 0. -1.
        994   -1    0    0    0    0 -0.00000000000E+00 -0.00000000000E+00  0.11368683772E-12  0.17120000000E+03  0.17120000000E+03 0.  0.
         13    1    1    2    0    0 -0.27780612848E+02  0.34090365823E+02  0.10032972459E+03  0.10954442155E+03  0.10566000000E+00 0. -1.
        994    1    1    2    0    0  0.47303023274E+02 -0.23083084246E+02  0.18270614939E+02  0.18003794089E+03  0.17120000000E+03 0.  0.
        998    1    1    2    0    0 -0.19522410427E+02 -0.11007281577E+02  0.13813996567E+04  0.13816176376E+04  0.10000000000E+02 0. -1.
</event>
<event>
 5    1  0.1303633E-008  0.3855063E+03  0.7957747E-01  0.3427528E+00
         13   -1    0    0    0    0  0.00000000000E+00  0.00000000000E+00  0.14999999963E+04  0.15000000000E+04  0.10566000000E+00 0.  1.
        994   -1    0    0    0    0 -0.00000000000E+00 -0.00000000000E+00  0.11368683772E-12  0.17120000000E+03  0.17120000000E+03 0.  0.
         13    1    1    2    0    0 -0.63963441471E+01  0.12252979358E+02  0.71891699475E+02  0.73208444452E+02  0.10566000000E+00 0.  1.
        994    1    1    2    0    0  0.34564583156E+01 -0.35124165219E+01  0.14587116740E+01  0.17127712052E+03  0.17120000000E+03 0.  0.
        998    1    1    2    0    0  0.29398858314E+01 -0.87405628357E+01  0.14266495851E+04  0.14267144350E+04  0.10000000000E+02 0.  1.
</event>
<event>
 5    1  0.1303633E-008  0.4037137E+03  0.7957747E-01  0.3353986E+00
         13   -1    0    0    0    0  0.00000000000E+00  0.00000000000E+00  0.14999999963E+04  0.15000000000E+04  0.10566000000E+00 0.  1.
        994   -1    0    0    0    0 -0.00000000000E+00 -0.00000000000E+00  0.11368683772E-12  0.17120000000E+03  0.17120000000E+03 0.  0.
         13    1    1    2    0    0  0.13913074406E+02 -0.10325890328E+02 -0.83185776015E+01  0.19219977831E+02  0.10566000000E+00 0.  1.
        994    1    1    2    0    0 -0.31759084924E+02 -0.17965944817E+02  0.35326681802E+02  0.17857443573E+03  0.17120000000E+03 0.  0.
        998    1    1    2    0    0  0.17846010518E+02  0.28291835145E+02  0.14729918921E+04  0.14734055864E+04  0.10000000000E+02 0.  1.
</event>
<event>
 5    1  0.1303633E-008  0.3789802E+03  0.7957747E-01  0.3455611E+00
         13   -1    0    0    0    0  0.00000000000E+00  0.00000000000E+00  0.14999999963E+04  0.15000000000E+04  0.10566000000E+00 0.  1.
        994   -1    0    0    0    0 -0.00000000000E+00 -0.00000000000E+00  0.11368683772E-12  0.17120000000E+03  0.17120000000E+03 0.  0.
         13    1    1    2    0    0 -0.19320348560E+02  0.52789111321E+02  0.32530817114E+03  0.33012934362E+03  0.10566000000E+00 0.  1.
        994    1    1    2    0    0  0.21386771415E+01 -0.37988788360E+02  0.95201341635E+01  0.17563540342E+03  0.17120000000E+03 0.  0.
        998    1    1    2    0    0  0.17181671419E+02 -0.14800322961E+02  0.11651716910E+04  0.11654352530E+04  0.10000000000E+02 0.  1.
</event>
<event>
 5    1  0.1303633E-008  0.3774923E+03  0.7957747E-01  0.3462151E+00
         13   -1    0    0    0    0  0.00000000000E+00  0.00000000000E+00  0.14999999963E+04  0.15000000000E+04  0.10566000000E+00 0.  1.
        994   -1    0    0    0    0 -0.00000000000E+00 -0.00000000000E+00  0.11368683772E-12  0.17120000000E+03  0.17120000000E+03 0.  0.
         13    1    1    2    0    0  0.96041805042E+02  0.11123385723E+03  0.52695224566E+03  0.54706094695E+03  0.10566000000E+00 0.  1.
        994    1    1    2    0    0 -0.12616630594E+03 -0.62731083367E+02  0.90169179856E+02  0.23935965945E+03  0.17120000000E+03 0.  0.
        998    1    1    2    0    0  0.30124500901E+02 -0.48502773858E+02  0.88287857077E+03  0.88477939360E+03  0.10000000000E+02 0.  1.
</event>
<event>
 5    1  0.1303633E-008  0.3752645E+03  0.7957747E-01  0.3472041E+00
         13   -1    0    0    0    0  0.00000000000E+00  0.00000000000E+00  0.14999999963E+04  0.15000000000E+04  0.10566000000E+00 0. -1.
        994   -1    0    0    0    0 -0.00000000000E+00 -0.00000000000E+00  0.11368683772E-12  0.17120000000E+03  0.17120000000E+03 0.  0.
         13    1    1    2    0    0  0.47354061055E+02  0.28026042446E+02  0.20033122845E+03  0.20775100098E+03  0.10566000000E+00 0. -1.
        994    1    1    2    0    0 -0.45642040194E+02 -0.29926253762E+02  0.16727417633E+02  0.18046612701E+03  0.17120000000E+03 0.  0.
        998    1    1    2    0    0 -0.17120208613E+01  0.19002113163E+01  0.12829413502E+04  0.12829828720E+04  0.10000000000E+02 0.  1.
</event>
<event>
 5    1  0.1303633E-008  0.4184525E+03  0.7957747E-01  0.3299110E+00
         13   -1    0    0    0    0  0.00000000000E+00  0.00000000000E+00  0.14999999963E+04  0.15000000000E+04  0.10566000000E+00 0. -1.
        994   -1    0    0    0    0 -0.00000000000E+00 -0.00000000000E+00  0.11368683772E-12  0.17120000000E+03  0.17120000000E+03 0.  0.
         13    1    1    2    0    0  0.39351800976E+02  0.60036269865E+02  0.55497548919E+02  0.90735368184E+02  0.10566000000E+00 0. -1.
        994    1    1    2    0    0 -0.18500947400E+01 -0.47278203149E+02  0.48848129037E+02  0.18421246172E+03  0.17120000000E+03 0.  0.
        998    1    1    2    0    0 -0.37501706236E+02 -0.12758066716E+02  0.13956543183E+04  0.13962521701E+04  0.10000000000E+02 0. -1.
</event>
<event>
 5    1  0.1303633E-008  0.3763591E+03  0.7957747E-01  0.3467167E+00
         13   -1    0    0    0    0  0.00000000000E+00  0.00000000000E+00  0.14999999963E+04  0.15000000000E+04  0.10566000000E+00 0.  1.
        994   -1    0    0    0    0 -0.00000000000E+00 -0.00000000000E+00  0.11368683772E-12  0.17120000000E+03  0.17120000000E+03 0.  0.
         13    1    1    2    0    0  0.13021168035E+02  0.10320716942E+02  0.20324037881E+02  0.26251584619E+02  0.10566000000E+00 0.  1.
        994    1    1    2    0    0 -0.11818934022E+02 -0.10129694080E+02  0.68027294633E+01  0.17204073655E+03  0.17120000000E+03 0.  0.
        998    1    1    2    0    0 -0.12022340123E+01 -0.19102286180E+00  0.14728732289E+04  0.14729076788E+04  0.10000000000E+02 0.  1.
</event>
<event>
 5    1  0.1303633E-008  0.3850471E+03  0.7957747E-01  0.3429473E+00
         13   -1    0    0    0    0  0.00000000000E+00  0.00000000000E+00  0.14999999963E+04  0.15000000000E+04  0.10566000000E+00 0. -1.
        994   -1    0    0    0    0 -0.00000000000E+00 -0.00000000000E+00  0.11368683772E-12  0.17120000000E+03  0.17120000000E+03 0.  0.
         13    1    1    2    0    0 -0.13826941424E+02 -0.12042233468E+02  0.10098665071E+03  0.10263778292E+03  0.10566000000E+00 0. -1.
        994    1    1    2    0    0  0.10732667784E+02  0.12463941950E+02  0.24968598235E+01  0.17200643684E+03  0.17120000000E+03 0.  0.
        998    1    1    2    0    0  0.30942736406E+01 -0.42170848252E+00  0.13965164857E+04  0.13965557802E+04  0.10000000000E+02 0. -1.
</event>
<event>
 5    1  0.1303633E-008  0.3711487E+03  0.7957747E-01  0.3490629E+00
         13   -1    0    0    0    0  0.00000000000E+00  0.00000000000E+00  0.14999999963E+04  0.15000000000E+04  0.10566000000E+00 0. -1.
        994   -1    0    0    0    0 -0.00000000000E+00 -0.00000000000E+00  0.11368683772E-12  0.17120000000E+03  0.17120000000E+03 0.  0.
         13    1    1    2    0    0 -0.70220597561E+02  0.31187524146E+02  0.28592451439E+03  0.29606829124E+03  0.10566000000E+00 0. -1.
        994    1    1    2    0    0  0.58388207608E+02 -0.41820784681E+02  0.26649947469E+02  0.18755751256E+03  0.17120000000E+03 0.  0.
        998    1    1    2    0    0  0.11832389954E+02  0.10633260535E+02  0.11874255344E+04  0.11875741962E+04  0.10000000000E+02 0.  0.
</event>
<event>
 5    1  0.1303633E-008  0.3850401E+03  0.7957747E-01  0.3429502E+00
         13   -1    0    0    0    0  0.00000000000E+00  0.00000000000E+00  0.14999999963E+04  0.15000000000E+04  0.10566000000E+00 0.  1.
        994   -1    0    0    0    0 -0.00000000000E+00 -0.00000000000E+00  0.11368683772E-12  0.17120000000E+03  0.17120000000E+03 0.  0.
         13    1    1    2    0    0 -0.12593503243E+02  0.17482043183E+01  0.48673271733E+02  0.50306571018E+02  0.10566000000E+00 0.  1.
        994    1    1    2    0    0  0.13083368104E+02 -0.74773190450E+01  0.23573125761E+01  0.17187810141E+03  0.17120000000E+03 0.  0.
        998    1    1    2    0    0 -0.48986486109E+00  0.57291147267E+01  0.14489694120E+04  0.14490153276E+04  0.10000000000E+02 0.  1.
</event>
<event>
 5    1  0.1303633E-008  0.3719215E+03  0.7957747E-01  0.3487106E+00
         13   -1    0    0    0    0  0.00000000000E+00  0.00000000000E+00  0.14999999963E+04  0.15000000000E+04  0.10566000000E+00 0. -1.
        994   -1    0    0    0    0 -0.00000000000E+00 -0.00000000000E+00  0.11368683772E-12  0.17120000000E+03  0.17120000000E+03 0.  0.
         13    1    1    2    0    0 -0.10702013581E+03 -0.39018645856E+02  0.45553418079E+03  0.46956060868E+03  0.10566000000E+00 0. -1.
        994    1    1    2    0    0  0.78248152500E+02  0.43842535134E+02  0.40840931251E+02  0.19754078800E+03  0.17120000000E+03 0.  0.
        998    1    1    2    0    0  0.28771983313E+02 -0.48238892785E+01  0.10036248842E+04  0.10040986033E+04  0.10000000000E+02 0. -1.
</event>
<event>
 5    1  0.1713895E-008  0.3861202E+03  0.7957747E-01  0.3424935E+00
         13   -1    0    0    0    0  0.00000000000E+00  0.00000000000E+00  0.14999999963E+04  0.15000000000E+04  0.10566000000E+00 0. -1.
        994   -1    0    0    0    0 -0.00000000000E+00 -0.00000000000E+00  0.11368683772E-12  0.17120000000E+03  0.17120000000E+03 0.  0.
         13    1    1    2    0    0  0.98628440336E+01 -0.55659128363E+01  0.62741457411E+02  0.63755444632E+02  0.10566000000E+00 0. -1.
        994    1    1    2    0    0 -0.13589807135E+01  0.32622299392E+01  0.11159294278E+01  0.17124010708E+03  0.17120000000E+03 0.  0.
        998    1    1    2    0    0 -0.85038633202E+01  0.23036828971E+01  0.14361426094E+04  0.14362044483E+04  0.10000000000E+02 0. -1.
</event>
<event>
 5    1  0.1303633E-008  0.3821532E+03  0.7957747E-01  0.3441836E+00
         13   -1    0    0    0    0  0.00000000000E+00  0.00000000000E+00  0.14999999963E+04  0.15000000000E+04  0.10566000000E+00 0. -1.
        994   -1    0    0    0    0 -0.00000000000E+00 -0.00000000000E+00  0.11368683772E-12  0.17120000000E+03  0.17120000000E+03 0.  0.
         13    1    1    2    0    0  0.55476419853E+01  0.99787209736E+01  0.20115620082E+02  0.23130078668E+02  0.10566000000E+00 0. -1.
        994    1    1    2    0    0 -0.13012439364E+01 -0.95380920987E+01  0.33577933087E+01  0.17150330379E+03  0.17120000000E+03 0.  0.
        998    1    1    2    0    0 -0.42463980489E+01 -0.44062887483E+00  0.14765265829E+04  0.14765666175E+04  0.10000000000E+02 0. -1.
</event>
<event>
 5    1  0.1303633E-008  0.3858644E+03  0.7957747E-01  0.3426015E+00
         13   -1    0    0    0    0  0.00000000000E+00  0.00000000000E+00  0.14999999963E+04  0.15000000000E+04  0.10566000000E+00 0.  1.
        994   -1    0    0    0    0 -0.00000000000E+00 -0.00000000000E+00  0.11368683772E-12  0.17120000000E+03  0.17120000000E+03 0.  0.
         13    1    1    2    0    0 -0.43113076169E+01 -0.10537694611E+02  0.56451336107E+02  0.57588148897E+02  0.10566000000E+00 0.  1.
        994    1    1    2    0    0  0.47489933623E+01  0.69524668692E+00  0.12771527140E+01  0.17127202756E+03  0.17120000000E+03 0.  0.
        998    1    1    2    0    0 -0.43768574547E+00  0.98424479244E+01  0.14422715075E+04  0.14423398235E+04  0.10000000000E+02 0.  1.
</event>
<event>
 5    1  0.1303633E-008  0.3858968E+03  0.7957747E-01  0.3425878E+00
         13   -1    0    0    0    0  0.00000000000E+00  0.00000000000E+00  0.14999999963E+04  0.15000000000E+04  0.10566000000E+00 0. -1.
        994   -1    0    0    0    0 -0.00000000000E+00 -0.00000000000E+00  0.11368683772E-12  0.17120000000E+03  0.17120000000E+03 0.  0.
         13    1    1    2    0    0  0.24278843652E+02 -0.54276405647E+02  0.80340727109E+02  0.99950157856E+02  0.10566000000E+00 0. -1.
        994    1    1    2    0    0 -0.40345008521E+02  0.42201913617E+02  0.32341165152E+02  0.18375013521E+03  0.17120000000E+03 0.  0.
        998    1    1    2    0    0  0.16066164869E+02  0.12074492029E+02  0.13873181040E+04  0.13874997069E+04  0.10000000000E+02 0. -1.
</event>
<event>
 5    1  0.1303633E-008  0.3855736E+03  0.7957747E-01  0.3427243E+00
         13   -1    0    0    0    0  0.00000000000E+00  0.00000000000E+00  0.14999999963E+04  0.15000000000E+04  0.10566000000E+00 0. -1.
        994   -1    0    0    0    0 -0.00000000000E+00 -0.00000000000E+00  0.11368683772E-12  0.17120000000E+03  0.17120000000E+03 0.  0.
         13    1    1    2    0    0 -0.17557088639E+02 -0.22756645872E+01  0.10546183024E+03  0.10693754632E+03  0.10566000000E+00 0. -1.
        994    1    1    2    0    0  0.21251481959E+02  0.23525840018E+02  0.46518475162E+01  0.17417281740E+03  0.17120000000E+03 0.  0.
        998    1    1    2    0    0 -0.36943933199E+01 -0.21250175431E+02  0.13898863185E+04  0.13900896363E+04  0.10000000000E+02 0. -1.
</event>
<event>
 5    1  0.1303633E-008  0.3785489E+03  0.7957747E-01  0.3457501E+00
         13   -1    0    0    0    0  0.00000000000E+00  0.00000000000E+00  0.14999999963E+04  0.15000000000E+04  0.10566000000E+00 0.  1.
        994   -1    0    0    0    0 -0.00000000000E+00 -0.00000000000E+00  0.11368683772E-12  0.17120000000E+03  0.17120000000E+03 0.  0.
         13    1    1    2    0    0 -0.39507579783E+02  0.27220102014E+02  0.19689211772E+03  0.20265315196E+03  0.10566000000E+00 0.  1.
        994    1    1    2    0    0  0.45233336972E+02 -0.29837188529E+02  0.14794673848E+02  0.18017945212E+03  0.17120000000E+03 0.  0.
        998    1    1    2    0    0 -0.57257571892E+01  0.26170865149E+01  0.12883132047E+04  0.12883673959E+04  0.10000000000E+02 0.  1.
</event>
<event>
 5    1  0.1303633E-008  0.3855332E+03  0.7957747E-01  0.3427414E+00
         13   -1    0    0    0    0  0.00000000000E+00  0.00000000000E+00  0.14999999963E+04  0.15000000000E+04  0.10566000000E+00 0. -1.
        994   -1    0    0    0    0 -0.00000000000E+00 -0.00000000000E+00  0.11368683772E-12  0.17120000000E+03  0.17120000000E+03 0.  0.
         13    1    1    2    0    0  0.93789920085E+01 -0.11707662856E+02  0.81634998717E+02  0.83001921907E+02  0.10566000000E+00 0. -1.
        994    1    1    2    0    0 -0.90091294265E+01  0.77583509046E+01  0.18298688501E+01  0.17162209893E+03  0.17120000000E+03 0.  0.
        998    1    1    2    0    0 -0.36986258202E+00  0.39493119512E+01  0.14165351287E+04  0.14165759792E+04  0.10000000000E+02 0. -1.
</event>
<event>
 5    1  0.1303633E-008  0.3830506E+03  0.7957747E-01  0.3437982E+00
         13   -1    0    0    0    0  0.00000000000E+00  0.00000000000E+00  0.14999999963E+04  0.15000000000E+04  0.10566000000E+00 0. -1.
        994   -1    0    0    0    0 -0.00000000000E+00 -0.00000000000E+00  0.11368683772E-12  0.17120000000E+03  0.17120000000E+03 0.  0.
         13    1    1    2    0    0 -0.10401739408E+02  0.40255064878E+00  0.20039559622E+02  0.22582146568E+02  0.10566000000E+00 0. -1.
        994    1    1    2    0    0  0.42891151308E+01 -0.56524653950E+01  0.27677361468E+01  0.17136932992E+03  0.17120000000E+03 0.  0.
        998    1    1    2    0    0  0.61126242774E+01  0.52499147462E+01  0.14771927005E+04  0.14772485235E+04  0.10000000000E+02 0. -1.
</event>
<event>
 5    1  0.1303633E-008  0.3738653E+03  0.7957747E-01  0.3478313E+00
         13   -1    0    0    0    0  0.00000000000E+00  0.00000000000E+00  0.14999999963E+04  0.15000000000E+04  0.10566000000E+00 0.  1.
        994   -1    0    0    0    0 -0.00000000000E+00 -0.00000000000E+00  0.11368683772E-12  0.17120000000E+03  0.17120000000E+03 0.  0.
         13    1    1    2    0    0  0.20177775472E+02  0.19501044561E+02  0.50016661827E+02  0.57350771454E+02  0.10566000000E+00 0.  1.
        994    1    1    2    0    0 -0.16730702041E+02 -0.21928404924E+02  0.98629001876E+01  0.17368790440E+03  0.17120000000E+03 0.  0.
        998    1    1    2    0    0 -0.34470734307E+01  0.24273603628E+01  0.14401204343E+04  0.14401613242E+04  0.10000000000E+02 0.  1.
</event>
<event>
 5    1  0.1303633E-008  0.3829761E+03  0.7957747E-01  0.3438301E+00
         13   -1    0    0    0    0  0.00000000000E+00  0.00000000000E+00  0.14999999963E+04  0.15000000000E+04  0.10566000000E+00 0. -1.
        994   -1    0    0    0    0 -0.00000000000E+00 -0.00000000000E+00  0.11368683772E-12  0.17120000000E+03  0.17120000000E+03 0.  0.
         13    1    1    2    0    0  0.28697490749E+02  0.55002405451E+01  0.15569319649E+03  0.15841143020E+03  0.10566000000E+00 0. -1.
        994    1    1    2    0    0 -0.19950784178E+02 -0.11358734208E+02  0.43849851810E+01  0.17278808618E+03  0.17120000000E+03 0.  0.
        998    1    1    2    0    0 -0.87467065708E+01  0.58584936629E+01  0.13399218146E+04  0.13400004836E+04  0.10000000000E+02 0. -1.
</event>
<event>
 5    1  0.1787807E-008  0.3862935E+03  0.7957747E-01  0.3424205E+00
         13   -1    0    0    0    0  0.00000000000E+00  0.00000000000E+00  0.14999999963E+04  0.15000000000E+04  0.10566000000E+00 0. -1.
        994   -1    0    0    0    0 -0.00000000000E+00 -0.00000000000E+00  0.11368683772E-12  0.17120000000E+03  0.17120000000E+03 0.  0.
         13    1    1    2    0    0 -0.10044755301E+02 -0.89018531166E+00  0.52273694795E+02  0.53237579496E+02  0.10566000000E+00 0.  1.
        994    1    1    2    0    0  0.68255712781E+01  0.42457418764E+00  0.11424466697E+01  0.17134034513E+03  0.17120000000E+03 0.  0.
        998    1    1    2    0    0  0.32191840230E+01  0.46561112401E+00  0.14465838548E+04  0.14466220754E+04  0.10000000000E+02 0. -1.
</event>
<event>
 5    1  0.1303633E-008  0.3858652E+03  0.7957747E-01  0.3426011E+00
         13   -1    0    0    0    0  0.00000000000E+00  0.00000000000E+00  0.14999999963E+04  0.15000000000E+04  0.10566000000E+00 0.  1.
        994   -1    0    0    0    0 -0.00000000000E+00 -0.00000000000E+00  0.11368683772E-12  0.17120000000E+03  0.17120000000E+03 0.  0.
         13    1    1    2    0    0 -0.12386203435E+01 -0.10768655653E+02  0.50603704417E+02  0.51751755427E+02  0.10566000000E+00 0.  1.
        994    1    1    2    0    0  0.43694169267E+00  0.34871422846E+01  0.12416711593E+01  0.17124057004E+03  0.17120000000E+03 0.  0.
        998    1    1    2    0    0  0.80167865086E+00  0.72815133684E+01  0.14481546207E+04  0.14482076745E+04  0.10000000000E+02 0.  1.
</event>
<event>
 5    1  0.1303633E-008  0.3731651E+03  0.7957747E-01  0.3481470E+00
         13   -1    0    0    0    0  0.00000000000E+00  0.00000000000E+00  0.14999999963E+04  0.15000000000E+04  0.10566000000E+00 0. -1.
        994   -1    0    0    0    0 -0.00000000000E+00 -0.00000000000E+00  0.11368683772E-12  0.17120000000E+03  0.17120000000E+03 0.  0.
         13    1    1    2    0    0  0.74959363629E+02  0.10589855381E+02  0.42835445440E+03  0.43499264477E+03  0.10566000000E+00 0. -1.
        994    1    1    2    0    0 -0.26653630879E+02 -0.63768437274E+02  0.24143155280E+02  0.18619656704E+03  0.17120000000E+03 0.  0.
        998    1    1    2    0    0 -0.48305732750E+02  0.53178581892E+02  0.10475023866E+04  0.10500107882E+04  0.10000000000E+02 0. -1.
</event>
<event>
 5    1  0.1303633E-008  0.3859089E+03  0.7957747E-01  0.3425827E+00
         13   -1    0    0    0    0  0.00000000000E+00  0.00000000000E+00  0.14999999963E+04  0.15000000000E+04  0.10566000000E+00 0.  1.
        994   -1    0    0    0    0 -0.00000000000E+00 -0.00000000000E+00  0.11368683772E-12  0.17120000000E+03  0.17120000000E+03 0.  0.
         13    1    1    2    0    0 -0.95844367067E+01 -0.74165994562E+01  0.59486142841E+02  0.60708152077E+02  0.10566000000E+00 0.  1.
        994    1    1    2    0    0  0.57291595663E+01  0.19145618504E+02  0.24902226312E+01  0.17238044897E+03  0.17120000000E+03 0.  0.
        998    1    1    2    0    0  0.38552771404E+01 -0.11729019048E+02  0.14380236308E+04  0.14381113990E+04  0.10000000000E+02 0.  1.
</event>
<event>
 5    1  0.1303633E-008  0.3789102E+03  0.7957747E-01  0.3455918E+00
         13   -1    0    0    0    0  0.00000000000E+00  0.00000000000E+00  0.14999999963E+04  0.15000000000E+04  0.10566000000E+00 0. -1.
        994   -1    0    0    0    0 -0.00000000000E+00 -0.00000000000E+00  0.11368683772E-12  0.17120000000E+03  0.17120000000E+03 0.  0.
         13    1    1    2    0    0 -0.44594475973E+02  0.12588162930E+01  0.19652636067E+03  0.20152635934E+03  0.10566000000E+00 0. -1.
        994    1    1    2    0    0  0.35966191390E+02 -0.21835944758E+01  0.90525341606E+01  0.17518482635E+03  0.17120000000E+03 0.  0.
        998    1    1    2    0    0  0.86282845837E+01  0.92477818281E+00  0.12944211014E+04  0.12944888143E+04  0.10000000000E+02 0. -1.
</event>
<event>
 5    1  0.1303633E-008  0.3751904E+03  0.7957747E-01  0.3472372E+00
         13   -1    0    0    0    0  0.00000000000E+00  0.00000000000E+00  0.14999999963E+04  0.15000000000E+04  0.10566000000E+00 0. -1.
        994   -1    0    0    0    0 -0.00000000000E+00 -0.00000000000E+00  0.11368683772E-12  0.17120000000E+03  0.17120000000E+03 0.  0.
         13    1    1    2    0    0  0.12063290110E+02  0.75390385627E+01  0.12254318854E+02  0.18776036998E+02  0.10566000000E+00 0. -1.
        994    1    1    2    0    0 -0.11205409574E+02 -0.14613787161E+02  0.77338344690E+01  0.17236117943E+03  0.17120000000E+03 0.  0.
        998    1    1    2    0    0 -0.85788053637E+00  0.70747485987E+01  0.14800118430E+04  0.14800627836E+04  0.10000000000E+02 0. -1.
</event>
<event>
 5    1  0.1303633E-008  0.3802158E+03  0.7957747E-01  0.3450220E+00
         13   -1    0    0    0    0  0.00000000000E+00  0.00000000000E+00  0.14999999963E+04  0.15000000000E+04  0.10566000000E+00 0.  1.
        994   -1    0    0    0    0 -0.00000000000E+00 -0.00000000000E+00  0.11368683772E-12  0.17120000000E+03  0.17120000000E+03 0.  0.
         13    1    1    2    0    0 -0.34375430455E+00  0.20931529862E+02  0.51682648287E+02  0.55761585410E+02  0.10566000000E+00 0.  1.
        994    1    1    2    0    0  0.66912049108E+01 -0.19896471753E+02  0.54976333118E+01  0.17256971282E+03  0.17120000000E+03 0.  0.
        998    1    1    2    0    0 -0.63474506062E+01 -0.10350581092E+01  0.14428197147E+04  0.14428687018E+04  0.10000000000E+02 0.  1.
</event>
<event>
 5    1  0.1303633E-008  0.3817777E+03  0.7957747E-01  0.3443454E+00
         13   -1    0    0    0    0  0.00000000000E+00  0.00000000000E+00  0.14999999963E+04  0.15000000000E+04  0.10566000000E+00 0.  1.
        994   -1    0    0    0    0 -0.00000000000E+00 -0.00000000000E+00  0.11368683772E-12  0.17120000000E+03  0.17120000000E+03 0.  0.
         13    1    1    2    0    0  0.65677136880E+01  0.16966536772E+02  0.66215437923E+02  0.68669451844E+02  0.10566000000E+00 0.  1.
        994    1    1    2    0    0  0.99560736370E+02  0.32329572572E+01  0.36949415609E+02  0.20148819209E+03  0.17120000000E+03 0.  0.
        998    1    1    2    0    0 -0.10612845006E+03 -0.20199494030E+02  0.13968351427E+04  0.14010423561E+04  0.10000000000E+02 0.  1.
</event>
<event>
 5    1  0.1303633E-008  0.3727204E+03  0.7957747E-01  0.3483481E+00
         13   -1    0    0    0    0  0.00000000000E+00  0.00000000000E+00  0.14999999963E+04  0.15000000000E+04  0.10566000000E+00 0.  1.
        994   -1    0    0    0    0 -0.00000000000E+00 -0.00000000000E+00  0.11368683772E-12  0.17120000000E+03  0.17120000000E+03 0.  0.
         13    1    1    2    0    0  0.22495641884E+02  0.30082311581E+02  0.82322120334E+02  0.90487247909E+02  0.10566000000E+00 0.  1.
        994    1    1    2    0    0 -0.29783465218E+02 -0.26053875270E+02  0.13236978471E+02  0.17621156834E+03  0.17120000000E+03 0.  0.
        998    1    1    2    0    0  0.72878233337E+01 -0.40284363109E+01  0.14044408975E+04  0.14045011838E+04  0.10000000000E+02 0.  1.
</event>
<event>
 5    1  0.1303633E-008  0.3840169E+03  0.7957747E-01  0.3433852E+00
         13   -1    0    0    0    0  0.00000000000E+00  0.00000000000E+00  0.14999999963E+04  0.15000000000E+04  0.10566000000E+00 0.  1.
        994   -1    0    0    0    0 -0.00000000000E+00 -0.00000000000E+00  0.11368683772E-12  0.17120000000E+03  0.17120000000E+03 0.  0.
         13    1    1    2    0    0 -0.36860201054E+01  0.98317968402E+01  0.25875894522E+02  0.27925329983E+02  0.10566000000E+00 0.  1.
        994    1    1    2    0    0 -0.46341869866E+01 -0.39871026045E+01  0.22423095429E+01  0.17132378886E+03  0.17120000000E+03 0.  0.
        998    1    1    2    0    0  0.83202070920E+01 -0.58446942357E+01  0.14718817922E+04  0.14719508812E+04  0.10000000000E+02 0.  1.
</event>
<event>
 5    1  0.1303633E-008  0.3860235E+03  0.7957747E-01  0.3425343E+00
         13   -1    0    0    0    0  0.00000000000E+00  0.00000000000E+00  0.14999999963E+04  0.15000000000E+04  0.10566000000E+00 0.  1.
        994   -1    0    0    0    0 -0.00000000000E+00 -0.00000000000E+00  0.11368683772E-12  0.17120000000E+03  0.17120000000E+03 0.  0.
         13    1    1    2    0    0 -0.10368793768E+02  0.61588750354E+01  0.62573742900E+02  0.63725411654E+02  0.10566000000E+00 0.  1.
        994    1    1    2    0    0  0.83061700042E+01 -0.14309675998E+02  0.20206623443E+01  0.17200954149E+03  0.17120000000E+03 0.  0.
        998    1    1    2    0    0  0.20626237633E+01  0.81508009623E+01  0.14354055910E+04  0.14354650469E+04  0.10000000000E+02 0.  1.
</event>
<event>
 5    1  0.1303633E-008  0.3757905E+03  0.7957747E-01  0.3469695E+00
         13   -1    0    0    0    0  0.00000000000E+00  0.00000000000E+00  0.14999999963E+04  0.15000000000E+04  0.10566000000E+00 0.  1.
        994   -1    0    0    0    0 -0.00000000000E+00 -0.00000000000E+00  0.11368683772E-12  0.17120000000E+03  0.17120000000E+03 0.  0.
         13    1    1    2    0    0 -0.16525297011E+02  0.18825555548E+02  0.46619924486E+02  0.52923676234E+02  0.10566000000E+00 0.  1.
        994    1    1    2    0    0  0.96801158285E+01 -0.21899550389E+02  0.82193548858E+01  0.17306152878E+03  0.17120000000E+03 0.  0.
        998    1    1    2    0    0  0.68451811826E+01  0.30739948417E+01  0.14451607169E+04  0.14452147950E+04  0.10000000000E+02 0.  1.
</event>
<event>
 5    1  0.1303633E-008  0.3745416E+03  0.7957747E-01  0.3475276E+00
         13   -1    0    0    0    0  0.00000000000E+00  0.00000000000E+00  0.14999999963E+04  0.15000000000E+04  0.10566000000E+00 0. -1.
        994   -1    0    0    0    0 -0.00000000000E+00 -0.00000000000E+00  0.11368683772E-12  0.17120000000E+03  0.17120000000E+03 0.  0.
         13    1    1    2    0    0 -0.40662698096E+02  0.40280533528E+01  0.11773588334E+03  0.12462515645E+03  0.10566000000E+00 0. -1.
        994    1    1    2    0    0  0.24568368440E+02 -0.14849761499E+02  0.97251210093E+01  0.17386241147E+03  0.17120000000E+03 0.  0.
        998    1    1    2    0    0  0.16094329656E+02  0.10821708146E+02  0.13725389919E+04  0.13727124321E+04  0.10000000000E+02 0. -1.
</event>
<event>
 5    1  0.1303633E-008  0.3839582E+03  0.7957747E-01  0.3434103E+00
         13   -1    0    0    0    0  0.00000000000E+00  0.00000000000E+00  0.14999999963E+04  0.15000000000E+04  0.10566000000E+00 0.  1.
        994   -1    0    0    0    0 -0.00000000000E+00 -0.00000000000E+00  0.11368683772E-12  0.17120000000E+03  0.17120000000E+03 0.  0.
         13    1    1    2    0    0 -0.79355346595E+00 -0.19538197312E+02  0.88336993950E+02  0.90475447197E+02  0.10566000000E+00 0.  1.
        994    1    1    2    0    0  0.29256615337E+02  0.12645930457E+02  0.55076381155E+01  0.17422870939E+03  0.17120000000E+03 0.  0.
        998    1    1    2    0    0 -0.28463061871E+02  0.68922668545E+01  0.14061553642E+04  0.14064958434E+04  0.10000000000E+02 0.  1.
</event>
<event>
 5    1  0.1303633E-008  0.3841526E+03  0.7957747E-01  0.3433274E+00
         13   -1    0    0    0    0  0.00000000000E+00  0.00000000000E+00  0.14999999963E+04  0.15000000000E+04  0.10566000000E+00 0.  1.
        994   -1    0    0    0    0 -0.00000000000E+00 -0.00000000000E+00  0.11368683772E-12  0.17120000000E+03  0.17120000000E+03 0.  0.
         13    1    1    2    0    0  0.11309824977E+01 -0.14155473182E+02  0.50680397911E+02  0.52632408637E+02  0.10566000000E+00 0.  1.
        994    1    1    2    0    0  0.13599414974E+02  0.29872086324E+01  0.26910165206E+01  0.17178634717E+03  0.17120000000E+03 0.  0.
        998    1    1    2    0    0 -0.14730397472E+02  0.11168264549E+02  0.14466285818E+04  0.14467812442E+04  0.10000000000E+02 0.  1.
</event>
<event>
 5    1  0.1303633E-008  0.3932357E+03  0.7957747E-01  0.3395477E+00
         13   -1    0    0    0    0  0.00000000000E+00  0.00000000000E+00  0.14999999963E+04  0.15000000000E+04  0.10566000000E+00 0.  1.
        994   -1    0    0    0    0 -0.00000000000E+00 -0.00000000000E+00  0.11368683772E-12  0.17120000000E+03  0.17120000000E+03 0.  0.
         13    1    1    2    0    0 -0.96862089058E+02 -0.88785721526E+02  0.27217651243E+03  0.30223374022E+03  0.10566000000E+00 0.  1.
        994    1    1    2    0    0  0.10551860573E+03  0.90326628650E+02  0.10173906698E+03  0.24280311726E+03  0.17120000000E+03 0.  0.
        998    1    1    2    0    0 -0.86565166730E+01 -0.15409071240E+01  0.11260844169E+04  0.11261631425E+04  0.10000000000E+02 0.  0.
</event>
<event>
 5    1  0.1303633E-008  0.2676398E+03  0.7957747E-01  0.4158079E+00
         13   -1    0    0    0    0  0.00000000000E+00  0.00000000000E+00  0.14999999963E+04  0.15000000000E+04  0.10566000000E+00 0. -1.
        994   -1    0    0    0    0 -0.00000000000E+00 -0.00000000000E+00  0.11368683772E-12  0.17120000000E+03  0.17120000000E+03 0.  0.
         13    1    1    2    0    0 -0.15328361656E+03 -0.84444730065E+02  0.39689508883E+03  0.43376549223E+03  0.10566000000E+00 0. -1.
        994    1    1    2    0    0  0.16420149470E+03  0.90310325001E+02  0.17295831156E+03  0.30715159645E+03  0.17120000000E+03 0.  0.
        998    1    1    2    0    0 -0.10917878141E+02 -0.58655949368E+01  0.93014659589E+03  0.93028291133E+03  0.10000000000E+02 0. -1.
</event>
<event>
 5    1  0.1303633E-008  0.3788955E+03  0.7957747E-01  0.3455982E+00
         13   -1    0    0    0    0  0.00000000000E+00  0.00000000000E+00  0.14999999963E+04  0.15000000000E+04  0.10566000000E+00 0.  1.
        994   -1    0    0    0    0 -0.00000000000E+00 -0.00000000000E+00  0.11368683772E-12  0.17120000000E+03  0.17120000000E+03 0.  0.
         13    1    1    2    0    0 -0.15635262222E+02  0.19042227623E+02  0.61133514447E+02  0.65911953470E+02  0.10566000000E+00 0.  1.
        994    1    1    2    0    0  0.12812269420E+02 -0.19607876344E+02  0.65346109254E+01  0.17291837439E+03  0.17120000000E+03 0.  0.
        998    1    1    2    0    0  0.28229928015E+01  0.56564872129E+00  0.14323318709E+04  0.14323696721E+04  0.10000000000E+02 0.  1.
</event>
<event>
 5    1  0.1303633E-008  0.3779136E+03  0.7957747E-01  0.3460294E+00
         13   -1    0    0    0    0  0.00000000000E+00  0.00000000000E+00  0.14999999963E+04  0.15000000000E+04  0.10566000000E+00 0.  1.
        994   -1    0    0    0    0 -0.00000000000E+00 -0.00000000000E+00  0.11368683772E-12  0.17120000000E+03  0.17120000000E+03 0.  0.
         13    1    1    2    0    0 -0.75604904926E+01  0.18914202947E+02  0.37875182516E+02  0.43005217175E+02  0.10566000000E+00 0.  1.
        994    1    1    2    0    0  0.10403749750E+02 -0.10858113946E+02  0.59516275871E+01  0.17196220084E+03  0.17120000000E+03 0.  0.
        998    1    1    2    0    0 -0.28432592573E+01 -0.80560890012E+01  0.14561731862E+04  0.14562325820E+04  0.10000000000E+02 0.  1.
</event>
<event>
 5    1  0.1303633E-008  0.3845456E+03  0.7957747E-01  0.3431602E+00
         13   -1    0    0    0    0  0.00000000000E+00  0.00000000000E+00  0.14999999963E+04  0.15000000000E+04  0.10566000000E+00 0.  1.
        994   -1    0    0    0    0 -0.00000000000E+00 -0.00000000000E+00  0.11368683772E-12  0.17120000000E+03  0.17120000000E+03 0.  0.
         13    1    1    2    0    0 -0.98948907928E+01  0.11524854220E+02  0.65919175731E+02  0.67646729571E+02  0.10566000000E+00 0.  1.
        994    1    1    2    0    0 -0.39542180837E+01 -0.30770014263E+01  0.19386074156E+01  0.17128427242E+03  0.17120000000E+03 0.  0.
        998    1    1    2    0    0  0.13849108876E+02 -0.84478527933E+01  0.14321422131E+04  0.14322689980E+04  0.10000000000E+02 0.  1.
</event>
<event>
 5    1  0.1303633E-008  0.3861263E+03  0.7957747E-01  0.3424909E+00
         13   -1    0    0    0    0  0.00000000000E+00  0.00000000000E+00  0.14999999963E+04  0.15000000000E+04  0.10566000000E+00 0. -1.
        994   -1    0    0    0    0 -0.00000000000E+00 -0.00000000000E+00  0.11368683772E-12  0.17120000000E+03  0.17120000000E+03 0.  0.
         13    1    1    2    0    0  0.10502321500E+02  0.35078787087E+01  0.57400139142E+02  0.58458456253E+02  0.10566000000E+00 0. -1.
        994    1    1    2    0    0 -0.53526582957E+01 -0.12303115945E+02  0.16620460435E+01  0.17173299045E+03  0.17120000000E+03 0.  0.
        998    1    1    2    0    0 -0.51496632045E+01  0.87952372363E+01  0.14409378111E+04  0.14410085533E+04  0.10000000000E+02 0. -1.
</event>
<event>
 5    1  0.1303633E-008  0.3261402E+03  0.7957747E-01  0.3725437E+00
         13   -1    0    0    0    0  0.00000000000E+00  0.00000000000E+00  0.14999999963E+04  0.15000000000E+04  0.10566000000E+00 0.  1.
        994   -1    0    0    0    0 -0.00000000000E+00 -0.00000000000E+00  0.11368683772E-12  0.17120000000E+03  0.17120000000E+03 0.  0.
         13    1    1    2    0    0 -0.25366600216E+01 -0.18892917015E+03  0.94128303504E+03  0.96005959669E+03  0.10566000000E+00 0.  1.
        994    1    1    2    0    0 -0.23768645900E+02  0.12831890276E+03  0.82939012168E+02  0.23069245560E+03  0.17120000000E+03 0.  0.
        998    1    1    2    0    0  0.26305305921E+02  0.60610267396E+02  0.47577794907E+03  0.48044794771E+03  0.10000000000E+02 0.  1.
</event>
<event>
 5    1  0.1303633E-008  0.3762970E+03  0.7957747E-01  0.3467443E+00
         13   -1    0    0    0    0  0.00000000000E+00  0.00000000000E+00  0.14999999963E+04  0.15000000000E+04  0.10566000000E+00 0. -1.
        994   -1    0    0    0    0 -0.00000000000E+00 -0.00000000000E+00  0.11368683772E-12  0.17120000000E+03  0.17120000000E+03 0.  0.
         13    1    1    2    0    0  0.10015159626E+02  0.15337436039E+02  0.24177367655E+02  0.30333094754E+02  0.10566000000E+00 0. -1.
        994    1    1    2    0    0 -0.12357173331E+02 -0.29132895817E+02  0.94109026707E+01  0.17435432441E+03  0.17120000000E+03 0.  0.
        998    1    1    2    0    0  0.23420137052E+01  0.13795459778E+02  0.14664117260E+04  0.14665125808E+04  0.10000000000E+02 0. -1.
</event>
<event>
 5    1  0.1303633E-008  0.3789656E+03  0.7957747E-01  0.3455675E+00
         13   -1    0    0    0    0  0.00000000000E+00  0.00000000000E+00  0.14999999963E+04  0.15000000000E+04  0.10566000000E+00 0.  1.
        994   -1    0    0    0    0 -0.00000000000E+00 -0.00000000000E+00  0.11368683772E-12  0.17120000000E+03  0.17120000000E+03 0.  0.
         13    1    1    2    0    0 -0.80078391540E-01 -0.12070690820E+02  0.13880113991E+02  0.18395018833E+02  0.10566000000E+00 0.  1.
        994    1    1    2    0    0  0.52499767726E+01  0.55025105023E+00  0.47496732591E+01  0.17134720432E+03  0.17120000000E+03 0.  0.
        998    1    1    2    0    0 -0.51698983811E+01  0.11520439770E+02  0.14813702090E+04  0.14814577768E+04  0.10000000000E+02 0.  1.
</event>
<event>
 5    1  0.1303633E-008  0.3758598E+03  0.7957747E-01  0.3469386E+00
         13   -1    0    0    0    0  0.00000000000E+00  0.00000000000E+00  0.14999999963E+04  0.15000000000E+04  0.10566000000E+00 0.  1.
        994   -1    0    0    0    0 -0.00000000000E+00 -0.00000000000E+00  0.11368683772E-12  0.17120000000E+03  0.17120000000E+03 0.  0.
         13    1    1    2    0    0  0.16994625104E+02  0.28434622381E+02  0.83528370355E+02  0.89857358356E+02  0.10566000000E+00 0.  1.
        994    1    1    2    0    0  0.74748399789E-01 -0.31594789355E+02  0.96286894838E+01  0.17435707030E+03  0.17120000000E+03 0.  0.
        998    1    1    2    0    0 -0.17069373504E+02  0.31601669735E+01  0.14068429364E+04  0.14069855713E+04  0.10000000000E+02 0.  1.
</event>
<event>
 5    1  0.1303633E-008  0.3848332E+03  0.7957747E-01  0.3430380E+00
         13   -1    0    0    0    0  0.00000000000E+00  0.00000000000E+00  0.14999999963E+04  0.15000000000E+04  0.10566000000E+00 0. -1.
        994   -1    0    0    0    0 -0.00000000000E+00 -0.00000000000E+00  0.11368683772E-12  0.17120000000E+03  0.17120000000E+03 0.  0.
         13    1    1    2    0    0 -0.53680756387E+01  0.10295040883E+02  0.45008244003E+02  0.46481795308E+02  0.10566000000E+00 0. -1.
        994    1    1    2    0    0 -0.28078638848E+02  0.56855869939E+01  0.44182353711E+01  0.17363668006E+03  0.17120000000E+03 0.  0.
        998    1    1    2    0    0  0.33446714486E+02 -0.15980627877E+02  0.14505735169E+04  0.14510815246E+04  0.10000000000E+02 0. -1.
</event>
<event>
 5    1  0.1303633E-008  0.3809346E+03  0.7957747E-01  0.3447099E+00
         13   -1    0    0    0    0  0.00000000000E+00  0.00000000000E+00  0.14999999963E+04  0.15000000000E+04  0.10566000000E+00 0. -1.
        994   -1    0    0    0    0 -0.00000000000E+00 -0.00000000000E+00  0.11368683772E-12  0.17120000000E+03  0.17120000000E+03 0.  0.
         13    1    1    2    0    0 -0.23448366979E+01  0.31635140106E+02  0.13205630695E+03  0.13581295858E+03  0.10566000000E+00 0. -1.
        994    1    1    2    0    0  0.96486592016E+00 -0.23785118313E+02  0.55528847175E+01  0.17293622335E+03  0.17120000000E+03 0.  0.
        998    1    1    2    0    0  0.13799707778E+01 -0.78500217925E+01  0.13623908046E+04  0.13624508181E+04  0.10000000000E+02 0. -1.
</event>
<event>
 5    1  0.1303633E-008  0.3754451E+03  0.7957747E-01  0.3471235E+00
         13   -1    0    0    0    0  0.00000000000E+00  0.00000000000E+00  0.14999999963E+04  0.15000000000E+04  0.10566000000E+00 0.  1.
        994   -1    0    0    0    0 -0.00000000000E+00 -0.00000000000E+00  0.11368683772E-12  0.17120000000E+03  0.17120000000E+03 0.  0.
         13    1    1    2    0    0  0.27280806439E+01 -0.14571889951E+02  0.13971928606E+02  0.20371753821E+02  0.10566000000E+00 0.  1.
        994    1    1    2    0    0 -0.50217136330E+01  0.16921365583E+02  0.75084881076E+01  0.17227120367E+03  0.17120000000E+03 0.  0.
        998    1    1    2    0    0  0.22936329891E+01 -0.23494756319E+01  0.14785195796E+04  0.14785570425E+04  0.10000000000E+02 0.  1.
</event>
<event>
 5    1  0.1303633E-008  0.3851056E+03  0.7957747E-01  0.3429225E+00
         13   -1    0    0    0    0  0.00000000000E+00  0.00000000000E+00  0.14999999963E+04  0.15000000000E+04  0.10566000000E+00 0.  1.
        994   -1    0    0    0    0 -0.00000000000E+00 -0.00000000000E+00  0.11368683772E-12  0.17120000000E+03  0.17120000000E+03 0.  0.
         13    1    1    2    0    0  0.15895381497E+02 -0.94200329640E+01  0.10509394377E+03  0.10670589653E+03  0.10566000000E+00 0.  1.
        994    1    1    2    0    0 -0.12534141114E+02  0.91997324874E+01  0.23728702556E+01  0.17192094196E+03  0.17120000000E+03 0.  0.
        998    1    1    2    0    0 -0.33612403831E+01  0.22030047658E+00  0.13925331823E+04  0.13925731615E+04  0.10000000000E+02 0.  0.
</event>
<event>
 5    1  0.1303633E-008  0.3851429E+03  0.7957747E-01  0.3429066E+00
         13   -1    0    0    0    0  0.00000000000E+00  0.00000000000E+00  0.14999999963E+04  0.15000000000E+04  0.10566000000E+00 0.  1.
        994   -1    0    0    0    0 -0.00000000000E+00 -0.00000000000E+00  0.11368683772E-12  0.17120000000E+03  0.17120000000E+03 0.  0.
         13    1    1    2    0    0  0.45019816022E+01 -0.14745590791E+02  0.72202255800E+02  0.73830056161E+02  0.10566000000E+00 0.  1.
        994    1    1    2    0    0 -0.43551195189E+01  0.17891971292E+02  0.26746172067E+01  0.17220825555E+03  0.17120000000E+03 0.  0.
        998    1    1    2    0    0 -0.14686208330E+00 -0.31463805017E+01  0.14251231233E+04  0.14251616883E+04  0.10000000000E+02 0.  1.
</event>
<event>
 5    1  0.1303633E-008  0.3695670E+03  0.7957747E-01  0.3497883E+00
         13   -1    0    0    0    0  0.00000000000E+00  0.00000000000E+00  0.14999999963E+04  0.15000000000E+04  0.10566000000E+00 0. -1.
        994   -1    0    0    0    0 -0.00000000000E+00 -0.00000000000E+00  0.11368683772E-12  0.17120000000E+03  0.17120000000E+03 0.  0.
         13    1    1    2    0    0 -0.21305789758E+01  0.22111181627E+02  0.21519438833E+02  0.30927999150E+02  0.10566000000E+00 0. -1.
        994    1    1    2    0    0  0.87959614760E+01 -0.23647686826E+02  0.11703061991E+02  0.17344446861E+03  0.17120000000E+03 0.  0.
        998    1    1    2    0    0 -0.66653825002E+01  0.15365051995E+01  0.14667774955E+04  0.14668275322E+04  0.10000000000E+02 0. -1.
</event>
<event>
 5    1  0.1303633E-008  0.3853737E+03  0.7957747E-01  0.3428089E+00
         13   -1    0    0    0    0  0.00000000000E+00  0.00000000000E+00  0.14999999963E+04  0.15000000000E+04  0.10566000000E+00 0.  1.
        994   -1    0    0    0    0 -0.00000000000E+00 -0.00000000000E+00  0.11368683772E-12  0.17120000000E+03  0.17120000000E+03 0.  0.
         13    1    1    2    0    0  0.46955831496E+01 -0.11318085444E+02  0.50944248457E+02  0.52397282126E+02  0.10566000000E+00 0.  1.
        994    1    1    2    0    0 -0.30979182287E+01  0.11773966884E+02  0.19317548275E+01  0.17164322029E+03  0.17120000000E+03 0.  0.
        998    1    1    2    0    0 -0.15976649210E+01 -0.45588143963E+00  0.14471239930E+04  0.14471594976E+04  0.10000000000E+02 0.  1.
</event>
<event>
 5    1  0.1303633E-008  0.3837367E+03  0.7957747E-01  0.3435048E+00
         13   -1    0    0    0    0  0.00000000000E+00  0.00000000000E+00  0.14999999963E+04  0.15000000000E+04  0.10566000000E+00 0.  1.
        994   -1    0    0    0    0 -0.00000000000E+00 -0.00000000000E+00  0.11368683772E-12  0.17120000000E+03  0.17120000000E+03 0.  0.
         13    1    1    2    0    0 -0.17307082350E+02 -0.64293604798E+01  0.69809887292E+02  0.72210132969E+02  0.10566000000E+00 0.  1.
        994    1    1    2    0    0  0.21651394289E+02  0.12360192566E+02  0.43138046656E+01  0.17305954509E+03  0.17120000000E+03 0.  0.
        998    1    1    2    0    0 -0.43443119393E+01 -0.59308320860E+01  0.14258763043E+04  0.14259303219E+04  0.10000000000E+02 0.  1.
</event>
<event>
 5    1  0.1303633E-008  0.3124467E+03  0.7957747E-01  0.3810982E+00
         13   -1    0    0    0    0  0.00000000000E+00  0.00000000000E+00  0.14999999963E+04  0.15000000000E+04  0.10566000000E+00 0. -1.
        994   -1    0    0    0    0 -0.00000000000E+00 -0.00000000000E+00  0.11368683772E-12  0.17120000000E+03  0.17120000000E+03 0.  0.
         13    1    1    2    0    0 -0.17096769345E+03 -0.16448727069E+03  0.63775026223E+03  0.68044942689E+03  0.10566000000E+00 0. -1.
        994    1    1    2    0    0  0.91422538161E+02  0.24327870286E+03  0.35906361235E+03  0.47516178872E+03  0.17120000000E+03 0.  0.
        998    1    1    2    0    0  0.79545155286E+02 -0.78791432164E+02  0.50318612170E+03  0.51558878439E+03  0.10000000000E+02 0. -1.
</event>
<event>
 5    1  0.1303633E-008  0.3832428E+03  0.7957747E-01  0.3437159E+00
         13   -1    0    0    0    0  0.00000000000E+00  0.00000000000E+00  0.14999999963E+04  0.15000000000E+04  0.10566000000E+00 0.  1.
        994   -1    0    0    0    0 -0.00000000000E+00 -0.00000000000E+00  0.11368683772E-12  0.17120000000E+03  0.17120000000E+03 0.  0.
         13    1    1    2    0    0  0.21342336917E+02 -0.16194194094E+02  0.14816080445E+03  0.15056354940E+03  0.10566000000E+00 0.  1.
        994    1    1    2    0    0 -0.14837324518E+02 -0.71747952433E+00  0.32352299977E+01  0.17187369691E+03  0.17120000000E+03 0.  0.
        998    1    1    2    0    0 -0.65050123995E+01  0.16911673619E+02  0.13486039618E+04  0.13487627537E+04  0.10000000000E+02 0.  1.
</event>
<event>
 5    1  0.1303633E-008  0.3859207E+03  0.7957747E-01  0.3425777E+00
         13   -1    0    0    0    0  0.00000000000E+00  0.00000000000E+00  0.14999999963E+04  0.15000000000E+04  0.10566000000E+00 0. -1.
        994   -1    0    0    0    0 -0.00000000000E+00 -0.00000000000E+00  0.11368683772E-12  0.17120000000E+03  0.17120000000E+03 0.  0.
         13    1    1    2    0    0 -0.10550052183E+02  0.38379254343E+01  0.56551287525E+02  0.57654943912E+02  0.10566000000E+00 0. -1.
        994    1    1    2    0    0  0.63079789082E+00 -0.29318844770E+01  0.12032068212E+01  0.17123049249E+03  0.17120000000E+03 0.  0.
        998    1    1    2    0    0  0.99192542923E+01 -0.90604095726E+00  0.14422455019E+04  0.14423145636E+04  0.10000000000E+02 0. -1.
</event>
<event>
 5    1  0.1303633E-008  0.3849583E+03  0.7957747E-01  0.3429849E+00
         13   -1    0    0    0    0  0.00000000000E+00  0.00000000000E+00  0.14999999963E+04  0.15000000000E+04  0.10566000000E+00 0. -1.
        994   -1    0    0    0    0 -0.00000000000E+00 -0.00000000000E+00  0.11368683772E-12  0.17120000000E+03  0.17120000000E+03 0.  0.
         13    1    1    2    0    0  0.71652751825E+01  0.16117885792E+02  0.97697290341E+02  0.99276881070E+02  0.10566000000E+00 0. -1.
        994    1    1    2    0    0 -0.37117121775E+01 -0.56837091474E+01  0.18024244120E+01  0.17134401096E+03  0.17120000000E+03 0.  0.
        998    1    1    2    0    0 -0.34535630050E+01 -0.10434176645E+02  0.14005002815E+04  0.14005791080E+04  0.10000000000E+02 0. -1.
</event>
<event>
 5    1  0.1303633E-008  0.3859991E+03  0.7957747E-01  0.3425446E+00
         13   -1    0    0    0    0  0.00000000000E+00  0.00000000000E+00  0.14999999963E+04  0.15000000000E+04  0.10566000000E+00 0.  1.
        994   -1    0    0    0    0 -0.00000000000E+00 -0.00000000000E+00  0.11368683772E-12  0.17120000000E+03  0.17120000000E+03 0.  0.
         13    1    1    2    0    0 -0.73017739992E+01 -0.13006386064E+02  0.71874529683E+02  0.73406002229E+02  0.10566000000E+00 0.  1.
        994    1    1    2    0    0  0.37536157194E+02  0.39785077881E+02  0.11004227317E+02  0.18006206857E+03  0.17120000000E+03 0.  0.
        998    1    1    2    0    0 -0.30234383195E+02 -0.26778691817E+02  0.14171212393E+04  0.14177319292E+04  0.10000000000E+02 0.  1.
</event>
<event>
 5    1  0.1303633E-008  0.3795104E+03  0.7957747E-01  0.3453293E+00
         13   -1    0    0    0    0  0.00000000000E+00  0.00000000000E+00  0.14999999963E+04  0.15000000000E+04  0.10566000000E+00 0. -1.
        994   -1    0    0    0    0 -0.00000000000E+00 -0.00000000000E+00  0.11368683772E-12  0.17120000000E+03  0.17120000000E+03 0.  0.
         13    1    1    2    0    0  0.17631193066E+02 -0.16457387640E+02  0.62428631963E+02  0.66925703804E+02  0.10566000000E+00 0. -1.
        994    1    1    2    0    0 -0.34334932922E+02 -0.47450498927E+00  0.83386498995E+01  0.17480871219E+03  0.17120000000E+03 0.  0.
        998    1    1    2    0    0  0.16703739856E+02  0.16931892629E+02  0.14292327144E+04  0.14294655840E+04  0.10000000000E+02 0. -1.
</event>
<event>
 5    1  0.1303633E-008  0.3814200E+03  0.7957747E-01  0.3444999E+00
         13   -1    0    0    0    0  0.00000000000E+00  0.00000000000E+00  0.14999999963E+04  0.15000000000E+04  0.10566000000E+00 0.  1.
        994   -1    0    0    0    0 -0.00000000000E+00 -0.00000000000E+00  0.11368683772E-12  0.17120000000E+03  0.17120000000E+03 0.  0.
         13    1    1    2    0    0  0.40539543463E+01 -0.95429950189E+01  0.14982976795E+02  0.18220978499E+02  0.10566000000E+00 0.  1.
        994    1    1    2    0    0  0.29084040643E+02  0.16010729914E+00  0.62377545657E+01  0.17376494651E+03  0.17120000000E+03 0.  0.
        998    1    1    2    0    0 -0.33137994989E+02  0.93828877198E+01  0.14787792649E+04  0.14792140750E+04  0.10000000000E+02 0.  1.
</event>
<event>
 5    1  0.1303633E-008  0.3853273E+03  0.7957747E-01  0.3428285E+00
         13   -1    0    0    0    0  0.00000000000E+00  0.00000000000E+00  0.14999999963E+04  0.15000000000E+04  0.10566000000E+00 0.  1.
        994   -1    0    0    0    0 -0.00000000000E+00 -0.00000000000E+00  0.11368683772E-12  0.17120000000E+03  0.17120000000E+03 0.  0.
         13    1    1    2    0    0 -0.12974125750E+02 -0.30603372885E+01  0.58179976124E+02  0.59687640170E+02  0.10566000000E+00 0.  1.
        994    1    1    2    0    0  0.14334581991E+02  0.76633217719E+01  0.23361646793E+01  0.17198576804E+03  0.17120000000E+03 0.  0.
        998    1    1    2    0    0 -0.13604562414E+01 -0.46029844834E+01  0.14394838555E+04  0.14395265918E+04  0.10000000000E+02 0.  1.
</event>
<event>
 5    1  0.1303633E-008  0.3752888E+03  0.7957747E-01  0.3471932E+00
         13   -1    0    0    0    0  0.00000000000E+00  0.00000000000E+00  0.14999999963E+04  0.15000000000E+04  0.10566000000E+00 0.  1.
        994   -1    0    0    0    0 -0.00000000000E+00 -0.00000000000E+00  0.11368683772E-12  0.17120000000E+03  0.17120000000E+03 0.  0.
         13    1    1    2    0    0  0.13092086820E+02  0.60884554046E+01  0.12258180103E+02  0.18940595819E+02  0.10566000000E+00 0.  1.
        994    1    1    2    0    0 -0.18613378334E+02 -0.46000005494E+02  0.14939043735E+02  0.17887166737E+03  0.17120000000E+03 0.  0.
        998    1    1    2    0    0  0.55212915143E+01  0.39911550089E+02  0.14728027724E+04  0.14733877368E+04  0.10000000000E+02 0.  1.
</event>
<event>
 5    1  0.1303633E-008  0.3852452E+03  0.7957747E-01  0.3428633E+00
         13   -1    0    0    0    0  0.00000000000E+00  0.00000000000E+00  0.14999999963E+04  0.15000000000E+04  0.10566000000E+00 0.  1.
        994   -1    0    0    0    0 -0.00000000000E+00 -0.00000000000E+00  0.11368683772E-12  0.17120000000E+03  0.17120000000E+03 0.  0.
         13    1    1    2    0    0 -0.74765469251E+01  0.86927016500E+01  0.42261764653E+02  0.43789607574E+02  0.10566000000E+00 0.  1.
        994    1    1    2    0    0  0.17080528292E+02 -0.33255222098E+01  0.25040869541E+01  0.17210030214E+03  0.17120000000E+03 0.  0.
        998    1    1    2    0    0 -0.96039813669E+01 -0.53671794403E+01  0.14552341447E+04  0.14553100903E+04  0.10000000000E+02 0.  1.
</event>
<event>
 5    1  0.1303633E-008  0.3821941E+03  0.7957747E-01  0.3441660E+00
         13   -1    0    0    0    0  0.00000000000E+00  0.00000000000E+00  0.14999999963E+04  0.15000000000E+04  0.10566000000E+00 0.  1.
        994   -1    0    0    0    0 -0.00000000000E+00 -0.00000000000E+00  0.11368683772E-12  0.17120000000E+03  0.17120000000E+03 0.  0.
         13    1    1    2    0    0  0.17276481313E+02  0.12903621030E+02  0.72339013113E+02  0.75484595942E+02  0.10566000000E+00 0.  1.
        994    1    1    2    0    0 -0.14923559019E+02 -0.18328599509E+02  0.48859311429E+01  0.17289292206E+03  0.17120000000E+03 0.  0.
        998    1    1    2    0    0 -0.23529222942E+01  0.54249784788E+01  0.14227750520E+04  0.14228224820E+04  0.10000000000E+02 0.  1.
</event>
<event>
 5    1  0.1303633E-008  0.3791035E+03  0.7957747E-01  0.3455071E+00
         13   -1    0    0    0    0  0.00000000000E+00  0.00000000000E+00  0.14999999963E+04  0.15000000000E+04  0.10566000000E+00 0.  1.
        994   -1    0    0    0    0 -0.00000000000E+00 -0.00000000000E+00  0.11368683772E-12  0.17120000000E+03  0.17120000000E+03 0.  0.
         13    1    1    2    0    0 -0.48783561071E+02 -0.57455581105E+02  0.40754725394E+03  0.41445838752E+03  0.10566000000E+00 0.  1.
        994    1    1    2    0    0  0.45898062763E+02  0.71768488276E+02  0.29317151238E+02  0.19345873832E+03  0.17120000000E+03 0.  0.
        998    1    1    2    0    0  0.28854983076E+01 -0.14312907171E+02  0.10631355911E+04  0.10632828742E+04  0.10000000000E+02 0.  1.
</event>
<event>
 5    1  0.1303633E-008  0.2994070E+03  0.7957747E-01  0.3900262E+00
         13   -1    0    0    0    0  0.00000000000E+00  0.00000000000E+00  0.14999999963E+04  0.15000000000E+04  0.10566000000E+00 0.  1.
        994   -1    0    0    0    0 -0.00000000000E+00 -0.00000000000E+00  0.11368683772E-12  0.17120000000E+03  0.17120000000E+03 0.  0.
         13    1    1    2    0    0 -0.17355183882E+03 -0.58679773411E+02  0.83529134445E+03  0.85514630201E+03  0.10566000000E+00 0.  1.
        994    1    1    2    0    0  0.65266311008E+02  0.21322600689E+02  0.50595385733E+02  0.19126860095E+03  0.17120000000E+03 0.  0.
        998    1    1    2    0    0  0.10828552781E+03  0.37357172722E+02  0.61411326610E+03  0.62478509704E+03  0.10000000000E+02 0. -1.
</event>
<event>
 5    1  0.1303633E-008  0.3844449E+03  0.7957747E-01  0.3432030E+00
         13   -1    0    0    0    0  0.00000000000E+00  0.00000000000E+00  0.14999999963E+04  0.15000000000E+04  0.10566000000E+00 0. -1.
        994   -1    0    0    0    0 -0.00000000000E+00 -0.00000000000E+00  0.11368683772E-12  0.17120000000E+03  0.17120000000E+03 0.  0.
         13    1    1    2    0    0  0.22398145807E+01  0.11109947066E+02  0.32939904060E+02  0.34835271446E+02  0.10566000000E+00 0. -1.
        994    1    1    2    0    0 -0.21178803159E+01 -0.99011081744E+01  0.22438259513E+01  0.17151382485E+03  0.17120000000E+03 0.  0.
        998    1    1    2    0    0 -0.12193426479E+00 -0.12088388917E+01  0.14648162663E+04  0.14648509037E+04  0.10000000000E+02 0. -1.
</event>
<event>
 5    1  0.1303633E-008  0.3450084E+03  0.7957747E-01  0.3619272E+00
         13   -1    0    0    0    0  0.00000000000E+00  0.00000000000E+00  0.14999999963E+04  0.15000000000E+04  0.10566000000E+00 0.  1.
        994   -1    0    0    0    0 -0.00000000000E+00 -0.00000000000E+00  0.11368683772E-12  0.17120000000E+03  0.17120000000E+03 0.  0.
         13    1    1    2    0    0  0.23751739946E+03 -0.91089767674E-01  0.93234672135E+03  0.96212522226E+03  0.10566000000E+00 0.  1.
        994    1    1    2    0    0 -0.23498412337E+03 -0.64267714068E+02  0.26219970537E+03  0.39674425365E+03  0.17120000000E+03 0.  0.
        998    1    1    2    0    0 -0.25332760852E+01  0.64358803836E+02  0.30545356956E+03  0.31233052408E+03  0.10000000000E+02 0.  1.
</event>
<event>
 5    1  0.1303633E-008  0.3856957E+03  0.7957747E-01  0.3426727E+00
         13   -1    0    0    0    0  0.00000000000E+00  0.00000000000E+00  0.14999999963E+04  0.15000000000E+04  0.10566000000E+00 0.  1.
        994   -1    0    0    0    0 -0.00000000000E+00 -0.00000000000E+00  0.11368683772E-12  0.17120000000E+03  0.17120000000E+03 0.  0.
         13    1    1    2    0    0  0.97350636441E+01 -0.23046289572E+01  0.40982236884E+02  0.42185752131E+02  0.10566000000E+00 0.  1.
        994    1    1    2    0    0  0.19655336056E+01  0.32041289018E+01  0.13314853116E+01  0.17124643826E+03  0.17120000000E+03 0.  0.
        998    1    1    2    0    0 -0.11700597250E+02 -0.89949994458E+00  0.14576862741E+04  0.14577678096E+04  0.10000000000E+02 0.  1.
</event>
<event>
 5    1  0.1303633E-008  0.2743409E+03  0.7957747E-01  0.4098141E+00
         13   -1    0    0    0    0  0.00000000000E+00  0.00000000000E+00  0.14999999963E+04  0.15000000000E+04  0.10566000000E+00 0. -1.
        994   -1    0    0    0    0 -0.00000000000E+00 -0.00000000000E+00  0.11368683772E-12  0.17120000000E+03  0.17120000000E+03 0.  0.
         13    1    1    2    0    0 -0.47442380892E+02  0.16514742750E+03  0.69009601194E+03  0.71116592239E+03  0.10566000000E+00 0. -1.
        994    1    1    2    0    0  0.18939563457E+02 -0.30229846949E+02  0.42089123197E+02  0.17987074526E+03  0.17120000000E+03 0.  0.
        998    1    1    2    0    0  0.28502817434E+02 -0.13491758055E+03  0.76781486114E+03  0.78016333235E+03  0.10000000000E+02 0. -1.
</event>
<event>
 5    1  0.1303633E-008  0.3860504E+03  0.7957747E-01  0.3425230E+00
         13   -1    0    0    0    0  0.00000000000E+00  0.00000000000E+00  0.14999999963E+04  0.15000000000E+04  0.10566000000E+00 0. -1.
        994   -1    0    0    0    0 -0.00000000000E+00 -0.00000000000E+00  0.11368683772E-12  0.17120000000E+03  0.17120000000E+03 0.  0.
         13    1    1    2    0    0 -0.81470943088E+01  0.60725604055E+01  0.52958049750E+02  0.53924181337E+02  0.10566000000E+00 0. -1.
        994    1    1    2    0    0 -0.51962426390E+01  0.93048205607E+01  0.14818778447E+01  0.17153779929E+03  0.17120000000E+03 0.  0.
        998    1    1    2    0    0  0.13343336948E+02 -0.15377380966E+02  0.14455600687E+04  0.14457380194E+04  0.10000000000E+02 0. -1.
</event>
<event>
 5    1  0.1303633E-008  0.3783854E+03  0.7957747E-01  0.3458219E+00
         13   -1    0    0    0    0  0.00000000000E+00  0.00000000000E+00  0.14999999963E+04  0.15000000000E+04  0.10566000000E+00 0. -1.
        994   -1    0    0    0    0 -0.00000000000E+00 -0.00000000000E+00  0.11368683772E-12  0.17120000000E+03  0.17120000000E+03 0.  0.
         13    1    1    2    0    0  0.89564973224E+01  0.38792734204E+02  0.14705976808E+03  0.15235380409E+03  0.10566000000E+00 0. -1.
        994    1    1    2    0    0 -0.11299175779E+02 -0.34730796175E+02  0.94465224739E+01  0.17530709159E+03  0.17120000000E+03 0.  0.
        998    1    1    2    0    0  0.23426784566E+01 -0.40619380292E+01  0.13434937057E+04  0.13435391043E+04  0.10000000000E+02 0. -1.
</event>
<event>
 5    1  0.1303633E-008  0.3817235E+03  0.7957747E-01  0.3443688E+00
         13   -1    0    0    0    0  0.00000000000E+00  0.00000000000E+00  0.14999999963E+04  0.15000000000E+04  0.10566000000E+00 0.  1.
        994   -1    0    0    0    0 -0.00000000000E+00 -0.00000000000E+00  0.11368683772E-12  0.17120000000E+03  0.17120000000E+03 0.  0.
         13    1    1    2    0    0 -0.28981736562E+02  0.43435671267E+02  0.31289292531E+03  0.31722010098E+03  0.10566000000E+00 0.  1.
        994    1    1    2    0    0  0.30234391230E+02 -0.49418888281E+02  0.14503523857E+02  0.18131777943E+03  0.17120000000E+03 0.  0.
        998    1    1    2    0    0 -0.12526546686E+01  0.59832170133E+01  0.11726035471E+04  0.11726621196E+04  0.10000000000E+02 0.  1.
</event>
<event>
 5    1  0.1303633E-008  0.3750285E+03  0.7957747E-01  0.3473096E+00
         13   -1    0    0    0    0  0.00000000000E+00  0.00000000000E+00  0.14999999963E+04  0.15000000000E+04  0.10566000000E+00 0. -1.
        994   -1    0    0    0    0 -0.00000000000E+00 -0.00000000000E+00  0.11368683772E-12  0.17120000000E+03  0.17120000000E+03 0.  0.
         13    1    1    2    0    0  0.32276624039E+02  0.12445664336E+03  0.65516134603E+03  0.66765832357E+03  0.10566000000E+00 0. -1.
        994    1    1    2    0    0 -0.94856784924E+02 -0.12008334238E+03  0.90947953044E+02  0.24697932895E+03  0.17120000000E+03 0.  0.
        998    1    1    2    0    0  0.62580160886E+02 -0.43733009744E+01  0.75389069720E+03  0.75656234748E+03  0.10000000000E+02 0. -1.
</event>
<event>
 5    1  0.1303633E-008  0.3825804E+03  0.7957747E-01  0.3439999E+00
         13   -1    0    0    0    0  0.00000000000E+00  0.00000000000E+00  0.14999999963E+04  0.15000000000E+04  0.10566000000E+00 0.  1.
        994   -1    0    0    0    0 -0.00000000000E+00 -0.00000000000E+00  0.11368683772E-12  0.17120000000E+03  0.17120000000E+03 0.  0.
         13    1    1    2    0    0 -0.22613844396E+02  0.12201875253E+02  0.12205301611E+03  0.12472859184E+03  0.10566000000E+00 0.  1.
        994    1    1    2    0    0  0.98807054240E+01  0.23323946495E+01  0.31779219483E+01  0.17153019440E+03  0.17120000000E+03 0.  0.
        998    1    1    2    0    0  0.12733138972E+02 -0.14534269903E+02  0.13747690582E+04  0.13749412138E+04  0.10000000000E+02 0.  1.
</event>
<event>
 5    1  0.1303633E-008  0.3814184E+03  0.7957747E-01  0.3445006E+00
         13   -1    0    0    0    0  0.00000000000E+00  0.00000000000E+00  0.14999999963E+04  0.15000000000E+04  0.10566000000E+00 0.  1.
        994   -1    0    0    0    0 -0.00000000000E+00 -0.00000000000E+00  0.11368683772E-12  0.17120000000E+03  0.17120000000E+03 0.  0.
         13    1    1    2    0    0  0.31576505117E+02 -0.29139813948E+02  0.22594645814E+03  0.22999569027E+03  0.10566000000E+00 0.  1.
        994    1    1    2    0    0 -0.39418877868E+02  0.24463830356E+02  0.10613711358E+02  0.17769191821E+03  0.17120000000E+03 0.  0.
        998    1    1    2    0    0  0.78423727509E+01  0.46759835921E+01  0.12634398268E+04  0.12635123915E+04  0.10000000000E+02 0.  1.
</event>
<event>
 5    1  0.1303633E-008  0.3813018E+03  0.7957747E-01  0.3445510E+00
         13   -1    0    0    0    0  0.00000000000E+00  0.00000000000E+00  0.14999999963E+04  0.15000000000E+04  0.10566000000E+00 0. -1.
        994   -1    0    0    0    0 -0.00000000000E+00 -0.00000000000E+00  0.11368683772E-12  0.17120000000E+03  0.17120000000E+03 0.  0.
         13    1    1    2    0    0  0.14615239245E+02  0.35862499634E+02  0.21843635939E+03  0.22184268833E+03  0.10566000000E+00 0. -1.
        994    1    1    2    0    0 -0.77282468516E+01 -0.18606807838E+02  0.48298009132E+01  0.17244914054E+03  0.17120000000E+03 0.  0.
        998    1    1    2    0    0 -0.68869923933E+01 -0.17255691795E+02  0.12767338360E+04  0.12769081711E+04  0.10000000000E+02 0. -1.
</event>
<event>
 5    1  0.1470127E-008  0.3856154E+03  0.7957747E-01  0.3427066E+00
         13   -1    0    0    0    0  0.00000000000E+00  0.00000000000E+00  0.14999999963E+04  0.15000000000E+04  0.10566000000E+00 0. -1.
        994   -1    0    0    0    0 -0.00000000000E+00 -0.00000000000E+00  0.11368683772E-12  0.17120000000E+03  0.17120000000E+03 0.  0.
         13    1    1    2    0    0 -0.42215746997E+01 -0.11953332440E+02  0.63714100140E+02  0.64963078514E+02  0.10566000000E+00 0. -1.
        994    1    1    2    0    0 -0.45429485173E+01  0.40641453623E+01  0.14468673858E+01  0.17131459098E+03  0.17120000000E+03 0.  0.
        998    1    1    2    0    0  0.87645232171E+01  0.78891870781E+01  0.14348390288E+04  0.14349223305E+04  0.10000000000E+02 0. -1.
</event>
<event>
 5    1  0.1303633E-008  0.3777509E+03  0.7957747E-01  0.3461010E+00
         13   -1    0    0    0    0  0.00000000000E+00  0.00000000000E+00  0.14999999963E+04  0.15000000000E+04  0.10566000000E+00 0.  1.
        994   -1    0    0    0    0 -0.00000000000E+00 -0.00000000000E+00  0.11368683772E-12  0.17120000000E+03  0.17120000000E+03 0.  0.
         13    1    1    2    0    0  0.15924259196E+02 -0.12034546862E+01  0.19469488419E+02  0.25181391491E+02  0.10566000000E+00 0.  1.
        994    1    1    2    0    0 -0.56006675808E+02  0.14533211935E+02  0.16632752264E+02  0.18147741025E+03  0.17120000000E+03 0.  0.
        998    1    1    2    0    0  0.40082416612E+02 -0.13329757248E+02  0.14638977556E+04  0.14645411983E+04  0.10000000000E+02 0.  1.
</event>
<event>
 5    1  0.1303633E-008  0.3807474E+03  0.7957747E-01  0.3447911E+00
         13   -1    0    0    0    0  0.00000000000E+00  0.00000000000E+00  0.14999999963E+04  0.15000000000E+04  0.10566000000E+00 0.  1.
        994   -1    0    0    0    0 -0.00000000000E+00 -0.00000000000E+00  0.11368683772E-12  0.17120000000E+03  0.17120000000E+03 0.  0.
         13    1    1    2    0    0  0.10899305782E+03 -0.76578627407E+02  0.78966923921E+03  0.80082538131E+03  0.10566000000E+00 0.  1.
        994    1    1    2    0    0 -0.11792364465E+03  0.86132491299E+02  0.78486137987E+02  0.23831555946E+03  0.17120000000E+03 0.  0.
        998    1    1    2    0    0  0.89305868269E+01 -0.95538638924E+01  0.63184461908E+03  0.63205905924E+03  0.10000000000E+02 0.  1.
</event>
<event>
 5    1  0.1303633E-008  0.3779069E+03  0.7957747E-01  0.3460323E+00
         13   -1    0    0    0    0  0.00000000000E+00  0.00000000000E+00  0.14999999963E+04  0.15000000000E+04  0.10566000000E+00 0.  1.
        994   -1    0    0    0    0 -0.00000000000E+00 -0.00000000000E+00  0.11368683772E-12  0.17120000000E+03  0.17120000000E+03 0.  0.
         13    1    1    2    0    0 -0.11684698454E+02  0.65346738015E+00  0.10899930353E+02  0.15993087360E+02  0.10566000000E+00 0.  1.
        994    1    1    2    0    0  0.66223437389E+01 -0.11004256447E+02  0.57489056183E+01  0.17177729481E+03  0.17120000000E+03 0.  0.
        998    1    1    2    0    0  0.50623547147E+01  0.10350789067E+02  0.14833511603E+04  0.14834296178E+04  0.10000000000E+02 0.  1.
</event>
<event>
 5    1  0.1303633E-008  0.3555322E+03  0.7957747E-01  0.3565145E+00
         13   -1    0    0    0    0  0.00000000000E+00  0.00000000000E+00  0.14999999963E+04  0.15000000000E+04  0.10566000000E+00 0.  1.
        994   -1    0    0    0    0 -0.00000000000E+00 -0.00000000000E+00  0.11368683772E-12  0.17120000000E+03  0.17120000000E+03 0.  0.
         13    1    1    2    0    0  0.12291063106E+01  0.27212931775E+03  0.87596821479E+03  0.91726561081E+03  0.10566000000E+00 0.  1.
        994    1    1    2    0    0  0.12121263675E+02 -0.27577216391E+03  0.34303337045E+03  0.47241776497E+03  0.17120000000E+03 0.  0.
        998    1    1    2    0    0 -0.13350369986E+02  0.36428461526E+01  0.28099841103E+03  0.28151662422E+03  0.10000000000E+02 0.  0.
</event>
<event>
 5    1  0.1303633E-008  0.3774939E+03  0.7957747E-01  0.3462144E+00
         13   -1    0    0    0    0  0.00000000000E+00  0.00000000000E+00  0.14999999963E+04  0.15000000000E+04  0.10566000000E+00 0.  1.
        994   -1    0    0    0    0 -0.00000000000E+00 -0.00000000000E+00  0.11368683772E-12  0.17120000000E+03  0.17120000000E+03 0.  0.
         13    1    1    2    0    0  0.18382973207E+02  0.15699244396E+02  0.51291003380E+02  0.56702541128E+02  0.10566000000E+00 0.  1.
        994    1    1    2    0    0 -0.14731882456E+02 -0.13148055791E+02  0.67189802968E+01  0.17246589352E+03  0.17120000000E+03 0.  0.
        998    1    1    2    0    0 -0.36510907511E+01 -0.25511886052E+01  0.14419900126E+04  0.14420315654E+04  0.10000000000E+02 0.  1.
</event>
<event>
 5    1  0.1303633E-008  0.3847433E+03  0.7957747E-01  0.3430762E+00
         13   -1    0    0    0    0  0.00000000000E+00  0.00000000000E+00  0.14999999963E+04  0.15000000000E+04  0.10566000000E+00 0. -1.
        994   -1    0    0    0    0 -0.00000000000E+00 -0.00000000000E+00  0.11368683772E-12  0.17120000000E+03  0.17120000000E+03 0.  0.
         13    1    1    2    0    0 -0.81877001873E+01  0.12788373242E+02  0.65678053349E+02  0.67410672599E+02  0.10566000000E+00 0. -1.
        994    1    1    2    0    0  0.70649973181E+01 -0.67371663077E+01  0.20713720794E+01  0.17149062417E+03  0.17120000000E+03 0.  0.
        998    1    1    2    0    0  0.11227028693E+01 -0.60512069342E+01  0.14322505709E+04  0.14322987032E+04  0.10000000000E+02 0. -1.
</event>
<event>
 5    1  0.1303633E-008  0.3758678E+03  0.7957747E-01  0.3469351E+00
         13   -1    0    0    0    0  0.00000000000E+00  0.00000000000E+00  0.14999999963E+04  0.15000000000E+04  0.10566000000E+00 0.  1.
        994   -1    0    0    0    0 -0.00000000000E+00 -0.00000000000E+00  0.11368683772E-12  0.17120000000E+03  0.17120000000E+03 0.  0.
         13    1    1    2    0    0  0.13346952571E+03 -0.97839962557E+02  0.95320242235E+03  0.96746144197E+03  0.10566000000E+00 0.  1.
        994    1    1    2    0    0 -0.12502343091E+03  0.86263946411E+02  0.88935003485E+02  0.24554266752E+03  0.17120000000E+03 0.  0.
        998    1    1    2    0    0 -0.84460947962E+01  0.11576016146E+02  0.45786257045E+03  0.45819589051E+03  0.10000000000E+02 0.  0.
</event>
<event>
 5    1  0.1303633E-008  0.3815163E+03  0.7957747E-01  0.3444583E+00
         13   -1    0    0    0    0  0.00000000000E+00  0.00000000000E+00  0.14999999963E+04  0.15000000000E+04  0.10566000000E+00 0. -1.
        994   -1    0    0    0    0 -0.00000000000E+00 -0.00000000000E+00  0.11368683772E-12  0.17120000000E+03  0.17120000000E+03 0.  0.
         13    1    1    2    0    0  0.73505995412E+02  0.52806829064E+02  0.47030009559E+03  0.47892993604E+03  0.10566000000E+00 0. -1.
        994    1    1    2    0    0 -0.90992031385E+02 -0.10710390401E+03  0.72120782143E+02  0.23294128712E+03  0.17120000000E+03 0.  0.
        998    1    1    2    0    0  0.17486035972E+02  0.54297074941E+02  0.95757911854E+03  0.95932877684E+03  0.10000000000E+02 0. -1.
</event>
<event>
 5    1  0.1303633E-008  0.3862621E+03  0.7957747E-01  0.3424337E+00
         13   -1    0    0    0    0  0.00000000000E+00  0.00000000000E+00  0.14999999963E+04  0.15000000000E+04  0.10566000000E+00 0.  1.
        994   -1    0    0    0    0 -0.00000000000E+00 -0.00000000000E+00  0.11368683772E-12  0.17120000000E+03  0.17120000000E+03 0.  0.
         13    1    1    2    0    0  0.11063677654E+02 -0.17231930808E+01  0.59529235360E+02  0.60573223327E+02  0.10566000000E+00 0.  1.
        994    1    1    2    0    0 -0.14194017585E+02  0.13132662058E+02  0.22304903409E+01  0.17230308191E+03  0.17120000000E+03 0.  0.
        998    1    1    2    0    0  0.31303399317E+01 -0.11409468977E+02  0.14382402706E+04  0.14383236948E+04  0.10000000000E+02 0.  1.
</event>
<event>
 5    1  0.1303633E-008  0.3842233E+03  0.7957747E-01  0.3432973E+00
         13   -1    0    0    0    0  0.00000000000E+00  0.00000000000E+00  0.14999999963E+04  0.15000000000E+04  0.10566000000E+00 0. -1.
        994   -1    0    0    0    0 -0.00000000000E+00 -0.00000000000E+00  0.11368683772E-12  0.17120000000E+03  0.17120000000E+03 0.  0.
         13    1    1    2    0    0 -0.36814954218E+01  0.93316262705E+01  0.24818143297E+02  0.26769087735E+02  0.10566000000E+00 0. -1.
        994    1    1    2    0    0  0.98750137351E+00 -0.19252539670E+01  0.20316887060E+01  0.17122572681E+03  0.17120000000E+03 0.  0.
        998    1    1    2    0    0  0.26939940483E+01 -0.74063723034E+01  0.14731501643E+04  0.14732051855E+04  0.10000000000E+02 0. -1.
</event>
<event>
 5    1  0.1303633E-008  0.3830126E+03  0.7957747E-01  0.3438145E+00
         13   -1    0    0    0    0  0.00000000000E+00  0.00000000000E+00  0.14999999963E+04  0.15000000000E+04  0.10566000000E+00 0. -1.
        994   -1    0    0    0    0 -0.00000000000E+00 -0.00000000000E+00  0.11368683772E-12  0.17120000000E+03  0.17120000000E+03 0.  0.
         13    1    1    2    0    0  0.10671917917E+02 -0.67997584117E+01  0.28972027926E+02  0.31615124745E+02  0.10566000000E+00 0. -1.
        994    1    1    2    0    0 -0.11836846971E+02  0.99232234267E+01  0.34101493128E+01  0.17192920179E+03  0.17120000000E+03 0.  0.
        998    1    1    2    0    0  0.11649290547E+01 -0.31234650150E+01  0.14676178190E+04  0.14676556735E+04  0.10000000000E+02 0. -1.
</event>
<event>
 5    1  0.1303633E-008  0.3825709E+03  0.7957747E-01  0.3440040E+00
         13   -1    0    0    0    0  0.00000000000E+00  0.00000000000E+00  0.14999999963E+04  0.15000000000E+04  0.10566000000E+00 0. -1.
        994   -1    0    0    0    0 -0.00000000000E+00 -0.00000000000E+00  0.11368683772E-12  0.17120000000E+03  0.17120000000E+03 0.  0.
         13    1    1    2    0    0 -0.11495501888E+02  0.26202662641E+01  0.23550585468E+02  0.26337304321E+02  0.10566000000E+00 0. -1.
        994    1    1    2    0    0  0.58525609989E+01 -0.26641335422E+01  0.29780585471E+01  0.17134660461E+03  0.17120000000E+03 0.  0.
        998    1    1    2    0    0  0.56429408896E+01  0.43867278050E-01  0.14734713523E+04  0.14735160911E+04  0.10000000000E+02 0. -1.
</event>
<event>
 5    1  0.1303633E-008  0.4337354E+03  0.7957747E-01  0.3246080E+00
         13   -1    0    0    0    0  0.00000000000E+00  0.00000000000E+00  0.14999999963E+04  0.15000000000E+04  0.10566000000E+00 0. -1.
        994   -1    0    0    0    0 -0.00000000000E+00 -0.00000000000E+00  0.11368683772E-12  0.17120000000E+03  0.17120000000E+03 0.  0.
         13    1    1    2    0    0  0.50817194708E+02 -0.36324199319E+02  0.21432411084E+02  0.66039337845E+02  0.10566000000E+00 0. -1.
        994    1    1    2    0    0 -0.52615100178E+02  0.37656911504E+02  0.69058275151E+02  0.19561410255E+03  0.17120000000E+03 0.  0.
        998    1    1    2    0    0  0.17979054703E+01 -0.13327121848E+01  0.14095093100E+04  0.14095465596E+04  0.10000000000E+02 0. -1.
</event>
<event>
 5    1  0.1303633E-008  0.3857822E+03  0.7957747E-01  0.3426362E+00
         13   -1    0    0    0    0  0.00000000000E+00  0.00000000000E+00  0.14999999963E+04  0.15000000000E+04  0.10566000000E+00 0. -1.
        994   -1    0    0    0    0 -0.00000000000E+00 -0.00000000000E+00  0.11368683772E-12  0.17120000000E+03  0.17120000000E+03 0.  0.
         13    1    1    2    0    0 -0.30042985636E+01 -0.11609213875E+02  0.57529583577E+02  0.58766179110E+02  0.10566000000E+00 0. -1.
        994    1    1    2    0    0  0.44599994240E+00  0.10383005000E+02  0.15966642285E+01  0.17152257882E+03  0.17120000000E+03 0.  0.
        998    1    1    2    0    0  0.25582986212E+01  0.12262088760E+01  0.14408737485E+04  0.14409112421E+04  0.10000000000E+02 0. -1.
</event>
<event>
 5    1  0.1303633E-008  0.3811319E+03  0.7957747E-01  0.3446245E+00
         13   -1    0    0    0    0  0.00000000000E+00  0.00000000000E+00  0.14999999963E+04  0.15000000000E+04  0.10566000000E+00 0. -1.
        994   -1    0    0    0    0 -0.00000000000E+00 -0.00000000000E+00  0.11368683772E-12  0.17120000000E+03  0.17120000000E+03 0.  0.
         13    1    1    2    0    0  0.14558654614E+02 -0.56428076008E+01  0.32367892587E+02  0.35937269461E+02  0.10566000000E+00 0. -1.
        994    1    1    2    0    0 -0.15096374246E+02  0.28382041103E+01  0.43490823146E+01  0.17194275337E+03  0.17120000000E+03 0.  0.
        998    1    1    2    0    0  0.53771963145E+00  0.28046034906E+01  0.14632830214E+04  0.14633199772E+04  0.10000000000E+02 0. -1.
</event>
<event>
 5    1  0.1303633E-008  0.3843576E+03  0.7957747E-01  0.3432401E+00
         13   -1    0    0    0    0  0.00000000000E+00  0.00000000000E+00  0.14999999963E+04  0.15000000000E+04  0.10566000000E+00 0. -1.
        994   -1    0    0    0    0 -0.00000000000E+00 -0.00000000000E+00  0.11368683772E-12  0.17120000000E+03  0.17120000000E+03 0.  0.
         13    1    1    2    0    0  0.39558440972E+01 -0.11209744776E+02  0.33925674486E+02  0.35948152022E+02  0.10566000000E+00 0. -1.
        994    1    1    2    0    0 -0.17732639961E+01  0.21354964142E+02  0.34640915778E+01  0.17257062001E+03  0.17120000000E+03 0.  0.
        998    1    1    2    0    0 -0.21825801011E+01 -0.10145219366E+02  0.14626102302E+04  0.14626812280E+04  0.10000000000E+02 0. -1.
</event>
<event>
 5    1  0.1303633E-008  0.3839324E+03  0.7957747E-01  0.3434212E+00
         13   -1    0    0    0    0  0.00000000000E+00  0.00000000000E+00  0.14999999963E+04  0.15000000000E+04  0.10566000000E+00 0.  1.
        994   -1    0    0    0    0 -0.00000000000E+00 -0.00000000000E+00  0.11368683772E-12  0.17120000000E+03  0.17120000000E+03 0.  0.
         13    1    1    2    0    0 -0.76339869284E+02  0.12063521724E+02  0.11330291735E+03  0.13715271212E+03  0.10566000000E+00 0.  1.
        994    1    1    2    0    0  0.14747932104E+03  0.37965894909E+02  0.10967269012E+03  0.25402578269E+03  0.17120000000E+03 0.  0.
        998    1    1    2    0    0 -0.71139451760E+02 -0.50029416633E+02  0.12770243888E+04  0.12800215052E+04  0.10000000000E+02 0.  1.
</event>
<event>
 5    1  0.1303633E-008  0.3846241E+03  0.7957747E-01  0.3431268E+00
         13   -1    0    0    0    0  0.00000000000E+00  0.00000000000E+00  0.14999999963E+04  0.15000000000E+04  0.10566000000E+00 0. -1.
        994   -1    0    0    0    0 -0.00000000000E+00 -0.00000000000E+00  0.11368683772E-12  0.17120000000E+03  0.17120000000E+03 0.  0.
         13    1    1    2    0    0  0.93838122657E+01 -0.22457792251E+02  0.14711536072E+03  0.14911522017E+03  0.10566000000E+00 0. -1.
        994    1    1    2    0    0  0.28531707166E+01  0.29960414232E+02  0.48049759739E+01  0.17389161796E+03  0.17120000000E+03 0.  0.
        998    1    1    2    0    0 -0.12236982982E+02 -0.75026219809E+01  0.13480796596E+04  0.13481931619E+04  0.10000000000E+02 0. -1.
</event>
<event>
 5    1  0.1303633E-008  0.3845332E+03  0.7957747E-01  0.3431655E+00
         13   -1    0    0    0    0  0.00000000000E+00  0.00000000000E+00  0.14999999963E+04  0.15000000000E+04  0.10566000000E+00 0.  1.
        994   -1    0    0    0    0 -0.00000000000E+00 -0.00000000000E+00  0.11368683772E-12  0.17120000000E+03  0.17120000000E+03 0.  0.
         13    1    1    2    0    0  0.35094544959E+02  0.25818879576E+02  0.46212132063E+02  0.63512313312E+02  0.10566000000E+00 0.  1.
        994    1    1    2    0    0  0.54288124139E+00 -0.11085578943E+02  0.19294190952E+02  0.17264092963E+03  0.17120000000E+03 0.  0.
        998    1    1    2    0    0 -0.35637426200E+02 -0.14733300633E+02  0.14344936733E+04  0.14350467571E+04  0.10000000000E+02 0.  1.
</event>
<event>
 5    1  0.1303633E-008  0.3812935E+03  0.7957747E-01  0.3445546E+00
         13   -1    0    0    0    0  0.00000000000E+00  0.00000000000E+00  0.14999999963E+04  0.15000000000E+04  0.10566000000E+00 0. -1.
        994   -1    0    0    0    0 -0.00000000000E+00 -0.00000000000E+00  0.11368683772E-12  0.17120000000E+03  0.17120000000E+03 0.  0.
         13    1    1    2    0    0 -0.40722632508E+01  0.12277024387E+02  0.22813472857E+02  0.26225452591E+02  0.10566000000E+00 0. -1.
        994    1    1    2    0    0  0.14480335675E+01 -0.62871708986E+01  0.36201880853E+01  0.17135977089E+03  0.17120000000E+03 0.  0.
        998    1    1    2    0    0  0.26242296833E+01 -0.59898534880E+01  0.14735663353E+04  0.14736147765E+04  0.10000000000E+02 0. -1.
</event>
<event>
 5    1  0.1303633E-008  0.3935098E+03  0.7957747E-01  0.3394364E+00
         13   -1    0    0    0    0  0.00000000000E+00  0.00000000000E+00  0.14999999963E+04  0.15000000000E+04  0.10566000000E+00 0. -1.
        994   -1    0    0    0    0 -0.00000000000E+00 -0.00000000000E+00  0.11368683772E-12  0.17120000000E+03  0.17120000000E+03 0.  0.
         13    1    1    2    0    0  0.32311543711E+02  0.33362457459E+02  0.41311063833E+02  0.62158704810E+02  0.10566000000E+00 0. -1.
        994    1    1    2    0    0  0.28450220014E+02  0.19680904532E+01  0.27063204186E+02  0.17565632758E+03  0.17120000000E+03 0.  0.
        998    1    1    2    0    0 -0.60761763724E+02 -0.35330547913E+02  0.14316257283E+04  0.14333849676E+04  0.10000000000E+02 0. -1.
</event>
<event>
 5    1  0.1303633E-008  0.3741538E+03  0.7957747E-01  0.3477016E+00
         13   -1    0    0    0    0  0.00000000000E+00  0.00000000000E+00  0.14999999963E+04  0.15000000000E+04  0.10566000000E+00 0.  1.
        994   -1    0    0    0    0 -0.00000000000E+00 -0.00000000000E+00  0.11368683772E-12  0.17120000000E+03  0.17120000000E+03 0.  0.
         13    1    1    2    0    0  0.13659535120E+02  0.78941340120E+01  0.14611508558E+02  0.21503664754E+02  0.10566000000E+00 0.  1.
        994    1    1    2    0    0 -0.54425206760E+01  0.12493873504E+01  0.72202448640E+01  0.17144315074E+03  0.17120000000E+03 0.  0.
        998    1    1    2    0    0 -0.82170144437E+01 -0.91435213624E+01  0.14781682429E+04  0.14782531845E+04  0.10000000000E+02 0.  1.
</event>
<event>
 5    1  0.1303633E-008  0.3704866E+03  0.7957747E-01  0.3493658E+00
         13   -1    0    0    0    0  0.00000000000E+00  0.00000000000E+00  0.14999999963E+04  0.15000000000E+04  0.10566000000E+00 0. -1.
        994   -1    0    0    0    0 -0.00000000000E+00 -0.00000000000E+00  0.11368683772E-12  0.17120000000E+03  0.17120000000E+03 0.  0.
         13    1    1    2    0    0 -0.44702055567E+02  0.15315452286E+02  0.11561032247E+03  0.12489433404E+03  0.10566000000E+00 0. -1.
        994    1    1    2    0    0  0.31950432301E+02 -0.29877744745E+02  0.15649179788E+02  0.17739178838E+03  0.17120000000E+03 0.  0.
        998    1    1    2    0    0  0.12751623266E+02  0.14562292459E+02  0.13687404940E+04  0.13689138776E+04  0.10000000000E+02 0. -1.
</event>
<event>
 5    1  0.1303633E-008  0.3861610E+03  0.7957747E-01  0.3424763E+00
         13   -1    0    0    0    0  0.00000000000E+00  0.00000000000E+00  0.14999999963E+04  0.15000000000E+04  0.10566000000E+00 0.  1.
        994   -1    0    0    0    0 -0.00000000000E+00 -0.00000000000E+00  0.11368683772E-12  0.17120000000E+03  0.17120000000E+03 0.  0.
         13    1    1    2    0    0 -0.11092790495E+02 -0.50869372363E+01  0.68702528001E+02  0.69778044177E+02  0.10566000000E+00 0.  1.
        994    1    1    2    0    0  0.11142980762E+02  0.76208182895E+01  0.16521053720E+01  0.17173937331E+03  0.17120000000E+03 0.  0.
        998    1    1    2    0    0 -0.50190266400E-01 -0.25338810532E+01  0.14296453629E+04  0.14296825825E+04  0.10000000000E+02 0.  0.
</event>
<event>
 5    1  0.1303633E-008  0.3803669E+03  0.7957747E-01  0.3449563E+00
         13   -1    0    0    0    0  0.00000000000E+00  0.00000000000E+00  0.14999999963E+04  0.15000000000E+04  0.10566000000E+00 0.  1.
        994   -1    0    0    0    0 -0.00000000000E+00 -0.00000000000E+00  0.11368683772E-12  0.17120000000E+03  0.17120000000E+03 0.  0.
         13    1    1    2    0    0 -0.97227692309E+01 -0.58726967704E+01  0.14242404622E+02  0.18217520751E+02  0.10566000000E+00 0.  1.
        994    1    1    2    0    0  0.23930611790E+02 -0.25075736328E+01  0.58835348025E+01  0.17298271037E+03  0.17120000000E+03 0.  0.
        998    1    1    2    0    0 -0.14207842559E+02  0.83802704033E+01  0.14798740569E+04  0.14799997689E+04  0.10000000000E+02 0.  1.
</event>
<event>
 5    1  0.1303633E-008  0.4236077E+03  0.7957747E-01  0.3280803E+00
         13   -1    0    0    0    0  0.00000000000E+00  0.00000000000E+00  0.14999999963E+04  0.15000000000E+04  0.10566000000E+00 0. -1.
        994   -1    0    0    0    0 -0.00000000000E+00 -0.00000000000E+00  0.11368683772E-12  0.17120000000E+03  0.17120000000E+03 0.  0.
         13    1    1    2    0    0 -0.10729930608E+01 -0.29412132844E+02 -0.65943949037E+01  0.30161599439E+02  0.10566000000E+00 0. -1.
        994    1    1    2    0    0 -0.70714927296E+00 -0.22147014578E+02  0.44862485018E+02  0.17836219576E+03  0.17120000000E+03 0.  0.
        998    1    1    2    0    0  0.17801423338E+01  0.51559147422E+02  0.14617319062E+04  0.14626762048E+04  0.10000000000E+02 0. -1.
</event>
<event>
 5    1  0.1303633E-008  0.3835225E+03  0.7957747E-01  0.3435963E+00
         13   -1    0    0    0    0  0.00000000000E+00  0.00000000000E+00  0.14999999963E+04  0.15000000000E+04  0.10566000000E+00 0.  1.
        994   -1    0    0    0    0 -0.00000000000E+00 -0.00000000000E+00  0.11368683772E-12  0.17120000000E+03  0.17120000000E+03 0.  0.
         13    1    1    2    0    0  0.76177545106E+01 -0.27829416837E+02  0.17086734806E+03  0.17328637691E+03  0.10566000000E+00 0.  1.
        994    1    1    2    0    0 -0.56215751758E+01  0.19282786994E+02  0.36997138101E+01  0.17241390856E+03  0.17120000000E+03 0.  0.
        998    1    1    2    0    0 -0.19961793348E+01  0.85466298425E+01  0.13254329344E+04  0.13254997145E+04  0.10000000000E+02 0.  1.
</event>
<event>
 5    1  0.1303633E-008  0.3823231E+03  0.7957747E-01  0.3441105E+00
         13   -1    0    0    0    0  0.00000000000E+00  0.00000000000E+00  0.14999999963E+04  0.15000000000E+04  0.10566000000E+00 0. -1.
        994   -1    0    0    0    0 -0.00000000000E+00 -0.00000000000E+00  0.11368683772E-12  0.17120000000E+03  0.17120000000E+03 0.  0.
         13    1    1    2    0    0  0.95500749907E+02 -0.32417469087E+02  0.56834499670E+03  0.57722381445E+03  0.10566000000E+00 0. -1.
        994    1    1    2    0    0  0.17766153679E+02 -0.86731247210E+01  0.19038947364E+02  0.17338621867E+03  0.17120000000E+03 0.  0.
        998    1    1    2    0    0 -0.11326690359E+03  0.41090593808E+02  0.91261605222E+03  0.92058996688E+03  0.10000000000E+02 0. -1.
</event>
<event>
 5    1  0.1303633E-008  0.3820828E+03  0.7957747E-01  0.3442139E+00
         13   -1    0    0    0    0  0.00000000000E+00  0.00000000000E+00  0.14999999963E+04  0.15000000000E+04  0.10566000000E+00 0. -1.
        994   -1    0    0    0    0 -0.00000000000E+00 -0.00000000000E+00  0.11368683772E-12  0.17120000000E+03  0.17120000000E+03 0.  0.
         13    1    1    2    0    0  0.50036704774E+02 -0.10875465671E+03  0.36221770837E+03  0.38148778041E+03  0.10566000000E+00 0. -1.
        994    1    1    2    0    0  0.75371833042E+01  0.10502004142E+03  0.59174651202E+02  0.20951634203E+03  0.17120000000E+03 0.  0.
        998    1    1    2    0    0 -0.57573888078E+02  0.37346152934E+01  0.10786076367E+04  0.10801958776E+04  0.10000000000E+02 0. -1.
</event>
<event>
 5    1  0.1303633E-008  0.3855574E+03  0.7957747E-01  0.3427312E+00
         13   -1    0    0    0    0  0.00000000000E+00  0.00000000000E+00  0.14999999963E+04  0.15000000000E+04  0.10566000000E+00 0.  1.
        994   -1    0    0    0    0 -0.00000000000E+00 -0.00000000000E+00  0.11368683772E-12  0.17120000000E+03  0.17120000000E+03 0.  0.
         13    1    1    2    0    0  0.12013228854E+02  0.60388319630E+01  0.65938770423E+02  0.67295748513E+02  0.10566000000E+00 0.  1.
        994    1    1    2    0    0 -0.10515007517E+02 -0.47904264083E+01  0.17920604331E+01  0.17159884921E+03  0.17120000000E+03 0.  0.
        998    1    1    2    0    0 -0.14982213367E+01 -0.12484055547E+01  0.14322691654E+04  0.14323054023E+04  0.10000000000E+02 0.  1.
</event>
<event>
 5    1  0.1303633E-008  0.3780038E+03  0.7957747E-01  0.3459897E+00
         13   -1    0    0    0    0  0.00000000000E+00  0.00000000000E+00  0.14999999963E+04  0.15000000000E+04  0.10566000000E+00 0. -1.
        994   -1    0    0    0    0 -0.00000000000E+00 -0.00000000000E+00  0.11368683772E-12  0.17120000000E+03  0.17120000000E+03 0.  0.
         13    1    1    2    0    0 -0.17101437570E+02 -0.60989668363E+02  0.31708694283E+03  0.32335172690E+03  0.10566000000E+00 0. -1.
        994    1    1    2    0    0  0.22415016773E+02  0.55979071572E+02  0.17479282694E+02  0.18234871745E+03  0.17120000000E+03 0.  0.
        998    1    1    2    0    0 -0.53135792025E+01  0.50105967915E+01  0.11654337708E+04  0.11654995557E+04  0.10000000000E+02 0. -1.
</event>
<event>
 5    1  0.1577899E-008  0.3860523E+03  0.7957747E-01  0.3425222E+00
         13   -1    0    0    0    0  0.00000000000E+00  0.00000000000E+00  0.14999999963E+04  0.15000000000E+04  0.10566000000E+00 0. -1.
        994   -1    0    0    0    0 -0.00000000000E+00 -0.00000000000E+00  0.11368683772E-12  0.17120000000E+03  0.17120000000E+03 0.  0.
         13    1    1    2    0    0  0.59163263830E+01 -0.90036761394E+01  0.54296747253E+02  0.55355370365E+02  0.10566000000E+00 0. -1.
        994    1    1    2    0    0  0.47896652499E+00  0.49095780689E+01  0.11883658244E+01  0.17127517502E+03  0.17120000000E+03 0.  0.
        998    1    1    2    0    0 -0.63952929080E+01  0.40940980705E+01  0.14445148832E+04  0.14445694546E+04  0.10000000000E+02 0. -1.
</event>
<event>
 5    1  0.1303633E-008  0.3711850E+03  0.7957747E-01  0.3490462E+00
         13   -1    0    0    0    0  0.00000000000E+00  0.00000000000E+00  0.14999999963E+04  0.15000000000E+04  0.10566000000E+00 0.  1.
        994   -1    0    0    0    0 -0.00000000000E+00 -0.00000000000E+00  0.11368683772E-12  0.17120000000E+03  0.17120000000E+03 0.  0.
         13    1    1    2    0    0  0.46857045099E+01  0.31460741787E+02  0.42105878678E+02  0.52769785709E+02  0.10566000000E+00 0.  1.
        994    1    1    2    0    0 -0.84704483186E+01  0.72372869304E+01  0.12002674143E+02  0.17198148448E+03  0.17120000000E+03 0.  0.
        998    1    1    2    0    0  0.37847438087E+01 -0.38698028717E+02  0.14458914435E+04  0.14464487298E+04  0.10000000000E+02 0.  1.
</event>
<event>
 5    1  0.1303633E-008  0.3856261E+03  0.7957747E-01  0.3427021E+00
         13   -1    0    0    0    0  0.00000000000E+00  0.00000000000E+00  0.14999999963E+04  0.15000000000E+04  0.10566000000E+00 0.  1.
        994   -1    0    0    0    0 -0.00000000000E+00 -0.00000000000E+00  0.11368683772E-12  0.17120000000E+03  0.17120000000E+03 0.  0.
         13    1    1    2    0    0 -0.66176829793E+01 -0.11306296340E+02  0.64934812165E+02  0.66243241617E+02  0.10566000000E+00 0.  1.
        994    1    1    2    0    0  0.16216848786E+01  0.10467270626E+02  0.16879200951E+01  0.17153566011E+03  0.17120000000E+03 0.  0.
        998    1    1    2    0    0  0.49959981006E+01  0.83902571401E+00  0.14333772640E+04  0.14334210983E+04  0.10000000000E+02 0.  1.
</event>
<event>
 5    1  0.1303633E-008  0.3821704E+03  0.7957747E-01  0.3441762E+00
         13   -1    0    0    0    0  0.00000000000E+00  0.00000000000E+00  0.14999999963E+04  0.15000000000E+04  0.10566000000E+00 0. -1.
        994   -1    0    0    0    0 -0.00000000000E+00 -0.00000000000E+00  0.11368683772E-12  0.17120000000E+03  0.17120000000E+03 0.  0.
         13    1    1    2    0    0  0.72864290159E+00 -0.12432001656E+02  0.23943526642E+02  0.26988686847E+02  0.10566000000E+00 0. -1.
        994    1    1    2    0    0 -0.32824177794E+01  0.13683536727E+02  0.36990210373E+01  0.17181715921E+03  0.17120000000E+03 0.  0.
        998    1    1    2    0    0  0.25537748778E+01 -0.12515350717E+01  0.14723574486E+04  0.14723941539E+04  0.10000000000E+02 0. -1.
</event>
<event>
 5    1  0.1303633E-008  0.3856733E+03  0.7957747E-01  0.3426822E+00
         13   -1    0    0    0    0  0.00000000000E+00  0.00000000000E+00  0.14999999963E+04  0.15000000000E+04  0.10566000000E+00 0.  1.
        994   -1    0    0    0    0 -0.00000000000E+00 -0.00000000000E+00  0.11368683772E-12  0.17120000000E+03  0.17120000000E+03 0.  0.
         13    1    1    2    0    0  0.12364253951E+02  0.56382258143E+01  0.70630507272E+02  0.71925962543E+02  0.10566000000E+00 0.  1.
        994    1    1    2    0    0 -0.10909887999E+02 -0.28188611162E+01  0.17129767913E+01  0.17157897868E+03  0.17120000000E+03 0.  0.
        998    1    1    2    0    0 -0.14543659516E+01 -0.28193646982E+01  0.14276565122E+04  0.14276950588E+04  0.10000000000E+02 0.  1.
</event>
<event>
 5    1  0.1303633E-008  0.3853061E+03  0.7957747E-01  0.3428375E+00
         13   -1    0    0    0    0  0.00000000000E+00  0.00000000000E+00  0.14999999963E+04  0.15000000000E+04  0.10566000000E+00 0. -1.
        994   -1    0    0    0    0 -0.00000000000E+00 -0.00000000000E+00  0.11368683772E-12  0.17120000000E+03  0.17120000000E+03 0.  0.
         13    1    1    2    0    0 -0.13704990349E+02  0.59336673334E+01  0.74030127996E+02  0.75521561051E+02  0.10566000000E+00 0. -1.
        994    1    1    2    0    0  0.12555849907E+02 -0.35068572683E+01  0.20367793334E+01  0.17170770479E+03  0.17120000000E+03 0.  0.
        998    1    1    2    0    0  0.11491404419E+01 -0.24268100651E+01  0.14239330889E+04  0.14239707342E+04  0.10000000000E+02 0. -1.
</event>
<event>
 5    1  0.1303633E-008  0.3929605E+03  0.7957747E-01  0.3396597E+00
         13   -1    0    0    0    0  0.00000000000E+00  0.00000000000E+00  0.14999999963E+04  0.15000000000E+04  0.10566000000E+00 0.  1.
        994   -1    0    0    0    0 -0.00000000000E+00 -0.00000000000E+00  0.11368683772E-12  0.17120000000E+03  0.17120000000E+03 0.  0.
         13    1    1    2    0    0  0.31361174695E+02 -0.10376490541E+03  0.22471140137E+03  0.24949129031E+03  0.10566000000E+00 0.  1.
        994    1    1    2    0    0 -0.12447639846E+02  0.86894643531E+02  0.53604813451E+02  0.19972115270E+03  0.17120000000E+03 0.  0.
        998    1    1    2    0    0 -0.18913534849E+02  0.16870261883E+02  0.12216837815E+04  0.12219875570E+04  0.10000000000E+02 0.  1.
</event>
<event>
 5    1  0.1303633E-008  0.3713362E+03  0.7957747E-01  0.3489772E+00
         13   -1    0    0    0    0  0.00000000000E+00  0.00000000000E+00  0.14999999963E+04  0.15000000000E+04  0.10566000000E+00 0.  1.
        994   -1    0    0    0    0 -0.00000000000E+00 -0.00000000000E+00  0.11368683772E-12  0.17120000000E+03  0.17120000000E+03 0.  0.
         13    1    1    2    0    0 -0.19601562195E+02  0.38206471279E+02  0.10817771893E+03  0.11638894159E+03  0.10566000000E+00 0.  1.
        994    1    1    2    0    0  0.20183150969E+02 -0.99455379708E+01  0.10316754554E+02  0.17298019752E+03  0.17120000000E+03 0.  0.
        998    1    1    2    0    0 -0.58158877410E+00 -0.28260933308E+02  0.13815055228E+04  0.13818308609E+04  0.10000000000E+02 0.  1.
</event>
<event>
 5    1  0.1303633E-008  0.3845721E+03  0.7957747E-01  0.3431489E+00
         13   -1    0    0    0    0  0.00000000000E+00  0.00000000000E+00  0.14999999963E+04  0.15000000000E+04  0.10566000000E+00 0.  1.
        994   -1    0    0    0    0 -0.00000000000E+00 -0.00000000000E+00  0.11368683772E-12  0.17120000000E+03  0.17120000000E+03 0.  0.
         13    1    1    2    0    0 -0.14426499620E+02 -0.44767961767E+01  0.60505860876E+02  0.62362937388E+02  0.10566000000E+00 0.  1.
        994    1    1    2    0    0  0.12398866496E+02  0.50858200200E+01  0.24344038393E+01  0.17174097874E+03  0.17120000000E+03 0.  0.
        998    1    1    2    0    0  0.20276331244E+01 -0.60902384335E+00  0.14370597316E+04  0.14370960839E+04  0.10000000000E+02 0.  1.
</event>
<event>
 5    1  0.1303633E-008  0.3859515E+03  0.7957747E-01  0.3425647E+00
         13   -1    0    0    0    0  0.00000000000E+00  0.00000000000E+00  0.14999999963E+04  0.15000000000E+04  0.10566000000E+00 0.  1.
        994   -1    0    0    0    0 -0.00000000000E+00 -0.00000000000E+00  0.11368683772E-12  0.17120000000E+03  0.17120000000E+03 0.  0.
         13    1    1    2    0    0 -0.23772087307E+01  0.12372603212E+02  0.70552769160E+02  0.71668939100E+02  0.10566000000E+00 0.  1.
        994    1    1    2    0    0  0.17289797904E+02 -0.32131761055E+01  0.21730523386E+01  0.17211456582E+03  0.17120000000E+03 0.  0.
        998    1    1    2    0    0 -0.14912589173E+02 -0.91594271061E+01  0.14272741748E+04  0.14274164951E+04  0.10000000000E+02 0.  1.
</event>
<event>
 5    1  0.1303633E-008  0.3704713E+03  0.7957747E-01  0.3493728E+00
         13   -1    0    0    0    0  0.00000000000E+00  0.00000000000E+00  0.14999999963E+04  0.15000000000E+04  0.10566000000E+00 0.  1.
        994   -1    0    0    0    0 -0.00000000000E+00 -0.00000000000E+00  0.11368683772E-12  0.17120000000E+03  0.17120000000E+03 0.  0.
         13    1    1    2    0    0  0.11091674209E+02 -0.18289505290E+02  0.20764383287E+02  0.29811105612E+02  0.10566000000E+00 0.  1.
        994    1    1    2    0    0  0.51286572796E+01  0.37717192137E+02  0.14041106991E+02  0.17594170169E+03  0.17120000000E+03 0.  0.
        998    1    1    2    0    0 -0.16220331489E+02 -0.19427686848E+02  0.14651945060E+04  0.14654471927E+04  0.10000000000E+02 0.  1.
</event>
<event>
 5    1  0.1303633E-008  0.3864210E+03  0.7957747E-01  0.3423668E+00
         13   -1    0    0    0    0  0.00000000000E+00  0.00000000000E+00  0.14999999963E+04  0.15000000000E+04  0.10566000000E+00 0. -1.
        994   -1    0    0    0    0 -0.00000000000E+00 -0.00000000000E+00  0.11368683772E-12  0.17120000000E+03  0.17120000000E+03 0.  0.
         13    1    1    2    0    0  0.22111699491E+02  0.79870124749E+00  0.35265325968E+01  0.22405641572E+02  0.10566000000E+00 0. -1.
        994    1    1    2    0    0 -0.20814442755E+02 -0.19912667049E+01  0.21524106483E+02  0.17381004957E+03  0.17120000000E+03 0.  0.
        998    1    1    2    0    0 -0.12972567366E+01  0.11925654574E+01  0.14749493572E+04  0.14749843089E+04  0.10000000000E+02 0. -1.
</event>
<event>
 5    1  0.1365099E-008  0.3859640E+03  0.7957747E-01  0.3425594E+00
         13   -1    0    0    0    0  0.00000000000E+00  0.00000000000E+00  0.14999999963E+04  0.15000000000E+04  0.10566000000E+00 0.  1.
        994   -1    0    0    0    0 -0.00000000000E+00 -0.00000000000E+00  0.11368683772E-12  0.17120000000E+03  0.17120000000E+03 0.  0.
         13    1    1    2    0    0 -0.52365124482E+01  0.90576001227E+01  0.48987275636E+02  0.50092170255E+02  0.10566000000E+00 0.  1.
        994    1    1    2    0    0  0.13775727400E+01 -0.38285154866E+01  0.12065371389E+01  0.17125259405E+03  0.17120000000E+03 0.  0.
        998    1    1    2    0    0  0.38589397082E+01 -0.52290846361E+01  0.14498061835E+04  0.14498552357E+04  0.10000000000E+02 0.  1.
</event>
<event>
 5    1  0.1303633E-008  0.3690855E+03  0.7957747E-01  0.3500104E+00
         13   -1    0    0    0    0  0.00000000000E+00  0.00000000000E+00  0.14999999963E+04  0.15000000000E+04  0.10566000000E+00 0. -1.
        994   -1    0    0    0    0 -0.00000000000E+00 -0.00000000000E+00  0.11368683772E-12  0.17120000000E+03  0.17120000000E+03 0.  0.
         13    1    1    2    0    0  0.12687406663E+01 -0.35241139965E+02  0.57448642939E+02  0.67408496411E+02  0.10566000000E+00 0. -1.
        994    1    1    2    0    0 -0.20197138979E+01  0.38430464611E+02  0.14902288954E+02  0.17610365718E+03  0.17120000000E+03 0.  0.
        998    1    1    2    0    0  0.75097323152E+00 -0.31893246463E+01  0.14276490644E+04  0.14276878464E+04  0.10000000000E+02 0. -1.
</event>
<event>
 5    1  0.1303633E-008  0.3793622E+03  0.7957747E-01  0.3453940E+00
         13   -1    0    0    0    0  0.00000000000E+00  0.00000000000E+00  0.14999999963E+04  0.15000000000E+04  0.10566000000E+00 0.  1.
        994   -1    0    0    0    0 -0.00000000000E+00 -0.00000000000E+00  0.11368683772E-12  0.17120000000E+03  0.17120000000E+03 0.  0.
         13    1    1    2    0    0 -0.15341817441E+02 -0.20179886897E+02  0.73080487654E+02  0.77352233564E+02  0.10566000000E+00 0.  1.
        994    1    1    2    0    0  0.47196661330E+01  0.59836741710E+01  0.46500216166E+01  0.17143261739E+03  0.17120000000E+03 0.  0.
        998    1    1    2    0    0  0.10622151308E+02  0.14196212726E+02  0.14222694870E+04  0.14224151490E+04  0.10000000000E+02 0.  1.
</event>
<event>
 5    1  0.1303633E-008  0.3692268E+03  0.7957747E-01  0.3499452E+00
         13   -1    0    0    0    0  0.00000000000E+00  0.00000000000E+00  0.14999999963E+04  0.15000000000E+04  0.10566000000E+00 0.  1.
        994   -1    0    0    0    0 -0.00000000000E+00 -0.00000000000E+00  0.11368683772E-12  0.17120000000E+03  0.17120000000E+03 0.  0.
         13    1    1    2    0    0 -0.58181024504E+01 -0.17500217377E+02  0.11332396612E+02  0.21645837969E+02  0.10566000000E+00 0.  1.
        994    1    1    2    0    0  0.73356610583E+01  0.18485803726E+02  0.11910795307E+02  0.17276239147E+03  0.17120000000E+03 0.  0.
        998    1    1    2    0    0 -0.15175586079E+01 -0.98558634853E+00  0.14767568044E+04  0.14767917706E+04  0.10000000000E+02 0.  1.
</event>
<event>
 5    1  0.1303633E-008  0.3829575E+03  0.7957747E-01  0.3438381E+00
         13   -1    0    0    0    0  0.00000000000E+00  0.00000000000E+00  0.14999999963E+04  0.15000000000E+04  0.10566000000E+00 0.  1.
        994   -1    0    0    0    0 -0.00000000000E+00 -0.00000000000E+00  0.11368683772E-12  0.17120000000E+03  0.17120000000E+03 0.  0.
         13    1    1    2    0    0 -0.20472186764E+02  0.30236865325E+02  0.19957238258E+03  0.20288549852E+03  0.10566000000E+00 0.  1.
        994    1    1    2    0    0  0.38506602698E+02 -0.31871500095E+02  0.10963645305E+02  0.17868461738E+03  0.17120000000E+03 0.  0.
        998    1    1    2    0    0 -0.18034415934E+02  0.16346347699E+01  0.12894639684E+04  0.12896298841E+04  0.10000000000E+02 0.  1.
</event>
<event>
 5    1  0.1303633E-008  0.3713640E+03  0.7957747E-01  0.3489645E+00
         13   -1    0    0    0    0  0.00000000000E+00  0.00000000000E+00  0.14999999963E+04  0.15000000000E+04  0.10566000000E+00 0. -1.
        994   -1    0    0    0    0 -0.00000000000E+00 -0.00000000000E+00  0.11368683772E-12  0.17120000000E+03  0.17120000000E+03 0.  0.
         13    1    1    2    0    0  0.28545315658E+03 -0.15350643619E+03  0.65665627988E+03  0.73228765634E+03  0.10566000000E+00 0. -1.
        994    1    1    2    0    0 -0.30836838407E+03  0.13414095736E+03  0.73731660021E+03  0.82826931953E+03  0.17120000000E+03 0.  0.
        998    1    1    2    0    0  0.22915227489E+02  0.19365478822E+02  0.10602711619E+03  0.11064302413E+03  0.10000000000E+02 0. -1.
</event>
<event>
 5    1  0.1303633E-008  0.3841391E+03  0.7957747E-01  0.3433331E+00
         13   -1    0    0    0    0  0.00000000000E+00  0.00000000000E+00  0.14999999963E+04  0.15000000000E+04  0.10566000000E+00 0.  1.
        994   -1    0    0    0    0 -0.00000000000E+00 -0.00000000000E+00  0.11368683772E-12  0.17120000000E+03  0.17120000000E+03 0.  0.
         13    1    1    2    0    0 -0.13165106490E+02 -0.16830582966E+02  0.12162665664E+03  0.12348944620E+03  0.10566000000E+00 0.  1.
        994    1    1    2    0    0 -0.14090064823E+01  0.26914616043E+01  0.20885874396E+01  0.17123969009E+03  0.17120000000E+03 0.  0.
        998    1    1    2    0    0  0.14574112972E+02  0.14139121362E+02  0.13762847522E+04  0.13764708637E+04  0.10000000000E+02 0.  1.
</event>
<event>
 5    1  0.1303633E-008  0.3824994E+03  0.7957747E-01  0.3440347E+00
         13   -1    0    0    0    0  0.00000000000E+00  0.00000000000E+00  0.14999999963E+04  0.15000000000E+04  0.10566000000E+00 0.  1.
        994   -1    0    0    0    0 -0.00000000000E+00 -0.00000000000E+00  0.11368683772E-12  0.17120000000E+03  0.17120000000E+03 0.  0.
         13    1    1    2    0    0  0.12232803551E+02  0.59111212897E+01  0.27015194893E+02  0.30239291605E+02  0.10566000000E+00 0.  1.
        994    1    1    2    0    0 -0.41636192883E+02 -0.30100721658E+02  0.11678359385E+02  0.17912411920E+03  0.17120000000E+03 0.  0.
        998    1    1    2    0    0  0.29403389332E+02  0.24189600369E+02  0.14613064420E+04  0.14618365892E+04  0.10000000000E+02 0.  1.
</event>
<event>
 5    1  0.1303633E-008  0.3804035E+03  0.7957747E-01  0.3449403E+00
         13   -1    0    0    0    0  0.00000000000E+00  0.00000000000E+00  0.14999999963E+04  0.15000000000E+04  0.10566000000E+00 0.  1.
        994   -1    0    0    0    0 -0.00000000000E+00 -0.00000000000E+00  0.11368683772E-12  0.17120000000E+03  0.17120000000E+03 0.  0.
         13    1    1    2    0    0 -0.65221650526E+01  0.21473415892E+02  0.60503536909E+02  0.64531661760E+02  0.10566000000E+00 0.  1.
        994    1    1    2    0    0  0.79285579504E+01 -0.21459003944E+02  0.56787245971E+01  0.17281504215E+03  0.17120000000E+03 0.  0.
        998    1    1    2    0    0 -0.14063928978E+01 -0.14411948020E-01  0.14338177348E+04  0.14338532961E+04  0.10000000000E+02 0.  1.
</event>
<event>
 5    1  0.1303633E-008  0.3847920E+03  0.7957747E-01  0.3430555E+00
         13   -1    0    0    0    0  0.00000000000E+00  0.00000000000E+00  0.14999999963E+04  0.15000000000E+04  0.10566000000E+00 0.  1.
        994   -1    0    0    0    0 -0.00000000000E+00 -0.00000000000E+00  0.11368683772E-12  0.17120000000E+03  0.17120000000E+03 0.  0.
         13    1    1    2    0    0  0.10010157383E+02 -0.13706373578E+02  0.77474218273E+02  0.79311623287E+02  0.10566000000E+00 0.  1.
        994    1    1    2    0    0 -0.17623327914E+02  0.13725267546E+02  0.33771872967E+01  0.17268413375E+03  0.17120000000E+03 0.  0.
        998    1    1    2    0    0  0.76131705309E+01 -0.18893968384E-01  0.14191485907E+04  0.14192042430E+04  0.10000000000E+02 0.  1.
</event>
<event>
 5    1  0.1303633E-008  0.3754390E+03  0.7957747E-01  0.3471262E+00
         13   -1    0    0    0    0  0.00000000000E+00  0.00000000000E+00  0.14999999963E+04  0.15000000000E+04  0.10566000000E+00 0.  1.
        994   -1    0    0    0    0 -0.00000000000E+00 -0.00000000000E+00  0.11368683772E-12  0.17120000000E+03  0.17120000000E+03 0.  0.
         13    1    1    2    0    0 -0.29285402807E+02 -0.68620781745E+01  0.26526821725E+02  0.40104941957E+02  0.10566000000E+00 0.  1.
        994    1    1    2    0    0  0.28953418428E+02  0.74905722523E+01  0.17038378198E+02  0.17462575825E+03  0.17120000000E+03 0.  0.
        998    1    1    2    0    0  0.33198437990E+00 -0.62849407784E+00  0.14564347964E+04  0.14564692998E+04  0.10000000000E+02 0.  1.
</event>
<event>
 5    1  0.1303633E-008  0.3841840E+03  0.7957747E-01  0.3433140E+00
         13   -1    0    0    0    0  0.00000000000E+00  0.00000000000E+00  0.14999999963E+04  0.15000000000E+04  0.10566000000E+00 0. -1.
        994   -1    0    0    0    0 -0.00000000000E+00 -0.00000000000E+00  0.11368683772E-12  0.17120000000E+03  0.17120000000E+03 0.  0.
         13    1    1    2    0    0 -0.49963768004E+01  0.19419329656E+02  0.11020433126E+03  0.11201374888E+03  0.10566000000E+00 0. -1.
        994    1    1    2    0    0  0.67678821015E+01  0.40265943280E+01  0.22403186694E+01  0.17139567298E+03  0.17120000000E+03 0.  0.
        998    1    1    2    0    0 -0.17715053012E+01 -0.23445923984E+02  0.13875553463E+04  0.13877905781E+04  0.10000000000E+02 0. -1.
</event>
<event>
 5    1  0.1303633E-008  0.3795435E+03  0.7957747E-01  0.3453148E+00
         13   -1    0    0    0    0  0.00000000000E+00  0.00000000000E+00  0.14999999963E+04  0.15000000000E+04  0.10566000000E+00 0. -1.
        994   -1    0    0    0    0 -0.00000000000E+00 -0.00000000000E+00  0.11368683772E-12  0.17120000000E+03  0.17120000000E+03 0.  0.
         13    1    1    2    0    0  0.10103894700E+02  0.26484238484E+01  0.10551788060E+02  0.14847701246E+02  0.10566000000E+00 0. -1.
        994    1    1    2    0    0 -0.73386742182E+01 -0.43619265028E+01  0.46077923863E+01  0.17147464621E+03  0.17120000000E+03 0.  0.
        998    1    1    2    0    0 -0.27652204818E+01  0.17135026544E+01  0.14848404158E+04  0.14848776525E+04  0.10000000000E+02 0. -1.
</event>
<event>
 5    1  0.1303633E-008  0.3831652E+03  0.7957747E-01  0.3437491E+00
         13   -1    0    0    0    0  0.00000000000E+00  0.00000000000E+00  0.14999999963E+04  0.15000000000E+04  0.10566000000E+00 0.  1.
        994   -1    0    0    0    0 -0.00000000000E+00 -0.00000000000E+00  0.11368683772E-12  0.17120000000E+03  0.17120000000E+03 0.  0.
         13    1    1    2    0    0 -0.99867884320E+01  0.70885600033E+01  0.29250243344E+02  0.31710747796E+02  0.10566000000E+00 0.  1.
        994    1    1    2    0    0  0.95601914344E+01  0.91227273550E+01  0.31217708373E+01  0.17173761052E+03  0.17120000000E+03 0.  0.
        998    1    1    2    0    0  0.42659699766E+00 -0.16211287358E+02  0.14676279821E+04  0.14677516417E+04  0.10000000000E+02 0.  1.
</event>
<event>
 5    1  0.1303633E-008  0.3859135E+03  0.7957747E-01  0.3425807E+00
         13   -1    0    0    0    0  0.00000000000E+00  0.00000000000E+00  0.14999999963E+04  0.15000000000E+04  0.10566000000E+00 0. -1.
        994   -1    0    0    0    0 -0.00000000000E+00 -0.00000000000E+00  0.11368683772E-12  0.17120000000E+03  0.17120000000E+03 0.  0.
         13    1    1    2    0    0 -0.82884636161E+01 -0.69206108815E+01  0.51255572685E+02  0.52380706175E+02  0.10566000000E+00 0. -1.
        994    1    1    2    0    0  0.12124618691E+00  0.55044447397E+01  0.12766734245E+01  0.17129326755E+03  0.17120000000E+03 0.  0.
        998    1    1    2    0    0  0.81672174292E+01  0.14161661418E+01  0.14474677502E+04  0.14475260263E+04  0.10000000000E+02 0. -1.
</event>
<event>
 5    1  0.1303633E-008  0.3693835E+03  0.7957747E-01  0.3498729E+00
         13   -1    0    0    0    0  0.00000000000E+00  0.00000000000E+00  0.14999999963E+04  0.15000000000E+04  0.10566000000E+00 0. -1.
        994   -1    0    0    0    0 -0.00000000000E+00 -0.00000000000E+00  0.11368683772E-12  0.17120000000E+03  0.17120000000E+03 0.  0.
         13    1    1    2    0    0 -0.41752987021E+01 -0.58074589568E+02  0.30314376461E+03  0.30868470040E+03  0.10566000000E+00 0. -1.
        994    1    1    2    0    0  0.21828353046E+02 -0.45046058946E+02  0.18324349041E+02  0.17930657041E+03  0.17120000000E+03 0.  0.
        998    1    1    2    0    0 -0.17653054344E+02  0.10312064851E+03  0.11785318826E+04  0.11832087292E+04  0.10000000000E+02 0. -1.
</event>
<event>
 5    1  0.1303633E-008  0.3772929E+03  0.7957747E-01  0.3463031E+00
         13   -1    0    0    0    0  0.00000000000E+00  0.00000000000E+00  0.14999999963E+04  0.15000000000E+04  0.10566000000E+00 0.  1.
        994   -1    0    0    0    0 -0.00000000000E+00 -0.00000000000E+00  0.11368683772E-12  0.17120000000E+03  0.17120000000E+03 0.  0.
         13    1    1    2    0    0  0.18005937691E+03  0.18620866116E+03  0.11709655987E+04  0.11992729002E+04  0.10566000000E+00 0.  1.
        994    1    1    2    0    0 -0.17984486390E+03 -0.17031462389E+03  0.25200422846E+03  0.39264082485E+03  0.17120000000E+03 0.  0.
        998    1    1    2    0    0 -0.21451301230E+00 -0.15894037271E+02  0.77030169097E+02  0.79286274901E+02  0.10000000000E+02 0.  1.
</event>
<event>
 5    1  0.1303633E-008  0.3823269E+03  0.7957747E-01  0.3441089E+00
         13   -1    0    0    0    0  0.00000000000E+00  0.00000000000E+00  0.14999999963E+04  0.15000000000E+04  0.10566000000E+00 0.  1.
        994   -1    0    0    0    0 -0.00000000000E+00 -0.00000000000E+00  0.11368683772E-12  0.17120000000E+03  0.17120000000E+03 0.  0.
         13    1    1    2    0    0 -0.13816225230E+02  0.14694519688E+02  0.74876523747E+02  0.77545612132E+02  0.10566000000E+00 0.  1.
        994    1    1    2    0    0 -0.37012388936E+01  0.52066428046E+01  0.30985314725E+01  0.17134715987E+03  0.17120000000E+03 0.  0.
        998    1    1    2    0    0  0.17517464123E+02 -0.19901162492E+02  0.14220249411E+04  0.14223072280E+04  0.10000000000E+02 0.  1.
</event>
<event>
 5    1  0.1303633E-008  0.3796112E+03  0.7957747E-01  0.3452853E+00
         13   -1    0    0    0    0  0.00000000000E+00  0.00000000000E+00  0.14999999963E+04  0.15000000000E+04  0.10566000000E+00 0.  1.
        994   -1    0    0    0    0 -0.00000000000E+00 -0.00000000000E+00  0.11368683772E-12  0.17120000000E+03  0.17120000000E+03 0.  0.
         13    1    1    2    0    0 -0.16726995865E+02 -0.39244552727E+01  0.32117630843E+02  0.36424540009E+02  0.10566000000E+00 0.  1.
        994    1    1    2    0    0  0.12891275990E+02  0.72617636124E+01  0.50626568957E+01  0.17191273572E+03  0.17120000000E+03 0.  0.
        998    1    1    2    0    0  0.38357198744E+01 -0.33373083397E+01  0.14628197085E+04  0.14628627243E+04  0.10000000000E+02 0.  1.
</event>
<event>
 5    1  0.1303633E-008  0.3836918E+03  0.7957747E-01  0.3435240E+00
         13   -1    0    0    0    0  0.00000000000E+00  0.00000000000E+00  0.14999999963E+04  0.15000000000E+04  0.10566000000E+00 0. -1.
        994   -1    0    0    0    0 -0.00000000000E+00 -0.00000000000E+00  0.11368683772E-12  0.17120000000E+03  0.17120000000E+03 0.  0.
         13    1    1    2    0    0 -0.13150355683E+02  0.27621182916E+01  0.41945542312E+02  0.44045440580E+02  0.10566000000E+00 0. -1.
        994    1    1    2    0    0 -0.43651057723E+01  0.15187303634E+02  0.31061869131E+01  0.17195579879E+03  0.17120000000E+03 0.  0.
        998    1    1    2    0    0  0.17515461456E+02 -0.17949421926E+02  0.14549482671E+04  0.14551987606E+04  0.10000000000E+02 0. -1.
</event>
<event>
 5    1  0.1303633E-008  0.3858689E+03  0.7957747E-01  0.3425995E+00
         13   -1    0    0    0    0  0.00000000000E+00  0.00000000000E+00  0.14999999963E+04  0.15000000000E+04  0.10566000000E+00 0. -1.
        994   -1    0    0    0    0 -0.00000000000E+00 -0.00000000000E+00  0.11368683772E-12  0.17120000000E+03  0.17120000000E+03 0.  0.
         13    1    1    2    0    0  0.11633126729E+02 -0.70537744255E+01  0.77990643146E+02  0.79168408810E+02  0.10566000000E+00 0. -1.
        994    1    1    2    0    0 -0.38402602891E+01  0.10797547349E+02  0.16301596537E+01  0.17159088568E+03  0.17120000000E+03 0.  0.
        998    1    1    2    0    0 -0.77928664395E+01 -0.37437729230E+01  0.14203791935E+04  0.14204407055E+04  0.10000000000E+02 0. -1.
</event>
<event>
 5    1  0.1303633E-008  0.3761048E+03  0.7957747E-01  0.3468296E+00
         13   -1    0    0    0    0  0.00000000000E+00  0.00000000000E+00  0.14999999963E+04  0.15000000000E+04  0.10566000000E+00 0. -1.
        994   -1    0    0    0    0 -0.00000000000E+00 -0.00000000000E+00  0.11368683772E-12  0.17120000000E+03  0.17120000000E+03 0.  0.
         13    1    1    2    0    0  0.65442364658E+01  0.50133788893E+02  0.24075859282E+03  0.24601003028E+03  0.10566000000E+00 0. -1.
        994    1    1    2    0    0 -0.60026790763E+01 -0.70210444476E+01  0.64015036672E+01  0.17156848915E+03  0.17120000000E+03 0.  0.
        998    1    1    2    0    0 -0.54155738949E+00 -0.43112744445E+02  0.12528398998E+04  0.12536214806E+04  0.10000000000E+02 0. -1.
</event>
<event>
 5    1  0.1303633E-008  0.3822713E+03  0.7957747E-01  0.3441328E+00
         13   -1    0    0    0    0  0.00000000000E+00  0.00000000000E+00  0.14999999963E+04  0.15000000000E+04  0.10566000000E+00 0.  1.
        994   -1    0    0    0    0 -0.00000000000E+00 -0.00000000000E+00  0.11368683772E-12  0.17120000000E+03  0.17120000000E+03 0.  0.
         13    1    1    2    0    0 -0.10836496530E+02  0.17645403541E+00  0.19402622098E+02  0.22224619263E+02  0.10566000000E+00 0.  1.
        994    1    1    2    0    0 -0.93351419833E+01  0.83514907669E+01  0.35117032327E+01  0.17169351861E+03  0.17120000000E+03 0.  0.
        998    1    1    2    0    0  0.20171638513E+02 -0.85279448024E+01  0.14770856709E+04  0.14772818621E+04  0.10000000000E+02 0.  1.
</event>
<event>
 5    1  0.1303633E-008  0.3852646E+03  0.7957747E-01  0.3428551E+00
         13   -1    0    0    0    0  0.00000000000E+00  0.00000000000E+00  0.14999999963E+04  0.15000000000E+04  0.10566000000E+00 0. -1.
        994   -1    0    0    0    0 -0.00000000000E+00 -0.00000000000E+00  0.11368683772E-12  0.17120000000E+03  0.17120000000E+03 0.  0.
         13    1    1    2    0    0  0.28848858002E+02 -0.16143564819E+02  0.18892461369E+03  0.19179518272E+03  0.10566000000E+00 0. -1.
        994    1    1    2    0    0 -0.10077986150E+03  0.41136651377E+01  0.35673087926E+02  0.20187994434E+03  0.17120000000E+03 0.  0.
        998    1    1    2    0    0  0.71931003495E+02  0.12029899681E+02  0.12754022947E+04  0.12775248729E+04  0.10000000000E+02 0. -1.
</event>
<event>
 5    1  0.1303633E-008  0.2222285E+03  0.7957747E-01  0.4677370E+00
         13   -1    0    0    0    0  0.00000000000E+00  0.00000000000E+00  0.14999999963E+04  0.15000000000E+04  0.10566000000E+00 0. -1.
        994   -1    0    0    0    0 -0.00000000000E+00 -0.00000000000E+00  0.11368683772E-12  0.17120000000E+03  0.17120000000E+03 0.  0.
         13    1    1    2    0    0  0.81205874796E+02 -0.12059154921E+03  0.11787915459E+03  0.18716896669E+03  0.10566000000E+00 0. -1.
        994    1    1    2    0    0 -0.18678034212E+02  0.71146778419E+02  0.12507186559E+03  0.22441734470E+03  0.17120000000E+03 0.  0.
        998    1    1    2    0    0 -0.62527840584E+02  0.49444770790E+02  0.12570489761E+04  0.12596136886E+04  0.10000000000E+02 0. -1.
</event>
<event>
 5    1  0.1303633E-008  0.3723864E+03  0.7957747E-01  0.3484995E+00
         13   -1    0    0    0    0  0.00000000000E+00  0.00000000000E+00  0.14999999963E+04  0.15000000000E+04  0.10566000000E+00 0. -1.
        994   -1    0    0    0    0 -0.00000000000E+00 -0.00000000000E+00  0.11368683772E-12  0.17120000000E+03  0.17120000000E+03 0.  0.
         13    1    1    2    0    0  0.66329606133E+02 -0.11982337852E+02  0.26745598770E+03  0.27581861720E+03  0.10566000000E+00 0. -1.
        994    1    1    2    0    0 -0.43795194752E+02  0.17561643678E+02  0.15701329008E+02  0.17827619624E+03  0.17120000000E+03 0.  0.
        998    1    1    2    0    0 -0.22534411381E+02 -0.55793058264E+01  0.12168426796E+04  0.12171051866E+04  0.10000000000E+02 0. -1.
</event>
<event>
 5    1  0.1303633E-008  0.3736107E+03  0.7957747E-01  0.3479459E+00
         13   -1    0    0    0    0  0.00000000000E+00  0.00000000000E+00  0.14999999963E+04  0.15000000000E+04  0.10566000000E+00 0. -1.
        994   -1    0    0    0    0 -0.00000000000E+00 -0.00000000000E+00  0.11368683772E-12  0.17120000000E+03  0.17120000000E+03 0.  0.
         13    1    1    2    0    0 -0.37358304351E+02  0.25108414651E+02  0.14389611629E+03  0.15077194314E+03  0.10566000000E+00 0. -1.
        994    1    1    2    0    0 -0.42261322262E+01 -0.30473216066E+02  0.10633107213E+02  0.17426697926E+03  0.17120000000E+03 0.  0.
        998    1    1    2    0    0  0.41584436577E+02  0.53648014146E+01  0.13454707728E+04  0.13461610776E+04  0.10000000000E+02 0. -1.
</event>
<event>
 5    1  0.1303633E-008  0.3823878E+03  0.7957747E-01  0.3440827E+00
         13   -1    0    0    0    0  0.00000000000E+00  0.00000000000E+00  0.14999999963E+04  0.15000000000E+04  0.10566000000E+00 0. -1.
        994   -1    0    0    0    0 -0.00000000000E+00 -0.00000000000E+00  0.11368683772E-12  0.17120000000E+03  0.17120000000E+03 0.  0.
         13    1    1    2    0    0 -0.11199236091E+02  0.68174787591E+00  0.20686123619E+02  0.23533264618E+02  0.10566000000E+00 0. -1.
        994    1    1    2    0    0  0.22856136546E+01  0.26638027420E+01  0.29734951792E+01  0.17126179244E+03  0.17120000000E+03 0.  0.
        998    1    1    2    0    0  0.89136224369E+01 -0.33455506179E+01  0.14763403775E+04  0.14764049429E+04  0.10000000000E+02 0. -1.
</event>
<event>
 5    1  0.1303633E-008  0.3803046E+03  0.7957747E-01  0.3449833E+00
         13   -1    0    0    0    0  0.00000000000E+00  0.00000000000E+00  0.14999999963E+04  0.15000000000E+04  0.10566000000E+00 0.  1.
        994   -1    0    0    0    0 -0.00000000000E+00 -0.00000000000E+00  0.11368683772E-12  0.17120000000E+03  0.17120000000E+03 0.  0.
         13    1    1    2    0    0 -0.13342618460E+02 -0.38281889835E+02  0.20220982814E+03  0.20623373709E+03  0.10566000000E+00 0.  1.
        994    1    1    2    0    0 -0.36662304959E+01  0.28334213755E+02  0.67102343993E+01  0.17369725433E+03  0.17120000000E+03 0.  0.
        998    1    1    2    0    0  0.17008848956E+02  0.99476760800E+01  0.12910799337E+04  0.12912690086E+04  0.10000000000E+02 0.  1.
</event>
<event>
 5    1  0.1303633E-008  0.3842811E+03  0.7957747E-01  0.3432727E+00
         13   -1    0    0    0    0  0.00000000000E+00  0.00000000000E+00  0.14999999963E+04  0.15000000000E+04  0.10566000000E+00 0. -1.
        994   -1    0    0    0    0 -0.00000000000E+00 -0.00000000000E+00  0.11368683772E-12  0.17120000000E+03  0.17120000000E+03 0.  0.
         13    1    1    2    0    0 -0.50502335188E+02  0.48986918611E+02  0.14640975383E+03  0.16243777651E+03  0.10566000000E+00 0. -1.
        994    1    1    2    0    0  0.26224336025E+02  0.20515094179E+02  0.22790758971E+02  0.17589043062E+03  0.17120000000E+03 0.  0.
        998    1    1    2    0    0  0.24277999162E+02 -0.69502012790E+02  0.13307994835E+04  0.13328717929E+04  0.10000000000E+02 0. -1.
</event>
<event>
 5    1  0.1303633E-008  0.3854746E+03  0.7957747E-01  0.3427662E+00
         13   -1    0    0    0    0  0.00000000000E+00  0.00000000000E+00  0.14999999963E+04  0.15000000000E+04  0.10566000000E+00 0.  1.
        994   -1    0    0    0    0 -0.00000000000E+00 -0.00000000000E+00  0.11368683772E-12  0.17120000000E+03  0.17120000000E+03 0.  0.
         13    1    1    2    0    0  0.76320593005E+01 -0.77422806394E+01  0.43605778534E+02  0.44940697861E+02  0.10566000000E+00 0.  1.
        994    1    1    2    0    0 -0.19878509840E+01  0.19724302463E+01  0.14204610573E+01  0.17122879355E+03  0.17120000000E+03 0.  0.
        998    1    1    2    0    0 -0.56442083165E+01  0.57698503932E+01  0.14549737567E+04  0.14550305086E+04  0.10000000000E+02 0.  1.
</event>
<event>
 5    1  0.1303633E-008  0.3846263E+03  0.7957747E-01  0.3431259E+00
         13   -1    0    0    0    0  0.00000000000E+00  0.00000000000E+00  0.14999999963E+04  0.15000000000E+04  0.10566000000E+00 0. -1.
        994   -1    0    0    0    0 -0.00000000000E+00 -0.00000000000E+00  0.11368683772E-12  0.17120000000E+03  0.17120000000E+03 0.  0.
         13    1    1    2    0    0  0.81072043508E+01 -0.16291882036E+02  0.84975234630E+02  0.86901978385E+02  0.10566000000E+00 0. -1.
        994    1    1    2    0    0 -0.13379966181E+02  0.17729870736E+02  0.34419589134E+01  0.17266921814E+03  0.17120000000E+03 0.  0.
        998    1    1    2    0    0  0.52727618301E+01 -0.14379887004E+01  0.14115828027E+04  0.14116288035E+04  0.10000000000E+02 0. -1.
</event>
<event>
 5    1  0.1303633E-008  0.3852915E+03  0.7957747E-01  0.3428437E+00
         13   -1    0    0    0    0  0.00000000000E+00  0.00000000000E+00  0.14999999963E+04  0.15000000000E+04  0.10566000000E+00 0.  1.
        994   -1    0    0    0    0 -0.00000000000E+00 -0.00000000000E+00  0.11368683772E-12  0.17120000000E+03  0.17120000000E+03 0.  0.
         13    1    1    2    0    0  0.14507722340E+02 -0.90991915943E+01  0.88336526106E+02  0.89981233064E+02  0.10566000000E+00 0.  1.
        994    1    1    2    0    0 -0.18374162701E+02  0.20004568579E+02  0.39133116020E+01  0.17338554330E+03  0.17120000000E+03 0.  0.
        998    1    1    2    0    0  0.38664403616E+01 -0.10905376984E+02  0.14077501586E+04  0.14078332236E+04  0.10000000000E+02 0.  1.
</event>
<event>
 5    1  0.1303633E-008  0.3830989E+03  0.7957747E-01  0.3437775E+00
         13   -1    0    0    0    0  0.00000000000E+00  0.00000000000E+00  0.14999999963E+04  0.15000000000E+04  0.10566000000E+00 0. -1.
        994   -1    0    0    0    0 -0.00000000000E+00 -0.00000000000E+00  0.11368683772E-12  0.17120000000E+03  0.17120000000E+03 0.  0.
         13    1    1    2    0    0 -0.11424677683E+02 -0.60763718449E+01  0.31387964072E+02  0.33950861661E+02  0.10566000000E+00 0. -1.
        994    1    1    2    0    0  0.86462780657E+01  0.71017109319E+01  0.29913188186E+01  0.17159131799E+03  0.17120000000E+03 0.  0.
        998    1    1    2    0    0  0.27783996173E+01 -0.10253390870E+01  0.14656207134E+04  0.14656578203E+04  0.10000000000E+02 0. -1.
</event>
<event>
 5    1  0.1303633E-008  0.4065773E+03  0.7957747E-01  0.3343017E+00
         13   -1    0    0    0    0  0.00000000000E+00  0.00000000000E+00  0.14999999963E+04  0.15000000000E+04  0.10566000000E+00 0. -1.
        994   -1    0    0    0    0 -0.00000000000E+00 -0.00000000000E+00  0.11368683772E-12  0.17120000000E+03  0.17120000000E+03 0.  0.
         13    1    1    2    0    0  0.14008006423E+03  0.48369880981E+02  0.32134488851E+03  0.35387090629E+03  0.10566000000E+00 0. -1.
        994    1    1    2    0    0 -0.12987318374E+03  0.54487902844E+02  0.11711485366E+03  0.25072156740E+03  0.17120000000E+03 0.  0.
        998    1    1    2    0    0 -0.10206880496E+02 -0.10285778383E+03  0.10615402541E+04  0.10666075263E+04  0.10000000000E+02 0. -1.
</event>
<event>
 5    1  0.1303633E-008  0.3817700E+03  0.7957747E-01  0.3443488E+00
         13   -1    0    0    0    0  0.00000000000E+00  0.00000000000E+00  0.14999999963E+04  0.15000000000E+04  0.10566000000E+00 0.  1.
        994   -1    0    0    0    0 -0.00000000000E+00 -0.00000000000E+00  0.11368683772E-12  0.17120000000E+03  0.17120000000E+03 0.  0.
         13    1    1    2    0    0  0.86564118181E+01  0.15700762549E+02  0.47920439258E+02  0.51164705344E+02  0.10566000000E+00 0.  1.
        994    1    1    2    0    0 -0.70861168274E+01 -0.12613302450E+02  0.39382731257E+01  0.17185534163E+03  0.17120000000E+03 0.  0.
        998    1    1    2    0    0 -0.15702949906E+01 -0.30874600993E+01  0.14481412839E+04  0.14481799530E+04  0.10000000000E+02 0.  1.
</event>
<event>
 5    1  0.1303633E-008  0.3803569E+03  0.7957747E-01  0.3449606E+00
         13   -1    0    0    0    0  0.00000000000E+00  0.00000000000E+00  0.14999999963E+04  0.15000000000E+04  0.10566000000E+00 0. -1.
        994   -1    0    0    0    0 -0.00000000000E+00 -0.00000000000E+00  0.11368683772E-12  0.17120000000E+03  0.17120000000E+03 0.  0.
         13    1    1    2    0    0  0.18445815105E+02 -0.29048069026E+02  0.18583602166E+03  0.18899491136E+03  0.10566000000E+00 0. -1.
        994    1    1    2    0    0  0.48934782935E+02  0.25068032379E+02  0.14113687577E+02  0.18036533870E+03  0.17120000000E+03 0.  0.
        998    1    1    2    0    0 -0.67380598040E+02  0.39800366469E+01  0.13000502870E+04  0.13018397499E+04  0.10000000000E+02 0. -1.
</event>
<event>
 5    1  0.1303633E-008  0.3795660E+03  0.7957747E-01  0.3453050E+00
         13   -1    0    0    0    0  0.00000000000E+00  0.00000000000E+00  0.14999999963E+04  0.15000000000E+04  0.10566000000E+00 0. -1.
        994   -1    0    0    0    0 -0.00000000000E+00 -0.00000000000E+00  0.11368683772E-12  0.17120000000E+03  0.17120000000E+03 0.  0.
         13    1    1    2    0    0 -0.36389566353E+02 -0.36630527562E+02  0.30192525035E+03  0.30630844594E+03  0.10566000000E+00 0. -1.
        994    1    1    2    0    0  0.23903744105E+02  0.19132882773E+02  0.74970778773E+01  0.17407786293E+03  0.17120000000E+03 0.  0.
        998    1    1    2    0    0  0.12485822248E+02  0.17497644788E+02  0.11905776680E+04  0.11908136911E+04  0.10000000000E+02 0. -1.
</event>
<event>
 5    1  0.1303633E-008  0.3781718E+03  0.7957747E-01  0.3459158E+00
         13   -1    0    0    0    0  0.00000000000E+00  0.00000000000E+00  0.14999999963E+04  0.15000000000E+04  0.10566000000E+00 0. -1.
        994   -1    0    0    0    0 -0.00000000000E+00 -0.00000000000E+00  0.11368683772E-12  0.17120000000E+03  0.17120000000E+03 0.  0.
         13    1    1    2    0    0 -0.47835676735E+01 -0.23728875369E+02  0.54863089924E+02  0.59965922373E+02  0.10566000000E+00 0. -1.
        994    1    1    2    0    0 -0.45096285327E+01  0.22644809941E+02  0.68539406669E+01  0.17288591808E+03  0.17120000000E+03 0.  0.
        998    1    1    2    0    0  0.92931962062E+01  0.10840654278E+01  0.14382829657E+04  0.14383481595E+04  0.10000000000E+02 0. -1.
</event>
<event>
 5    1  0.1303633E-008  0.3724125E+03  0.7957747E-01  0.3484876E+00
         13   -1    0    0    0    0  0.00000000000E+00  0.00000000000E+00  0.14999999963E+04  0.15000000000E+04  0.10566000000E+00 0.  1.
        994   -1    0    0    0    0 -0.00000000000E+00 -0.00000000000E+00  0.11368683772E-12  0.17120000000E+03  0.17120000000E+03 0.  0.
         13    1    1    2    0    0 -0.59605975523E+02 -0.59878715037E+02  0.27902148222E+03  0.29153272807E+03  0.10566000000E+00 0.  1.
        994    1    1    2    0    0 -0.64938559096E+01  0.90071776419E+02  0.41559084664E+02  0.19796891824E+03  0.17120000000E+03 0.  0.
        998    1    1    2    0    0  0.66099831433E+02 -0.30193061383E+02  0.11794194294E+04  0.11816983537E+04  0.10000000000E+02 0.  1.
</event>
<event>
 5    1  0.1303633E-008  0.3790221E+03  0.7957747E-01  0.3455428E+00
         13   -1    0    0    0    0  0.00000000000E+00  0.00000000000E+00  0.14999999963E+04  0.15000000000E+04  0.10566000000E+00 0.  1.
        994   -1    0    0    0    0 -0.00000000000E+00 -0.00000000000E+00  0.11368683772E-12  0.17120000000E+03  0.17120000000E+03 0.  0.
         13    1    1    2    0    0  0.33308404090E+02  0.10150207407E+01  0.11517130280E+03  0.11989545531E+03  0.10566000000E+00 0.  1.
        994    1    1    2    0    0 -0.25374708770E+02  0.36899800551E+01  0.68358126684E+01  0.17324450968E+03  0.17120000000E+03 0.  0.
        998    1    1    2    0    0 -0.79336953198E+01 -0.47050007958E+01  0.13779928808E+04  0.13780600350E+04  0.10000000000E+02 0.  1.
</event>
<event>
 5    1  0.1649343E-008  0.3864497E+03  0.7957747E-01  0.3423547E+00
         13   -1    0    0    0    0  0.00000000000E+00  0.00000000000E+00  0.14999999963E+04  0.15000000000E+04  0.10566000000E+00 0. -1.
        994   -1    0    0    0    0 -0.00000000000E+00 -0.00000000000E+00  0.11368683772E-12  0.17120000000E+03  0.17120000000E+03 0.  0.
         13    1    1    2    0    0 -0.75358849504E+01 -0.69332483573E+01  0.57301532832E+02  0.58209417827E+02  0.10566000000E+00 0. -1.
        994    1    1    2    0    0  0.87560126195E+01  0.51360854409E+01  0.12494474867E+01  0.17150524263E+03  0.17120000000E+03 0.  0.
        998    1    1    2    0    0 -0.12201276690E+01  0.17971629164E+01  0.14414490160E+04  0.14414853395E+04  0.10000000000E+02 0. -1.
</event>
<event>
 5    1  0.1303633E-008  0.3806825E+03  0.7957747E-01  0.3448192E+00
         13   -1    0    0    0    0  0.00000000000E+00  0.00000000000E+00  0.14999999963E+04  0.15000000000E+04  0.10566000000E+00 0.  1.
        994   -1    0    0    0    0 -0.00000000000E+00 -0.00000000000E+00  0.11368683772E-12  0.17120000000E+03  0.17120000000E+03 0.  0.
         13    1    1    2    0    0 -0.10494736492E+02 -0.23400128849E+02  0.11228880132E+03  0.11518025695E+03  0.10566000000E+00 0.  1.
        994    1    1    2    0    0 -0.53699377325E+02 -0.66053512940E+01  0.13614942771E+02  0.18006126862E+03  0.17120000000E+03 0.  0.
        998    1    1    2    0    0  0.64194113818E+02  0.30005480143E+02  0.13740962522E+04  0.13759584744E+04  0.10000000000E+02 0.  1.
</event>
<event>
 5    1  0.1303633E-008  0.3859694E+03  0.7957747E-01  0.3425571E+00
         13   -1    0    0    0    0  0.00000000000E+00  0.00000000000E+00  0.14999999963E+04  0.15000000000E+04  0.10566000000E+00 0.  1.
        994   -1    0    0    0    0 -0.00000000000E+00 -0.00000000000E+00  0.11368683772E-12  0.17120000000E+03  0.17120000000E+03 0.  0.
         13    1    1    2    0    0 -0.98598305218E+01  0.80370737179E+01  0.71200841358E+02  0.72328291740E+02  0.10566000000E+00 0.  1.
        994    1    1    2    0    0  0.82291106809E+01 -0.31382371384E+01  0.14039505512E+01  0.17143213780E+03  0.17120000000E+03 0.  0.
        998    1    1    2    0    0  0.16307198409E+01 -0.48988365795E+01  0.14273952044E+04  0.14274395705E+04  0.10000000000E+02 0.  1.
</event>
<event>
 5    1  0.1303633E-008  0.3827660E+03  0.7957747E-01  0.3439203E+00
         13   -1    0    0    0    0  0.00000000000E+00  0.00000000000E+00  0.14999999963E+04  0.15000000000E+04  0.10566000000E+00 0. -1.
        994   -1    0    0    0    0 -0.00000000000E+00 -0.00000000000E+00  0.11368683772E-12  0.17120000000E+03  0.17120000000E+03 0.  0.
         13    1    1    2    0    0 -0.12360471486E+02 -0.18067546725E+01  0.24368476000E+02  0.27383926022E+02  0.10566000000E+00 0. -1.
        994    1    1    2    0    0  0.42407830520E+02  0.19583692806E+02  0.10005260392E+02  0.17773995147E+03  0.17120000000E+03 0.  0.
        998    1    1    2    0    0 -0.30047359034E+02 -0.17776938133E+02  0.14656262599E+04  0.14660761225E+04  0.10000000000E+02 0. -1.
</event>
<event>
 5    1  0.1303633E-008  0.3686390E+03  0.7957747E-01  0.3502169E+00
         13   -1    0    0    0    0  0.00000000000E+00  0.00000000000E+00  0.14999999963E+04  0.15000000000E+04  0.10566000000E+00 0.  1.
        994   -1    0    0    0    0 -0.00000000000E+00 -0.00000000000E+00  0.11368683772E-12  0.17120000000E+03  0.17120000000E+03 0.  0.
         13    1    1    2    0    0 -0.18409371330E+02  0.72270654161E+01  0.15184031191E+02  0.24933940614E+02  0.10566000000E+00 0.  1.
        994    1    1    2    0    0  0.11254457251E+02 -0.15917709912E+02  0.11303546364E+02  0.17267671081E+03  0.17120000000E+03 0.  0.
        998    1    1    2    0    0  0.71549140788E+01  0.86906444962E+01  0.14735124187E+04  0.14735893486E+04  0.10000000000E+02 0.  1.
</event>
<event>
 5    1  0.1303633E-008  0.3742680E+03  0.7957747E-01  0.3476503E+00
         13   -1    0    0    0    0  0.00000000000E+00  0.00000000000E+00  0.14999999963E+04  0.15000000000E+04  0.10566000000E+00 0. -1.
        994   -1    0    0    0    0 -0.00000000000E+00 -0.00000000000E+00  0.11368683772E-12  0.17120000000E+03  0.17120000000E+03 0.  0.
         13    1    1    2    0    0  0.13164606041E+02 -0.20654073875E+02  0.39977103314E+02  0.46883659981E+02  0.10566000000E+00 0. -1.
        994    1    1    2    0    0 -0.99796234484E+01  0.10283298825E+02  0.77551066996E+01  0.17197360495E+03  0.17120000000E+03 0.  0.
        998    1    1    2    0    0 -0.31849825924E+01  0.10370775050E+02  0.14522677863E+04  0.14523427351E+04  0.10000000000E+02 0.  0.
</event>
<event>
 5    1  0.1303633E-008  0.3698667E+03  0.7957747E-01  0.3496504E+00
         13   -1    0    0    0    0  0.00000000000E+00  0.00000000000E+00  0.14999999963E+04  0.15000000000E+04  0.10566000000E+00 0. -1.
        994   -1    0    0    0    0 -0.00000000000E+00 -0.00000000000E+00  0.11368683772E-12  0.17120000000E+03  0.17120000000E+03 0.  0.
         13    1    1    2    0    0 -0.31405955325E+02 -0.48924701804E+02  0.19548370724E+03  0.20394570709E+03  0.10566000000E+00 0. -1.
        994    1    1    2    0    0 -0.57397469390E+01 -0.15079566514E+02  0.11778574292E+02  0.17236157586E+03  0.17120000000E+03 0.  0.
        998    1    1    2    0    0  0.37145702264E+02  0.64004268317E+02  0.12927377147E+04  0.12948927171E+04  0.10000000000E+02 0. -1.
</event>
<event>
 5    1  0.1303633E-008  0.3708692E+03  0.7957747E-01  0.3491906E+00
         13   -1    0    0    0    0  0.00000000000E+00  0.00000000000E+00  0.14999999963E+04  0.15000000000E+04  0.10566000000E+00 0. -1.
        994   -1    0    0    0    0 -0.00000000000E+00 -0.00000000000E+00  0.11368683772E-12  0.17120000000E+03  0.17120000000E+03 0.  0.
         13    1    1    2    0    0  0.12107826217E+00  0.11488116723E+02  0.34374391504E+01  0.11992440858E+02  0.10566000000E+00 0. -1.
        994    1    1    2    0    0 -0.11399232203E+02 -0.52710860666E+01  0.93593661860E+01  0.17191499230E+03  0.17120000000E+03 0.  0.
        998    1    1    2    0    0  0.11278153940E+02 -0.62170306560E+01  0.14872031909E+04  0.14872925668E+04  0.10000000000E+02 0. -1.
</event>
<event>
 5    1  0.1303633E-008  0.3858911E+03  0.7957747E-01  0.3425902E+00
         13   -1    0    0    0    0  0.00000000000E+00  0.00000000000E+00  0.14999999963E+04  0.15000000000E+04  0.10566000000E+00 0.  1.
        994   -1    0    0    0    0 -0.00000000000E+00 -0.00000000000E+00  0.11368683772E-12  0.17120000000E+03  0.17120000000E+03 0.  0.
         13    1    1    2    0    0  0.88444260651E+01  0.80783426227E+01  0.63452588743E+02  0.64573413060E+02  0.10566000000E+00 0.  1.
        994    1    1    2    0    0 -0.20524367454E+01 -0.15701591383E+01  0.12102581470E+01  0.17122377937E+03  0.17120000000E+03 0.  0.
        998    1    1    2    0    0 -0.67919893197E+01 -0.65081834844E+01  0.14353371494E+04  0.14354028076E+04  0.10000000000E+02 0.  1.
</event>
<event>
 5    1  0.1303633E-008  0.3789723E+03  0.7957747E-01  0.3455645E+00
         13   -1    0    0    0    0  0.00000000000E+00  0.00000000000E+00  0.14999999963E+04  0.15000000000E+04  0.10566000000E+00 0.  1.
        994   -1    0    0    0    0 -0.00000000000E+00 -0.00000000000E+00  0.11368683772E-12  0.17120000000E+03  0.17120000000E+03 0.  0.
         13    1    1    2    0    0  0.38124793018E+00 -0.17891585314E+02  0.33368988825E+02  0.37864954170E+02  0.10566000000E+00 0.  1.
        994    1    1    2    0    0  0.21173901052E+01  0.41359653052E+01  0.47252264221E+01  0.17132821517E+03  0.17120000000E+03 0.  0.
        998    1    1    2    0    0 -0.24986380354E+01  0.13755620008E+02  0.14619057810E+04  0.14620068307E+04  0.10000000000E+02 0.  1.
</event>
<event>
 5    1  0.1303633E-008  0.3838372E+03  0.7957747E-01  0.3434619E+00
         13   -1    0    0    0    0  0.00000000000E+00  0.00000000000E+00  0.14999999963E+04  0.15000000000E+04  0.10566000000E+00 0.  1.
        994   -1    0    0    0    0 -0.00000000000E+00 -0.00000000000E+00  0.11368683772E-12  0.17120000000E+03  0.17120000000E+03 0.  0.
         13    1    1    2    0    0 -0.95828887192E+01  0.18399907642E+02  0.89950856325E+02  0.92312274780E+02  0.10566000000E+00 0.  1.
        994    1    1    2    0    0  0.10914611184E+02 -0.22297580483E+02  0.42457176867E+01  0.17304270268E+03  0.17120000000E+03 0.  0.
        998    1    1    2    0    0 -0.13317224649E+01  0.38976728410E+01  0.14058034223E+04  0.14058450225E+04  0.10000000000E+02 0.  1.
</event>
<event>
 5    1  0.1303633E-008  0.3725005E+03  0.7957747E-01  0.3484477E+00
         13   -1    0    0    0    0  0.00000000000E+00  0.00000000000E+00  0.14999999963E+04  0.15000000000E+04  0.10566000000E+00 0. -1.
        994   -1    0    0    0    0 -0.00000000000E+00 -0.00000000000E+00  0.11368683772E-12  0.17120000000E+03  0.17120000000E+03 0.  0.
         13    1    1    2    0    0  0.90637599285E-01 -0.22936873119E+02  0.16033819845E+02  0.27985762568E+02  0.10566000000E+00 0. -1.
        994    1    1    2    0    0  0.37404960544E+01  0.20962749806E+02  0.13867938334E+02  0.17307567103E+03  0.17120000000E+03 0.  0.
        998    1    1    2    0    0 -0.38311336536E+01  0.19741233130E+01  0.14700982381E+04  0.14701385664E+04  0.10000000000E+02 0. -1.
</event>
<event>
 5    1  0.1303633E-008  0.3699917E+03  0.7957747E-01  0.3495929E+00
         13   -1    0    0    0    0  0.00000000000E+00  0.00000000000E+00  0.14999999963E+04  0.15000000000E+04  0.10566000000E+00 0. -1.
        994   -1    0    0    0    0 -0.00000000000E+00 -0.00000000000E+00  0.11368683772E-12  0.17120000000E+03  0.17120000000E+03 0.  0.
         13    1    1    2    0    0 -0.77009209510E+02  0.15008088709E+03  0.66827479215E+03  0.68923573617E+03  0.10566000000E+00 0. -1.
        994    1    1    2    0    0  0.77609598176E+02 -0.14546777686E+03  0.11304097832E+03  0.26319541526E+03  0.17120000000E+03 0.  0.
        998    1    1    2    0    0 -0.60038866596E+00 -0.46131102234E+01  0.71868422581E+03  0.71876884858E+03  0.10000000000E+02 0.  0.
</event>
<event>
 5    1  0.1303633E-008  0.3808566E+03  0.7957747E-01  0.3447437E+00
         13   -1    0    0    0    0  0.00000000000E+00  0.00000000000E+00  0.14999999963E+04  0.15000000000E+04  0.10566000000E+00 0. -1.
        994   -1    0    0    0    0 -0.00000000000E+00 -0.00000000000E+00  0.11368683772E-12  0.17120000000E+03  0.17120000000E+03 0.  0.
         13    1    1    2    0    0  0.34638781678E+01 -0.11258202976E+02  0.18621733289E+02  0.22034647738E+02  0.10566000000E+00 0. -1.
        994    1    1    2    0    0 -0.68374403909E+00 -0.22389402381E+02  0.53757142436E+01  0.17274284688E+03  0.17120000000E+03 0.  0.
        998    1    1    2    0    0 -0.27801341287E+01  0.33647605356E+02  0.14760025487E+04  0.14764225054E+04  0.10000000000E+02 0. -1.
</event>
<event>
 5    1  0.1303633E-008  0.3720042E+03  0.7957747E-01  0.3486730E+00
         13   -1    0    0    0    0  0.00000000000E+00  0.00000000000E+00  0.14999999963E+04  0.15000000000E+04  0.10566000000E+00 0.  1.
        994   -1    0    0    0    0 -0.00000000000E+00 -0.00000000000E+00  0.11368683772E-12  0.17120000000E+03  0.17120000000E+03 0.  0.
         13    1    1    2    0    0  0.87293677523E+01  0.67313558070E+01  0.35523701387E+01  0.11582033932E+02  0.10566000000E+00 0.  1.
        994    1    1    2    0    0 -0.75541012341E+01 -0.67153682712E+01  0.85761360127E+01  0.17171240702E+03  0.17120000000E+03 0.  0.
        998    1    1    2    0    0 -0.11752665183E+01 -0.15987535760E-01  0.14878714901E+04  0.14879055590E+04  0.10000000000E+02 0.  1.
</event>
<event>
 5    1  0.1303633E-008  0.3786159E+03  0.7957747E-01  0.3457208E+00
         13   -1    0    0    0    0  0.00000000000E+00  0.00000000000E+00  0.14999999963E+04  0.15000000000E+04  0.10566000000E+00 0. -1.
        994   -1    0    0    0    0 -0.00000000000E+00 -0.00000000000E+00  0.11368683772E-12  0.17120000000E+03  0.17120000000E+03 0.  0.
         13    1    1    2    0    0 -0.18864190618E+02 -0.89223775732E+01  0.42455899325E+02  0.47307304518E+02  0.10566000000E+00 0. -1.
        994    1    1    2    0    0  0.17242344822E+02  0.75742566081E+01  0.60254603310E+01  0.17233808050E+03  0.17120000000E+03 0.  0.
        998    1    1    2    0    0  0.16218457952E+01  0.13481209651E+01  0.14515186366E+04  0.14515546150E+04  0.10000000000E+02 0. -1.
</event>
<event>
 5    1  0.1303633E-008  0.3754703E+03  0.7957747E-01  0.3471122E+00
         13   -1    0    0    0    0  0.00000000000E+00  0.00000000000E+00  0.14999999963E+04  0.15000000000E+04  0.10566000000E+00 0.  1.
        994   -1    0    0    0    0 -0.00000000000E+00 -0.00000000000E+00  0.11368683772E-12  0.17120000000E+03  0.17120000000E+03 0.  0.
         13    1    1    2    0    0 -0.12031705676E+02 -0.45116414975E+01  0.96914086591E+01  0.16095074287E+02  0.10566000000E+00 0.  1.
        994    1    1    2    0    0  0.14449144439E+02  0.17670319105E+02  0.82076513201E+01  0.17290987101E+03  0.17120000000E+03 0.  0.
        998    1    1    2    0    0 -0.24174387630E+01 -0.13158677608E+02  0.14821009363E+04  0.14821950547E+04  0.10000000000E+02 0.  1.
</event>
<event>
 5    1  0.1303633E-008  0.3812690E+03  0.7957747E-01  0.3445652E+00
         13   -1    0    0    0    0  0.00000000000E+00  0.00000000000E+00  0.14999999963E+04  0.15000000000E+04  0.10566000000E+00 0.  1.
        994   -1    0    0    0    0 -0.00000000000E+00 -0.00000000000E+00  0.11368683772E-12  0.17120000000E+03  0.17120000000E+03 0.  0.
         13    1    1    2    0    0 -0.20165267035E+02 -0.12492010621E+02  0.77115572001E+02  0.80681540225E+02  0.10566000000E+00 0.  1.
        994    1    1    2    0    0  0.17489872628E+02  0.11061495276E+02  0.49208684555E+01  0.17251639710E+03  0.17120000000E+03 0.  0.
        998    1    1    2    0    0  0.26753944068E+01  0.14305153448E+01  0.14179635558E+04  0.14180020627E+04  0.10000000000E+02 0.  1.
</event>
<event>
 5    1  0.1303633E-008  0.3749804E+03  0.7957747E-01  0.3473310E+00
         13   -1    0    0    0    0  0.00000000000E+00  0.00000000000E+00  0.14999999963E+04  0.15000000000E+04  0.10566000000E+00 0. -1.
        994   -1    0    0    0    0 -0.00000000000E+00 -0.00000000000E+00  0.11368683772E-12  0.17120000000E+03  0.17120000000E+03 0.  0.
         13    1    1    2    0    0 -0.43578749292E+02 -0.27020135767E+02  0.20103902617E+03  0.20747504991E+03  0.10566000000E+00 0. -1.
        994    1    1    2    0    0  0.13874473828E+02  0.23691254585E+02  0.92554259541E+01  0.17363432690E+03  0.17120000000E+03 0.  0.
        998    1    1    2    0    0  0.29704275464E+02  0.33288811825E+01  0.12897055442E+04  0.12900906232E+04  0.10000000000E+02 0. -1.
</event>
<event>
 5    1  0.1303633E-008  0.3852340E+03  0.7957747E-01  0.3428681E+00
         13   -1    0    0    0    0  0.00000000000E+00  0.00000000000E+00  0.14999999963E+04  0.15000000000E+04  0.10566000000E+00 0.  1.
        994   -1    0    0    0    0 -0.00000000000E+00 -0.00000000000E+00  0.11368683772E-12  0.17120000000E+03  0.17120000000E+03 0.  0.
         13    1    1    2    0    0 -0.19100533808E+01  0.17575328355E+02  0.10597039667E+03  0.10743498781E+03  0.10566000000E+00 0.  1.
        994    1    1    2    0    0  0.24761958750E+01 -0.82115255888E+01  0.17557976311E+01  0.17142369592E+03  0.17120000000E+03 0.  0.
        998    1    1    2    0    0 -0.56614249424E+00 -0.93638027660E+01  0.13922738020E+04  0.13923413163E+04  0.10000000000E+02 0.  1.
</event>
<event>
 5    1  0.1303633E-008  0.3837865E+03  0.7957747E-01  0.3434835E+00
         13   -1    0    0    0    0  0.00000000000E+00  0.00000000000E+00  0.14999999963E+04  0.15000000000E+04  0.10566000000E+00 0. -1.
        994   -1    0    0    0    0 -0.00000000000E+00 -0.00000000000E+00  0.11368683772E-12  0.17120000000E+03  0.17120000000E+03 0.  0.
         13    1    1    2    0    0 -0.14162479800E+02  0.12224082563E+01  0.48005664190E+02  0.50066206910E+02  0.10566000000E+00 0. -1.
        994    1    1    2    0    0 -0.57420371663E+01 -0.21323657044E+01  0.23577195459E+01  0.17132576227E+03  0.17120000000E+03 0.  0.
        998    1    1    2    0    0  0.19904516967E+02  0.90995744812E+00  0.14496366125E+04  0.14498080308E+04  0.10000000000E+02 0. -1.
</event>
<event>
 5    1  0.1303633E-008  0.3803007E+03  0.7957747E-01  0.3449850E+00
         13   -1    0    0    0    0  0.00000000000E+00  0.00000000000E+00  0.14999999963E+04  0.15000000000E+04  0.10566000000E+00 0.  1.
        994   -1    0    0    0    0 -0.00000000000E+00 -0.00000000000E+00  0.11368683772E-12  0.17120000000E+03  0.17120000000E+03 0.  0.
         13    1    1    2    0    0  0.24996897851E+02 -0.34214010697E+02  0.20631966779E+03  0.21062587664E+03  0.10566000000E+00 0.  1.
        994    1    1    2    0    0 -0.23142419862E+02  0.26905870747E+02  0.81991018477E+01  0.17503189066E+03  0.17120000000E+03 0.  0.
        998    1    1    2    0    0 -0.18544779898E+01  0.73081399509E+01  0.12854812266E+04  0.12855422327E+04  0.10000000000E+02 0.  1.
</event>
<event>
 5    1  0.1303633E-008  0.3829577E+03  0.7957747E-01  0.3438380E+00
         13   -1    0    0    0    0  0.00000000000E+00  0.00000000000E+00  0.14999999963E+04  0.15000000000E+04  0.10566000000E+00 0.  1.
        994   -1    0    0    0    0 -0.00000000000E+00 -0.00000000000E+00  0.11368683772E-12  0.17120000000E+03  0.17120000000E+03 0.  0.
         13    1    1    2    0    0 -0.18222349914E+02  0.17449834893E+02  0.10860536690E+03  0.11149747825E+03  0.10566000000E+00 0.  1.
        994    1    1    2    0    0  0.29383014067E+02 -0.13197876422E+02  0.60899592461E+01  0.17431027813E+03  0.17120000000E+03 0.  0.
        998    1    1    2    0    0 -0.11160664153E+02 -0.42519584708E+01  0.13853046701E+04  0.13853922436E+04  0.10000000000E+02 0.  1.
</event>
<event>
 5    1  0.1303633E-008  0.3836522E+03  0.7957747E-01  0.3435409E+00
         13   -1    0    0    0    0  0.00000000000E+00  0.00000000000E+00  0.14999999963E+04  0.15000000000E+04  0.10566000000E+00 0.  1.
        994   -1    0    0    0    0 -0.00000000000E+00 -0.00000000000E+00  0.11368683772E-12  0.17120000000E+03  0.17120000000E+03 0.  0.
         13    1    1    2    0    0  0.22993571731E+02 -0.29129980133E+02  0.21795222200E+03  0.22108921802E+03  0.10566000000E+00 0.  1.
        994    1    1    2    0    0 -0.45983156193E+02  0.33705385621E+02  0.13112409323E+02  0.18091953723E+03  0.17120000000E+03 0.  0.
        998    1    1    2    0    0  0.22989584462E+02 -0.45754054886E+01  0.12689353650E+04  0.12691912448E+04  0.10000000000E+02 0.  1.
</event>
<event>
 5    1  0.1303633E-008  0.3844355E+03  0.7957747E-01  0.3432070E+00
         13   -1    0    0    0    0  0.00000000000E+00  0.00000000000E+00  0.14999999963E+04  0.15000000000E+04  0.10566000000E+00 0. -1.
        994   -1    0    0    0    0 -0.00000000000E+00 -0.00000000000E+00  0.11368683772E-12  0.17120000000E+03  0.17120000000E+03 0.  0.
         13    1    1    2    0    0  0.18405151495E+02  0.55125779387E+01  0.87979639928E+02  0.90053130556E+02  0.10566000000E+00 0. -1.
        994    1    1    2    0    0 -0.22716490210E+02 -0.14152519421E+02  0.42742917394E+01  0.17333217331E+03  0.17120000000E+03 0.  0.
        998    1    1    2    0    0  0.43113387153E+01  0.86399414826E+01  0.14077460646E+04  0.14078146961E+04  0.10000000000E+02 0. -1.
</event>
<event>
 5    1  0.1825643E-008  0.3858137E+03  0.7957747E-01  0.3426228E+00
         13   -1    0    0    0    0  0.00000000000E+00  0.00000000000E+00  0.14999999963E+04  0.15000000000E+04  0.10566000000E+00 0. -1.
        994   -1    0    0    0    0 -0.00000000000E+00 -0.00000000000E+00  0.11368683772E-12  0.17120000000E+03  0.17120000000E+03 0.  0.
         13    1    1    2    0    0  0.61693200494E+01 -0.11252646842E+02  0.70240875642E+02  0.71403601770E+02  0.10566000000E+00 0. -1.
        994    1    1    2    0    0  0.20123229059E+01  0.53624804910E+01  0.13342801445E+01  0.17130098057E+03  0.17120000000E+03 0.  0.
        998    1    1    2    0    0 -0.81816429553E+01  0.58901663507E+01  0.14284248405E+04  0.14284954177E+04  0.10000000000E+02 0. -1.
</event>
<event>
 5    1  0.1303633E-008  0.3771960E+03  0.7957747E-01  0.3463459E+00
         13   -1    0    0    0    0  0.00000000000E+00  0.00000000000E+00  0.14999999963E+04  0.15000000000E+04  0.10566000000E+00 0. -1.
        994   -1    0    0    0    0 -0.00000000000E+00 -0.00000000000E+00  0.11368683772E-12  0.17120000000E+03  0.17120000000E+03 0.  0.
         13    1    1    2    0    0 -0.32870728260E+02 -0.60430332626E+02  0.35198828726E+03  0.35864756434E+03  0.10566000000E+00 0. -1.
        994    1    1    2    0    0  0.69757808101E+02  0.34969055738E+02  0.26384741681E+02  0.18998573958E+03  0.17120000000E+03 0.  0.
        998    1    1    2    0    0 -0.36887079840E+02  0.25461276888E+02  0.11216269673E+04  0.11225666961E+04  0.10000000000E+02 0. -1.
</event>
<event>
 5    1  0.1303633E-008  0.3863882E+03  0.7957747E-01  0.3423806E+00
         13   -1    0    0    0    0  0.00000000000E+00  0.00000000000E+00  0.14999999963E+04  0.15000000000E+04  0.10566000000E+00 0. -1.
        994   -1    0    0    0    0 -0.00000000000E+00 -0.00000000000E+00  0.11368683772E-12  0.17120000000E+03  0.17120000000E+03 0.  0.
         13    1    1    2    0    0  0.30073181676E+02  0.10943652051E+03  0.37506225381E+03  0.39185769570E+03  0.10566000000E+00 0. -1.
        994    1    1    2    0    0  0.90726831628E+01 -0.43828779470E+02  0.27352017782E+02  0.17905543378E+03  0.17120000000E+03 0.  0.
        998    1    1    2    0    0 -0.39145864839E+02 -0.65607741036E+02  0.10975857247E+04  0.11002868705E+04  0.10000000000E+02 0. -1.
</event>
<event>
 5    1  0.1303633E-008  0.3846842E+03  0.7957747E-01  0.3431013E+00
         13   -1    0    0    0    0  0.00000000000E+00  0.00000000000E+00  0.14999999963E+04  0.15000000000E+04  0.10566000000E+00 0. -1.
        994   -1    0    0    0    0 -0.00000000000E+00 -0.00000000000E+00  0.11368683772E-12  0.17120000000E+03  0.17120000000E+03 0.  0.
         13    1    1    2    0    0  0.69264263154E+01 -0.10737122630E+02  0.48661032247E+02  0.50310718612E+02  0.10566000000E+00 0. -1.
        994    1    1    2    0    0  0.10139114695E+01 -0.43482972645E+01  0.18526544399E+01  0.17126823417E+03  0.17120000000E+03 0.  0.
        998    1    1    2    0    0 -0.79403377849E+01  0.15085419895E+02  0.14494863096E+04  0.14496210472E+04  0.10000000000E+02 0. -1.
</event>
<event>
 5    1  0.1303633E-008  0.3769199E+03  0.7957747E-01  0.3464680E+00
         13   -1    0    0    0    0  0.00000000000E+00  0.00000000000E+00  0.14999999963E+04  0.15000000000E+04  0.10566000000E+00 0.  1.
        994   -1    0    0    0    0 -0.00000000000E+00 -0.00000000000E+00  0.11368683772E-12  0.17120000000E+03  0.17120000000E+03 0.  0.
         13    1    1    2    0    0  0.63299398478E+01  0.11840427117E+02  0.13259486829E+02  0.18870320819E+02  0.10566000000E+00 0.  1.
        994    1    1    2    0    0 -0.56741363482E+01 -0.98511136809E+01  0.61326857059E+01  0.17168660431E+03  0.17120000000E+03 0.  0.
        998    1    1    2    0    0 -0.65580349961E+00 -0.19893134363E+01  0.14806078237E+04  0.14806430749E+04  0.10000000000E+02 0.  1.
</event>
<event>
 5    1  0.1303633E-008  0.3694572E+03  0.7957747E-01  0.3498389E+00
         13   -1    0    0    0    0  0.00000000000E+00  0.00000000000E+00  0.14999999963E+04  0.15000000000E+04  0.10566000000E+00 0.  1.
        994   -1    0    0    0    0 -0.00000000000E+00 -0.00000000000E+00  0.11368683772E-12  0.17120000000E+03  0.17120000000E+03 0.  0.
         13    1    1    2    0    0 -0.18710760436E+02 -0.29330299679E+02  0.57608099518E+02  0.67298315949E+02  0.10566000000E+00 0.  1.
        994    1    1    2    0    0  0.24632561326E+02  0.25907552675E+02  0.13993036691E+02  0.17545144468E+03  0.17120000000E+03 0.  0.
        998    1    1    2    0    0 -0.59218008897E+01  0.34227470047E+01  0.14283988601E+04  0.14284502394E+04  0.10000000000E+02 0.  1.
</event>
<event>
 5    1  0.1303633E-008  0.3859788E+03  0.7957747E-01  0.3425532E+00
         13   -1    0    0    0    0  0.00000000000E+00  0.00000000000E+00  0.14999999963E+04  0.15000000000E+04  0.10566000000E+00 0.  1.
        994   -1    0    0    0    0 -0.00000000000E+00 -0.00000000000E+00  0.11368683772E-12  0.17120000000E+03  0.17120000000E+03 0.  0.
         13    1    1    2    0    0  0.38949397168E+01 -0.98676064498E+01  0.48286087918E+02  0.49437816122E+02  0.10566000000E+00 0.  1.
        994    1    1    2    0    0 -0.79016138209E+01  0.94050670374E+01  0.16397666490E+01  0.17164795257E+03  0.17120000000E+03 0.  0.
        998    1    1    2    0    0  0.40066741041E+01  0.46253941246E+00  0.14500741417E+04  0.14501142313E+04  0.10000000000E+02 0.  1.
</event>
<event>
 5    1  0.1303633E-008  0.3860002E+03  0.7957747E-01  0.3425441E+00
         13   -1    0    0    0    0  0.00000000000E+00  0.00000000000E+00  0.14999999963E+04  0.15000000000E+04  0.10566000000E+00 0.  1.
        994   -1    0    0    0    0 -0.00000000000E+00 -0.00000000000E+00  0.11368683772E-12  0.17120000000E+03  0.17120000000E+03 0.  0.
         13    1    1    2    0    0  0.96560969364E+01 -0.78575176870E+01  0.72359161104E+02  0.73422340959E+02  0.10566000000E+00 0.  1.
        994    1    1    2    0    0 -0.25367596959E+01  0.88745500504E+00  0.11580290456E+01  0.17122500915E+03  0.17120000000E+03 0.  0.
        998    1    1    2    0    0 -0.71193372406E+01  0.69700626819E+01  0.14264828061E+04  0.14265526499E+04  0.10000000000E+02 0.  1.
</event>
<event>
 5    1  0.1303633E-008  0.3818846E+03  0.7957747E-01  0.3442993E+00
         13   -1    0    0    0    0  0.00000000000E+00  0.00000000000E+00  0.14999999963E+04  0.15000000000E+04  0.10566000000E+00 0.  1.
        994   -1    0    0    0    0 -0.00000000000E+00 -0.00000000000E+00  0.11368683772E-12  0.17120000000E+03  0.17120000000E+03 0.  0.
         13    1    1    2    0    0 -0.32540878901E+02  0.13168341590E+01  0.14401270657E+03  0.14764929282E+03  0.10566000000E+00 0.  1.
        994    1    1    2    0    0  0.39449668926E+02 -0.69221678570E+01  0.85327151376E+01  0.17602965663E+03  0.17120000000E+03 0.  0.
        998    1    1    2    0    0 -0.69087900253E+01  0.56053336979E+01  0.13474545746E+04  0.13475210506E+04  0.10000000000E+02 0.  1.
</event>
<event>
 5    1  0.1303633E-008  0.3830290E+03  0.7957747E-01  0.3438075E+00
         13   -1    0    0    0    0  0.00000000000E+00  0.00000000000E+00  0.14999999963E+04  0.15000000000E+04  0.10566000000E+00 0. -1.
        994   -1    0    0    0    0 -0.00000000000E+00 -0.00000000000E+00  0.11368683772E-12  0.17120000000E+03  0.17120000000E+03 0.  0.
         13    1    1    2    0    0  0.15652173613E+02  0.34813527696E+01  0.50119823195E+02  0.52622411547E+02  0.10566000000E+00 0. -1.
        994    1    1    2    0    0 -0.78949305664E+01  0.20082676660E+02  0.41545854965E+01  0.17260458977E+03  0.17120000000E+03 0.  0.
        998    1    1    2    0    0 -0.77572430471E+01 -0.23564029429E+02  0.14457255876E+04  0.14459729987E+04  0.10000000000E+02 0. -1.
</event>
<event>
 5    1  0.1303633E-008  0.3840036E+03  0.7957747E-01  0.3433909E+00
         13   -1    0    0    0    0  0.00000000000E+00  0.00000000000E+00  0.14999999963E+04  0.15000000000E+04  0.10566000000E+00 0.  1.
        994   -1    0    0    0    0 -0.00000000000E+00 -0.00000000000E+00  0.11368683772E-12  0.17120000000E+03  0.17120000000E+03 0.  0.
         13    1    1    2    0    0 -0.22588194366E+01  0.20082289510E+02  0.10780649277E+03  0.10968432734E+03  0.10566000000E+00 0.  1.
        994    1    1    2    0    0 -0.91962122375E+01  0.24102620917E+01  0.24238931059E+01  0.17148088797E+03  0.17120000000E+03 0.  0.
        998    1    1    2    0    0  0.11455031674E+02 -0.22492551601E+02  0.13897696104E+04  0.13900347847E+04  0.10000000000E+02 0.  1.
</event>
<event>
 5    1  0.1303633E-008  0.3848964E+03  0.7957747E-01  0.3430112E+00
         13   -1    0    0    0    0  0.00000000000E+00  0.00000000000E+00  0.14999999963E+04  0.15000000000E+04  0.10566000000E+00 0.  1.
        994   -1    0    0    0    0 -0.00000000000E+00 -0.00000000000E+00  0.11368683772E-12  0.17120000000E+03  0.17120000000E+03 0.  0.
         13    1    1    2    0    0 -0.13405159123E+02 -0.13836235697E+01  0.76245430507E+02  0.77427317805E+02  0.10566000000E+00 0.  1.
        994    1    1    2    0    0 -0.40373856477E+02  0.40280030258E+02  0.12455802959E+02  0.18087873328E+03  0.17120000000E+03 0.  0.
        998    1    1    2    0    0  0.53779015599E+02 -0.38896406689E+02  0.14112987628E+04  0.14128939489E+04  0.10000000000E+02 0.  1.
</event>
<event>
 5    1  0.1303633E-008  0.3810442E+03  0.7957747E-01  0.3446624E+00
         13   -1    0    0    0    0  0.00000000000E+00  0.00000000000E+00  0.14999999963E+04  0.15000000000E+04  0.10566000000E+00 0.  1.
        994   -1    0    0    0    0 -0.00000000000E+00 -0.00000000000E+00  0.11368683772E-12  0.17120000000E+03  0.17120000000E+03 0.  0.
         13    1    1    2    0    0 -0.44105958261E+02 -0.22367319565E+02  0.28223355255E+03  0.28653345684E+03  0.10566000000E+00 0.  1.
        994    1    1    2    0    0  0.45343215187E+02  0.15805005665E+02  0.11327012480E+02  0.17816718716E+03  0.17120000000E+03 0.  0.
        998    1    1    2    0    0 -0.12372569263E+01  0.65623138995E+01  0.12064394312E+04  0.12064993560E+04  0.10000000000E+02 0.  1.
</event>
<event>
 5    1  0.1303633E-008  0.3826082E+03  0.7957747E-01  0.3439880E+00
         13   -1    0    0    0    0  0.00000000000E+00  0.00000000000E+00  0.14999999963E+04  0.15000000000E+04  0.10566000000E+00 0.  1.
        994   -1    0    0    0    0 -0.00000000000E+00 -0.00000000000E+00  0.11368683772E-12  0.17120000000E+03  0.17120000000E+03 0.  0.
         13    1    1    2    0    0  0.32372913124E+01  0.99350888154E+01  0.18159000268E+02  0.20951050083E+02  0.10566000000E+00 0.  1.
        994    1    1    2    0    0 -0.13277957909E+01 -0.90381939190E+01  0.30989213488E+01  0.17147155830E+03  0.17120000000E+03 0.  0.
        998    1    1    2    0    0 -0.19094955214E+01 -0.89689489641E+00  0.14787420747E+04  0.14787773916E+04  0.10000000000E+02 0.  1.
</event>
<event>
 5    1  0.1303633E-008  0.3807678E+03  0.7957747E-01  0.3447822E+00
         13   -1    0    0    0    0  0.00000000000E+00  0.00000000000E+00  0.14999999963E+04  0.15000000000E+04  0.10566000000E+00 0.  1.
        994   -1    0    0    0    0 -0.00000000000E+00 -0.00000000000E+00  0.11368683772E-12  0.17120000000E+03  0.17120000000E+03 0.  0.
         13    1    1    2    0    0 -0.18685431758E+02  0.25522180271E+02  0.15775496441E+03  0.16089489428E+03  0.10566000000E+00 0.  1.
        994    1    1    2    0    0  0.44350698348E+01  0.11083567028E+02  0.42214015974E+01  0.17166763100E+03  0.17120000000E+03 0.  0.
        998    1    1    2    0    0  0.14250361924E+02 -0.36605747299E+02  0.13380236303E+04  0.13386374747E+04  0.10000000000E+02 0.  1.
</event>
<event>
 5    1  0.1303633E-008  0.3854684E+03  0.7957747E-01  0.3427688E+00
         13   -1    0    0    0    0  0.00000000000E+00  0.00000000000E+00  0.14999999963E+04  0.15000000000E+04  0.10566000000E+00 0.  1.
        994   -1    0    0    0    0 -0.00000000000E+00 -0.00000000000E+00  0.11368683772E-12  0.17120000000E+03  0.17120000000E+03 0.  0.
         13    1    1    2    0    0  0.15510228668E+02  0.49481358308E+01  0.89517586515E+02  0.90986046738E+02  0.10566000000E+00 0.  1.
        994    1    1    2    0    0 -0.17940541569E+02 -0.41716191190E+01  0.25126054828E+01  0.17220632574E+03  0.17120000000E+03 0.  0.
        998    1    1    2    0    0  0.24303129007E+01 -0.77651671177E+00  0.14079698043E+04  0.14080076275E+04  0.10000000000E+02 0.  1.
</event>
<event>
 5    1  0.1303633E-008  0.3845033E+03  0.7957747E-01  0.3431781E+00
         13   -1    0    0    0    0  0.00000000000E+00  0.00000000000E+00  0.14999999963E+04  0.15000000000E+04  0.10566000000E+00 0. -1.
        994   -1    0    0    0    0 -0.00000000000E+00 -0.00000000000E+00  0.11368683772E-12  0.17120000000E+03  0.17120000000E+03 0.  0.
         13    1    1    2    0    0 -0.12094931784E+02 -0.68318558175E+01  0.55313243198E+02  0.57030936043E+02  0.10566000000E+00 0. -1.
        994    1    1    2    0    0 -0.65765990666E+01  0.17151091475E+01  0.20291116405E+01  0.17134687201E+03  0.17120000000E+03 0.  0.
        998    1    1    2    0    0  0.18671530851E+02  0.51167466699E+01  0.14426576414E+04  0.14428221919E+04  0.10000000000E+02 0. -1.
</event>
<event>
 5    1  0.1303633E-008  0.3808688E+03  0.7957747E-01  0.3447384E+00
         13   -1    0    0    0    0  0.00000000000E+00  0.00000000000E+00  0.14999999963E+04  0.15000000000E+04  0.10566000000E+00 0.  1.
        994   -1    0    0    0    0 -0.00000000000E+00 -0.00000000000E+00  0.11368683772E-12  0.17120000000E+03  0.17120000000E+03 0.  0.
         13    1    1    2    0    0 -0.19617509253E+02 -0.24285964967E+02  0.15252832013E+03  0.15569057251E+03  0.10566000000E+00 0.  1.
        994    1    1    2    0    0 -0.51187339842E+01 -0.98230105799E+00  0.37857972088E+01  0.17132115635E+03  0.17120000000E+03 0.  0.
        998    1    1    2    0    0  0.24736243237E+02  0.25268266025E+02  0.13436858789E+04  0.13441882711E+04  0.10000000000E+02 0.  1.
</event>
<event>
 5    1  0.1303633E-008  0.3847743E+03  0.7957747E-01  0.3430630E+00
         13   -1    0    0    0    0  0.00000000000E+00  0.00000000000E+00  0.14999999963E+04  0.15000000000E+04  0.10566000000E+00 0.  1.
        994   -1    0    0    0    0 -0.00000000000E+00 -0.00000000000E+00  0.11368683772E-12  0.17120000000E+03  0.17120000000E+03 0.  0.
         13    1    1    2    0    0  0.10180971408E+02  0.53459399903E+01  0.38237488194E+02  0.39929286503E+02  0.10566000000E+00 0.  1.
        994    1    1    2    0    0  0.85303451281E+00 -0.12206081008E+02  0.22351307632E+01  0.17165125077E+03  0.17120000000E+03 0.  0.
        998    1    1    2    0    0 -0.11034005920E+02  0.68601410172E+01  0.14595273773E+04  0.14596194627E+04  0.10000000000E+02 0.  1.
</event>
<event>
 5    1  0.1303633E-008  0.3845190E+03  0.7957747E-01  0.3431715E+00
         13   -1    0    0    0    0  0.00000000000E+00  0.00000000000E+00  0.14999999963E+04  0.15000000000E+04  0.10566000000E+00 0. -1.
        994   -1    0    0    0    0 -0.00000000000E+00 -0.00000000000E+00  0.11368683772E-12  0.17120000000E+03  0.17120000000E+03 0.  0.
         13    1    1    2    0    0  0.81363628023E+01 -0.85286445611E+01  0.36659204073E+02  0.38507747078E+02  0.10566000000E+00 0. -1.
        994    1    1    2    0    0 -0.28837590210E+01  0.95554755947E+01  0.21973460614E+01  0.17150478568E+03  0.17120000000E+03 0.  0.
        998    1    1    2    0    0 -0.52526037813E+01 -0.10268310336E+01  0.14611434461E+04  0.14611874672E+04  0.10000000000E+02 0. -1.
</event>
<event>
 5    1  0.1303633E-008  0.3793156E+03  0.7957747E-01  0.3454144E+00
         13   -1    0    0    0    0  0.00000000000E+00  0.00000000000E+00  0.14999999963E+04  0.15000000000E+04  0.10566000000E+00 0.  1.
        994   -1    0    0    0    0 -0.00000000000E+00 -0.00000000000E+00  0.11368683772E-12  0.17120000000E+03  0.17120000000E+03 0.  0.
         13    1    1    2    0    0 -0.58164942537E+01  0.14328376474E+02  0.24639861043E+02  0.29090683974E+02  0.10566000000E+00 0.  1.
        994    1    1    2    0    0  0.84170158863E+00 -0.14535049195E+02  0.51895887559E+01  0.17189632907E+03  0.17120000000E+03 0.  0.
        998    1    1    2    0    0  0.49747926651E+01  0.20667272085E+00  0.14701705465E+04  0.14702129870E+04  0.10000000000E+02 0.  1.
</event>
<event>
 5    1  0.1303633E-008  0.3758447E+03  0.7957747E-01  0.3469454E+00
         13   -1    0    0    0    0  0.00000000000E+00  0.00000000000E+00  0.14999999963E+04  0.15000000000E+04  0.10566000000E+00 0.  1.
        994   -1    0    0    0    0 -0.00000000000E+00 -0.00000000000E+00  0.11368683772E-12  0.17120000000E+03  0.17120000000E+03 0.  0.
         13    1    1    2    0    0  0.12072364491E+01  0.21084732445E+02  0.33152580550E+02  0.39308117778E+02  0.10566000000E+00 0.  1.
        994    1    1    2    0    0  0.13245309337E+02 -0.15216007081E+02  0.76262440730E+01  0.17255307789E+03  0.17120000000E+03 0.  0.
        998    1    1    2    0    0 -0.14452545786E+02 -0.58687253639E+01  0.14592211717E+04  0.14593388043E+04  0.10000000000E+02 0.  1.
</event>
<event>
 5    1  0.1303633E-008  0.3838677E+03  0.7957747E-01  0.3434489E+00
         13   -1    0    0    0    0  0.00000000000E+00  0.00000000000E+00  0.14999999963E+04  0.15000000000E+04  0.10566000000E+00 0.  1.
        994   -1    0    0    0    0 -0.00000000000E+00 -0.00000000000E+00  0.11368683772E-12  0.17120000000E+03  0.17120000000E+03 0.  0.
         13    1    1    2    0    0 -0.36802931155E+01 -0.16936319839E+02  0.73100349970E+02  0.75126931369E+02  0.10566000000E+00 0.  1.
        994    1    1    2    0    0  0.71802902581E+01 -0.25255862599E+01  0.23846220973E+01  0.17138570995E+03  0.17120000000E+03 0.  0.
        998    1    1    2    0    0 -0.34999971426E+01  0.19461906099E+02  0.14245150242E+04  0.14246873587E+04  0.10000000000E+02 0.  1.
</event>
<event>
 5    1  0.1303633E-008  0.3688523E+03  0.7957747E-01  0.3501182E+00
         13   -1    0    0    0    0  0.00000000000E+00  0.00000000000E+00  0.14999999963E+04  0.15000000000E+04  0.10566000000E+00 0. -1.
        994   -1    0    0    0    0 -0.00000000000E+00 -0.00000000000E+00  0.11368683772E-12  0.17120000000E+03  0.17120000000E+03 0.  0.
         13    1    1    2    0    0  0.11468016438E+02  0.60163089467E+01  0.33405316545E+01  0.13374665982E+02  0.10566000000E+00 0. -1.
        994    1    1    2    0    0 -0.10730318331E+02 -0.42108352824E+01  0.10795975255E+02  0.17192691455E+03  0.17120000000E+03 0.  0.
        998    1    1    2    0    0 -0.73769810725E+00 -0.18054736644E+01  0.14858634894E+04  0.14858984195E+04  0.10000000000E+02 0. -1.
</event>
<event>
 5    1  0.1303633E-008  0.3777271E+03  0.7957747E-01  0.3461115E+00
         13   -1    0    0    0    0  0.00000000000E+00  0.00000000000E+00  0.14999999963E+04  0.15000000000E+04  0.10566000000E+00 0. -1.
        994   -1    0    0    0    0 -0.00000000000E+00 -0.00000000000E+00  0.11368683772E-12  0.17120000000E+03  0.17120000000E+03 0.  0.
         13    1    1    2    0    0  0.13832643039E+03  0.16388196672E+02  0.80619013615E+03  0.81813527068E+03  0.10566000000E+00 0. -1.
        994    1    1    2    0    0 -0.13772232340E+03 -0.85759515542E+01  0.72363383896E+02  0.23148841145E+03  0.17120000000E+03 0.  0.
        998    1    1    2    0    0 -0.60410698658E+00 -0.78122451180E+01  0.62144647623E+03  0.62157631787E+03  0.10000000000E+02 0.  0.
</event>
<event>
 5    1  0.1303633E-008  0.3807684E+03  0.7957747E-01  0.3447820E+00
         13   -1    0    0    0    0  0.00000000000E+00  0.00000000000E+00  0.14999999963E+04  0.15000000000E+04  0.10566000000E+00 0. -1.
        994   -1    0    0    0    0 -0.00000000000E+00 -0.00000000000E+00  0.11368683772E-12  0.17120000000E+03  0.17120000000E+03 0.  0.
         13    1    1    2    0    0 -0.98736922960E+00 -0.16400440763E+02  0.34720884375E+02  0.38412241942E+02  0.10566000000E+00 0. -1.
        994    1    1    2    0    0  0.20229599721E+01  0.99615620062E+01  0.40903993473E+01  0.17155027383E+03  0.17120000000E+03 0.  0.
        998    1    1    2    0    0 -0.10355907425E+01  0.64388787563E+01  0.14611887126E+04  0.14612374842E+04  0.10000000000E+02 0. -1.
</event>
<event>
 5    1  0.1303633E-008  0.3818979E+03  0.7957747E-01  0.3442936E+00
         13   -1    0    0    0    0  0.00000000000E+00  0.00000000000E+00  0.14999999963E+04  0.15000000000E+04  0.10566000000E+00 0. -1.
        994   -1    0    0    0    0 -0.00000000000E+00 -0.00000000000E+00  0.11368683772E-12  0.17120000000E+03  0.17120000000E+03 0.  0.
         13    1    1    2    0    0  0.18147694024E+02  0.30744829406E+01  0.53856642428E+02  0.56915203078E+02  0.10566000000E+00 0. -1.
        994    1    1    2    0    0 -0.15074374468E+01 -0.21565728662E+02  0.47322948504E+01  0.17262441205E+03  0.17120000000E+03 0.  0.
        998    1    1    2    0    0 -0.16640256577E+02  0.18491245722E+02  0.14414110590E+04  0.14416603849E+04  0.10000000000E+02 0. -1.
</event>
<event>
 5    1  0.1303633E-008  0.4124098E+03  0.7957747E-01  0.3321140E+00
         13   -1    0    0    0    0  0.00000000000E+00  0.00000000000E+00  0.14999999963E+04  0.15000000000E+04  0.10566000000E+00 0.  1.
        994   -1    0    0    0    0 -0.00000000000E+00 -0.00000000000E+00  0.11368683772E-12  0.17120000000E+03  0.17120000000E+03 0.  0.
         13    1    1    2    0    0 -0.28197179686E+02 -0.62811027318E+02  0.53385844871E+02  0.87122704799E+02  0.10566000000E+00 0.  1.
        994    1    1    2    0    0  0.22407557490E+02  0.64372511261E+02  0.54843886573E+02  0.19225818769E+03  0.17120000000E+03 0.  0.
        998    1    1    2    0    0  0.57896221956E+01 -0.15614839436E+01  0.13917702648E+04  0.13918191075E+04  0.10000000000E+02 0.  1.
</event>
<event>
 5    1  0.1303633E-008  0.3742274E+03  0.7957747E-01  0.3476685E+00
         13   -1    0    0    0    0  0.00000000000E+00  0.00000000000E+00  0.14999999963E+04  0.15000000000E+04  0.10566000000E+00 0. -1.
        994   -1    0    0    0    0 -0.00000000000E+00 -0.00000000000E+00  0.11368683772E-12  0.17120000000E+03  0.17120000000E+03 0.  0.
         13    1    1    2    0    0  0.74763136793E+01 -0.68769353469E+01  0.39657774625E+01  0.10905322596E+02  0.10566000000E+00 0. -1.
        994    1    1    2    0    0 -0.72390117160E+01  0.86352700955E+01  0.75088503968E+01  0.17173466166E+03  0.17120000000E+03 0.  0.
        998    1    1    2    0    0 -0.23730196333E+00 -0.17583347487E+01  0.14885253684E+04  0.14885600157E+04  0.10000000000E+02 0. -1.
</event>
<event>
 5    1  0.1303633E-008  0.3820000E+03  0.7957747E-01  0.3442496E+00
         13   -1    0    0    0    0  0.00000000000E+00  0.00000000000E+00  0.14999999963E+04  0.15000000000E+04  0.10566000000E+00 0. -1.
        994   -1    0    0    0    0 -0.00000000000E+00 -0.00000000000E+00  0.11368683772E-12  0.17120000000E+03  0.17120000000E+03 0.  0.
         13    1    1    2    0    0 -0.13063802928E+01 -0.66232092469E+02  0.13173440821E+03  0.14745291511E+03  0.10566000000E+00 0. -1.
        994    1    1    2    0    0  0.95155363039E+01  0.16811189181E+02  0.18793523606E+02  0.17330838999E+03  0.17120000000E+03 0.  0.
        998    1    1    2    0    0 -0.82091560111E+01  0.49420903287E+02  0.13494720645E+04  0.13504386949E+04  0.10000000000E+02 0. -1.
</event>
<event>
 5    1  0.1303633E-008  0.3789157E+03  0.7957747E-01  0.3455893E+00
         13   -1    0    0    0    0  0.00000000000E+00  0.00000000000E+00  0.14999999963E+04  0.15000000000E+04  0.10566000000E+00 0.  1.
        994   -1    0    0    0    0 -0.00000000000E+00 -0.00000000000E+00  0.11368683772E-12  0.17120000000E+03  0.17120000000E+03 0.  0.
         13    1    1    2    0    0  0.14225357223E+02  0.24306009975E+02  0.77930759781E+02  0.82863486489E+02  0.10566000000E+00 0.  1.
        994    1    1    2    0    0 -0.21117943081E+02 -0.24919458990E+02  0.82693153083E+01  0.17448429308E+03  0.17120000000E+03 0.  0.
        998    1    1    2    0    0  0.68925858577E+01  0.61344901535E+00  0.14137999212E+04  0.14138522204E+04  0.10000000000E+02 0.  1.
</event>
<event>
 5    1  0.1303633E-008  0.3812264E+03  0.7957747E-01  0.3445836E+00
         13   -1    0    0    0    0  0.00000000000E+00  0.00000000000E+00  0.14999999963E+04  0.15000000000E+04  0.10566000000E+00 0.  1.
        994   -1    0    0    0    0 -0.00000000000E+00 -0.00000000000E+00  0.11368683772E-12  0.17120000000E+03  0.17120000000E+03 0.  0.
         13    1    1    2    0    0  0.97379693353E+01  0.51890505935E+01  0.16069568213E+02  0.19493498389E+02  0.10566000000E+00 0.  1.
        994    1    1    2    0    0  0.12658083213E+01 -0.78926152336E+01  0.37281267046E+01  0.17142705322E+03  0.17120000000E+03 0.  0.
        998    1    1    2    0    0 -0.11003777657E+02  0.27035646401E+01  0.14802023014E+04  0.14802794484E+04  0.10000000000E+02 0.  1.
</event>
<event>
 5    1  0.1303633E-008  0.3759413E+03  0.7957747E-01  0.3469024E+00
         13   -1    0    0    0    0  0.00000000000E+00  0.00000000000E+00  0.14999999963E+04  0.15000000000E+04  0.10566000000E+00 0.  1.
        994   -1    0    0    0    0 -0.00000000000E+00 -0.00000000000E+00  0.11368683772E-12  0.17120000000E+03  0.17120000000E+03 0.  0.
         13    1    1    2    0    0  0.29599914894E+02 -0.18285452272E+02  0.10844142094E+03  0.11388619612E+03  0.10566000000E+00 0.  1.
        994    1    1    2    0    0 -0.19628522901E+02 -0.41904327115E+02  0.13486365735E+02  0.17785548516E+03  0.17120000000E+03 0.  0.
        998    1    1    2    0    0 -0.99713919936E+01  0.60189779387E+02  0.13780722096E+04  0.13794583187E+04  0.10000000000E+02 0.  1.
</event>
<event>
 5    1  0.1303633E-008  0.3739059E+03  0.7957747E-01  0.3478130E+00
         13   -1    0    0    0    0  0.00000000000E+00  0.00000000000E+00  0.14999999963E+04  0.15000000000E+04  0.10566000000E+00 0. -1.
        994   -1    0    0    0    0 -0.00000000000E+00 -0.00000000000E+00  0.11368683772E-12  0.17120000000E+03  0.17120000000E+03 0.  0.
         13    1    1    2    0    0 -0.14148963187E+02  0.16992444825E+02  0.29559730816E+02  0.36915107888E+02  0.10566000000E+00 0. -1.
        994    1    1    2    0    0  0.20431153841E+02 -0.22621826809E+02  0.10418352397E+02  0.17420436608E+03  0.17120000000E+03 0.  0.
        998    1    1    2    0    0 -0.62821906533E+01  0.56293819838E+01  0.14600219131E+04  0.14600805260E+04  0.10000000000E+02 0. -1.
</event>
<event>
 5    1  0.1303633E-008  0.3756913E+03  0.7957747E-01  0.3470137E+00
         13   -1    0    0    0    0  0.00000000000E+00  0.00000000000E+00  0.14999999963E+04  0.15000000000E+04  0.10566000000E+00 0.  1.
        994   -1    0    0    0    0 -0.00000000000E+00 -0.00000000000E+00  0.11368683772E-12  0.17120000000E+03  0.17120000000E+03 0.  0.
         13    1    1    2    0    0 -0.60681756151E+02 -0.19007899084E+02  0.25919102530E+03  0.26687745224E+03  0.10566000000E+00 0.  1.
        994    1    1    2    0    0  0.59122519636E+02  0.32337217955E+02  0.21883522791E+02  0.18528220790E+03  0.17120000000E+03 0.  0.
        998    1    1    2    0    0  0.15592365149E+01 -0.13329318870E+02  0.12189254482E+04  0.12190403399E+04  0.10000000000E+02 0.  1.
</event>
<event>
 5    1  0.1303633E-008  0.3853881E+03  0.7957747E-01  0.3428028E+00
         13   -1    0    0    0    0  0.00000000000E+00  0.00000000000E+00  0.14999999963E+04  0.15000000000E+04  0.10566000000E+00 0.  1.
        994   -1    0    0    0    0 -0.00000000000E+00 -0.00000000000E+00  0.11368683772E-12  0.17120000000E+03  0.17120000000E+03 0.  0.
         13    1    1    2    0    0 -0.99445568248E+01 -0.47039988034E+01  0.43365735933E+02  0.44739468394E+02  0.10566000000E+00 0.  1.
        994    1    1    2    0    0  0.16948968684E+01  0.20478595201E+01  0.14607639931E+01  0.17122686774E+03  0.17120000000E+03 0.  0.
        998    1    1    2    0    0  0.82496599564E+01  0.26561392833E+01  0.14551734964E+04  0.14552336639E+04  0.10000000000E+02 0.  1.
</event>
<event>
 5    1  0.1303633E-008  0.2714008E+03  0.7957747E-01  0.4124027E+00
         13   -1    0    0    0    0  0.00000000000E+00  0.00000000000E+00  0.14999999963E+04  0.15000000000E+04  0.10566000000E+00 0.  1.
        994   -1    0    0    0    0 -0.00000000000E+00 -0.00000000000E+00  0.11368683772E-12  0.17120000000E+03  0.17120000000E+03 0.  0.
         13    1    1    2    0    0  0.19617628274E+03 -0.26069331958E+02  0.38944701538E+03  0.43684520477E+03  0.10566000000E+00 0.  1.
        994    1    1    2    0    0 -0.18947737619E+03  0.23752125775E+02  0.20396591441E+03  0.32768486967E+03  0.17120000000E+03 0.  0.
        998    1    1    2    0    0 -0.66989065468E+01  0.23172061834E+01  0.90658706649E+03  0.90666992556E+03  0.10000000000E+02 0.  0.
</event>
<event>
 5    1  0.1691910E-008  0.3856416E+03  0.7957747E-01  0.3426956E+00
         13   -1    0    0    0    0  0.00000000000E+00  0.00000000000E+00  0.14999999963E+04  0.15000000000E+04  0.10566000000E+00 0. -1.
        994   -1    0    0    0    0 -0.00000000000E+00 -0.00000000000E+00  0.11368683772E-12  0.17120000000E+03  0.17120000000E+03 0.  0.
         13    1    1    2    0    0  0.10742224392E+02  0.94011709517E+01  0.80304656516E+02  0.81563634190E+02  0.10566000000E+00 0. -1.
        994    1    1    2    0    0 -0.49305031941E+01 -0.33819345621E+01  0.14292402440E+01  0.17131033264E+03  0.17120000000E+03 0.  0.
        998    1    1    2    0    0 -0.58117211977E+01 -0.60192363895E+01  0.14182660995E+04  0.14183260332E+04  0.10000000000E+02 0. -1.
</event>
<event>
 5    1  0.1303633E-008  0.3798006E+03  0.7957747E-01  0.3452027E+00
         13   -1    0    0    0    0  0.00000000000E+00  0.00000000000E+00  0.14999999963E+04  0.15000000000E+04  0.10566000000E+00 0.  1.
        994   -1    0    0    0    0 -0.00000000000E+00 -0.00000000000E+00  0.11368683772E-12  0.17120000000E+03  0.17120000000E+03 0.  0.
         13    1    1    2    0    0 -0.68795847510E+01 -0.11830549589E+02  0.19886426676E+02  0.24140665275E+02  0.10566000000E+00 0.  1.
        994    1    1    2    0    0  0.16456038292E+02  0.11441129443E+02  0.55787445789E+01  0.17245945329E+03  0.17120000000E+03 0.  0.
        998    1    1    2    0    0 -0.95764535410E+01  0.38942014595E+00  0.14745348250E+04  0.14745998814E+04  0.10000000000E+02 0.  1.
</event>
<event>
 5    1  0.1303633E-008  0.3696871E+03  0.7957747E-01  0.3497330E+00
         13   -1    0    0    0    0  0.00000000000E+00  0.00000000000E+00  0.14999999963E+04  0.15000000000E+04  0.10566000000E+00 0. -1.
        994   -1    0    0    0    0 -0.00000000000E+00 -0.00000000000E+00  0.11368683772E-12  0.17120000000E+03  0.17120000000E+03 0.  0.
         13    1    1    2    0    0 -0.53004889359E+01 -0.28179947629E+02  0.38714162920E+02  0.48176780776E+02  0.10566000000E+00 0. -1.
        994    1    1    2    0    0  0.80354317370E+01  0.29253832497E+02  0.12625054197E+02  0.17432494621E+03  0.17120000000E+03 0.  0.
        998    1    1    2    0    0 -0.27349428011E+01 -0.10738848682E+01  0.14486607792E+04  0.14486982730E+04  0.10000000000E+02 0. -1.
</event>
<event>
 5    1  0.1303633E-008  0.3764701E+03  0.7957747E-01  0.3466674E+00
         13   -1    0    0    0    0  0.00000000000E+00  0.00000000000E+00  0.14999999963E+04  0.15000000000E+04  0.10566000000E+00 0.  1.
        994   -1    0    0    0    0 -0.00000000000E+00 -0.00000000000E+00  0.11368683772E-12  0.17120000000E+03  0.17120000000E+03 0.  0.
         13    1    1    2    0    0 -0.29488968467E+02  0.85726828756E+00  0.64535050162E+02  0.70958565612E+02  0.10566000000E+00 0.  1.
        994    1    1    2    0    0  0.45222622960E+02 -0.19219819530E+02  0.14136612906E+02  0.17867224439E+03  0.17120000000E+03 0.  0.
        998    1    1    2    0    0 -0.15733654494E+02  0.18362551242E+02  0.14213283332E+04  0.14215691900E+04  0.10000000000E+02 0.  1.
</event>
<event>
 5    1  0.1465938E-008  0.3858733E+03  0.7957747E-01  0.3425977E+00
         13   -1    0    0    0    0  0.00000000000E+00  0.00000000000E+00  0.14999999963E+04  0.15000000000E+04  0.10566000000E+00 0.  1.
        994   -1    0    0    0    0 -0.00000000000E+00 -0.00000000000E+00  0.11368683772E-12  0.17120000000E+03  0.17120000000E+03 0.  0.
         13    1    1    2    0    0 -0.88132316323E+01  0.90760075126E+01  0.71255960251E+02  0.72370366860E+02  0.10566000000E+00 0.  1.
        994    1    1    2    0    0 -0.42254957633E+00 -0.23911562521E+01  0.12164957023E+01  0.17122154081E+03  0.17120000000E+03 0.  0.
        998    1    1    2    0    0  0.92357812087E+01 -0.66848512605E+01  0.14275275403E+04  0.14276080923E+04  0.10000000000E+02 0.  1.
</event>
<event>
 5    1  0.1303633E-008  0.3788159E+03  0.7957747E-01  0.3456330E+00
         13   -1    0    0    0    0  0.00000000000E+00  0.00000000000E+00  0.14999999963E+04  0.15000000000E+04  0.10566000000E+00 0.  1.
        994   -1    0    0    0    0 -0.00000000000E+00 -0.00000000000E+00  0.11368683772E-12  0.17120000000E+03  0.17120000000E+03 0.  0.
         13    1    1    2    0    0 -0.13166985508E+03 -0.33567365193E+02  0.77979525943E+03  0.79154556189E+03  0.10566000000E+00 0.  1.
        994    1    1    2    0    0  0.13552000282E+03  0.40556333900E+02  0.75118397573E+02  0.23444125285E+03  0.17120000000E+03 0.  0.
        998    1    1    2    0    0 -0.38501477464E+01 -0.69889687076E+01  0.64508633927E+03  0.64521318526E+03  0.10000000000E+02 0.  1.
</event>
<event>
 5    1  0.1303633E-008  0.3723192E+03  0.7957747E-01  0.3485300E+00
         13   -1    0    0    0    0  0.00000000000E+00  0.00000000000E+00  0.14999999963E+04  0.15000000000E+04  0.10566000000E+00 0. -1.
        994   -1    0    0    0    0 -0.00000000000E+00 -0.00000000000E+00  0.11368683772E-12  0.17120000000E+03  0.17120000000E+03 0.  0.
         13    1    1    2    0    0  0.12305677562E+02  0.39761325684E+02  0.12407209571E+03  0.13086744751E+03  0.10566000000E+00 0. -1.
        994    1    1    2    0    0 -0.74601453903E+01  0.16144158665E+02  0.91475188167E+01  0.17236416312E+03  0.17120000000E+03 0.  0.
        998    1    1    2    0    0 -0.48455321722E+01 -0.55905484349E+02  0.13667803818E+04  0.13679683894E+04  0.10000000000E+02 0. -1.
</event>
<event>
 5    1  0.1303633E-008  0.3732764E+03  0.7957747E-01  0.3480967E+00
         13   -1    0    0    0    0  0.00000000000E+00  0.00000000000E+00  0.14999999963E+04  0.15000000000E+04  0.10566000000E+00 0.  1.
        994   -1    0    0    0    0 -0.00000000000E+00 -0.00000000000E+00  0.11368683772E-12  0.17120000000E+03  0.17120000000E+03 0.  0.
         13    1    1    2    0    0 -0.86773061605E+02 -0.36646837468E+02  0.48680707148E+03  0.49583635499E+03  0.10566000000E+00 0.  1.
        994    1    1    2    0    0  0.60352856089E+02  0.47507877849E+02  0.28014100083E+02  0.18972004506E+03  0.17120000000E+03 0.  0.
        998    1    1    2    0    0  0.26420205516E+02 -0.10861040380E+02  0.98517882471E+03  0.98564359995E+03  0.10000000000E+02 0.  1.
</event>
<event>
 5    1  0.1303633E-008  0.3705146E+03  0.7957747E-01  0.3493529E+00
         13   -1    0    0    0    0  0.00000000000E+00  0.00000000000E+00  0.14999999963E+04  0.15000000000E+04  0.10566000000E+00 0.  1.
        994   -1    0    0    0    0 -0.00000000000E+00 -0.00000000000E+00  0.11368683772E-12  0.17120000000E+03  0.17120000000E+03 0.  0.
         13    1    1    2    0    0 -0.40439777203E+01 -0.62578475178E+02  0.18935581710E+03  0.19946943612E+03  0.10566000000E+00 0.  1.
        994    1    1    2    0    0  0.12055087177E+02  0.61775109961E+02  0.22800300187E+02  0.18382269453E+03  0.17120000000E+03 0.  0.
        998    1    1    2    0    0 -0.80111094566E+01  0.80336521704E+00  0.12878438790E+04  0.12879078693E+04  0.10000000000E+02 0.  1.
</event>
<event>
 5    1  0.1303633E-008  0.3831007E+03  0.7957747E-01  0.3437767E+00
         13   -1    0    0    0    0  0.00000000000E+00  0.00000000000E+00  0.14999999963E+04  0.15000000000E+04  0.10566000000E+00 0. -1.
        994   -1    0    0    0    0 -0.00000000000E+00 -0.00000000000E+00  0.11368683772E-12  0.17120000000E+03  0.17120000000E+03 0.  0.
         13    1    1    2    0    0 -0.15099191594E+02 -0.19462863316E+02  0.13183020740E+03  0.13411190619E+03  0.10566000000E+00 0. -1.
        994    1    1    2    0    0 -0.16973345797E+01  0.18539375325E+00  0.25856840771E+01  0.17122803823E+03  0.17120000000E+03 0.  0.
        998    1    1    2    0    0  0.16796526174E+02  0.19277469563E+02  0.13655841048E+04  0.13658600556E+04  0.10000000000E+02 0. -1.
</event>
<event>
 5    1  0.1303633E-008  0.3839359E+03  0.7957747E-01  0.3434198E+00
         13   -1    0    0    0    0  0.00000000000E+00  0.00000000000E+00  0.14999999963E+04  0.15000000000E+04  0.10566000000E+00 0. -1.
        994   -1    0    0    0    0 -0.00000000000E+00 -0.00000000000E+00  0.11368683772E-12  0.17120000000E+03  0.17120000000E+03 0.  0.
         13    1    1    2    0    0 -0.15919759104E+01 -0.13322642277E+02  0.42246030765E+02  0.44325674997E+02  0.10566000000E+00 0. -1.
        994    1    1    2    0    0  0.18325451854E+01  0.30772945234E+01  0.22016816068E+01  0.17125161420E+03  0.17120000000E+03 0.  0.
        998    1    1    2    0    0 -0.24056927502E+00  0.10245347754E+02  0.14555522839E+04  0.14556227108E+04  0.10000000000E+02 0. -1.
</event>
<event>
 5    1  0.1303633E-008  0.3750654E+03  0.7957747E-01  0.3472930E+00
         13   -1    0    0    0    0  0.00000000000E+00  0.00000000000E+00  0.14999999963E+04  0.15000000000E+04  0.10566000000E+00 0. -1.
        994   -1    0    0    0    0 -0.00000000000E+00 -0.00000000000E+00  0.11368683772E-12  0.17120000000E+03  0.17120000000E+03 0.  0.
         13    1    1    2    0    0 -0.13072133444E+01 -0.13659594719E+02  0.11090665309E+02  0.17643904206E+02  0.10566000000E+00 0. -1.
        994    1    1    2    0    0 -0.23516909286E+02  0.15867902358E+02  0.93851653609E+01  0.17378825241E+03  0.17120000000E+03 0.  0.
        998    1    1    2    0    0  0.24824122630E+02 -0.22083076399E+01  0.14795241656E+04  0.14797678434E+04  0.10000000000E+02 0. -1.
</event>
<event>
 5    1  0.1303633E-008  0.3700381E+03  0.7957747E-01  0.3495716E+00
         13   -1    0    0    0    0  0.00000000000E+00  0.00000000000E+00  0.14999999963E+04  0.15000000000E+04  0.10566000000E+00 0. -1.
        994   -1    0    0    0    0 -0.00000000000E+00 -0.00000000000E+00  0.11368683772E-12  0.17120000000E+03  0.17120000000E+03 0.  0.
         13    1    1    2    0    0 -0.34037590945E+02  0.16756728699E+03  0.67703726715E+03  0.69829565769E+03  0.10566000000E+00 0. -1.
        994    1    1    2    0    0  0.36404613832E+02 -0.17548556656E+03  0.13010209828E+03  0.27992226770E+03  0.17120000000E+03 0.  0.
        998    1    1    2    0    0 -0.23670228874E+01  0.79182795691E+01  0.69286063085E+03  0.69298207461E+03  0.10000000000E+02 0. -1.
</event>
<event>
 5    1  0.1303633E-008  0.3788932E+03  0.7957747E-01  0.3455992E+00
         13   -1    0    0    0    0  0.00000000000E+00  0.00000000000E+00  0.14999999963E+04  0.15000000000E+04  0.10566000000E+00 0. -1.
        994   -1    0    0    0    0 -0.00000000000E+00 -0.00000000000E+00  0.11368683772E-12  0.17120000000E+03  0.17120000000E+03 0.  0.
         13    1    1    2    0    0  0.89641906986E+01  0.91223142957E+01  0.15314386952E+02  0.19952817965E+02  0.10566000000E+00 0. -1.
        994    1    1    2    0    0 -0.72954146412E+01 -0.87484467070E+01  0.51283829503E+01  0.17165517384E+03  0.17120000000E+03 0.  0.
        998    1    1    2    0    0 -0.16687760575E+01 -0.37386758868E+00  0.14795572264E+04  0.14795920082E+04  0.10000000000E+02 0. -1.
</event>
<event>
 5    1  0.1303633E-008  0.3798824E+03  0.7957747E-01  0.3451671E+00
         13   -1    0    0    0    0  0.00000000000E+00  0.00000000000E+00  0.14999999963E+04  0.15000000000E+04  0.10566000000E+00 0.  1.
        994   -1    0    0    0    0 -0.00000000000E+00 -0.00000000000E+00  0.11368683772E-12  0.17120000000E+03  0.17120000000E+03 0.  0.
         13    1    1    2    0    0  0.54141886852E+01 -0.10300810465E+02  0.14029930235E+02  0.18228281372E+02  0.10566000000E+00 0.  1.
        994    1    1    2    0    0 -0.29957567794E+02  0.32146453362E+01  0.72343042323E+01  0.17398150755E+03  0.17120000000E+03 0.  0.
        998    1    1    2    0    0  0.24543379109E+02  0.70861651284E+01  0.14787357618E+04  0.14789902111E+04  0.10000000000E+02 0.  1.
</event>
<event>
 5    1  0.1303633E-008  0.3804900E+03  0.7957747E-01  0.3449028E+00
         13   -1    0    0    0    0  0.00000000000E+00  0.00000000000E+00  0.14999999963E+04  0.15000000000E+04  0.10566000000E+00 0.  1.
        994   -1    0    0    0    0 -0.00000000000E+00 -0.00000000000E+00  0.11368683772E-12  0.17120000000E+03  0.17120000000E+03 0.  0.
         13    1    1    2    0    0  0.14456024172E+02 -0.11029704556E+02  0.39854806058E+02  0.43806937206E+02  0.10566000000E+00 0.  1.
        994    1    1    2    0    0 -0.15093463331E+02  0.14360134165E+02  0.53359141091E+01  0.17254546667E+03  0.17120000000E+03 0.  0.
        998    1    1    2    0    0  0.63743915894E+00 -0.33304296085E+01  0.14548092761E+04  0.14548475961E+04  0.10000000000E+02 0.  1.
</event>
<event>
 5    1  0.1303633E-008  0.3834833E+03  0.7957747E-01  0.3436130E+00
         13   -1    0    0    0    0  0.00000000000E+00  0.00000000000E+00  0.14999999963E+04  0.15000000000E+04  0.10566000000E+00 0.  1.
        994   -1    0    0    0    0 -0.00000000000E+00 -0.00000000000E+00  0.11368683772E-12  0.17120000000E+03  0.17120000000E+03 0.  0.
         13    1    1    2    0    0 -0.14344016971E+02 -0.26923455554E+02  0.18036433098E+03  0.18292601328E+03  0.10566000000E+00 0.  1.
        994    1    1    2    0    0 -0.16488142926E+01  0.31446864215E+02  0.56691359993E+01  0.17416429875E+03  0.17120000000E+03 0.  0.
        998    1    1    2    0    0  0.15992831264E+02 -0.45234086607E+01  0.13139665293E+04  0.13141096880E+04  0.10000000000E+02 0.  1.
</event>
<event>
 5    1  0.1303633E-008  0.3799605E+03  0.7957747E-01  0.3451330E+00
         13   -1    0    0    0    0  0.00000000000E+00  0.00000000000E+00  0.14999999963E+04  0.15000000000E+04  0.10566000000E+00 0.  1.
        994   -1    0    0    0    0 -0.00000000000E+00 -0.00000000000E+00  0.11368683772E-12  0.17120000000E+03  0.17120000000E+03 0.  0.
         13    1    1    2    0    0  0.91709138614E+02  0.45000254219E+02  0.56169603243E+03  0.57090982913E+03  0.10566000000E+00 0.  1.
        994    1    1    2    0    0 -0.11872126624E+03 -0.40699990611E+02  0.58750995550E+02  0.22025518784E+03  0.17120000000E+03 0.  0.
        998    1    1    2    0    0  0.27012127631E+02 -0.43002636075E+01  0.87955296830E+03  0.88003498303E+03  0.10000000000E+02 0.  1.
</event>
<event>
 5    1  0.1303633E-008  0.3830824E+03  0.7957747E-01  0.3437846E+00
         13   -1    0    0    0    0  0.00000000000E+00  0.00000000000E+00  0.14999999963E+04  0.15000000000E+04  0.10566000000E+00 0.  1.
        994   -1    0    0    0    0 -0.00000000000E+00 -0.00000000000E+00  0.11368683772E-12  0.17120000000E+03  0.17120000000E+03 0.  0.
         13    1    1    2    0    0  0.59668751450E+01  0.15399040565E+02  0.53827607201E+02  0.56304142923E+02  0.10566000000E+00 0.  1.
        994    1    1    2    0    0 -0.63886737638E+01 -0.13002465199E+01  0.27258632921E+01  0.17134577942E+03  0.17120000000E+03 0.  0.
        998    1    1    2    0    0  0.42179861878E+00 -0.14098794045E+02  0.14434465258E+04  0.14435500777E+04  0.10000000000E+02 0.  1.
</event>
<event>
 5    1  0.1303633E-008  0.3761491E+03  0.7957747E-01  0.3468099E+00
         13   -1    0    0    0    0  0.00000000000E+00  0.00000000000E+00  0.14999999963E+04  0.15000000000E+04  0.10566000000E+00 0. -1.
        994   -1    0    0    0    0 -0.00000000000E+00 -0.00000000000E+00  0.11368683772E-12  0.17120000000E+03  0.17120000000E+03 0.  0.
         13    1    1    2    0    0  0.39405600531E+02  0.48249350985E+02  0.29165205961E+03  0.29823101157E+03  0.10566000000E+00 0. -1.
        994    1    1    2    0    0 -0.18168925352E+02 -0.45329459873E+02  0.14208230385E+02  0.17859502678E+03  0.17120000000E+03 0.  0.
        998    1    1    2    0    0 -0.21236675179E+02 -0.29198911121E+01  0.11941397063E+04  0.11943739617E+04  0.10000000000E+02 0. -1.
</event>
<event>
 5    1  0.1303633E-008  0.3862796E+03  0.7957747E-01  0.3424263E+00
         13   -1    0    0    0    0  0.00000000000E+00  0.00000000000E+00  0.14999999963E+04  0.15000000000E+04  0.10566000000E+00 0.  1.
        994   -1    0    0    0    0 -0.00000000000E+00 -0.00000000000E+00  0.11368683772E-12  0.17120000000E+03  0.17120000000E+03 0.  0.
         13    1    1    2    0    0 -0.12456957888E+02 -0.25523638424E+01  0.73096465383E+02  0.74194304205E+02  0.10566000000E+00 0.  1.
        994    1    1    2    0    0  0.20813938337E+02  0.13163676992E+02  0.29850217392E+01  0.17298801339E+03  0.17120000000E+03 0.  0.
        998    1    1    2    0    0 -0.83569804488E+01 -0.10611313149E+02  0.14239185092E+04  0.14240176824E+04  0.10000000000E+02 0.  1.
</event>
<event>
 5    1  0.1303633E-008  0.3714563E+03  0.7957747E-01  0.3489225E+00
         13   -1    0    0    0    0  0.00000000000E+00  0.00000000000E+00  0.14999999963E+04  0.15000000000E+04  0.10566000000E+00 0. -1.
        994   -1    0    0    0    0 -0.00000000000E+00 -0.00000000000E+00  0.11368683772E-12  0.17120000000E+03  0.17120000000E+03 0.  0.
         13    1    1    2    0    0  0.17456324826E+02  0.43567029780E+01  0.15344282830E+02  0.23646613222E+02  0.10566000000E+00 0. -1.
        994    1    1    2    0    0 -0.84946745664E+01 -0.14562157566E+02  0.94882737864E+01  0.17228953325E+03  0.17120000000E+03 0.  0.
        998    1    1    2    0    0 -0.89616502597E+01  0.10205454588E+02  0.14751674397E+04  0.14752638535E+04  0.10000000000E+02 0. -1.
</event>
<event>
 5    1  0.1303633E-008  0.3792736E+03  0.7957747E-01  0.3454328E+00
         13   -1    0    0    0    0  0.00000000000E+00  0.00000000000E+00  0.14999999963E+04  0.15000000000E+04  0.10566000000E+00 0.  1.
        994   -1    0    0    0    0 -0.00000000000E+00 -0.00000000000E+00  0.11368683772E-12  0.17120000000E+03  0.17120000000E+03 0.  0.
         13    1    1    2    0    0  0.31624737729E+02  0.10812258061E+02  0.14124847036E+03  0.14514878747E+03  0.10566000000E+00 0.  1.
        994    1    1    2    0    0 -0.24626756620E+01  0.17603662468E+02  0.55597517694E+01  0.17221005936E+03  0.17120000000E+03 0.  0.
        998    1    1    2    0    0 -0.29162062067E+02 -0.28415920529E+02  0.13531917741E+04  0.13538411532E+04  0.10000000000E+02 0. -1.
</event>
<event>
 5    1  0.1303633E-008  0.3838501E+03  0.7957747E-01  0.3434564E+00
         13   -1    0    0    0    0  0.00000000000E+00  0.00000000000E+00  0.14999999963E+04  0.15000000000E+04  0.10566000000E+00 0.  1.
        994   -1    0    0    0    0 -0.00000000000E+00 -0.00000000000E+00  0.11368683772E-12  0.17120000000E+03  0.17120000000E+03 0.  0.
         13    1    1    2    0    0  0.37029370726E+01  0.18001775788E+02  0.72341477666E+02  0.74639642479E+02  0.10566000000E+00 0.  1.
        994    1    1    2    0    0 -0.20526224660E+01 -0.20894585556E+02  0.36585338536E+01  0.17252136631E+03  0.17120000000E+03 0.  0.
        998    1    1    2    0    0 -0.16503146066E+01  0.28928097682E+01  0.14239999848E+04  0.14240389912E+04  0.10000000000E+02 0.  1.
</event>
<event>
 5    1  0.1303633E-008  0.3836680E+03  0.7957747E-01  0.3435341E+00
         13   -1    0    0    0    0  0.00000000000E+00  0.00000000000E+00  0.14999999963E+04  0.15000000000E+04  0.10566000000E+00 0.  1.
        994   -1    0    0    0    0 -0.00000000000E+00 -0.00000000000E+00  0.11368683772E-12  0.17120000000E+03  0.17120000000E+03 0.  0.
         13    1    1    2    0    0  0.10617353112E+02  0.84589612440E+01  0.40481061599E+02  0.42696717962E+02  0.10566000000E+00 0.  1.
        994    1    1    2    0    0 -0.59301808346E+01  0.12706212261E+01  0.24143902598E+01  0.17132440224E+03  0.17120000000E+03 0.  0.
        998    1    1    2    0    0 -0.46871722777E+01 -0.97295824700E+01  0.14571045444E+04  0.14571788798E+04  0.10000000000E+02 0.  1.
</event>
<event>
 5    1  0.1303633E-008  0.3784576E+03  0.7957747E-01  0.3457902E+00
         13   -1    0    0    0    0  0.00000000000E+00  0.00000000000E+00  0.14999999963E+04  0.15000000000E+04  0.10566000000E+00 0. -1.
        994   -1    0    0    0    0 -0.00000000000E+00 -0.00000000000E+00  0.11368683772E-12  0.17120000000E+03  0.17120000000E+03 0.  0.
         13    1    1    2    0    0 -0.30324238093E+02  0.16183224863E+02  0.11376487229E+03  0.11884407227E+03  0.10566000000E+00 0. -1.
        994    1    1    2    0    0  0.25984485838E+02 -0.12254447863E+02  0.76920230077E+01  0.17376412810E+03  0.17120000000E+03 0.  0.
        998    1    1    2    0    0  0.43397522552E+01 -0.39287769996E+01  0.13785431010E+04  0.13785917996E+04  0.10000000000E+02 0. -1.
</event>
<event>
 5    1  0.1303633E-008  0.3718666E+03  0.7957747E-01  0.3487356E+00
         13   -1    0    0    0    0  0.00000000000E+00  0.00000000000E+00  0.14999999963E+04  0.15000000000E+04  0.10566000000E+00 0.  1.
        994   -1    0    0    0    0 -0.00000000000E+00 -0.00000000000E+00  0.11368683772E-12  0.17120000000E+03  0.17120000000E+03 0.  0.
         13    1    1    2    0    0  0.62732918492E+02 -0.10261320011E+02  0.28267311653E+03  0.28973231736E+03  0.10566000000E+00 0.  1.
        994    1    1    2    0    0 -0.86395360096E+01  0.38726164732E+02  0.13724829005E+02  0.17627299381E+03  0.17120000000E+03 0.  0.
        998    1    1    2    0    0 -0.54093382482E+02 -0.28464844721E+02  0.12036020507E+04  0.12051946888E+04  0.10000000000E+02 0.  1.
</event>
<event>
 5    1  0.1303633E-008  0.3826713E+03  0.7957747E-01  0.3439609E+00
         13   -1    0    0    0    0  0.00000000000E+00  0.00000000000E+00  0.14999999963E+04  0.15000000000E+04  0.10566000000E+00 0.  1.
        994   -1    0    0    0    0 -0.00000000000E+00 -0.00000000000E+00  0.11368683772E-12  0.17120000000E+03  0.17120000000E+03 0.  0.
         13    1    1    2    0    0 -0.15060778478E+01 -0.22211332741E+02  0.98956307365E+02  0.10142964805E+03  0.10566000000E+00 0.  1.
        994    1    1    2    0    0 -0.21158500134E+02 -0.31679551567E+01  0.43089394801E+01  0.17258541372E+03  0.17120000000E+03 0.  0.
        998    1    1    2    0    0  0.22664577981E+02  0.25379287898E+02  0.13967347494E+04  0.13971849382E+04  0.10000000000E+02 0.  1.
</event>
<event>
 5    1  0.1303633E-008  0.3848638E+03  0.7957747E-01  0.3430250E+00
         13   -1    0    0    0    0  0.00000000000E+00  0.00000000000E+00  0.14999999963E+04  0.15000000000E+04  0.10566000000E+00 0. -1.
        994   -1    0    0    0    0 -0.00000000000E+00 -0.00000000000E+00  0.11368683772E-12  0.17120000000E+03  0.17120000000E+03 0.  0.
         13    1    1    2    0    0  0.11778255617E+02 -0.22566465612E+01  0.41008889723E+02  0.42726572053E+02  0.10566000000E+00 0. -1.
        994    1    1    2    0    0 -0.14987701165E+02 -0.49346480274E+01  0.25173543509E+01  0.17194405779E+03  0.17120000000E+03 0.  0.
        998    1    1    2    0    0  0.32094455475E+01  0.71912945885E+01  0.14564737522E+04  0.14565293702E+04  0.10000000000E+02 0. -1.
</event>
<event>
 5    1  0.1303633E-008  0.3837377E+03  0.7957747E-01  0.3435043E+00
         13   -1    0    0    0    0  0.00000000000E+00  0.00000000000E+00  0.14999999963E+04  0.15000000000E+04  0.10566000000E+00 0. -1.
        994   -1    0    0    0    0 -0.00000000000E+00 -0.00000000000E+00  0.11368683772E-12  0.17120000000E+03  0.17120000000E+03 0.  0.
         13    1    1    2    0    0 -0.60691477485E+01  0.10033842451E+02  0.30808605238E+02  0.32965040110E+02  0.10566000000E+00 0. -1.
        994    1    1    2    0    0  0.26485861136E+02  0.16486154791E+02  0.54787460784E+01  0.17410557371E+03  0.17120000000E+03 0.  0.
        998    1    1    2    0    0 -0.20416713387E+02 -0.26519997242E+02  0.14637126450E+04  0.14641293862E+04  0.10000000000E+02 0. -1.
</event>
<event>
 5    1  0.1303633E-008  0.3788565E+03  0.7957747E-01  0.3456153E+00
         13   -1    0    0    0    0  0.00000000000E+00  0.00000000000E+00  0.14999999963E+04  0.15000000000E+04  0.10566000000E+00 0.  1.
        994   -1    0    0    0    0 -0.00000000000E+00 -0.00000000000E+00  0.11368683772E-12  0.17120000000E+03  0.17120000000E+03 0.  0.
         13    1    1    2    0    0  0.28009381137E+02  0.30975563731E+02  0.45489121669E+02  0.61751780010E+02  0.10566000000E+00 0.  1.
        994    1    1    2    0    0 -0.51842537923E+02 -0.37540043670E+02  0.30636162265E+02  0.18532381945E+03  0.17120000000E+03 0.  0.
        998    1    1    2    0    0  0.23833156786E+02  0.65644799392E+01  0.14238747123E+04  0.14241244005E+04  0.10000000000E+02 0.  1.
</event>
<event>
 5    1  0.1303633E-008  0.3838940E+03  0.7957747E-01  0.3434376E+00
         13   -1    0    0    0    0  0.00000000000E+00  0.00000000000E+00  0.14999999963E+04  0.15000000000E+04  0.10566000000E+00 0. -1.
        994   -1    0    0    0    0 -0.00000000000E+00 -0.00000000000E+00  0.11368683772E-12  0.17120000000E+03  0.17120000000E+03 0.  0.
         13    1    1    2    0    0  0.75604371032E+01  0.22580872452E+02  0.13105537961E+03  0.13320127514E+03  0.10566000000E+00 0. -1.
        994    1    1    2    0    0 -0.68979265082E+01 -0.11526481369E+02  0.27759886937E+01  0.17174861652E+03  0.17120000000E+03 0.  0.
        998    1    1    2    0    0 -0.66251059495E+00 -0.11054391083E+02  0.13661686280E+04  0.13662501083E+04  0.10000000000E+02 0. -1.
</event>
<event>
 5    1  0.1303633E-008  0.3724011E+03  0.7957747E-01  0.3484928E+00
         13   -1    0    0    0    0  0.00000000000E+00  0.00000000000E+00  0.14999999963E+04  0.15000000000E+04  0.10566000000E+00 0.  1.
        994   -1    0    0    0    0 -0.00000000000E+00 -0.00000000000E+00  0.11368683772E-12  0.17120000000E+03  0.17120000000E+03 0.  0.
         13    1    1    2    0    0 -0.36366524675E+02  0.13689439021E+01  0.44067501511E+02  0.57152025142E+02  0.10566000000E+00 0.  1.
        994    1    1    2    0    0  0.68534695027E+02  0.31029261804E+02  0.32446276160E+02  0.18979467945E+03  0.17120000000E+03 0.  0.
        998    1    1    2    0    0 -0.32168170352E+02 -0.32398205706E+02  0.14234862186E+04  0.14242532954E+04  0.10000000000E+02 0.  1.
</event>
<event>
 5    1  0.1303633E-008  0.3785296E+03  0.7957747E-01  0.3457586E+00
         13   -1    0    0    0    0  0.00000000000E+00  0.00000000000E+00  0.14999999963E+04  0.15000000000E+04  0.10566000000E+00 0.  1.
        994   -1    0    0    0    0 -0.00000000000E+00 -0.00000000000E+00  0.11368683772E-12  0.17120000000E+03  0.17120000000E+03 0.  0.
         13    1    1    2    0    0 -0.19840316231E+02 -0.25692944606E+02  0.10584282373E+03  0.11070898811E+03  0.10566000000E+00 0.  1.
        994    1    1    2    0    0  0.12520973339E+02  0.16299154714E+02  0.62975799549E+01  0.17254430368E+03  0.17120000000E+03 0.  0.
        998    1    1    2    0    0  0.73193428922E+01  0.93937898917E+01  0.13878595926E+04  0.13879467082E+04  0.10000000000E+02 0.  1.
</event>
<event>
 5    1  0.1303633E-008  0.3730820E+03  0.7957747E-01  0.3481845E+00
         13   -1    0    0    0    0  0.00000000000E+00  0.00000000000E+00  0.14999999963E+04  0.15000000000E+04  0.10566000000E+00 0.  1.
        994   -1    0    0    0    0 -0.00000000000E+00 -0.00000000000E+00  0.11368683772E-12  0.17120000000E+03  0.17120000000E+03 0.  0.
         13    1    1    2    0    0 -0.46909605709E+02  0.93107906589E+01  0.86338087947E+02  0.98698928691E+02  0.10566000000E+00 0.  1.
        994    1    1    2    0    0  0.31534567389E+02 -0.52107664451E+01  0.16196770001E+02  0.17490956631E+03  0.17120000000E+03 0.  0.
        998    1    1    2    0    0  0.15375038320E+02 -0.41000242138E+01  0.13974651383E+04  0.13975915050E+04  0.10000000000E+02 0.  1.
</event>
<event>
 5    1  0.1303633E-008  0.4014281E+03  0.7957747E-01  0.3362853E+00
         13   -1    0    0    0    0  0.00000000000E+00  0.00000000000E+00  0.14999999963E+04  0.15000000000E+04  0.10566000000E+00 0.  1.
        994   -1    0    0    0    0 -0.00000000000E+00 -0.00000000000E+00  0.11368683772E-12  0.17120000000E+03  0.17120000000E+03 0.  0.
         13    1    1    2    0    0 -0.14414206310E+02 -0.61068136781E+02  0.58079328638E+02  0.85500328962E+02  0.10566000000E+00 0.  1.
        994    1    1    2    0    0  0.54730658794E+01  0.54937409168E+02  0.40735259482E+02  0.18443664154E+03  0.17120000000E+03 0.  0.
        998    1    1    2    0    0  0.89411404304E+01  0.61307276131E+01  0.14011854082E+04  0.14012630295E+04  0.10000000000E+02 0.  1.
</event>
<event>
 5    1  0.1303633E-008  0.3861109E+03  0.7957747E-01  0.3424975E+00
         13   -1    0    0    0    0  0.00000000000E+00  0.00000000000E+00  0.14999999963E+04  0.15000000000E+04  0.10566000000E+00 0.  1.
        994   -1    0    0    0    0 -0.00000000000E+00 -0.00000000000E+00  0.11368683772E-12  0.17120000000E+03  0.17120000000E+03 0.  0.
         13    1    1    2    0    0 -0.11907429077E+02 -0.10571981404E+01  0.65567903737E+02  0.66648823693E+02  0.10566000000E+00 0.  1.
        994    1    1    2    0    0  0.10905039587E+02  0.56405559515E+00  0.14704343639E+01  0.17155419034E+03  0.17120000000E+03 0.  0.
        998    1    1    2    0    0  0.10023894904E+01  0.49314254525E+00  0.14329616582E+04  0.14329969860E+04  0.10000000000E+02 0.  1.
</event>
<event>
 5    1  0.1303633E-008  0.3690837E+03  0.7957747E-01  0.3500113E+00
         13   -1    0    0    0    0  0.00000000000E+00  0.00000000000E+00  0.14999999963E+04  0.15000000000E+04  0.10566000000E+00 0. -1.
        994   -1    0    0    0    0 -0.00000000000E+00 -0.00000000000E+00  0.11368683772E-12  0.17120000000E+03  0.17120000000E+03 0.  0.
         13    1    1    2    0    0  0.79383750792E+01  0.24500982706E+02  0.27245671880E+02  0.37492049193E+02  0.10566000000E+00 0. -1.
        994    1    1    2    0    0 -0.10102786673E+02 -0.18476661718E+02  0.12001943933E+02  0.17290731617E+03  0.17120000000E+03 0.  0.
        998    1    1    2    0    0  0.21644115937E+01 -0.60243209883E+01  0.14607523805E+04  0.14608006346E+04  0.10000000000E+02 0. -1.
</event>
<event>
 5    1  0.1303633E-008  0.3858711E+03  0.7957747E-01  0.3425986E+00
         13   -1    0    0    0    0  0.00000000000E+00  0.00000000000E+00  0.14999999963E+04  0.15000000000E+04  0.10566000000E+00 0.  1.
        994   -1    0    0    0    0 -0.00000000000E+00 -0.00000000000E+00  0.11368683772E-12  0.17120000000E+03  0.17120000000E+03 0.  0.
         13    1    1    2    0    0  0.11057460199E+02  0.56168806026E+01  0.67898660925E+02  0.69022142050E+02  0.10566000000E+00 0.  1.
        994    1    1    2    0    0 -0.26986013085E+01  0.67480328797E+00  0.12236364361E+01  0.17122696953E+03  0.17120000000E+03 0.  0.
        998    1    1    2    0    0 -0.83588588906E+01 -0.62916838906E+01  0.14308776989E+04  0.14309508884E+04  0.10000000000E+02 0.  1.
</event>
<event>
 5    1  0.1303633E-008  0.3734342E+03  0.7957747E-01  0.3480255E+00
         13   -1    0    0    0    0  0.00000000000E+00  0.00000000000E+00  0.14999999963E+04  0.15000000000E+04  0.10566000000E+00 0.  1.
        994   -1    0    0    0    0 -0.00000000000E+00 -0.00000000000E+00  0.11368683772E-12  0.17120000000E+03  0.17120000000E+03 0.  0.
         13    1    1    2    0    0 -0.93305570059E+01  0.71064418091E+01  0.53176090563E+01  0.12878235102E+02  0.10566000000E+00 0.  1.
        994    1    1    2    0    0 -0.21452016171E+01 -0.59023812426E+02  0.19501095887E+02  0.18214868944E+03  0.17120000000E+03 0.  0.
        998    1    1    2    0    0  0.11475758623E+02  0.51917370617E+02  0.14751812913E+04  0.14761730755E+04  0.10000000000E+02 0.  1.
</event>
<event>
 5    1  0.1303633E-008  0.3852356E+03  0.7957747E-01  0.3428674E+00
         13   -1    0    0    0    0  0.00000000000E+00  0.00000000000E+00  0.14999999963E+04  0.15000000000E+04  0.10566000000E+00 0. -1.
        994   -1    0    0    0    0 -0.00000000000E+00 -0.00000000000E+00  0.11368683772E-12  0.17120000000E+03  0.17120000000E+03 0.  0.
         13    1    1    2    0    0 -0.10002660411E+02  0.33527364063E+01  0.37613608576E+02  0.39065186174E+02  0.10566000000E+00 0. -1.
        994    1    1    2    0    0  0.24247027522E+01 -0.33671399962E+00  0.15329303289E+01  0.17122436286E+03  0.17120000000E+03 0.  0.
        998    1    1    2    0    0  0.75779576588E+01 -0.30160224067E+01  0.14608534574E+04  0.14609104510E+04  0.10000000000E+02 0. -1.
</event>
<event>
 5    1  0.1303633E-008  0.3852397E+03  0.7957747E-01  0.3428656E+00
         13   -1    0    0    0    0  0.00000000000E+00  0.00000000000E+00  0.14999999963E+04  0.15000000000E+04  0.10566000000E+00 0.  1.
        994   -1    0    0    0    0 -0.00000000000E+00 -0.00000000000E+00  0.11368683772E-12  0.17120000000E+03  0.17120000000E+03 0.  0.
         13    1    1    2    0    0 -0.10943182885E+02 -0.72718826998E+01  0.61700840634E+02  0.63084375472E+02  0.10566000000E+00 0.  1.
        994    1    1    2    0    0 -0.68740257358E+01  0.53652575781E+01  0.17610632425E+01  0.17143097609E+03  0.17120000000E+03 0.  0.
        998    1    1    2    0    0  0.17817208621E+02  0.19066251217E+01  0.14365380924E+04  0.14366846484E+04  0.10000000000E+02 0.  1.
</event>
<event>
 5    1  0.1303633E-008  0.3721401E+03  0.7957747E-01  0.3486113E+00
         13   -1    0    0    0    0  0.00000000000E+00  0.00000000000E+00  0.14999999963E+04  0.15000000000E+04  0.10566000000E+00 0. -1.
        994   -1    0    0    0    0 -0.00000000000E+00 -0.00000000000E+00  0.11368683772E-12  0.17120000000E+03  0.17120000000E+03 0.  0.
         13    1    1    2    0    0 -0.14436031248E+03  0.17105497381E+03  0.92910380661E+03  0.95568488453E+03  0.10566000000E+00 0. -1.
        994    1    1    2    0    0  0.14169807387E+03 -0.16402257258E+03  0.19193718989E+03  0.33634962958E+03  0.17120000000E+03 0.  0.
        998    1    1    2    0    0  0.26622386114E+01 -0.70324012282E+01  0.37895899978E+03  0.37916548590E+03  0.10000000000E+02 0.  0.
</event>
<event>
 5    1  0.1303633E-008  0.3830898E+03  0.7957747E-01  0.3437814E+00
         13   -1    0    0    0    0  0.00000000000E+00  0.00000000000E+00  0.14999999963E+04  0.15000000000E+04  0.10566000000E+00 0.  1.
        994   -1    0    0    0    0 -0.00000000000E+00 -0.00000000000E+00  0.11368683772E-12  0.17120000000E+03  0.17120000000E+03 0.  0.
         13    1    1    2    0    0 -0.77853435434E+01  0.17932272905E+02  0.85501484813E+02  0.87707998808E+02  0.10566000000E+00 0.  1.
        994    1    1    2    0    0  0.23516888841E+01  0.15273219637E+02  0.33721116988E+01  0.17192909241E+03  0.17120000000E+03 0.  0.
        998    1    1    2    0    0  0.54336546593E+01 -0.33205492542E+02  0.14111263998E+04  0.14115629088E+04  0.10000000000E+02 0.  1.
</event>
<event>
 5    1  0.1303633E-008  0.3840655E+03  0.7957747E-01  0.3433645E+00
         13   -1    0    0    0    0  0.00000000000E+00  0.00000000000E+00  0.14999999963E+04  0.15000000000E+04  0.10566000000E+00 0. -1.
        994   -1    0    0    0    0 -0.00000000000E+00 -0.00000000000E+00  0.11368683772E-12  0.17120000000E+03  0.17120000000E+03 0.  0.
         13    1    1    2    0    0  0.20925416840E+02  0.44557567165E+01  0.11926647544E+03  0.12117025281E+03  0.10566000000E+00 0. -1.
        994    1    1    2    0    0 -0.11601463793E+00 -0.73117395300E+01  0.22712178854E+01  0.17137115692E+03  0.17120000000E+03 0.  0.
        998    1    1    2    0    0 -0.20809402202E+02  0.28559828135E+01  0.13784623030E+04  0.13786585903E+04  0.10000000000E+02 0. -1.
</event>
<event>
 5    1  0.1303633E-008  0.3838228E+03  0.7957747E-01  0.3434680E+00
         13   -1    0    0    0    0  0.00000000000E+00  0.00000000000E+00  0.14999999963E+04  0.15000000000E+04  0.10566000000E+00 0.  1.
        994   -1    0    0    0    0 -0.00000000000E+00 -0.00000000000E+00  0.11368683772E-12  0.17120000000E+03  0.17120000000E+03 0.  0.
         13    1    1    2    0    0  0.39448749544E+01  0.92110596096E+01  0.21640046230E+02  0.23847608316E+02  0.10566000000E+00 0.  1.
        994    1    1    2    0    0 -0.21728805967E+01 -0.10944731046E+02  0.26268804985E+01  0.17158335889E+03  0.17120000000E+03 0.  0.
        998    1    1    2    0    0 -0.17719943577E+01  0.17336714365E+01  0.14757330696E+04  0.14757690328E+04  0.10000000000E+02 0.  1.
</event>
<event>
 5    1  0.1303633E-008  0.3731635E+03  0.7957747E-01  0.3481477E+00
         13   -1    0    0    0    0  0.00000000000E+00  0.00000000000E+00  0.14999999963E+04  0.15000000000E+04  0.10566000000E+00 0.  1.
        994   -1    0    0    0    0 -0.00000000000E+00 -0.00000000000E+00  0.11368683772E-12  0.17120000000E+03  0.17120000000E+03 0.  0.
         13    1    1    2    0    0  0.20341597311E+02  0.81478514730E+01  0.14055020540E+02  0.26033110287E+02  0.10566000000E+00 0.  1.
        994    1    1    2    0    0 -0.14784395248E+02  0.41528906332E+02  0.19522833343E+02  0.17785895936E+03  0.17120000000E+03 0.  0.
        998    1    1    2    0    0 -0.55572020630E+01 -0.49676757805E+02  0.14664221424E+04  0.14673079304E+04  0.10000000000E+02 0.  1.
</event>
<event>
 5    1  0.1303633E-008  0.3803006E+03  0.7957747E-01  0.3449851E+00
         13   -1    0    0    0    0  0.00000000000E+00  0.00000000000E+00  0.14999999963E+04  0.15000000000E+04  0.10566000000E+00 0.  1.
        994   -1    0    0    0    0 -0.00000000000E+00 -0.00000000000E+00  0.11368683772E-12  0.17120000000E+03  0.17120000000E+03 0.  0.
         13    1    1    2    0    0  0.18394256085E+02 -0.50115703563E+01  0.44819442736E+02  0.48705832356E+02  0.10566000000E+00 0.  1.
        994    1    1    2    0    0 -0.10625585562E+02 -0.67733153133E+01  0.45119063367E+01  0.17172238691E+03  0.17120000000E+03 0.  0.
        998    1    1    2    0    0 -0.77686705236E+01  0.11784885670E+02  0.14506686472E+04  0.14507717807E+04  0.10000000000E+02 0.  1.
</event>
<event>
 5    1  0.1303633E-008  0.3784764E+03  0.7957747E-01  0.3457819E+00
         13   -1    0    0    0    0  0.00000000000E+00  0.00000000000E+00  0.14999999963E+04  0.15000000000E+04  0.10566000000E+00 0.  1.
        994   -1    0    0    0    0 -0.00000000000E+00 -0.00000000000E+00  0.11368683772E-12  0.17120000000E+03  0.17120000000E+03 0.  0.
         13    1    1    2    0    0 -0.25258194440E+02  0.79935092155E+01  0.71368209337E+02  0.76126900921E+02  0.10566000000E+00 0.  1.
        994    1    1    2    0    0  0.11059451027E+02 -0.19608471581E+01  0.53281872410E+01  0.17165076743E+03  0.17120000000E+03 0.  0.
        998    1    1    2    0    0  0.14198743413E+02 -0.60326620573E+01  0.14233035997E+04  0.14234223317E+04  0.10000000000E+02 0.  1.
</event>
<event>
 5    1  0.1303633E-008  0.3763249E+03  0.7957747E-01  0.3467319E+00
         13   -1    0    0    0    0  0.00000000000E+00  0.00000000000E+00  0.14999999963E+04  0.15000000000E+04  0.10566000000E+00 0.  1.
        994   -1    0    0    0    0 -0.00000000000E+00 -0.00000000000E+00  0.11368683772E-12  0.17120000000E+03  0.17120000000E+03 0.  0.
         13    1    1    2    0    0  0.16666040262E+02  0.44333418253E+02  0.22064213968E+03  0.22566828275E+03  0.10566000000E+00 0.  1.
        994    1    1    2    0    0 -0.51865985438E+01  0.44539499791E+00  0.60916743158E+01  0.17138741983E+03  0.17120000000E+03 0.  0.
        998    1    1    2    0    0 -0.11479441718E+02 -0.44778813251E+02  0.12732661823E+04  0.12741442974E+04  0.10000000000E+02 0.  1.
</event>
<event>
 5    1  0.1303633E-008  0.3815979E+03  0.7957747E-01  0.3444230E+00
         13   -1    0    0    0    0  0.00000000000E+00  0.00000000000E+00  0.14999999963E+04  0.15000000000E+04  0.10566000000E+00 0. -1.
        994   -1    0    0    0    0 -0.00000000000E+00 -0.00000000000E+00  0.11368683772E-12  0.17120000000E+03  0.17120000000E+03 0.  0.
         13    1    1    2    0    0  0.11601162644E+02  0.22447107650E+02  0.11009680380E+03  0.11295918284E+03  0.10566000000E+00 0. -1.
        994    1    1    2    0    0  0.56935486276E+01  0.73092395133E+01  0.36142141351E+01  0.17148861193E+03  0.17120000000E+03 0.  0.
        998    1    1    2    0    0 -0.17294711272E+02 -0.29756347163E+02  0.13862889783E+04  0.13867522052E+04  0.10000000000E+02 0. -1.
</event>
<event>
 5    1  0.1303633E-008  0.3827141E+03  0.7957747E-01  0.3439425E+00
         13   -1    0    0    0    0  0.00000000000E+00  0.00000000000E+00  0.14999999963E+04  0.15000000000E+04  0.10566000000E+00 0.  1.
        994   -1    0    0    0    0 -0.00000000000E+00 -0.00000000000E+00  0.11368683772E-12  0.17120000000E+03  0.17120000000E+03 0.  0.
         13    1    1    2    0    0 -0.15787148268E+02 -0.73953061487E+01  0.55745829141E+02  0.58408331889E+02  0.10566000000E+00 0.  1.
        994    1    1    2    0    0  0.24849995768E+01  0.56017812877E+01  0.28937692145E+01  0.17133408615E+03  0.17120000000E+03 0.  0.
        998    1    1    2    0    0  0.13302148691E+02  0.17935248610E+01  0.14413603979E+04  0.14414575820E+04  0.10000000000E+02 0.  1.
</event>
<event>
 5    1  0.1303633E-008  0.3813889E+03  0.7957747E-01  0.3445133E+00
         13   -1    0    0    0    0  0.00000000000E+00  0.00000000000E+00  0.14999999963E+04  0.15000000000E+04  0.10566000000E+00 0. -1.
        994   -1    0    0    0    0 -0.00000000000E+00 -0.00000000000E+00  0.11368683772E-12  0.17120000000E+03  0.17120000000E+03 0.  0.
         13    1    1    2    0    0 -0.19531590276E+02 -0.40737804876E+01  0.58126643637E+02  0.61455647184E+02  0.10566000000E+00 0. -1.
        994    1    1    2    0    0  0.53803367755E+01  0.10880072626E+02  0.39240910604E+01  0.17167458314E+03  0.17120000000E+03 0.  0.
        998    1    1    2    0    0  0.14151253501E+02 -0.68062921382E+01  0.14379492616E+04  0.14380697697E+04  0.10000000000E+02 0. -1.
</event>
<event>
 5    1  0.1303633E-008  0.3858205E+03  0.7957747E-01  0.3426200E+00
         13   -1    0    0    0    0  0.00000000000E+00  0.00000000000E+00  0.14999999963E+04  0.15000000000E+04  0.10566000000E+00 0. -1.
        994   -1    0    0    0    0 -0.00000000000E+00 -0.00000000000E+00  0.11368683772E-12  0.17120000000E+03  0.17120000000E+03 0.  0.
         13    1    1    2    0    0  0.42253663155E+01  0.11705895011E+02  0.63888185193E+02  0.65089116370E+02  0.10566000000E+00 0. -1.
        994    1    1    2    0    0 -0.32086699577E+01 -0.76259398524E+01  0.14478522316E+01  0.17140591238E+03  0.17120000000E+03 0.  0.
        998    1    1    2    0    0 -0.10166963577E+01 -0.40799551582E+01  0.14346639589E+04  0.14347049713E+04  0.10000000000E+02 0. -1.
</event>
<event>
 5    1  0.1303633E-008  0.3831780E+03  0.7957747E-01  0.3437437E+00
         13   -1    0    0    0    0  0.00000000000E+00  0.00000000000E+00  0.14999999963E+04  0.15000000000E+04  0.10566000000E+00 0.  1.
        994   -1    0    0    0    0 -0.00000000000E+00 -0.00000000000E+00  0.11368683772E-12  0.17120000000E+03  0.17120000000E+03 0.  0.
         13    1    1    2    0    0  0.10822731769E+01  0.29336682458E+02  0.15744405410E+03  0.16015758985E+03  0.10566000000E+00 0.  1.
        994    1    1    2    0    0 -0.72858840087E+01 -0.26165635289E+02  0.49818102035E+01  0.17341275330E+03  0.17120000000E+03 0.  0.
        998    1    1    2    0    0  0.62036108318E+01 -0.31710471696E+01  0.13375741320E+04  0.13376296568E+04  0.10000000000E+02 0.  1.
</event>
<event>
 5    1  0.1562228E-008  0.3841881E+03  0.7957747E-01  0.3433123E+00
         13   -1    0    0    0    0  0.00000000000E+00  0.00000000000E+00  0.14999999963E+04  0.15000000000E+04  0.10566000000E+00 0.  1.
        994   -1    0    0    0    0 -0.00000000000E+00 -0.00000000000E+00  0.11368683772E-12  0.17120000000E+03  0.17120000000E+03 0.  0.
         13    1    1    2    0    0 -0.16779005814E+02 -0.21198117194E+01  0.72298374591E+02  0.74250217308E+02  0.10566000000E+00 0.  1.
        994    1    1    2    0    0  0.58711158078E+01 -0.20517274167E+01  0.21613088200E+01  0.17132656199E+03  0.17120000000E+03 0.  0.
        998    1    1    2    0    0  0.10907890006E+02  0.41715391361E+01  0.14255403129E+04  0.14256232207E+04  0.10000000000E+02 0.  1.
</event>
<event>
 5    1  0.1303633E-008  0.3733218E+03  0.7957747E-01  0.3480762E+00
         13   -1    0    0    0    0  0.00000000000E+00  0.00000000000E+00  0.14999999963E+04  0.15000000000E+04  0.10566000000E+00 0.  1.
        994   -1    0    0    0    0 -0.00000000000E+00 -0.00000000000E+00  0.11368683772E-12  0.17120000000E+03  0.17120000000E+03 0.  0.
         13    1    1    2    0    0  0.27894029596E+02  0.47917784845E+01  0.51429510162E+02  0.58703012765E+02  0.10566000000E+00 0.  1.
        994    1    1    2    0    0 -0.13367872921E+02  0.15280860212E+02  0.89534361753E+01  0.17263200380E+03  0.17120000000E+03 0.  0.
        998    1    1    2    0    0 -0.14526156675E+02 -0.20072638697E+02  0.14396170499E+04  0.14398649834E+04  0.10000000000E+02 0.  1.
</event>
<event>
 5    1  0.1303633E-008  0.3836766E+03  0.7957747E-01  0.3435304E+00
         13   -1    0    0    0    0  0.00000000000E+00  0.00000000000E+00  0.14999999963E+04  0.15000000000E+04  0.10566000000E+00 0. -1.
        994   -1    0    0    0    0 -0.00000000000E+00 -0.00000000000E+00  0.11368683772E-12  0.17120000000E+03  0.17120000000E+03 0.  0.
         13    1    1    2    0    0  0.70548709290E+01  0.12136631226E+02  0.43152234877E+02  0.45378360044E+02  0.10566000000E+00 0. -1.
        994    1    1    2    0    0  0.48855703940E+01 -0.94963608110E+01  0.26653941760E+01  0.17155347269E+03  0.17120000000E+03 0.  0.
        998    1    1    2    0    0 -0.11940441323E+02 -0.26402704152E+01  0.14541823672E+04  0.14542681673E+04  0.10000000000E+02 0. -1.
</event>
<event>
 5    1  0.1303633E-008  0.3805230E+03  0.7957747E-01  0.3448884E+00
         13   -1    0    0    0    0  0.00000000000E+00  0.00000000000E+00  0.14999999963E+04  0.15000000000E+04  0.10566000000E+00 0.  1.
        994   -1    0    0    0    0 -0.00000000000E+00 -0.00000000000E+00  0.11368683772E-12  0.17120000000E+03  0.17120000000E+03 0.  0.
         13    1    1    2    0    0  0.36184921230E+02 -0.49836676758E+01  0.16061085956E+03  0.16471200576E+03  0.10566000000E+00 0.  1.
        994    1    1    2    0    0 -0.28819129595E+02  0.18517690187E+02  0.77952619822E+01  0.17476742600E+03  0.17120000000E+03 0.  0.
        998    1    1    2    0    0 -0.73657916356E+01 -0.13534022511E+02  0.13315938747E+04  0.13317205682E+04  0.10000000000E+02 0.  1.
</event>
<event>
 5    1  0.1303633E-008  0.3827326E+03  0.7957747E-01  0.3439346E+00
         13   -1    0    0    0    0  0.00000000000E+00  0.00000000000E+00  0.14999999963E+04  0.15000000000E+04  0.10566000000E+00 0. -1.
        994   -1    0    0    0    0 -0.00000000000E+00 -0.00000000000E+00  0.11368683772E-12  0.17120000000E+03  0.17120000000E+03 0.  0.
         13    1    1    2    0    0 -0.19254713848E+02  0.70682412262E+01  0.77099863917E+02  0.79781603265E+02  0.10566000000E+00 0. -1.
        994    1    1    2    0    0  0.73111862376E+01 -0.58745613264E+01  0.30515480123E+01  0.17148386472E+03  0.17120000000E+03 0.  0.
        998    1    1    2    0    0  0.11943527610E+02 -0.11936798998E+01  0.14198485843E+04  0.14199345320E+04  0.10000000000E+02 0. -1.
</event>
<event>
 5    1  0.1303633E-008  0.3747313E+03  0.7957747E-01  0.3474426E+00
         13   -1    0    0    0    0  0.00000000000E+00  0.00000000000E+00  0.14999999963E+04  0.15000000000E+04  0.10566000000E+00 0.  1.
        994   -1    0    0    0    0 -0.00000000000E+00 -0.00000000000E+00  0.11368683772E-12  0.17120000000E+03  0.17120000000E+03 0.  0.
         13    1    1    2    0    0 -0.57270571197E+01 -0.44204565046E+02  0.13061312664E+03  0.13800957492E+03  0.10566000000E+00 0.  1.
        994    1    1    2    0    0  0.52614102577E+01  0.46087440599E+02  0.14173059202E+02  0.17793833265E+03  0.17120000000E+03 0.  0.
        998    1    1    2    0    0  0.46564686200E+00 -0.18828755533E+01  0.13552138104E+04  0.13552520924E+04  0.10000000000E+02 0.  1.
</event>
<event>
 5    1  0.1303633E-008  0.3764271E+03  0.7957747E-01  0.3466865E+00
         13   -1    0    0    0    0  0.00000000000E+00  0.00000000000E+00  0.14999999963E+04  0.15000000000E+04  0.10566000000E+00 0.  1.
        994   -1    0    0    0    0 -0.00000000000E+00 -0.00000000000E+00  0.11368683772E-12  0.17120000000E+03  0.17120000000E+03 0.  0.
         13    1    1    2    0    0 -0.15981836221E+02  0.50969905593E+02  0.23284264753E+03  0.23889131428E+03  0.10566000000E+00 0.  1.
        994    1    1    2    0    0 -0.14882211988E+02 -0.41030103322E+02  0.12419306026E+02  0.17711191031E+03  0.17120000000E+03 0.  0.
        998    1    1    2    0    0  0.30864048208E+02 -0.99398022710E+01  0.12547380427E+04  0.12551967754E+04  0.10000000000E+02 0.  1.
</event>
<event>
 5    1  0.1303633E-008  0.3785511E+03  0.7957747E-01  0.3457492E+00
         13   -1    0    0    0    0  0.00000000000E+00  0.00000000000E+00  0.14999999963E+04  0.15000000000E+04  0.10566000000E+00 0. -1.
        994   -1    0    0    0    0 -0.00000000000E+00 -0.00000000000E+00  0.11368683772E-12  0.17120000000E+03  0.17120000000E+03 0.  0.
         13    1    1    2    0    0 -0.65694641644E+01  0.97191217737E+01  0.12140432708E+02  0.16882548914E+02  0.10566000000E+00 0. -1.
        994    1    1    2    0    0  0.42614153630E+01 -0.92300006028E+00  0.49301787379E+01  0.17132646688E+03  0.17120000000E+03 0.  0.
        998    1    1    2    0    0  0.23080488014E+01 -0.87961217135E+01  0.14829293848E+04  0.14829909842E+04  0.10000000000E+02 0. -1.
</event>
<event>
 5    1  0.1303633E-008  0.3837088E+03  0.7957747E-01  0.3435167E+00
         13   -1    0    0    0    0  0.00000000000E+00  0.00000000000E+00  0.14999999963E+04  0.15000000000E+04  0.10566000000E+00 0.  1.
        994   -1    0    0    0    0 -0.00000000000E+00 -0.00000000000E+00  0.11368683772E-12  0.17120000000E+03  0.17120000000E+03 0.  0.
         13    1    1    2    0    0  0.21094905736E+02  0.26149533530E+01  0.93551410731E+02  0.95935971579E+02  0.10566000000E+00 0.  1.
        994    1    1    2    0    0 -0.21067796785E+02 -0.86792149021E+01  0.39890228106E+01  0.17275570363E+03  0.17120000000E+03 0.  0.
        998    1    1    2    0    0 -0.27108950733E-01  0.60642615491E+01  0.14024595627E+04  0.14025083248E+04  0.10000000000E+02 0.  1.
</event>
<event>
 5    1  0.1303633E-008  0.3900860E+03  0.7957747E-01  0.3408384E+00
         13   -1    0    0    0    0  0.00000000000E+00  0.00000000000E+00  0.14999999963E+04  0.15000000000E+04  0.10566000000E+00 0.  1.
        994   -1    0    0    0    0 -0.00000000000E+00 -0.00000000000E+00  0.11368683772E-12  0.17120000000E+03  0.17120000000E+03 0.  0.
         13    1    1    2    0    0 -0.14438732207E+03 -0.88420279645E+01  0.33690668972E+03  0.36664970881E+03  0.10566000000E+00 0.  1.
        994    1    1    2    0    0  0.14934419190E+03  0.80445279393E+01  0.11204097556E+03  0.25343839940E+03  0.17120000000E+03 0.  0.
        998    1    1    2    0    0 -0.49568698346E+01  0.79750002519E+00  0.10510523310E+04  0.10511118918E+04  0.10000000000E+02 0.  0.
</event>
<event>
 5    1  0.1303633E-008  0.3843402E+03  0.7957747E-01  0.3432476E+00
         13   -1    0    0    0    0  0.00000000000E+00  0.00000000000E+00  0.14999999963E+04  0.15000000000E+04  0.10566000000E+00 0. -1.
        994   -1    0    0    0    0 -0.00000000000E+00 -0.00000000000E+00  0.11368683772E-12  0.17120000000E+03  0.17120000000E+03 0.  0.
         13    1    1    2    0    0  0.67814098817E+01 -0.14920145517E+02  0.73026604033E+02  0.74843131434E+02  0.10566000000E+00 0. -1.
        994    1    1    2    0    0  0.22264123070E+01  0.91920198976E+00  0.19772171805E+01  0.17122835989E+03  0.17120000000E+03 0.  0.
        998    1    1    2    0    0 -0.90078221888E+01  0.14000943527E+02  0.14249961751E+04  0.14251285087E+04  0.10000000000E+02 0. -1.
</event>
<event>
 5    1  0.1303633E-008  0.3827910E+03  0.7957747E-01  0.3439095E+00
         13   -1    0    0    0    0  0.00000000000E+00  0.00000000000E+00  0.14999999963E+04  0.15000000000E+04  0.10566000000E+00 0. -1.
        994   -1    0    0    0    0 -0.00000000000E+00 -0.00000000000E+00  0.11368683772E-12  0.17120000000E+03  0.17120000000E+03 0.  0.
         13    1    1    2    0    0 -0.13477356028E+02  0.26438754281E+02  0.15333525493E+03  0.15618053150E+03  0.10566000000E+00 0. -1.
        994    1    1    2    0    0  0.16487235319E+02 -0.18051430942E+02  0.47130885187E+01  0.17300097194E+03  0.17120000000E+03 0.  0.
        998    1    1    2    0    0 -0.30098792916E+01 -0.83873233390E+01  0.13419516528E+04  0.13420184966E+04  0.10000000000E+02 0. -1.
</event>
<event>
 5    1  0.1303633E-008  0.3848955E+03  0.7957747E-01  0.3430115E+00
         13   -1    0    0    0    0  0.00000000000E+00  0.00000000000E+00  0.14999999963E+04  0.15000000000E+04  0.10566000000E+00 0. -1.
        994   -1    0    0    0    0 -0.00000000000E+00 -0.00000000000E+00  0.11368683772E-12  0.17120000000E+03  0.17120000000E+03 0.  0.
         13    1    1    2    0    0  0.20919416664E+01  0.98453890168E+01  0.29290168183E+02  0.30971487227E+02  0.10566000000E+00 0. -1.
        994    1    1    2    0    0  0.10162161834E+01 -0.11636899228E+02  0.21310230501E+01  0.17161127987E+03  0.17120000000E+03 0.  0.
        998    1    1    2    0    0 -0.31081578498E+01  0.17915102116E+01  0.14685788050E+04  0.14686172329E+04  0.10000000000E+02 0. -1.
</event>
<event>
 5    1  0.1303633E-008  0.3821164E+03  0.7957747E-01  0.3441995E+00
         13   -1    0    0    0    0  0.00000000000E+00  0.00000000000E+00  0.14999999963E+04  0.15000000000E+04  0.10566000000E+00 0. -1.
        994   -1    0    0    0    0 -0.00000000000E+00 -0.00000000000E+00  0.11368683772E-12  0.17120000000E+03  0.17120000000E+03 0.  0.
         13    1    1    2    0    0  0.27761904449E+02  0.69207144190E+01  0.11892825255E+03  0.12232154367E+03  0.10566000000E+00 0. -1.
        994    1    1    2    0    0 -0.33074806805E+02 -0.89663675607E+01  0.69768538404E+01  0.17473538589E+03  0.17120000000E+03 0.  0.
        998    1    1    2    0    0  0.53129023564E+01  0.20456531418E+01  0.13740948899E+04  0.13741430704E+04  0.10000000000E+02 0. -1.
</event>
<event>
 5    1  0.1303633E-008  0.3713166E+03  0.7957747E-01  0.3489862E+00
         13   -1    0    0    0    0  0.00000000000E+00  0.00000000000E+00  0.14999999963E+04  0.15000000000E+04  0.10566000000E+00 0. -1.
        994   -1    0    0    0    0 -0.00000000000E+00 -0.00000000000E+00  0.11368683772E-12  0.17120000000E+03  0.17120000000E+03 0.  0.
         13    1    1    2    0    0 -0.12156390789E+02 -0.79799403269E+02  0.29667309648E+03  0.30745838733E+03  0.10566000000E+00 0. -1.
        994    1    1    2    0    0  0.71334741589E+02  0.76827161758E+02  0.47420827367E+02  0.20627465431E+03  0.17120000000E+03 0.  0.
        998    1    1    2    0    0 -0.59178350800E+02  0.29722415106E+01  0.11559060724E+04  0.11574669584E+04  0.10000000000E+02 0. -1.
</event>
<event>
 5    1  0.1303633E-008  0.3736210E+03  0.7957747E-01  0.3479413E+00
         13   -1    0    0    0    0  0.00000000000E+00  0.00000000000E+00  0.14999999963E+04  0.15000000000E+04  0.10566000000E+00 0. -1.
        994   -1    0    0    0    0 -0.00000000000E+00 -0.00000000000E+00  0.11368683772E-12  0.17120000000E+03  0.17120000000E+03 0.  0.
         13    1    1    2    0    0 -0.12866199012E+02 -0.32801703056E+01  0.85342687616E+01  0.15784280205E+02  0.10566000000E+00 0. -1.
        994    1    1    2    0    0  0.12738476125E+02  0.58915984516E+00  0.79441367407E+01  0.17185797972E+03  0.17120000000E+03 0.  0.
        998    1    1    2    0    0  0.12772288717E+00  0.26910104604E+01  0.14835215908E+04  0.14835577401E+04  0.10000000000E+02 0. -1.
</event>
<event>
 5    1  0.1303633E-008  0.3693599E+03  0.7957747E-01  0.3498838E+00
         13   -1    0    0    0    0  0.00000000000E+00  0.00000000000E+00  0.14999999963E+04  0.15000000000E+04  0.10566000000E+00 0. -1.
        994   -1    0    0    0    0 -0.00000000000E+00 -0.00000000000E+00  0.11368683772E-12  0.17120000000E+03  0.17120000000E+03 0.  0.
         13    1    1    2    0    0  0.90893381364E+02  0.39526280915E+02  0.49338538847E+03  0.50324257211E+03  0.10566000000E+00 0. -1.
        994    1    1    2    0    0 -0.39249133660E+02 -0.35060552224E+02  0.20325264403E+02  0.18025618766E+03  0.17120000000E+03 0.  0.
        998    1    1    2    0    0 -0.51644247704E+02 -0.44657286908E+01  0.98628934340E+03  0.98770124024E+03  0.10000000000E+02 0. -1.
</event>
<event>
 5    1  0.1303633E-008  0.3851643E+03  0.7957747E-01  0.3428976E+00
         13   -1    0    0    0    0  0.00000000000E+00  0.00000000000E+00  0.14999999963E+04  0.15000000000E+04  0.10566000000E+00 0.  1.
        994   -1    0    0    0    0 -0.00000000000E+00 -0.00000000000E+00  0.11368683772E-12  0.17120000000E+03  0.17120000000E+03 0.  0.
         13    1    1    2    0    0 -0.92645592220E+01 -0.86702982357E+01  0.54987279033E+02  0.56432421077E+02  0.10566000000E+00 0.  1.
        994    1    1    2    0    0  0.85527410707E+00 -0.19120516825E+01  0.15630084204E+01  0.17121994753E+03  0.17120000000E+03 0.  0.
        998    1    1    2    0    0  0.84092851149E+01  0.10582349918E+02  0.14434497088E+04  0.14435476314E+04  0.10000000000E+02 0.  1.
</event>
<event>
 5    1  0.1303633E-008  0.3801041E+03  0.7957747E-01  0.3450705E+00
         13   -1    0    0    0    0  0.00000000000E+00  0.00000000000E+00  0.14999999963E+04  0.15000000000E+04  0.10566000000E+00 0.  1.
        994   -1    0    0    0    0 -0.00000000000E+00 -0.00000000000E+00  0.11368683772E-12  0.17120000000E+03  0.17120000000E+03 0.  0.
         13    1    1    2    0    0  0.12919639026E+02  0.13910211887E+02  0.40609553488E+02  0.44828094605E+02  0.10566000000E+00 0.  1.
        994    1    1    2    0    0 -0.19311712454E+02 -0.18192216121E+02  0.64364253361E+01  0.17336310604E+03  0.17120000000E+03 0.  0.
        998    1    1    2    0    0  0.63920734273E+01  0.42820042338E+01  0.14529540175E+04  0.14530087994E+04  0.10000000000E+02 0.  1.
</event>
<event>
 5    1  0.1303633E-008  0.3813117E+03  0.7957747E-01  0.3445467E+00
         13   -1    0    0    0    0  0.00000000000E+00  0.00000000000E+00  0.14999999963E+04  0.15000000000E+04  0.10566000000E+00 0. -1.
        994   -1    0    0    0    0 -0.00000000000E+00 -0.00000000000E+00  0.11368683772E-12  0.17120000000E+03  0.17120000000E+03 0.  0.
         13    1    1    2    0    0  0.27180596570E+02  0.17813864494E+01  0.10255061541E+03  0.10610654105E+03  0.10566000000E+00 0. -1.
        994    1    1    2    0    0 -0.22059914616E+02  0.75358214452E+00  0.50958105479E+01  0.17269225519E+03  0.17120000000E+03 0.  0.
        998    1    1    2    0    0 -0.51206819539E+01 -0.25349685939E+01  0.13923535703E+04  0.13924012038E+04  0.10000000000E+02 0. -1.
</event>
<event>
 5    1  0.1303633E-008  0.3730987E+03  0.7957747E-01  0.3481770E+00
         13   -1    0    0    0    0  0.00000000000E+00  0.00000000000E+00  0.14999999963E+04  0.15000000000E+04  0.10566000000E+00 0. -1.
        994   -1    0    0    0    0 -0.00000000000E+00 -0.00000000000E+00  0.11368683772E-12  0.17120000000E+03  0.17120000000E+03 0.  0.
         13    1    1    2    0    0  0.54120674017E+02 -0.52690168142E+02  0.33154177606E+03  0.34003714740E+03  0.10566000000E+00 0. -1.
        994    1    1    2    0    0 -0.15375523864E+02  0.70513379852E+02  0.25692906740E+02  0.18755828142E+03  0.17120000000E+03 0.  0.
        998    1    1    2    0    0 -0.38745150153E+02 -0.17823211711E+02  0.11427653135E+04  0.11436045712E+04  0.10000000000E+02 0. -1.
</event>
<event>
 5    1  0.1303633E-008  0.3824270E+03  0.7957747E-01  0.3440659E+00
         13   -1    0    0    0    0  0.00000000000E+00  0.00000000000E+00  0.14999999963E+04  0.15000000000E+04  0.10566000000E+00 0.  1.
        994   -1    0    0    0    0 -0.00000000000E+00 -0.00000000000E+00  0.11368683772E-12  0.17120000000E+03  0.17120000000E+03 0.  0.
         13    1    1    2    0    0 -0.11486465454E+02  0.12302493230E+02  0.46824262758E+02  0.49757541892E+02  0.10566000000E+00 0.  1.
        994    1    1    2    0    0  0.31146943401E+01 -0.18176635979E+02  0.40416848364E+01  0.17223781998E+03  0.17120000000E+03 0.  0.
        998    1    1    2    0    0  0.83717711137E+01  0.58741427482E+01  0.14491340487E+04  0.14492046381E+04  0.10000000000E+02 0.  1.
</event>
<event>
 5    1  0.1303633E-008  0.3812787E+03  0.7957747E-01  0.3445610E+00
         13   -1    0    0    0    0  0.00000000000E+00  0.00000000000E+00  0.14999999963E+04  0.15000000000E+04  0.10566000000E+00 0. -1.
        994   -1    0    0    0    0 -0.00000000000E+00 -0.00000000000E+00  0.11368683772E-12  0.17120000000E+03  0.17120000000E+03 0.  0.
         13    1    1    2    0    0 -0.13523364045E+03 -0.84152450811E+02  0.86234549999E+03  0.87693189303E+03  0.10566000000E+00 0. -1.
        994    1    1    2    0    0  0.13943181752E+03  0.11879817851E+03  0.12468920268E+03  0.28001977826E+03  0.17120000000E+03 0.  0.
        998    1    1    2    0    0 -0.41981770683E+01 -0.34645727696E+02  0.51296529361E+03  0.51424832871E+03  0.10000000000E+02 0.  1.
</event>
<event>
 5    1  0.1303633E-008  0.3842606E+03  0.7957747E-01  0.3432814E+00
         13   -1    0    0    0    0  0.00000000000E+00  0.00000000000E+00  0.14999999963E+04  0.15000000000E+04  0.10566000000E+00 0. -1.
        994   -1    0    0    0    0 -0.00000000000E+00 -0.00000000000E+00  0.11368683772E-12  0.17120000000E+03  0.17120000000E+03 0.  0.
         13    1    1    2    0    0  0.81545458370E+01 -0.71815184960E+01  0.28828738328E+02  0.30808734854E+02  0.10566000000E+00 0. -1.
        994    1    1    2    0    0 -0.93831238721E+01  0.33515296571E+01  0.23249955115E+01  0.17150545580E+03  0.17120000000E+03 0.  0.
        998    1    1    2    0    0  0.12285780351E+01  0.38299888388E+01  0.14688462624E+04  0.14688858093E+04  0.10000000000E+02 0. -1.
</event>
<event>
 5    1  0.1303633E-008  0.3692245E+03  0.7957747E-01  0.3499463E+00
         13   -1    0    0    0    0  0.00000000000E+00  0.00000000000E+00  0.14999999963E+04  0.15000000000E+04  0.10566000000E+00 0. -1.
        994   -1    0    0    0    0 -0.00000000000E+00 -0.00000000000E+00  0.11368683772E-12  0.17120000000E+03  0.17120000000E+03 0.  0.
         13    1    1    2    0    0  0.23372025734E+02  0.35605748376E+02  0.87344747193E+02  0.97175804244E+02  0.10566000000E+00 0. -1.
        994    1    1    2    0    0 -0.19975490080E+02 -0.30690688076E+02  0.14338228818E+02  0.17565865576E+03  0.17120000000E+03 0.  0.
        998    1    1    2    0    0 -0.33965356536E+01 -0.49150603005E+01  0.13983170203E+04  0.13983655400E+04  0.10000000000E+02 0. -1.
</event>
<event>
 5    1  0.1303633E-008  0.3801448E+03  0.7957747E-01  0.3450528E+00
         13   -1    0    0    0    0  0.00000000000E+00  0.00000000000E+00  0.14999999963E+04  0.15000000000E+04  0.10566000000E+00 0.  1.
        994   -1    0    0    0    0 -0.00000000000E+00 -0.00000000000E+00  0.11368683772E-12  0.17120000000E+03  0.17120000000E+03 0.  0.
         13    1    1    2    0    0  0.51713847882E+01  0.43367009914E+02  0.22680644113E+03  0.23097318821E+03  0.10566000000E+00 0.  1.
        994    1    1    2    0    0 -0.27433363070E+02 -0.26603328435E+02  0.89549535690E+01  0.17564156025E+03  0.17120000000E+03 0.  0.
        998    1    1    2    0    0  0.22261978281E+02 -0.16763681479E+02  0.12642386016E+04  0.12645852515E+04  0.10000000000E+02 0.  1.
</event>
<event>
 5    1  0.1303633E-008  0.3810348E+03  0.7957747E-01  0.3446665E+00
         13   -1    0    0    0    0  0.00000000000E+00  0.00000000000E+00  0.14999999963E+04  0.15000000000E+04  0.10566000000E+00 0. -1.
        994   -1    0    0    0    0 -0.00000000000E+00 -0.00000000000E+00  0.11368683772E-12  0.17120000000E+03  0.17120000000E+03 0.  0.
         13    1    1    2    0    0 -0.13612602222E+02  0.28417321489E+01  0.21078560806E+02  0.25252628983E+02  0.10566000000E+00 0. -1.
        994    1    1    2    0    0  0.75273997974E+02  0.80985387622E+01  0.22948978563E+02  0.18859442388E+03  0.17120000000E+03 0.  0.
        998    1    1    2    0    0 -0.61661395752E+02 -0.10940270911E+02  0.14559724569E+04  0.14573529471E+04  0.10000000000E+02 0. -1.
</event>
<event>
 5    1  0.1303633E-008  0.3784667E+03  0.7957747E-01  0.3457862E+00
         13   -1    0    0    0    0  0.00000000000E+00  0.00000000000E+00  0.14999999963E+04  0.15000000000E+04  0.10566000000E+00 0. -1.
        994   -1    0    0    0    0 -0.00000000000E+00 -0.00000000000E+00  0.11368683772E-12  0.17120000000E+03  0.17120000000E+03 0.  0.
         13    1    1    2    0    0 -0.20992892364E+02  0.17567695240E+02  0.75156589152E+02  0.79986558263E+02  0.10566000000E+00 0. -1.
        994    1    1    2    0    0  0.24101471176E+02  0.49509844612E+01  0.69459031229E+01  0.17309846542E+03  0.17120000000E+03 0.  0.
        998    1    1    2    0    0 -0.31085788118E+01 -0.22518679701E+02  0.14178975040E+04  0.14181149763E+04  0.10000000000E+02 0. -1.
</event>
<event>
 5    1  0.1647366E-008  0.3822668E+03  0.7957747E-01  0.3441347E+00
         13   -1    0    0    0    0  0.00000000000E+00  0.00000000000E+00  0.14999999963E+04  0.15000000000E+04  0.10566000000E+00 0.  1.
        994   -1    0    0    0    0 -0.00000000000E+00 -0.00000000000E+00  0.11368683772E-12  0.17120000000E+03  0.17120000000E+03 0.  0.
         13    1    1    2    0    0  0.10202338026E+02  0.53248310109E+01  0.21164762688E+02  0.24091489580E+02  0.10566000000E+00 0.  1.
        994    1    1    2    0    0 -0.53593379469E+01 -0.36476308549E+00  0.30889910223E+01  0.17131210530E+03  0.17120000000E+03 0.  0.
        998    1    1    2    0    0 -0.48430000794E+01 -0.49600679254E+01  0.14757462426E+04  0.14757964051E+04  0.10000000000E+02 0.  1.
</event>
<event>
 5    1  0.1303633E-008  0.3739395E+03  0.7957747E-01  0.3477979E+00
         13   -1    0    0    0    0  0.00000000000E+00  0.00000000000E+00  0.14999999963E+04  0.15000000000E+04  0.10566000000E+00 0.  1.
        994   -1    0    0    0    0 -0.00000000000E+00 -0.00000000000E+00  0.11368683772E-12  0.17120000000E+03  0.17120000000E+03 0.  0.
         13    1    1    2    0    0 -0.23088459434E+02 -0.30408221430E+02  0.92628189814E+02  0.10018847040E+03  0.10566000000E+00 0.  1.
        994    1    1    2    0    0  0.29617013747E+02  0.26080838175E+02  0.12555743097E+02  0.17613762888E+03  0.17120000000E+03 0.  0.
        998    1    1    2    0    0 -0.65285543129E+01  0.43273832552E+01  0.13948160634E+04  0.13948739007E+04  0.10000000000E+02 0.  1.
</event>
<event>
 5    1  0.1303633E-008  0.3847651E+03  0.7957747E-01  0.3430669E+00
         13   -1    0    0    0    0  0.00000000000E+00  0.00000000000E+00  0.14999999963E+04  0.15000000000E+04  0.10566000000E+00 0.  1.
        994   -1    0    0    0    0 -0.00000000000E+00 -0.00000000000E+00  0.11368683772E-12  0.17120000000E+03  0.17120000000E+03 0.  0.
         13    1    1    2    0    0 -0.10065875007E+02  0.32047656937E+01  0.30853010129E+02  0.32611528037E+02  0.10566000000E+00 0.  1.
        994    1    1    2    0    0  0.10855742657E+02 -0.86588751971E+01  0.23816959149E+01  0.17177874066E+03  0.17120000000E+03 0.  0.
        998    1    1    2    0    0 -0.78986764978E+00  0.54541095034E+01  0.14667652902E+04  0.14668097313E+04  0.10000000000E+02 0.  1.
</event>
<event>
 5    1  0.1303633E-008  0.3788853E+03  0.7957747E-01  0.3456026E+00
         13   -1    0    0    0    0  0.00000000000E+00  0.00000000000E+00  0.14999999963E+04  0.15000000000E+04  0.10566000000E+00 0. -1.
        994   -1    0    0    0    0 -0.00000000000E+00 -0.00000000000E+00  0.11368683772E-12  0.17120000000E+03  0.17120000000E+03 0.  0.
         13    1    1    2    0    0 -0.78510743460E+01  0.13235707038E+02  0.35550053636E+00  0.15393532858E+02  0.10566000000E+00 0. -1.
        994    1    1    2    0    0  0.74940735580E+01 -0.12166655354E+02  0.16453596052E+02  0.17258142850E+03  0.17120000000E+03 0.  0.
        998    1    1    2    0    0  0.35700078798E+00 -0.10690516843E+01  0.14831908997E+04  0.14832250386E+04  0.10000000000E+02 0. -1.
</event>
<event>
 5    1  0.1303633E-008  0.3804734E+03  0.7957747E-01  0.3449100E+00
         13   -1    0    0    0    0  0.00000000000E+00  0.00000000000E+00  0.14999999963E+04  0.15000000000E+04  0.10566000000E+00 0. -1.
        994   -1    0    0    0    0 -0.00000000000E+00 -0.00000000000E+00  0.11368683772E-12  0.17120000000E+03  0.17120000000E+03 0.  0.
         13    1    1    2    0    0  0.35615934111E+01 -0.94188954833E+01  0.11323787403E+02  0.15153872935E+02  0.10566000000E+00 0. -1.
        994    1    1    2    0    0 -0.10210331559E+01  0.71087663531E+01  0.40665465949E+01  0.17139881525E+03  0.17120000000E+03 0.  0.
        998    1    1    2    0    0 -0.25405602552E+01  0.23101291302E+01  0.14846096623E+04  0.14846473118E+04  0.10000000000E+02 0. -1.
</event>
<event>
 5    1  0.1303633E-008  0.3754581E+03  0.7957747E-01  0.3471177E+00
         13   -1    0    0    0    0  0.00000000000E+00  0.00000000000E+00  0.14999999963E+04  0.15000000000E+04  0.10566000000E+00 0.  1.
        994   -1    0    0    0    0 -0.00000000000E+00 -0.00000000000E+00  0.11368683772E-12  0.17120000000E+03  0.17120000000E+03 0.  0.
         13    1    1    2    0    0  0.26764241788E+02  0.75480507779E+01  0.56360386915E+02  0.62847450913E+02  0.10566000000E+00 0.  1.
        994    1    1    2    0    0 -0.19178110539E+02 -0.21162896698E+02  0.92170030148E+01  0.17381041760E+03  0.17120000000E+03 0.  0.
        998    1    1    2    0    0 -0.75861312485E+01  0.13614845920E+02  0.14344226063E+04  0.14345421315E+04  0.10000000000E+02 0.  1.
</event>
<event>
 5    1  0.1303633E-008  0.3853540E+03  0.7957747E-01  0.3428172E+00
         13   -1    0    0    0    0  0.00000000000E+00  0.00000000000E+00  0.14999999963E+04  0.15000000000E+04  0.10566000000E+00 0. -1.
        994   -1    0    0    0    0 -0.00000000000E+00 -0.00000000000E+00  0.11368683772E-12  0.17120000000E+03  0.17120000000E+03 0.  0.
         13    1    1    2    0    0 -0.10943506775E+02  0.28250682846E+01  0.42805582071E+02  0.44272682004E+02  0.10566000000E+00 0. -1.
        994    1    1    2    0    0  0.12601747623E+02 -0.17432729300E+01  0.19863145948E+01  0.17168351257E+03  0.17120000000E+03 0.  0.
        998    1    1    2    0    0 -0.16582408482E+01 -0.10817953546E+01  0.14552080996E+04  0.14552438054E+04  0.10000000000E+02 0. -1.
</event>
<event>
 5    1  0.1303633E-008  0.3799532E+03  0.7957747E-01  0.3451362E+00
         13   -1    0    0    0    0  0.00000000000E+00  0.00000000000E+00  0.14999999963E+04  0.15000000000E+04  0.10566000000E+00 0. -1.
        994   -1    0    0    0    0 -0.00000000000E+00 -0.00000000000E+00  0.11368683772E-12  0.17120000000E+03  0.17120000000E+03 0.  0.
         13    1    1    2    0    0  0.65348494651E+01  0.22366547925E+02  0.62467649037E+02  0.66672221081E+02  0.10566000000E+00 0. -1.
        994    1    1    2    0    0 -0.88230147526E+01 -0.18253628538E+02  0.55322506802E+01  0.17248503223E+03  0.17120000000E+03 0.  0.
        998    1    1    2    0    0  0.22881652875E+01 -0.41129193877E+01  0.14320000966E+04  0.14320427467E+04  0.10000000000E+02 0. -1.
</event>
<event>
 5    1  0.1303633E-008  0.3805038E+03  0.7957747E-01  0.3448968E+00
         13   -1    0    0    0    0  0.00000000000E+00  0.00000000000E+00  0.14999999963E+04  0.15000000000E+04  0.10566000000E+00 0. -1.
        994   -1    0    0    0    0 -0.00000000000E+00 -0.00000000000E+00  0.11368683772E-12  0.17120000000E+03  0.17120000000E+03 0.  0.
         13    1    1    2    0    0  0.51354616833E+02 -0.19286099443E+02  0.32819201609E+03  0.33274503887E+03  0.10566000000E+00 0. -1.
        994    1    1    2    0    0 -0.40294936172E+02  0.29626243496E+02  0.12272645337E+02  0.17877766641E+03  0.17120000000E+03 0.  0.
        998    1    1    2    0    0 -0.11059680661E+02 -0.10340144053E+02  0.11595353349E+04  0.11596772947E+04  0.10000000000E+02 0. -1.
</event>
<event>
 5    1  0.1303633E-008  0.3814547E+03  0.7957747E-01  0.3444849E+00
         13   -1    0    0    0    0  0.00000000000E+00  0.00000000000E+00  0.14999999963E+04  0.15000000000E+04  0.10566000000E+00 0. -1.
        994   -1    0    0    0    0 -0.00000000000E+00 -0.00000000000E+00  0.11368683772E-12  0.17120000000E+03  0.17120000000E+03 0.  0.
         13    1    1    2    0    0  0.25237627302E+02  0.14861084487E+02  0.14610116001E+03  0.14900788498E+03  0.10566000000E+00 0. -1.
        994    1    1    2    0    0  0.84976650423E+01 -0.51071010455E+01  0.37276902382E+01  0.17152734029E+03  0.17120000000E+03 0.  0.
        998    1    1    2    0    0 -0.33735292344E+02 -0.97539834413E+01  0.13501711460E+04  0.13506647747E+04  0.10000000000E+02 0. -1.
</event>
<event>
 5    1  0.1303633E-008  0.3845664E+03  0.7957747E-01  0.3431513E+00
         13   -1    0    0    0    0  0.00000000000E+00  0.00000000000E+00  0.14999999963E+04  0.15000000000E+04  0.10566000000E+00 0. -1.
        994   -1    0    0    0    0 -0.00000000000E+00 -0.00000000000E+00  0.11368683772E-12  0.17120000000E+03  0.17120000000E+03 0.  0.
         13    1    1    2    0    0 -0.10158571749E+02 -0.15929769548E+00  0.27345007555E+02  0.29171605337E+02  0.10566000000E+00 0. -1.
        994    1    1    2    0    0  0.87178648029E+01  0.30711871993E+00  0.20962211827E+01  0.17143491369E+03  0.17120000000E+03 0.  0.
        998    1    1    2    0    0  0.14407069465E+01 -0.14782102446E+00  0.14705587675E+04  0.14705934810E+04  0.10000000000E+02 0. -1.
</event>
<event>
 5    1  0.1303633E-008  0.3787682E+03  0.7957747E-01  0.3456540E+00
         13   -1    0    0    0    0  0.00000000000E+00  0.00000000000E+00  0.14999999963E+04  0.15000000000E+04  0.10566000000E+00 0. -1.
        994   -1    0    0    0    0 -0.00000000000E+00 -0.00000000000E+00  0.11368683772E-12  0.17120000000E+03  0.17120000000E+03 0.  0.
         13    1    1    2    0    0 -0.48638020795E+02  0.12099839029E+02  0.23324252616E+03  0.23856686766E+03  0.10566000000E+00 0. -1.
        994    1    1    2    0    0  0.48371538353E+02  0.75996151049E+01  0.12846358974E+02  0.17852738953E+03  0.17120000000E+03 0.  0.
        998    1    1    2    0    0  0.26648244222E+00 -0.19699454134E+02  0.12539111111E+04  0.12541057428E+04  0.10000000000E+02 0. -1.
</event>
<event>
 5    1  0.1303633E-008  0.3770350E+03  0.7957747E-01  0.3464171E+00
         13   -1    0    0    0    0  0.00000000000E+00  0.00000000000E+00  0.14999999963E+04  0.15000000000E+04  0.10566000000E+00 0. -1.
        994   -1    0    0    0    0 -0.00000000000E+00 -0.00000000000E+00  0.11368683772E-12  0.17120000000E+03  0.17120000000E+03 0.  0.
         13    1    1    2    0    0  0.29605025834E+02  0.52443027839E+01  0.76913220855E+02  0.82580960110E+02  0.10566000000E+00 0. -1.
        994    1    1    2    0    0 -0.24312354445E+02  0.70936291333E+01  0.78058223460E+01  0.17323908628E+03  0.17120000000E+03 0.  0.
        998    1    1    2    0    0 -0.52926713893E+01 -0.12337931917E+02  0.14152809531E+04  0.14153799536E+04  0.10000000000E+02 0. -1.
</event>
<event>
 5    1  0.1303633E-008  0.3739821E+03  0.7957747E-01  0.3477788E+00
         13   -1    0    0    0    0  0.00000000000E+00  0.00000000000E+00  0.14999999963E+04  0.15000000000E+04  0.10566000000E+00 0. -1.
        994   -1    0    0    0    0 -0.00000000000E+00 -0.00000000000E+00  0.11368683772E-12  0.17120000000E+03  0.17120000000E+03 0.  0.
         13    1    1    2    0    0  0.10702843116E+03 -0.12695379612E+02  0.34395840859E+03  0.36044924156E+03  0.10566000000E+00 0. -1.
        994    1    1    2    0    0 -0.10342801758E+03  0.54314770299E+01  0.52137876154E+02  0.20677198527E+03  0.17120000000E+03 0.  0.
        998    1    1    2    0    0 -0.36004135765E+01  0.72639025821E+01  0.11039037115E+04  0.11039787732E+04  0.10000000000E+02 0. -1.
</event>
<event>
 5    1  0.1303633E-008  0.3842763E+03  0.7957747E-01  0.3432747E+00
         13   -1    0    0    0    0  0.00000000000E+00  0.00000000000E+00  0.14999999963E+04  0.15000000000E+04  0.10566000000E+00 0. -1.
        994   -1    0    0    0    0 -0.00000000000E+00 -0.00000000000E+00  0.11368683772E-12  0.17120000000E+03  0.17120000000E+03 0.  0.
         13    1    1    2    0    0 -0.88796264451E+01  0.12842985359E+02  0.58555973296E+02  0.60602006662E+02  0.10566000000E+00 0. -1.
        994    1    1    2    0    0  0.81236864400E+01 -0.15691337691E+02  0.30197168389E+01  0.17213590866E+03  0.17120000000E+03 0.  0.
        998    1    1    2    0    0  0.75594000512E+00  0.28483523320E+01  0.14384243061E+04  0.14384620847E+04  0.10000000000E+02 0. -1.
</event>
<event>
 5    1  0.1303633E-008  0.3837230E+03  0.7957747E-01  0.3435106E+00
         13   -1    0    0    0    0  0.00000000000E+00  0.00000000000E+00  0.14999999963E+04  0.15000000000E+04  0.10566000000E+00 0.  1.
        994   -1    0    0    0    0 -0.00000000000E+00 -0.00000000000E+00  0.11368683772E-12  0.17120000000E+03  0.17120000000E+03 0.  0.
         13    1    1    2    0    0  0.16147195711E+02 -0.26929754271E+02  0.17071339398E+03  0.17357712304E+03  0.10566000000E+00 0.  1.
        994    1    1    2    0    0 -0.33576416052E+02  0.34501730570E+02  0.99573418354E+01  0.17811887543E+03  0.17120000000E+03 0.  0.
        998    1    1    2    0    0  0.17429220341E+02 -0.75719762996E+01  0.13193292605E+04  0.13195040015E+04  0.10000000000E+02 0.  1.
</event>
<event>
 5    1  0.1303633E-008  0.3772363E+03  0.7957747E-01  0.3463281E+00
         13   -1    0    0    0    0  0.00000000000E+00  0.00000000000E+00  0.14999999963E+04  0.15000000000E+04  0.10566000000E+00 0. -1.
        994   -1    0    0    0    0 -0.00000000000E+00 -0.00000000000E+00  0.11368683772E-12  0.17120000000E+03  0.17120000000E+03 0.  0.
         13    1    1    2    0    0 -0.10298249521E+02  0.42313764920E+02  0.12689160762E+03  0.13415662448E+03  0.10566000000E+00 0. -1.
        994    1    1    2    0    0  0.28834010740E+02 -0.79064119859E+02  0.29815377438E+02  0.19308270755E+03  0.17120000000E+03 0.  0.
        998    1    1    2    0    0 -0.18535761220E+02  0.36750354939E+02  0.13432930112E+04  0.13439606680E+04  0.10000000000E+02 0. -1.
</event>
<event>
 5    1  0.1303633E-008  0.3741264E+03  0.7957747E-01  0.3477139E+00
         13   -1    0    0    0    0  0.00000000000E+00  0.00000000000E+00  0.14999999963E+04  0.15000000000E+04  0.10566000000E+00 0.  1.
        994   -1    0    0    0    0 -0.00000000000E+00 -0.00000000000E+00  0.11368683772E-12  0.17120000000E+03  0.17120000000E+03 0.  0.
         13    1    1    2    0    0  0.35573317806E+02  0.60190932539E+02  0.26854973194E+03  0.27750203421E+03  0.10566000000E+00 0.  1.
        994    1    1    2    0    0  0.41993910611E+02 -0.12693446713E+03  0.70750649640E+02  0.22845336920E+03  0.17120000000E+03 0.  0.
        998    1    1    2    0    0 -0.77567228417E+02  0.66743534589E+02  0.11606996147E+04  0.11652445966E+04  0.10000000000E+02 0. -1.
</event>
<event>
 5    1  0.1303633E-008  0.3687401E+03  0.7957747E-01  0.3501701E+00
         13   -1    0    0    0    0  0.00000000000E+00  0.00000000000E+00  0.14999999963E+04  0.15000000000E+04  0.10566000000E+00 0.  1.
        994   -1    0    0    0    0 -0.00000000000E+00 -0.00000000000E+00  0.11368683772E-12  0.17120000000E+03  0.17120000000E+03 0.  0.
         13    1    1    2    0    0  0.68832497233E+02  0.74058691995E+01  0.23395062229E+03  0.24397881958E+03  0.10566000000E+00 0.  1.
        994    1    1    2    0    0 -0.36922121722E+02 -0.77264636818E+01  0.15243171216E+02  0.17596799590E+03  0.17120000000E+03 0.  0.
        998    1    1    2    0    0 -0.31910375511E+02  0.32059448222E+00  0.12508062028E+04  0.12512531845E+04  0.10000000000E+02 0.  1.
</event>
<event>
 5    1  0.1303633E-008  0.3787403E+03  0.7957747E-01  0.3456662E+00
         13   -1    0    0    0    0  0.00000000000E+00  0.00000000000E+00  0.14999999963E+04  0.15000000000E+04  0.10566000000E+00 0. -1.
        994   -1    0    0    0    0 -0.00000000000E+00 -0.00000000000E+00  0.11368683772E-12  0.17120000000E+03  0.17120000000E+03 0.  0.
         13    1    1    2    0    0  0.44698292781E+02 -0.58450736206E+02  0.42748633764E+03  0.43377298898E+03  0.10566000000E+00 0. -1.
        994    1    1    2    0    0 -0.25292789711E+02  0.68560500309E+02  0.22911352707E+02  0.18754902692E+03  0.17120000000E+03 0.  0.
        998    1    1    2    0    0 -0.19405503070E+02 -0.10109764103E+02  0.10496023059E+04  0.10498779841E+04  0.10000000000E+02 0. -1.
</event>
<event>
 5    1  0.1303633E-008  0.3738960E+03  0.7957747E-01  0.3478175E+00
         13   -1    0    0    0    0  0.00000000000E+00  0.00000000000E+00  0.14999999963E+04  0.15000000000E+04  0.10566000000E+00 0. -1.
        994   -1    0    0    0    0 -0.00000000000E+00 -0.00000000000E+00  0.11368683772E-12  0.17120000000E+03  0.17120000000E+03 0.  0.
         13    1    1    2    0    0  0.11164788099E+02  0.56205903782E+02  0.23781225938E+03  0.24461896490E+03  0.10566000000E+00 0. -1.
        994    1    1    2    0    0 -0.12953615063E+02 -0.21840537638E+02  0.94498861008E+01  0.17333074042E+03  0.17120000000E+03 0.  0.
        998    1    1    2    0    0  0.17888269647E+01 -0.34365366145E+02  0.12527378508E+04  0.12532502947E+04  0.10000000000E+02 0. -1.
</event>
<event>
 5    1  0.1303633E-008  0.3840576E+03  0.7957747E-01  0.3433679E+00
         13   -1    0    0    0    0  0.00000000000E+00  0.00000000000E+00  0.14999999963E+04  0.15000000000E+04  0.10566000000E+00 0.  1.
        994   -1    0    0    0    0 -0.00000000000E+00 -0.00000000000E+00  0.11368683772E-12  0.17120000000E+03  0.17120000000E+03 0.  0.
         13    1    1    2    0    0 -0.72551342382E+01  0.13366223197E+02  0.55605298302E+02  0.57647664816E+02  0.10566000000E+00 0.  1.
        994    1    1    2    0    0  0.70405833660E+01 -0.39386102743E+01  0.23134507616E+01  0.17140558485E+03  0.17120000000E+03 0.  0.
        998    1    1    2    0    0  0.21455087222E+00 -0.94276129225E+01  0.14420812472E+04  0.14421467503E+04  0.10000000000E+02 0.  1.
</event>
<event>
 5    1  0.2360487E-008  0.3855775E+03  0.7957747E-01  0.3427227E+00
         13   -1    0    0    0    0  0.00000000000E+00  0.00000000000E+00  0.14999999963E+04  0.15000000000E+04  0.10566000000E+00 0. -1.
        994   -1    0    0    0    0 -0.00000000000E+00 -0.00000000000E+00  0.11368683772E-12  0.17120000000E+03  0.17120000000E+03 0.  0.
         13    1    1    2    0    0  0.23401909374E+01  0.13838947674E+02  0.75567893485E+02  0.76860332136E+02  0.10566000000E+00 0. -1.
        994    1    1    2    0    0 -0.36405927844E+01 -0.54506639410E+01  0.14847562330E+01  0.17133186555E+03  0.17120000000E+03 0.  0.
        998    1    1    2    0    0  0.13004018470E+01 -0.83882837328E+01  0.14229473466E+04  0.14230078023E+04  0.10000000000E+02 0. -1.
</event>
<event>
 5    1  0.1303633E-008  0.3860024E+03  0.7957747E-01  0.3425432E+00
         13   -1    0    0    0    0  0.00000000000E+00  0.00000000000E+00  0.14999999963E+04  0.15000000000E+04  0.10566000000E+00 0. -1.
        994   -1    0    0    0    0 -0.00000000000E+00 -0.00000000000E+00  0.11368683772E-12  0.17120000000E+03  0.17120000000E+03 0.  0.
         13    1    1    2    0    0 -0.99556437491E+01  0.99717597606E+01  0.84635269146E+02  0.85800295936E+02  0.10566000000E+00 0. -1.
        994    1    1    2    0    0  0.14037028330E+02 -0.65934559131E+01  0.19220663059E+01  0.17191173946E+03  0.17120000000E+03 0.  0.
        998    1    1    2    0    0 -0.40813845812E+01 -0.33783038475E+01  0.14134426608E+04  0.14134879646E+04  0.10000000000E+02 0. -1.
</event>
<event>
 5    1  0.1303633E-008  0.3807505E+03  0.7957747E-01  0.3447897E+00
         13   -1    0    0    0    0  0.00000000000E+00  0.00000000000E+00  0.14999999963E+04  0.15000000000E+04  0.10566000000E+00 0.  1.
        994   -1    0    0    0    0 -0.00000000000E+00 -0.00000000000E+00  0.11368683772E-12  0.17120000000E+03  0.17120000000E+03 0.  0.
         13    1    1    2    0    0  0.85720389037E+02 -0.20124375985E+03  0.92705934361E+03  0.95251565537E+03  0.10566000000E+00 0.  1.
        994    1    1    2    0    0 -0.95734021403E+02  0.21696219211E+03  0.22221996142E+03  0.36732648545E+03  0.17120000000E+03 0.  0.
        998    1    1    2    0    0  0.10013632366E+02 -0.15718432261E+02  0.35072069124E+03  0.35135785919E+03  0.10000000000E+02 0.  1.
</event>
<event>
 5    1  0.1303633E-008  0.3746257E+03  0.7957747E-01  0.3474899E+00
         13   -1    0    0    0    0  0.00000000000E+00  0.00000000000E+00  0.14999999963E+04  0.15000000000E+04  0.10566000000E+00 0.  1.
        994   -1    0    0    0    0 -0.00000000000E+00 -0.00000000000E+00  0.11368683772E-12  0.17120000000E+03  0.17120000000E+03 0.  0.
         13    1    1    2    0    0 -0.73476105369E+02  0.27375045664E+02  0.24480971400E+03  0.25706018442E+03  0.10566000000E+00 0.  1.
        994    1    1    2    0    0  0.28205195054E+02 -0.11464220981E+02  0.16707003057E+02  0.17468693524E+03  0.17120000000E+03 0.  0.
        998    1    1    2    0    0  0.45270910315E+02 -0.15910824683E+02  0.12384832792E+04  0.12394528803E+04  0.10000000000E+02 0.  1.
</event>
<event>
 5    1  0.1303633E-008  0.3851984E+03  0.7957747E-01  0.3428831E+00
         13   -1    0    0    0    0  0.00000000000E+00  0.00000000000E+00  0.14999999963E+04  0.15000000000E+04  0.10566000000E+00 0. -1.
        994   -1    0    0    0    0 -0.00000000000E+00 -0.00000000000E+00  0.11368683772E-12  0.17120000000E+03  0.17120000000E+03 0.  0.
         13    1    1    2    0    0  0.38415339245E+01 -0.10077077003E+02  0.41148480964E+02  0.42538376949E+02  0.10566000000E+00 0. -1.
        994    1    1    2    0    0 -0.16823636167E+01 -0.93329269283E+01  0.18272787020E+01  0.17147219256E+03  0.17120000000E+03 0.  0.
        998    1    1    2    0    0 -0.21591703078E+01  0.19410003932E+02  0.14570242366E+04  0.14571894305E+04  0.10000000000E+02 0. -1.
</event>
<event>
 5    1  0.1303633E-008  0.3849350E+03  0.7957747E-01  0.3429948E+00
         13   -1    0    0    0    0  0.00000000000E+00  0.00000000000E+00  0.14999999963E+04  0.15000000000E+04  0.10566000000E+00 0. -1.
        994   -1    0    0    0    0 -0.00000000000E+00 -0.00000000000E+00  0.11368683772E-12  0.17120000000E+03  0.17120000000E+03 0.  0.
         13    1    1    2    0    0  0.12076868549E+02 -0.89123405924E+01  0.71023552917E+02  0.72592264063E+02  0.10566000000E+00 0. -1.
        994    1    1    2    0    0 -0.23227730341E+01  0.14001949761E+01  0.16866235621E+01  0.17122978865E+03  0.17120000000E+03 0.  0.
        998    1    1    2    0    0 -0.97540955151E+01  0.75121456162E+01  0.14272898198E+04  0.14273779473E+04  0.10000000000E+02 0. -1.
</event>
<event>
 5    1  0.1303633E-008  0.3780059E+03  0.7957747E-01  0.3459887E+00
         13   -1    0    0    0    0  0.00000000000E+00  0.00000000000E+00  0.14999999963E+04  0.15000000000E+04  0.10566000000E+00 0. -1.
        994   -1    0    0    0    0 -0.00000000000E+00 -0.00000000000E+00  0.11368683772E-12  0.17120000000E+03  0.17120000000E+03 0.  0.
         13    1    1    2    0    0 -0.20232324181E+02 -0.23945078581E+02  0.90855272645E+02  0.96111422117E+02  0.10566000000E+00 0. -1.
        994    1    1    2    0    0  0.22380969504E+02  0.15325854322E+02  0.76231160551E+01  0.17350314552E+03  0.17120000000E+03 0.  0.
        998    1    1    2    0    0 -0.21486453228E+01  0.86192242581E+01  0.14015216076E+04  0.14015854324E+04  0.10000000000E+02 0. -1.
</event>
<event>
 5    1  0.1303633E-008  0.3827953E+03  0.7957747E-01  0.3439077E+00
         13   -1    0    0    0    0  0.00000000000E+00  0.00000000000E+00  0.14999999963E+04  0.15000000000E+04  0.10566000000E+00 0. -1.
        994   -1    0    0    0    0 -0.00000000000E+00 -0.00000000000E+00  0.11368683772E-12  0.17120000000E+03  0.17120000000E+03 0.  0.
         13    1    1    2    0    0  0.71001283658E+02 -0.17672164286E+03  0.10316586638E+04  0.10490907163E+04  0.10566000000E+00 0. -1.
        994    1    1    2    0    0 -0.66626641476E+02  0.18983552978E+03  0.15094354456E+03  0.30425323559E+03  0.17120000000E+03 0.  0.
        998    1    1    2    0    0 -0.43746421821E+01 -0.13113886919E+02  0.31739778796E+03  0.31785604812E+03  0.10000000000E+02 0. -1.
</event>
<event>
 5    1  0.1303633E-008  0.3854223E+03  0.7957747E-01  0.3427883E+00
         13   -1    0    0    0    0  0.00000000000E+00  0.00000000000E+00  0.14999999963E+04  0.15000000000E+04  0.10566000000E+00 0.  1.
        994   -1    0    0    0    0 -0.00000000000E+00 -0.00000000000E+00  0.11368683772E-12  0.17120000000E+03  0.17120000000E+03 0.  0.
         13    1    1    2    0    0  0.15355631776E+02 -0.16547938059E+01  0.86268459273E+02  0.87640127790E+02  0.10566000000E+00 0.  1.
        994    1    1    2    0    0 -0.75115515439E+01 -0.31595537443E+01  0.16387328642E+01  0.17140166753E+03  0.17120000000E+03 0.  0.
        998    1    1    2    0    0 -0.78440802318E+01  0.48143475501E+01  0.14120928041E+04  0.14121582047E+04  0.10000000000E+02 0.  1.
</event>
<event>
 5    1  0.1303633E-008  0.3835710E+03  0.7957747E-01  0.3435755E+00
         13   -1    0    0    0    0  0.00000000000E+00  0.00000000000E+00  0.14999999963E+04  0.15000000000E+04  0.10566000000E+00 0.  1.
        994   -1    0    0    0    0 -0.00000000000E+00 -0.00000000000E+00  0.11368683772E-12  0.17120000000E+03  0.17120000000E+03 0.  0.
         13    1    1    2    0    0  0.16880081985E+02  0.53766595110E+01  0.66344217265E+02  0.68668857307E+02  0.10566000000E+00 0.  1.
        994    1    1    2    0    0 -0.11115565780E+02 -0.38239386303E+01  0.27979255661E+01  0.17162589169E+03  0.17120000000E+03 0.  0.
        998    1    1    2    0    0 -0.57645162048E+01 -0.15527208807E+01  0.14308578534E+04  0.14309052510E+04  0.10000000000E+02 0.  1.
</event>
<event>
 5    1  0.1303633E-008  0.3812776E+03  0.7957747E-01  0.3445614E+00
         13   -1    0    0    0    0  0.00000000000E+00  0.00000000000E+00  0.14999999963E+04  0.15000000000E+04  0.10566000000E+00 0.  1.
        994   -1    0    0    0    0 -0.00000000000E+00 -0.00000000000E+00  0.11368683772E-12  0.17120000000E+03  0.17120000000E+03 0.  0.
         13    1    1    2    0    0 -0.15640391580E+02  0.13144741175E+02  0.56813617807E+02  0.60375528169E+02  0.10566000000E+00 0.  1.
        994    1    1    2    0    0  0.13492125132E+02 -0.15724081857E+02  0.49199489141E+01  0.17251936149E+03  0.17120000000E+03 0.  0.
        998    1    1    2    0    0  0.21482664476E+01  0.25793406819E+01  0.14382664296E+04  0.14383051103E+04  0.10000000000E+02 0.  1.
</event>
<event>
 5    1  0.1303633E-008  0.3844362E+03  0.7957747E-01  0.3432067E+00
         13   -1    0    0    0    0  0.00000000000E+00  0.00000000000E+00  0.14999999963E+04  0.15000000000E+04  0.10566000000E+00 0. -1.
        994   -1    0    0    0    0 -0.00000000000E+00 -0.00000000000E+00  0.11368683772E-12  0.17120000000E+03  0.17120000000E+03 0.  0.
         13    1    1    2    0    0 -0.30843345574E+00  0.17030226078E+02  0.80346273495E+02  0.82131958213E+02  0.10566000000E+00 0. -1.
        994    1    1    2    0    0  0.12399631869E+02 -0.19427054139E+01  0.24294755240E+01  0.17167663594E+03  0.17120000000E+03 0.  0.
        998    1    1    2    0    0 -0.12091198413E+02 -0.15087520664E+02  0.14172242473E+04  0.14173914059E+04  0.10000000000E+02 0. -1.
</event>
<event>
 5    1  0.1303633E-008  0.3778838E+03  0.7957747E-01  0.3460425E+00
         13   -1    0    0    0    0  0.00000000000E+00  0.00000000000E+00  0.14999999963E+04  0.15000000000E+04  0.10566000000E+00 0.  1.
        994   -1    0    0    0    0 -0.00000000000E+00 -0.00000000000E+00  0.11368683772E-12  0.17120000000E+03  0.17120000000E+03 0.  0.
         13    1    1    2    0    0  0.74391908531E+01  0.83164703929E+01  0.96793268261E+01  0.14771789742E+02  0.10566000000E+00 0.  1.
        994    1    1    2    0    0 -0.58919293239E+01 -0.21577146941E+01  0.53377883249E+01  0.17139808210E+03  0.17120000000E+03 0.  0.
        998    1    1    2    0    0 -0.15472615292E+01 -0.61587556988E+01  0.14849828811E+04  0.14850301282E+04  0.10000000000E+02 0.  1.
</event>
<event>
 5    1  0.1303633E-008  0.3811520E+03  0.7957747E-01  0.3446158E+00
         13   -1    0    0    0    0  0.00000000000E+00  0.00000000000E+00  0.14999999963E+04  0.15000000000E+04  0.10566000000E+00 0.  1.
        994   -1    0    0    0    0 -0.00000000000E+00 -0.00000000000E+00  0.11368683772E-12  0.17120000000E+03  0.17120000000E+03 0.  0.
         13    1    1    2    0    0  0.76154270817E+01  0.13071454569E+02  0.31855458026E+02  0.35265266542E+02  0.10566000000E+00 0.  1.
        994    1    1    2    0    0  0.83731165794E+01 -0.55734264906E+01  0.38897661336E+01  0.17153933206E+03  0.17120000000E+03 0.  0.
        998    1    1    2    0    0 -0.15988543661E+02 -0.74980280784E+01  0.14642547721E+04  0.14643954014E+04  0.10000000000E+02 0.  1.
</event>
<event>
 5    1  0.1303633E-008  0.3814820E+03  0.7957747E-01  0.3444731E+00
         13   -1    0    0    0    0  0.00000000000E+00  0.00000000000E+00  0.14999999963E+04  0.15000000000E+04  0.10566000000E+00 0.  1.
        994   -1    0    0    0    0 -0.00000000000E+00 -0.00000000000E+00  0.11368683772E-12  0.17120000000E+03  0.17120000000E+03 0.  0.
         13    1    1    2    0    0  0.10861161072E+02 -0.22605268315E+02  0.89185971313E+02  0.92645084157E+02  0.10566000000E+00 0.  1.
        994    1    1    2    0    0 -0.87424628096E+01  0.18887221737E+02  0.48292071172E+01  0.17252802393E+03  0.17120000000E+03 0.  0.
        998    1    1    2    0    0 -0.21186982624E+01  0.37180465778E+01  0.14059848178E+04  0.14060268919E+04  0.10000000000E+02 0.  1.
</event>
<event>
 5    1  0.1303633E-008  0.3841753E+03  0.7957747E-01  0.3433178E+00
         13   -1    0    0    0    0  0.00000000000E+00  0.00000000000E+00  0.14999999963E+04  0.15000000000E+04  0.10566000000E+00 0.  1.
        994   -1    0    0    0    0 -0.00000000000E+00 -0.00000000000E+00  0.11368683772E-12  0.17120000000E+03  0.17120000000E+03 0.  0.
         13    1    1    2    0    0 -0.17309530092E+00  0.16390452560E+02  0.64125576381E+02  0.66187442973E+02  0.10566000000E+00 0.  1.
        994    1    1    2    0    0  0.85301682672E+00 -0.14397551329E+02  0.27263810546E+01  0.17182808349E+03  0.17120000000E+03 0.  0.
        998    1    1    2    0    0 -0.67992152579E+00 -0.19929012317E+01  0.14331480388E+04  0.14331844735E+04  0.10000000000E+02 0.  1.
</event>
<event>
 5    1  0.1303633E-008  0.3729327E+03  0.7957747E-01  0.3482520E+00
         13   -1    0    0    0    0  0.00000000000E+00  0.00000000000E+00  0.14999999963E+04  0.15000000000E+04  0.10566000000E+00 0. -1.
        994   -1    0    0    0    0 -0.00000000000E+00 -0.00000000000E+00  0.11368683772E-12  0.17120000000E+03  0.17120000000E+03 0.  0.
         13    1    1    2    0    0  0.27838567704E+02 -0.52612883474E+02  0.16651527826E+03  0.17683452835E+03  0.10566000000E+00 0. -1.
        994    1    1    2    0    0 -0.29460074388E+02 -0.23514322180E+02  0.17533441302E+02  0.17617514267E+03  0.17120000000E+03 0.  0.
        998    1    1    2    0    0  0.16215066841E+01  0.76127205654E+02  0.13159512767E+04  0.13181903290E+04  0.10000000000E+02 0. -1.
</event>
<event>
 5    1  0.1303633E-008  0.3831429E+03  0.7957747E-01  0.3437587E+00
         13   -1    0    0    0    0  0.00000000000E+00  0.00000000000E+00  0.14999999963E+04  0.15000000000E+04  0.10566000000E+00 0.  1.
        994   -1    0    0    0    0 -0.00000000000E+00 -0.00000000000E+00  0.11368683772E-12  0.17120000000E+03  0.17120000000E+03 0.  0.
         13    1    1    2    0    0  0.10025440126E+02 -0.52386697992E+00  0.19112022498E+02  0.21588525988E+02  0.10566000000E+00 0.  1.
        994    1    1    2    0    0 -0.72708248884E+00  0.99618002406E+01  0.28851011002E+01  0.17151539267E+03  0.17120000000E+03 0.  0.
        998    1    1    2    0    0 -0.92983576373E+01 -0.94379332607E+01  0.14780028727E+04  0.14780960813E+04  0.10000000000E+02 0.  1.
</event>
<event>
 5    1  0.1303633E-008  0.3696789E+03  0.7957747E-01  0.3497368E+00
         13   -1    0    0    0    0  0.00000000000E+00  0.00000000000E+00  0.14999999963E+04  0.15000000000E+04  0.10566000000E+00 0.  1.
        994   -1    0    0    0    0 -0.00000000000E+00 -0.00000000000E+00  0.11368683772E-12  0.17120000000E+03  0.17120000000E+03 0.  0.
         13    1    1    2    0    0 -0.29922120821E+02 -0.54418158050E+02  0.17921502426E+03  0.18966999058E+03  0.10566000000E+00 0.  1.
        994    1    1    2    0    0  0.48944414162E+02  0.42649422532E+02  0.24170447933E+02  0.18468399896E+03  0.17120000000E+03 0.  0.
        998    1    1    2    0    0 -0.19022293341E+02  0.11768735519E+02  0.12966145241E+04  0.12968460105E+04  0.10000000000E+02 0.  1.
</event>
<event>
 5    1  0.1303633E-008  0.3812780E+03  0.7957747E-01  0.3445612E+00
         13   -1    0    0    0    0  0.00000000000E+00  0.00000000000E+00  0.14999999963E+04  0.15000000000E+04  0.10566000000E+00 0. -1.
        994   -1    0    0    0    0 -0.00000000000E+00 -0.00000000000E+00  0.11368683772E-12  0.17120000000E+03  0.17120000000E+03 0.  0.
         13    1    1    2    0    0 -0.13412344505E+02  0.23136721297E+01  0.25287412615E+02  0.28717737805E+02  0.10566000000E+00 0. -1.
        994    1    1    2    0    0  0.79151673367E+01 -0.76039519225E+00  0.36998970136E+01  0.17142449449E+03  0.17120000000E+03 0.  0.
        998    1    1    2    0    0  0.54971771684E+01 -0.15532769375E+01  0.14710126866E+04  0.14710577677E+04  0.10000000000E+02 0. -1.
</event>
<event>
 5    1  0.1303633E-008  0.3847524E+03  0.7957747E-01  0.3430723E+00
         13   -1    0    0    0    0  0.00000000000E+00  0.00000000000E+00  0.14999999963E+04  0.15000000000E+04  0.10566000000E+00 0. -1.
        994   -1    0    0    0    0 -0.00000000000E+00 -0.00000000000E+00  0.11368683772E-12  0.17120000000E+03  0.17120000000E+03 0.  0.
         13    1    1    2    0    0 -0.18659789630E+02  0.13983032333E+00  0.93785723033E+02  0.95624161750E+02  0.10566000000E+00 0. -1.
        994    1    1    2    0    0  0.19638278222E+02 -0.28479951754E+01  0.30502134605E+01  0.17237319064E+03  0.17120000000E+03 0.  0.
        998    1    1    2    0    0 -0.97848859245E+00  0.27081648520E+01  0.14031640598E+04  0.14032026476E+04  0.10000000000E+02 0. -1.
</event>
<event>
 5    1  0.1303633E-008  0.3829328E+03  0.7957747E-01  0.3438487E+00
         13   -1    0    0    0    0  0.00000000000E+00  0.00000000000E+00  0.14999999963E+04  0.15000000000E+04  0.10566000000E+00 0.  1.
        994   -1    0    0    0    0 -0.00000000000E+00 -0.00000000000E+00  0.11368683772E-12  0.17120000000E+03  0.17120000000E+03 0.  0.
         13    1    1    2    0    0 -0.66901395213E+01  0.13694653093E+02  0.44049301732E+02  0.46611732828E+02  0.10566000000E+00 0.  1.
        994    1    1    2    0    0  0.43855080887E+01 -0.18432920085E+01  0.27349000648E+01  0.17128791576E+03  0.17120000000E+03 0.  0.
        998    1    1    2    0    0  0.23046314325E+01 -0.11851361084E+02  0.14532157945E+04  0.14533003514E+04  0.10000000000E+02 0.  1.
</event>
<event>
 5    1  0.1303633E-008  0.3538133E+03  0.7957747E-01  0.3573758E+00
         13   -1    0    0    0    0  0.00000000000E+00  0.00000000000E+00  0.14999999963E+04  0.15000000000E+04  0.10566000000E+00 0. -1.
        994   -1    0    0    0    0 -0.00000000000E+00 -0.00000000000E+00  0.11368683772E-12  0.17120000000E+03  0.17120000000E+03 0.  0.
         13    1    1    2    0    0  0.13679227994E+02 -0.27220365176E+03  0.88934889989E+03  0.93017386880E+03  0.10566000000E+00 0. -1.
        994    1    1    2    0    0 -0.50314552973E+01  0.26321884566E+03  0.31449508955E+03  0.44443905950E+03  0.17120000000E+03 0.  0.
        998    1    1    2    0    0 -0.86477726964E+01  0.89848060979E+01  0.29615600684E+03  0.29658707170E+03  0.10000000000E+02 0.  0.
</event>
<event>
 5    1  0.1303633E-008  0.3805353E+03  0.7957747E-01  0.3448831E+00
         13   -1    0    0    0    0  0.00000000000E+00  0.00000000000E+00  0.14999999963E+04  0.15000000000E+04  0.10566000000E+00 0. -1.
        994   -1    0    0    0    0 -0.00000000000E+00 -0.00000000000E+00  0.11368683772E-12  0.17120000000E+03  0.17120000000E+03 0.  0.
         13    1    1    2    0    0  0.49091548867E+02 -0.86930963149E+01  0.26736725372E+03  0.27197575190E+03  0.10566000000E+00 0. -1.
        994    1    1    2    0    0 -0.50611613723E+02 -0.25709954301E+01  0.12481075121E+02  0.17897866548E+03  0.17120000000E+03 0.  0.
        998    1    1    2    0    0  0.15200648559E+01  0.11264091745E+02  0.12201516674E+04  0.12202455826E+04  0.10000000000E+02 0. -1.
</event>
<event>
 5    1  0.1303633E-008  0.3838400E+03  0.7957747E-01  0.3434607E+00
         13   -1    0    0    0    0  0.00000000000E+00  0.00000000000E+00  0.14999999963E+04  0.15000000000E+04  0.10566000000E+00 0. -1.
        994   -1    0    0    0    0 -0.00000000000E+00 -0.00000000000E+00  0.11368683772E-12  0.17120000000E+03  0.17120000000E+03 0.  0.
         13    1    1    2    0    0  0.10497930404E+00  0.23466662565E+02  0.12684469064E+03  0.12899721695E+03  0.10566000000E+00 0. -1.
        994    1    1    2    0    0 -0.64956392501E+01 -0.11753965733E+02  0.28027456118E+01  0.17174878289E+03  0.17120000000E+03 0.  0.
        998    1    1    2    0    0  0.63906599460E+01 -0.11712696832E+02  0.13703525600E+04  0.13704540002E+04  0.10000000000E+02 0. -1.
</event>
<event>
 5    1  0.1303633E-008  0.2939881E+03  0.7957747E-01  0.3939896E+00
         13   -1    0    0    0    0  0.00000000000E+00  0.00000000000E+00  0.14999999963E+04  0.15000000000E+04  0.10566000000E+00 0.  1.
        994   -1    0    0    0    0 -0.00000000000E+00 -0.00000000000E+00  0.11368683772E-12  0.17120000000E+03  0.17120000000E+03 0.  0.
         13    1    1    2    0    0  0.17267988870E+02 -0.15277243323E+03  0.82842952554E+03  0.84257527245E+03  0.10566000000E+00 0.  1.
        994    1    1    2    0    0  0.17945627164E+01  0.30594601779E+02  0.31635357386E+02  0.17677524134E+03  0.17120000000E+03 0.  0.
        998    1    1    2    0    0 -0.19062551586E+02  0.12217783145E+03  0.63993511336E+03  0.65184948621E+03  0.10000000000E+02 0.  1.
</event>
<event>
 5    1  0.1303633E-008  0.3841958E+03  0.7957747E-01  0.3433090E+00
         13   -1    0    0    0    0  0.00000000000E+00  0.00000000000E+00  0.14999999963E+04  0.15000000000E+04  0.10566000000E+00 0. -1.
        994   -1    0    0    0    0 -0.00000000000E+00 -0.00000000000E+00  0.11368683772E-12  0.17120000000E+03  0.17120000000E+03 0.  0.
         13    1    1    2    0    0 -0.69988826516E+01 -0.12014938815E+02  0.46847709819E+02  0.48867803229E+02  0.10566000000E+00 0. -1.
        994    1    1    2    0    0  0.61484678389E+01  0.89870972607E+01  0.24209921350E+01  0.17156302858E+03  0.17120000000E+03 0.  0.
        998    1    1    2    0    0  0.85041481264E+00  0.30278415544E+01  0.14507312943E+04  0.14507691682E+04  0.10000000000E+02 0. -1.
</event>
<event>
 5    1  0.1303633E-008  0.3745188E+03  0.7957747E-01  0.3475378E+00
         13   -1    0    0    0    0  0.00000000000E+00  0.00000000000E+00  0.14999999963E+04  0.15000000000E+04  0.10566000000E+00 0.  1.
        994   -1    0    0    0    0 -0.00000000000E+00 -0.00000000000E+00  0.11368683772E-12  0.17120000000E+03  0.17120000000E+03 0.  0.
         13    1    1    2    0    0  0.73468354705E+02  0.18648759925E+02  0.21561051490E+03  0.22854601438E+03  0.10566000000E+00 0.  1.
        994    1    1    2    0    0 -0.34831369673E+02 -0.31148519436E+02  0.21145301074E+02  0.17871770571E+03  0.17120000000E+03 0.  0.
        998    1    1    2    0    0 -0.38636985033E+02  0.12499759512E+02  0.12632441803E+04  0.12639362799E+04  0.10000000000E+02 0.  1.
</event>
<event>
 5    1  0.1303633E-008  0.3829075E+03  0.7957747E-01  0.3438595E+00
         13   -1    0    0    0    0  0.00000000000E+00  0.00000000000E+00  0.14999999963E+04  0.15000000000E+04  0.10566000000E+00 0. -1.
        994   -1    0    0    0    0 -0.00000000000E+00 -0.00000000000E+00  0.11368683772E-12  0.17120000000E+03  0.17120000000E+03 0.  0.
         13    1    1    2    0    0  0.21120005719E+02  0.15138272258E+02  0.12170579684E+03  0.12444892156E+03  0.10566000000E+00 0. -1.
        994    1    1    2    0    0 -0.20384955262E+02 -0.64708334164E+01  0.41886217550E+01  0.17258158256E+03  0.17120000000E+03 0.  0.
        998    1    1    2    0    0 -0.73505045709E+00 -0.86674388412E+01  0.13741055777E+04  0.13741694959E+04  0.10000000000E+02 0. -1.
</event>
<event>
 5    1  0.1303633E-008  0.3829959E+03  0.7957747E-01  0.3438216E+00
         13   -1    0    0    0    0  0.00000000000E+00  0.00000000000E+00  0.14999999963E+04  0.15000000000E+04  0.10566000000E+00 0. -1.
        994   -1    0    0    0    0 -0.00000000000E+00 -0.00000000000E+00  0.11368683772E-12  0.17120000000E+03  0.17120000000E+03 0.  0.
         13    1    1    2    0    0 -0.16370697946E+02 -0.27314887469E+01  0.51431198983E+02  0.54042947503E+02  0.10566000000E+00 0. -1.
        994    1    1    2    0    0  0.95499237496E+01  0.14416729004E+02  0.36189004465E+01  0.17210920823E+03  0.17120000000E+03 0.  0.
        998    1    1    2    0    0  0.68207741961E+01 -0.11685240258E+02  0.14449498968E+04  0.14450478443E+04  0.10000000000E+02 0. -1.
</event>
<event>
 5    1  0.1303633E-008  0.3823693E+03  0.7957747E-01  0.3440906E+00
         13   -1    0    0    0    0  0.00000000000E+00  0.00000000000E+00  0.14999999963E+04  0.15000000000E+04  0.10566000000E+00 0.  1.
        994   -1    0    0    0    0 -0.00000000000E+00 -0.00000000000E+00  0.11368683772E-12  0.17120000000E+03  0.17120000000E+03 0.  0.
         13    1    1    2    0    0 -0.16301201164E+02 -0.40333903021E+01  0.40712671939E+02  0.44040097833E+02  0.10566000000E+00 0.  1.
        994    1    1    2    0    0  0.49334268811E+02 -0.13318760649E+01  0.11063200713E+02  0.17851464473E+03  0.17120000000E+03 0.  0.
        998    1    1    2    0    0 -0.33033067647E+02  0.53652663669E+01  0.14482241236E+04  0.14486452574E+04  0.10000000000E+02 0.  1.
</event>
<event>
 5    1  0.1303633E-008  0.3808736E+03  0.7957747E-01  0.3447364E+00
         13   -1    0    0    0    0  0.00000000000E+00  0.00000000000E+00  0.14999999963E+04  0.15000000000E+04  0.10566000000E+00 0. -1.
        994   -1    0    0    0    0 -0.00000000000E+00 -0.00000000000E+00  0.11368683772E-12  0.17120000000E+03  0.17120000000E+03 0.  0.
         13    1    1    2    0    0  0.23515746025E+02  0.11985211991E+02  0.99542245832E+02  0.10298206391E+03  0.10566000000E+00 0. -1.
        994    1    1    2    0    0 -0.85656338625E+01  0.81444346799E+01  0.41586372837E+01  0.17165790446E+03  0.17120000000E+03 0.  0.
        998    1    1    2    0    0 -0.14950112163E+02 -0.20129646670E+02  0.13962991132E+04  0.13965600316E+04  0.10000000000E+02 0. -1.
</event>
<event>
 5    1  0.1303633E-008  0.3826567E+03  0.7957747E-01  0.3439672E+00
         13   -1    0    0    0    0  0.00000000000E+00  0.00000000000E+00  0.14999999963E+04  0.15000000000E+04  0.10566000000E+00 0. -1.
        994   -1    0    0    0    0 -0.00000000000E+00 -0.00000000000E+00  0.11368683772E-12  0.17120000000E+03  0.17120000000E+03 0.  0.
         13    1    1    2    0    0  0.12370948121E+02  0.16543379784E+02  0.80351179600E+02  0.82964130799E+02  0.10566000000E+00 0. -1.
        994    1    1    2    0    0  0.39245566756E+01 -0.50060410321E+01  0.29321488064E+01  0.17134322306E+03  0.17120000000E+03 0.  0.
        998    1    1    2    0    0 -0.16295504797E+02 -0.11537338752E+02  0.14167166679E+04  0.14168926461E+04  0.10000000000E+02 0. -1.
</event>
<event>
 5    1  0.1303633E-008  0.3855349E+03  0.7957747E-01  0.3427407E+00
         13   -1    0    0    0    0  0.00000000000E+00  0.00000000000E+00  0.14999999963E+04  0.15000000000E+04  0.10566000000E+00 0. -1.
        994   -1    0    0    0    0 -0.00000000000E+00 -0.00000000000E+00  0.11368683772E-12  0.17120000000E+03  0.17120000000E+03 0.  0.
         13    1    1    2    0    0 -0.66410437376E+01  0.11839781267E+02  0.70125588217E+02  0.71427537891E+02  0.10566000000E+00 0. -1.
        994    1    1    2    0    0 -0.65335941956E+01 -0.89470763527E+01  0.17678509486E+01  0.17156719770E+03  0.17120000000E+03 0.  0.
        998    1    1    2    0    0  0.13174637933E+02 -0.28927049145E+01  0.14281065571E+04  0.14282052644E+04  0.10000000000E+02 0. -1.
</event>
<event>
 5    1  0.1303633E-008  0.3750303E+03  0.7957747E-01  0.3473087E+00
         13   -1    0    0    0    0  0.00000000000E+00  0.00000000000E+00  0.14999999963E+04  0.15000000000E+04  0.10566000000E+00 0.  1.
        994   -1    0    0    0    0 -0.00000000000E+00 -0.00000000000E+00  0.11368683772E-12  0.17120000000E+03  0.17120000000E+03 0.  0.
         13    1    1    2    0    0 -0.20530027034E+02  0.10262126892E+02  0.36025512805E+02  0.42715828392E+02  0.10566000000E+00 0.  1.
        994    1    1    2    0    0  0.25944216784E+02 -0.38070536407E+00  0.89547925167E+01  0.17338649206E+03  0.17120000000E+03 0.  0.
        998    1    1    2    0    0 -0.54141897506E+01 -0.98814215276E+01  0.14550196910E+04  0.14550976795E+04  0.10000000000E+02 0.  1.
</event>
<event>
 5    1  0.1303633E-008  0.3748616E+03  0.7957747E-01  0.3473842E+00
         13   -1    0    0    0    0  0.00000000000E+00  0.00000000000E+00  0.14999999963E+04  0.15000000000E+04  0.10566000000E+00 0. -1.
        994   -1    0    0    0    0 -0.00000000000E+00 -0.00000000000E+00  0.11368683772E-12  0.17120000000E+03  0.17120000000E+03 0.  0.
         13    1    1    2    0    0  0.78187421814E+02 -0.31947349954E+02  0.35083690618E+03  0.36086070997E+03  0.10566000000E+00 0. -1.
        994    1    1    2    0    0 -0.99779444804E+02  0.21247229312E+02  0.43010680476E+02  0.20387923139E+03  0.17120000000E+03 0.  0.
        998    1    1    2    0    0  0.21592022991E+02  0.10700120642E+02  0.11061524096E+04  0.11064600586E+04  0.10000000000E+02 0. -1.
</event>
<event>
 5    1  0.1303633E-008  0.3826965E+03  0.7957747E-01  0.3439501E+00
         13   -1    0    0    0    0  0.00000000000E+00  0.00000000000E+00  0.14999999963E+04  0.15000000000E+04  0.10566000000E+00 0. -1.
        994   -1    0    0    0    0 -0.00000000000E+00 -0.00000000000E+00  0.11368683772E-12  0.17120000000E+03  0.17120000000E+03 0.  0.
         13    1    1    2    0    0 -0.21163366764E+02 -0.79440823089E+01  0.93597512341E+02  0.96288639086E+02  0.10566000000E+00 0. -1.
        994    1    1    2    0    0  0.10969323545E+02 -0.17877019049E+01  0.31875094999E+01  0.17158998267E+03  0.17120000000E+03 0.  0.
        998    1    1    2    0    0  0.10194043219E+02  0.97317842138E+01  0.14032149744E+04  0.14033213782E+04  0.10000000000E+02 0. -1.
</event>
<event>
 5    1  0.1303633E-008  0.3831164E+03  0.7957747E-01  0.3437700E+00
         13   -1    0    0    0    0  0.00000000000E+00  0.00000000000E+00  0.14999999963E+04  0.15000000000E+04  0.10566000000E+00 0.  1.
        994   -1    0    0    0    0 -0.00000000000E+00 -0.00000000000E+00  0.11368683772E-12  0.17120000000E+03  0.17120000000E+03 0.  0.
         13    1    1    2    0    0  0.70316122686E+01  0.21213850531E+02  0.10614281582E+03  0.10847017811E+03  0.10566000000E+00 0.  1.
        994    1    1    2    0    0 -0.32851337458E+01  0.14761002796E+01  0.26111350625E+01  0.17125778523E+03  0.17120000000E+03 0.  0.
        998    1    1    2    0    0 -0.37464785227E+01 -0.22689950810E+02  0.13912460454E+04  0.13914720367E+04  0.10000000000E+02 0.  1.
</event>
<event>
 5    1  0.1303633E-008  0.3800634E+03  0.7957747E-01  0.3450882E+00
         13   -1    0    0    0    0  0.00000000000E+00  0.00000000000E+00  0.14999999963E+04  0.15000000000E+04  0.10566000000E+00 0.  1.
        994   -1    0    0    0    0 -0.00000000000E+00 -0.00000000000E+00  0.11368683772E-12  0.17120000000E+03  0.17120000000E+03 0.  0.
         13    1    1    2    0    0 -0.19498740048E+02  0.11045742503E+02  0.58797597985E+02  0.62923588453E+02  0.10566000000E+00 0.  1.
        994    1    1    2    0    0  0.91212997814E+01 -0.21154999871E+02  0.58769566718E+01  0.17284302343E+03  0.17120000000E+03 0.  0.
        998    1    1    2    0    0  0.10377440266E+02  0.10109257368E+02  0.14353254416E+04  0.14354333881E+04  0.10000000000E+02 0.  1.
</event>
<event>
 5    1  0.1303633E-008  0.3713487E+03  0.7957747E-01  0.3489715E+00
         13   -1    0    0    0    0  0.00000000000E+00  0.00000000000E+00  0.14999999963E+04  0.15000000000E+04  0.10566000000E+00 0. -1.
        994   -1    0    0    0    0 -0.00000000000E+00 -0.00000000000E+00  0.11368683772E-12  0.17120000000E+03  0.17120000000E+03 0.  0.
         13    1    1    2    0    0  0.11299392457E+02 -0.22436544880E+02  0.32405041651E+02  0.41002106098E+02  0.10566000000E+00 0. -1.
        994    1    1    2    0    0 -0.16421072037E+02  0.23426222130E+02  0.11387742909E+02  0.17394700394E+03  0.17120000000E+03 0.  0.
        998    1    1    2    0    0  0.51216795805E+01 -0.98967725013E+00  0.14562072117E+04  0.14562508900E+04  0.10000000000E+02 0. -1.
</event>
<event>
 5    1  0.1303633E-008  0.3809179E+03  0.7957747E-01  0.3447171E+00
         13   -1    0    0    0    0  0.00000000000E+00  0.00000000000E+00  0.14999999963E+04  0.15000000000E+04  0.10566000000E+00 0.  1.
        994   -1    0    0    0    0 -0.00000000000E+00 -0.00000000000E+00  0.11368683772E-12  0.17120000000E+03  0.17120000000E+03 0.  0.
         13    1    1    2    0    0 -0.14141841259E+02  0.55759900157E+00  0.24993597471E+02  0.28722703031E+02  0.10566000000E+00 0.  1.
        994    1    1    2    0    0  0.20714604761E+02 -0.31627655930E+00  0.51022290961E+01  0.17252439718E+03  0.17120000000E+03 0.  0.
        998    1    1    2    0    0 -0.65727635026E+01 -0.24132244227E+00  0.14699041697E+04  0.14699528998E+04  0.10000000000E+02 0.  1.
</event>
<event>
 5    1  0.1303633E-008  0.3833729E+03  0.7957747E-01  0.3436602E+00
         13   -1    0    0    0    0  0.00000000000E+00  0.00000000000E+00  0.14999999963E+04  0.15000000000E+04  0.10566000000E+00 0. -1.
        994   -1    0    0    0    0 -0.00000000000E+00 -0.00000000000E+00  0.11368683772E-12  0.17120000000E+03  0.17120000000E+03 0.  0.
         13    1    1    2    0    0 -0.31538731041E+02 -0.92630494357E+01  0.19016710913E+03  0.19298713999E+03  0.10566000000E+00 0. -1.
        994    1    1    2    0    0  0.35725322704E+02  0.61210296336E+01  0.67956861255E+01  0.17512677418E+03  0.17120000000E+03 0.  0.
        998    1    1    2    0    0 -0.41865916635E+01  0.31420198021E+01  0.13030372010E+04  0.13030860858E+04  0.10000000000E+02 0. -1.
</event>
<event>
 5    1  0.1303633E-008  0.3724689E+03  0.7957747E-01  0.3484621E+00
         13   -1    0    0    0    0  0.00000000000E+00  0.00000000000E+00  0.14999999963E+04  0.15000000000E+04  0.10566000000E+00 0. -1.
        994   -1    0    0    0    0 -0.00000000000E+00 -0.00000000000E+00  0.11368683772E-12  0.17120000000E+03  0.17120000000E+03 0.  0.
         13    1    1    2    0    0  0.93415583920E+01  0.13685739372E+02  0.54991143208E+01  0.17458968976E+02  0.10566000000E+00 0. -1.
        994    1    1    2    0    0 -0.25215569103E+02 -0.10464914707E+02  0.14883119285E+02  0.17400082357E+03  0.17120000000E+03 0.  0.
        998    1    1    2    0    0  0.15874010711E+02 -0.32208246646E+01  0.14796177627E+04  0.14797402074E+04  0.10000000000E+02 0. -1.
</event>
<event>
 5    1  0.1303633E-008  0.3993165E+03  0.7957747E-01  0.3371135E+00
         13   -1    0    0    0    0  0.00000000000E+00  0.00000000000E+00  0.14999999963E+04  0.15000000000E+04  0.10566000000E+00 0. -1.
        994   -1    0    0    0    0 -0.00000000000E+00 -0.00000000000E+00  0.11368683772E-12  0.17120000000E+03  0.17120000000E+03 0.  0.
         13    1    1    2    0    0 -0.14644840517E+03  0.36127217043E+02  0.40512864420E+03  0.43229797675E+03  0.10566000000E+00 0. -1.
        994    1    1    2    0    0  0.88871359507E+02 -0.31009178753E+02  0.62871674889E+02  0.20523638861E+03  0.17120000000E+03 0.  0.
        998    1    1    2    0    0  0.57577045667E+02 -0.51180382903E+01  0.10319996772E+04  0.10336656346E+04  0.10000000000E+02 0. -1.
</event>
<event>
 5    1  0.1384249E-008  0.3861077E+03  0.7957747E-01  0.3424988E+00
         13   -1    0    0    0    0  0.00000000000E+00  0.00000000000E+00  0.14999999963E+04  0.15000000000E+04  0.10566000000E+00 0. -1.
        994   -1    0    0    0    0 -0.00000000000E+00 -0.00000000000E+00  0.11368683772E-12  0.17120000000E+03  0.17120000000E+03 0.  0.
         13    1    1    2    0    0 -0.51344840902E+01  0.88617699150E+01  0.50756938075E+02  0.51780033021E+02  0.10566000000E+00 0. -1.
        994    1    1    2    0    0  0.34246012827E+00 -0.24369197502E+01  0.11010236574E+01  0.17122122564E+03  0.17120000000E+03 0.  0.
        998    1    1    2    0    0  0.47920239619E+01 -0.64248501647E+01  0.14481420345E+04  0.14481987413E+04  0.10000000000E+02 0. -1.
</event>
<event>
 5    1  0.1303633E-008  0.3858336E+03  0.7957747E-01  0.3426145E+00
         13   -1    0    0    0    0  0.00000000000E+00  0.00000000000E+00  0.14999999963E+04  0.15000000000E+04  0.10566000000E+00 0. -1.
        994   -1    0    0    0    0 -0.00000000000E+00 -0.00000000000E+00  0.11368683772E-12  0.17120000000E+03  0.17120000000E+03 0.  0.
         13    1    1    2    0    0  0.12906790742E+02  0.54658565978E+01  0.77589635317E+02  0.78845567461E+02  0.10566000000E+00 0. -1.
        994    1    1    2    0    0 -0.12331805687E+02 -0.10346761376E+02  0.20671947955E+01  0.17196756147E+03  0.17120000000E+03 0.  0.
        998    1    1    2    0    0 -0.57498505547E+00  0.48809047786E+01  0.14203431662E+04  0.14203868711E+04  0.10000000000E+02 0. -1.
</event>
<event>
 5    1  0.1364171E-008  0.3858342E+03  0.7957747E-01  0.3426142E+00
         13   -1    0    0    0    0  0.00000000000E+00  0.00000000000E+00  0.14999999963E+04  0.15000000000E+04  0.10566000000E+00 0.  1.
        994   -1    0    0    0    0 -0.00000000000E+00 -0.00000000000E+00  0.11368683772E-12  0.17120000000E+03  0.17120000000E+03 0.  0.
         13    1    1    2    0    0 -0.49439508339E-01  0.12206072394E+02  0.63074753674E+02  0.64245049324E+02  0.10566000000E+00 0.  1.
        994    1    1    2    0    0  0.46683381910E+01 -0.53219895741E+01  0.13809292270E+01  0.17135187166E+03  0.17120000000E+03 0.  0.
        998    1    1    2    0    0 -0.46188986827E+01 -0.68840828195E+01  0.14355443134E+04  0.14356030790E+04  0.10000000000E+02 0.  1.
</event>
<event>
 5    1  0.1303633E-008  0.3810708E+03  0.7957747E-01  0.3446509E+00
         13   -1    0    0    0    0  0.00000000000E+00  0.00000000000E+00  0.14999999963E+04  0.15000000000E+04  0.10566000000E+00 0.  1.
        994   -1    0    0    0    0 -0.00000000000E+00 -0.00000000000E+00  0.11368683772E-12  0.17120000000E+03  0.17120000000E+03 0.  0.
         13    1    1    2    0    0  0.25928648964E+02  0.12116787715E+01  0.79966413144E+02  0.84073785437E+02  0.10566000000E+00 0.  1.
        994    1    1    2    0    0 -0.46703337706E+02  0.76554412400E+01  0.11090909739E+02  0.17796700765E+03  0.17120000000E+03 0.  0.
        998    1    1    2    0    0  0.20774688742E+02 -0.88671200115E+01  0.14089426734E+04  0.14091592069E+04  0.10000000000E+02 0.  1.
</event>
<event>
 5    1  0.1303633E-008  0.3814498E+03  0.7957747E-01  0.3444870E+00
         13   -1    0    0    0    0  0.00000000000E+00  0.00000000000E+00  0.14999999963E+04  0.15000000000E+04  0.10566000000E+00 0. -1.
        994   -1    0    0    0    0 -0.00000000000E+00 -0.00000000000E+00  0.11368683772E-12  0.17120000000E+03  0.17120000000E+03 0.  0.
         13    1    1    2    0    0 -0.20942961203E+02  0.61563211010E+00  0.66617617469E+02  0.69834839072E+02  0.10566000000E+00 0. -1.
        994    1    1    2    0    0  0.22033541537E+01 -0.13722931556E+02  0.40460213223E+01  0.17181089578E+03  0.17120000000E+03 0.  0.
        998    1    1    2    0    0  0.18739607049E+02  0.13107299446E+02  0.14293363575E+04  0.14295542651E+04  0.10000000000E+02 0. -1.
</event>
<event>
 5    1  0.1303633E-008  0.3856565E+03  0.7957747E-01  0.3426893E+00
         13   -1    0    0    0    0  0.00000000000E+00  0.00000000000E+00  0.14999999963E+04  0.15000000000E+04  0.10566000000E+00 0. -1.
        994   -1    0    0    0    0 -0.00000000000E+00 -0.00000000000E+00  0.11368683772E-12  0.17120000000E+03  0.17120000000E+03 0.  0.
         13    1    1    2    0    0 -0.28381048601E+00  0.14331710537E+02  0.74520927515E+02  0.75887141710E+02  0.10566000000E+00 0. -1.
        994    1    1    2    0    0 -0.34242206608E+00 -0.17746283926E+02  0.23391285925E+01  0.17213355097E+03  0.17120000000E+03 0.  0.
        998    1    1    2    0    0  0.62623255210E+00  0.34145733888E+01  0.14231399402E+04  0.14231793073E+04  0.10000000000E+02 0. -1.
</event>
<event>
 5    1  0.1303633E-008  0.3846998E+03  0.7957747E-01  0.3430946E+00
         13   -1    0    0    0    0  0.00000000000E+00  0.00000000000E+00  0.14999999963E+04  0.15000000000E+04  0.10566000000E+00 0.  1.
        994   -1    0    0    0    0 -0.00000000000E+00 -0.00000000000E+00  0.11368683772E-12  0.17120000000E+03  0.17120000000E+03 0.  0.
         13    1    1    2    0    0 -0.38214340047E+01  0.10878840545E+02  0.36921194082E+02  0.38679946560E+02  0.10566000000E+00 0.  1.
        994    1    1    2    0    0 -0.25465860097E+01 -0.10161502933E+02  0.21405906893E+01  0.17153356339E+03  0.17120000000E+03 0.  0.
        998    1    1    2    0    0  0.63680200144E+01 -0.71733761223E+00  0.14609382115E+04  0.14609864900E+04  0.10000000000E+02 0.  1.
</event>
<event>
 5    1  0.1303633E-008  0.3738119E+03  0.7957747E-01  0.3478554E+00
         13   -1    0    0    0    0  0.00000000000E+00  0.00000000000E+00  0.14999999963E+04  0.15000000000E+04  0.10566000000E+00 0. -1.
        994   -1    0    0    0    0 -0.00000000000E+00 -0.00000000000E+00  0.11368683772E-12  0.17120000000E+03  0.17120000000E+03 0.  0.
         13    1    1    2    0    0 -0.31788388126E+02  0.82904376751E+01  0.80005274090E+02  0.86487502119E+02  0.10566000000E+00 0. -1.
        994    1    1    2    0    0 -0.85289083682E+01  0.73120129377E+01  0.77209718417E+01  0.17174184469E+03  0.17120000000E+03 0.  0.
        998    1    1    2    0    0  0.40317296494E+02 -0.15602450613E+02  0.14122737503E+04  0.14129706532E+04  0.10000000000E+02 0. -1.
</event>
<event>
 5    1  0.1303633E-008  0.3823217E+03  0.7957747E-01  0.3441111E+00
         13   -1    0    0    0    0  0.00000000000E+00  0.00000000000E+00  0.14999999963E+04  0.15000000000E+04  0.10566000000E+00 0.  1.
        994   -1    0    0    0    0 -0.00000000000E+00 -0.00000000000E+00  0.11368683772E-12  0.17120000000E+03  0.17120000000E+03 0.  0.
         13    1    1    2    0    0 -0.12194739785E+02  0.25703104772E+02  0.14490762125E+03  0.14767393519E+03  0.10566000000E+00 0.  1.
        994    1    1    2    0    0 -0.23623801637E+01 -0.98325614991E+01  0.33050679029E+01  0.17153024101E+03  0.17120000000E+03 0.  0.
        998    1    1    2    0    0  0.14557119948E+02 -0.15870543273E+02  0.13517873071E+04  0.13519958238E+04  0.10000000000E+02 0.  1.
</event>
<event>
 5    1  0.1303633E-008  0.3758724E+03  0.7957747E-01  0.3469330E+00
         13   -1    0    0    0    0  0.00000000000E+00  0.00000000000E+00  0.14999999963E+04  0.15000000000E+04  0.10566000000E+00 0.  1.
        994   -1    0    0    0    0 -0.00000000000E+00 -0.00000000000E+00  0.11368683772E-12  0.17120000000E+03  0.17120000000E+03 0.  0.
         13    1    1    2    0    0  0.10696198460E+02 -0.48560653858E+02  0.17347263472E+03  0.18045861555E+03  0.10566000000E+00 0.  1.
        994    1    1    2    0    0 -0.23788689899E+02  0.47085175462E+02  0.15722329683E+02  0.17983199706E+03  0.17120000000E+03 0.  0.
        998    1    1    2    0    0  0.13092491439E+02  0.14754783960E+01  0.13108050319E+04  0.13109093874E+04  0.10000000000E+02 0.  1.
</event>
<event>
 5    1  0.1303633E-008  0.3841599E+03  0.7957747E-01  0.3433243E+00
         13   -1    0    0    0    0  0.00000000000E+00  0.00000000000E+00  0.14999999963E+04  0.15000000000E+04  0.10566000000E+00 0.  1.
        994   -1    0    0    0    0 -0.00000000000E+00 -0.00000000000E+00  0.11368683772E-12  0.17120000000E+03  0.17120000000E+03 0.  0.
         13    1    1    2    0    0 -0.10024151046E+02 -0.97271586568E+01  0.51432676966E+02  0.53295709430E+02  0.10566000000E+00 0.  1.
        994    1    1    2    0    0 -0.94278815464E+01 -0.66800180234E+00  0.23424624312E+01  0.17147669902E+03  0.17120000000E+03 0.  0.
        998    1    1    2    0    0  0.19452032592E+02  0.10395160459E+02  0.14462248569E+04  0.14464275915E+04  0.10000000000E+02 0.  1.
</event>
<event>
 5    1  0.1303633E-008  0.3712479E+03  0.7957747E-01  0.3490176E+00
         13   -1    0    0    0    0  0.00000000000E+00  0.00000000000E+00  0.14999999963E+04  0.15000000000E+04  0.10566000000E+00 0. -1.
        994   -1    0    0    0    0 -0.00000000000E+00 -0.00000000000E+00  0.11368683772E-12  0.17120000000E+03  0.17120000000E+03 0.  0.
         13    1    1    2    0    0  0.20698863060E+02  0.54801157234E+02  0.22124334102E+03  0.22886729097E+03  0.10566000000E+00 0. -1.
        994    1    1    2    0    0  0.73638743465E+01 -0.17328802619E+02  0.98397519919E+01  0.17251311476E+03  0.17120000000E+03 0.  0.
        998    1    1    2    0    0 -0.28062737407E+02 -0.37472354616E+02  0.12689169033E+04  0.12698195943E+04  0.10000000000E+02 0. -1.
</event>
<event>
 5    1  0.1303633E-008  0.3848652E+03  0.7957747E-01  0.3430244E+00
         13   -1    0    0    0    0  0.00000000000E+00  0.00000000000E+00  0.14999999963E+04  0.15000000000E+04  0.10566000000E+00 0. -1.
        994   -1    0    0    0    0 -0.00000000000E+00 -0.00000000000E+00  0.11368683772E-12  0.17120000000E+03  0.17120000000E+03 0.  0.
         13    1    1    2    0    0  0.87213569161E+01 -0.60967982610E+01  0.33567929827E+02  0.35214344980E+02  0.10566000000E+00 0. -1.
        994    1    1    2    0    0 -0.43083798027E+01  0.11869998479E+01  0.17628145061E+01  0.17126738925E+03  0.17120000000E+03 0.  0.
        998    1    1    2    0    0 -0.44129771133E+01  0.49097984132E+01  0.14646692519E+04  0.14647182658E+04  0.10000000000E+02 0. -1.
</event>
<event>
 5    1  0.1303633E-008  0.3852555E+03  0.7957747E-01  0.3428589E+00
         13   -1    0    0    0    0  0.00000000000E+00  0.00000000000E+00  0.14999999963E+04  0.15000000000E+04  0.10566000000E+00 0.  1.
        994   -1    0    0    0    0 -0.00000000000E+00 -0.00000000000E+00  0.11368683772E-12  0.17120000000E+03  0.17120000000E+03 0.  0.
         13    1    1    2    0    0 -0.69693842972E+01 -0.14410426896E+02  0.91628991043E+02  0.93016750558E+02  0.10566000000E+00 0.  1.
        994    1    1    2    0    0  0.42909837343E+01 -0.31997525668E+00  0.15641703912E+01  0.17126120855E+03  0.17120000000E+03 0.  0.
        998    1    1    2    0    0  0.26784005629E+01  0.14730402153E+02  0.14068068348E+04  0.14069220409E+04  0.10000000000E+02 0.  1.
</event>
<event>
 5    1  0.1303633E-008  0.3769254E+03  0.7957747E-01  0.3464656E+00
         13   -1    0    0    0    0  0.00000000000E+00  0.00000000000E+00  0.14999999963E+04  0.15000000000E+04  0.10566000000E+00 0. -1.
        994   -1    0    0    0    0 -0.00000000000E+00 -0.00000000000E+00  0.11368683772E-12  0.17120000000E+03  0.17120000000E+03 0.  0.
         13    1    1    2    0    0 -0.79040449326E+02 -0.10163870779E+02  0.18817766502E+03  0.20435640846E+03  0.10566000000E+00 0. -1.
        994    1    1    2    0    0  0.76427392965E+02  0.79162552392E+01  0.36118991735E+02  0.19109640252E+03  0.17120000000E+03 0.  0.
        998    1    1    2    0    0  0.26130563610E+01  0.22476155399E+01  0.12757033395E+04  0.12757471890E+04  0.10000000000E+02 0.  0.
</event>
<event>
 5    1  0.1303633E-008  0.3848689E+03  0.7957747E-01  0.3430228E+00
         13   -1    0    0    0    0  0.00000000000E+00  0.00000000000E+00  0.14999999963E+04  0.15000000000E+04  0.10566000000E+00 0.  1.
        994   -1    0    0    0    0 -0.00000000000E+00 -0.00000000000E+00  0.11368683772E-12  0.17120000000E+03  0.17120000000E+03 0.  0.
         13    1    1    2    0    0 -0.14720608914E+02  0.36226619123E-01  0.62513299042E+02  0.64223215120E+02  0.10566000000E+00 0.  1.
        994    1    1    2    0    0  0.13229170854E+02  0.44134532482E+01  0.23353790329E+01  0.17178295470E+03  0.17120000000E+03 0.  0.
        998    1    1    2    0    0  0.14914380604E+01 -0.44496798673E+01  0.14351513182E+04  0.14351938302E+04  0.10000000000E+02 0.  1.
</event>
<event>
 5    1  0.1303633E-008  0.3690560E+03  0.7957747E-01  0.3500241E+00
         13   -1    0    0    0    0  0.00000000000E+00  0.00000000000E+00  0.14999999963E+04  0.15000000000E+04  0.10566000000E+00 0.  1.
        994   -1    0    0    0    0 -0.00000000000E+00 -0.00000000000E+00  0.11368683772E-12  0.17120000000E+03  0.17120000000E+03 0.  0.
         13    1    1    2    0    0  0.59778465007E+02 -0.67921208470E+02  0.31604544557E+03  0.32874228549E+03  0.10566000000E+00 0.  1.
        994    1    1    2    0    0 -0.55345716999E+02  0.64655293482E+02  0.36124626391E+02  0.19457102558E+03  0.17120000000E+03 0.  0.
        998    1    1    2    0    0 -0.44327480084E+01  0.32659149880E+01  0.11478299243E+04  0.11478866889E+04  0.10000000000E+02 0.  1.
</event>
<event>
 5    1  0.1303633E-008  0.3817438E+03  0.7957747E-01  0.3443600E+00
         13   -1    0    0    0    0  0.00000000000E+00  0.00000000000E+00  0.14999999963E+04  0.15000000000E+04  0.10566000000E+00 0.  1.
        994   -1    0    0    0    0 -0.00000000000E+00 -0.00000000000E+00  0.11368683772E-12  0.17120000000E+03  0.17120000000E+03 0.  0.
         13    1    1    2    0    0 -0.22544644671E+02 -0.92664242265E+01  0.10013664127E+03  0.10306059242E+03  0.10566000000E+00 0.  1.
        994    1    1    2    0    0 -0.27112570515E+00 -0.70544389755E+01  0.34211240131E+01  0.17137964496E+03  0.17120000000E+03 0.  0.
        998    1    1    2    0    0  0.22815770376E+02  0.16320863202E+02  0.13964422310E+04  0.13967597626E+04  0.10000000000E+02 0.  1.
</event>
<event>
 5    1  0.1303633E-008  0.3794434E+03  0.7957747E-01  0.3453586E+00
         13   -1    0    0    0    0  0.00000000000E+00  0.00000000000E+00  0.14999999963E+04  0.15000000000E+04  0.10566000000E+00 0. -1.
        994   -1    0    0    0    0 -0.00000000000E+00 -0.00000000000E+00  0.11368683772E-12  0.17120000000E+03  0.17120000000E+03 0.  0.
         13    1    1    2    0    0  0.11539866598E+02 -0.95569813704E+02  0.24734392577E+03  0.26541625156E+03  0.10566000000E+00 0. -1.
        994    1    1    2    0    0 -0.45548443641E+02  0.82827937577E+02  0.49091327540E+02  0.20162967639E+03  0.17120000000E+03 0.  0.
        998    1    1    2    0    0  0.34008577043E+02  0.12741876127E+02  0.12035647430E+04  0.12041540721E+04  0.10000000000E+02 0. -1.
</event>
<event>
 5    1  0.1303633E-008  0.3809529E+03  0.7957747E-01  0.3447020E+00
         13   -1    0    0    0    0  0.00000000000E+00  0.00000000000E+00  0.14999999963E+04  0.15000000000E+04  0.10566000000E+00 0. -1.
        994   -1    0    0    0    0 -0.00000000000E+00 -0.00000000000E+00  0.11368683772E-12  0.17120000000E+03  0.17120000000E+03 0.  0.
         13    1    1    2    0    0 -0.21193749734E+02 -0.15893048463E+02  0.98125605450E+02  0.10163862271E+03  0.10566000000E+00 0. -1.
        994    1    1    2    0    0  0.77781658792E+01  0.61148486219E+01  0.39791679783E+01  0.17153181925E+03  0.17120000000E+03 0.  0.
        998    1    1    2    0    0  0.13415583855E+02  0.97781998409E+01  0.13978952229E+04  0.13980295580E+04  0.10000000000E+02 0. -1.
</event>
<event>
 5    1  0.1303633E-008  0.4061426E+03  0.7957747E-01  0.3344672E+00
         13   -1    0    0    0    0  0.00000000000E+00  0.00000000000E+00  0.14999999963E+04  0.15000000000E+04  0.10566000000E+00 0. -1.
        994   -1    0    0    0    0 -0.00000000000E+00 -0.00000000000E+00  0.11368683772E-12  0.17120000000E+03  0.17120000000E+03 0.  0.
         13    1    1    2    0    0 -0.10071669158E+03  0.49945864838E+02  0.18487012282E+03  0.21636870119E+03  0.10566000000E+00 0. -1.
        994    1    1    2    0    0  0.82271255048E+02 -0.29356050583E+02  0.62858823798E+02  0.20221525373E+03  0.17120000000E+03 0.  0.
        998    1    1    2    0    0  0.18445436530E+02 -0.20589814256E+02  0.12522710497E+04  0.12526160451E+04  0.10000000000E+02 0.  0.
</event>
<event>
 5    1  0.1303633E-008  0.3835934E+03  0.7957747E-01  0.3435660E+00
         13   -1    0    0    0    0  0.00000000000E+00  0.00000000000E+00  0.14999999963E+04  0.15000000000E+04  0.10566000000E+00 0. -1.
        994   -1    0    0    0    0 -0.00000000000E+00 -0.00000000000E+00  0.11368683772E-12  0.17120000000E+03  0.17120000000E+03 0.  0.
         13    1    1    2    0    0 -0.18143033299E+02 -0.18158848109E+01  0.68917715800E+02  0.71289058137E+02  0.10566000000E+00 0. -1.
        994    1    1    2    0    0  0.15968939152E+02  0.71921323800E+01  0.33441274700E+01  0.17212599157E+03  0.17120000000E+03 0.  0.
        998    1    1    2    0    0  0.21740941470E+01 -0.53762475690E+01  0.14277381530E+04  0.14277849503E+04  0.10000000000E+02 0. -1.
</event>
<event>
 5    1  0.1303633E-008  0.3025508E+03  0.7957747E-01  0.3877975E+00
         13   -1    0    0    0    0  0.00000000000E+00  0.00000000000E+00  0.14999999963E+04  0.15000000000E+04  0.10566000000E+00 0.  1.
        994   -1    0    0    0    0 -0.00000000000E+00 -0.00000000000E+00  0.11368683772E-12  0.17120000000E+03  0.17120000000E+03 0.  0.
         13    1    1    2    0    0 -0.41060820801E+02  0.17867798450E+03  0.68789209642E+03  0.71190403892E+03  0.10566000000E+00 0.  1.
        994    1    1    2    0    0 -0.37907437104E+02 -0.19064973829E+03  0.16480812547E+03  0.30701051239E+03  0.17120000000E+03 0.  0.
        998    1    1    2    0    0  0.78968257905E+02  0.11971753789E+02  0.64729977439E+03  0.65228544869E+03  0.10000000000E+02 0.  1.
</event>
<event>
 5    1  0.1303633E-008  0.3753009E+03  0.7957747E-01  0.3471878E+00
         13   -1    0    0    0    0  0.00000000000E+00  0.00000000000E+00  0.14999999963E+04  0.15000000000E+04  0.10566000000E+00 0. -1.
        994   -1    0    0    0    0 -0.00000000000E+00 -0.00000000000E+00  0.11368683772E-12  0.17120000000E+03  0.17120000000E+03 0.  0.
         13    1    1    2    0    0 -0.56657435148E+01  0.13416469952E+02  0.13283004022E+02  0.19711714168E+02  0.10566000000E+00 0. -1.
        994    1    1    2    0    0  0.82863136774E+01 -0.11080394769E+02  0.71746454558E+01  0.17190798027E+03  0.17120000000E+03 0.  0.
        998    1    1    2    0    0 -0.26205701626E+01 -0.23360751833E+01  0.14795423468E+04  0.14795803056E+04  0.10000000000E+02 0. -1.
</event>
<event>
 5    1  0.1303633E-008  0.3766798E+03  0.7957747E-01  0.3465744E+00
         13   -1    0    0    0    0  0.00000000000E+00  0.00000000000E+00  0.14999999963E+04  0.15000000000E+04  0.10566000000E+00 0.  1.
        994   -1    0    0    0    0 -0.00000000000E+00 -0.00000000000E+00  0.11368683772E-12  0.17120000000E+03  0.17120000000E+03 0.  0.
         13    1    1    2    0    0  0.32942866275E+02 -0.73493004290E+01  0.97396404941E+02  0.10307917110E+03  0.10566000000E+00 0.  1.
        994    1    1    2    0    0 -0.18668247834E+02 -0.55537463537E+01  0.71018844534E+01  0.17245064320E+03  0.17120000000E+03 0.  0.
        998    1    1    2    0    0 -0.14274618441E+02  0.12903046783E+02  0.13955017069E+04  0.13956701857E+04  0.10000000000E+02 0.  1.
</event>
<event>
 5    1  0.1303633E-008  0.3870058E+03  0.7957747E-01  0.3421210E+00
         13   -1    0    0    0    0  0.00000000000E+00  0.00000000000E+00  0.14999999963E+04  0.15000000000E+04  0.10566000000E+00 0.  1.
        994   -1    0    0    0    0 -0.00000000000E+00 -0.00000000000E+00  0.11368683772E-12  0.17120000000E+03  0.17120000000E+03 0.  0.
         13    1    1    2    0    0  0.34856088697E+02  0.16770276451E+02  0.28755233943E+02  0.48198171487E+02  0.10566000000E+00 0.  1.
        994    1    1    2    0    0 -0.31088717462E+02 -0.14125553198E+02  0.24578895763E+02  0.17629407739E+03  0.17120000000E+03 0.  0.
        998    1    1    2    0    0 -0.37673712356E+01 -0.26447232534E+01  0.14466658666E+04  0.14467077511E+04  0.10000000000E+02 0.  1.
</event>
<event>
 5    1  0.1303633E-008  0.3816448E+03  0.7957747E-01  0.3444028E+00
         13   -1    0    0    0    0  0.00000000000E+00  0.00000000000E+00  0.14999999963E+04  0.15000000000E+04  0.10566000000E+00 0.  1.
        994   -1    0    0    0    0 -0.00000000000E+00 -0.00000000000E+00  0.11368683772E-12  0.17120000000E+03  0.17120000000E+03 0.  0.
         13    1    1    2    0    0 -0.23192209178E+02 -0.14270992292E+02  0.10767055163E+03  0.11106078804E+03  0.10566000000E+00 0.  1.
        994    1    1    2    0    0  0.18229082052E+02  0.12137909510E+02  0.49014694261E+01  0.17266468279E+03  0.17120000000E+03 0.  0.
        998    1    1    2    0    0  0.49631271263E+01  0.21330827824E+01  0.13874279752E+04  0.13874745292E+04  0.10000000000E+02 0.  1.
</event>
<event>
 5    1  0.1303633E-008  0.4098114E+03  0.7957747E-01  0.3330810E+00
         13   -1    0    0    0    0  0.00000000000E+00  0.00000000000E+00  0.14999999963E+04  0.15000000000E+04  0.10566000000E+00 0.  1.
        994   -1    0    0    0    0 -0.00000000000E+00 -0.00000000000E+00  0.11368683772E-12  0.17120000000E+03  0.17120000000E+03 0.  0.
         13    1    1    2    0    0 -0.32973389652E+02 -0.68786535741E+02  0.74124619511E+02  0.10636400851E+03  0.10566000000E+00 0.  1.
        994    1    1    2    0    0  0.65997713393E+02  0.39315450177E+02  0.58279539230E+02  0.19648752502E+03  0.17120000000E+03 0.  0.
        998    1    1    2    0    0 -0.33024323741E+02  0.29471085564E+02  0.13675958375E+04  0.13683484665E+04  0.10000000000E+02 0.  1.
</event>
<event>
 5    1  0.1303633E-008  0.3726991E+03  0.7957747E-01  0.3483577E+00
         13   -1    0    0    0    0  0.00000000000E+00  0.00000000000E+00  0.14999999963E+04  0.15000000000E+04  0.10566000000E+00 0. -1.
        994   -1    0    0    0    0 -0.00000000000E+00 -0.00000000000E+00  0.11368683772E-12  0.17120000000E+03  0.17120000000E+03 0.  0.
         13    1    1    2    0    0  0.68328548294E+01 -0.49414146550E+02  0.15180311354E+03  0.15978936833E+03  0.10566000000E+00 0. -1.
        994    1    1    2    0    0 -0.72224262708E+01  0.34084257966E+02  0.12034994400E+02  0.17512333132E+03  0.17120000000E+03 0.  0.
        998    1    1    2    0    0  0.38957144143E+00  0.15329888583E+02  0.13361618883E+04  0.13362873004E+04  0.10000000000E+02 0. -1.
</event>
<event>
 5    1  0.1303633E-008  0.3739614E+03  0.7957747E-01  0.3477881E+00
         13   -1    0    0    0    0  0.00000000000E+00  0.00000000000E+00  0.14999999963E+04  0.15000000000E+04  0.10566000000E+00 0. -1.
        994   -1    0    0    0    0 -0.00000000000E+00 -0.00000000000E+00  0.11368683772E-12  0.17120000000E+03  0.17120000000E+03 0.  0.
         13    1    1    2    0    0  0.17808849003E+02  0.22538727560E+02  0.54578121513E+02  0.61676023338E+02  0.10566000000E+00 0. -1.
        994    1    1    2    0    0 -0.85003720527E+01 -0.16112922151E+02  0.83459265204E+01  0.17236872418E+03  0.17120000000E+03 0.  0.
        998    1    1    2    0    0 -0.93084769502E+01 -0.64258054095E+01  0.14370759482E+04  0.14371552525E+04  0.10000000000E+02 0. -1.
</event>
<event>
 5    1  0.1303633E-008  0.3845158E+03  0.7957747E-01  0.3431728E+00
         13   -1    0    0    0    0  0.00000000000E+00  0.00000000000E+00  0.14999999963E+04  0.15000000000E+04  0.10566000000E+00 0. -1.
        994   -1    0    0    0    0 -0.00000000000E+00 -0.00000000000E+00  0.11368683772E-12  0.17120000000E+03  0.17120000000E+03 0.  0.
         13    1    1    2    0    0 -0.81326300209E+01 -0.95534764018E+01  0.43213991269E+02  0.44998542064E+02  0.10566000000E+00 0. -1.
        994    1    1    2    0    0  0.12363185170E+02 -0.84044740681E+01  0.26071936522E+01  0.17187123375E+03  0.17120000000E+03 0.  0.
        998    1    1    2    0    0 -0.42305551494E+01  0.17957950470E+02  0.14541788114E+04  0.14543302242E+04  0.10000000000E+02 0. -1.
</event>
<event>
 5    1  0.1303633E-008  0.3817412E+03  0.7957747E-01  0.3443612E+00
         13   -1    0    0    0    0  0.00000000000E+00  0.00000000000E+00  0.14999999963E+04  0.15000000000E+04  0.10566000000E+00 0.  1.
        994   -1    0    0    0    0 -0.00000000000E+00 -0.00000000000E+00  0.11368683772E-12  0.17120000000E+03  0.17120000000E+03 0.  0.
         13    1    1    2    0    0 -0.85816616271E+01  0.79753851308E+01  0.19927338068E+02  0.23116263772E+02  0.10566000000E+00 0.  1.
        994    1    1    2    0    0  0.39704360524E+01 -0.37624684897E+01  0.33562297084E+01  0.17132024051E+03  0.17120000000E+03 0.  0.
        998    1    1    2    0    0  0.46112255748E+01 -0.42129166411E+01  0.14767164285E+04  0.14767634957E+04  0.10000000000E+02 0.  1.
</event>
<event>
 5    1  0.1303633E-008  0.3786863E+03  0.7957747E-01  0.3456899E+00
         13   -1    0    0    0    0  0.00000000000E+00  0.00000000000E+00  0.14999999963E+04  0.15000000000E+04  0.10566000000E+00 0.  1.
        994   -1    0    0    0    0 -0.00000000000E+00 -0.00000000000E+00  0.11368683772E-12  0.17120000000E+03  0.17120000000E+03 0.  0.
         13    1    1    2    0    0  0.33289797027E+02 -0.43806698048E+02  0.23713503589E+03  0.24343433158E+03  0.10566000000E+00 0.  1.
        994    1    1    2    0    0 -0.39847632324E+02  0.57504833044E+02  0.21411179522E+02  0.18617872659E+03  0.17120000000E+03 0.  0.
        998    1    1    2    0    0  0.65578352969E+01 -0.13698134996E+02  0.12414537809E+04  0.12415869418E+04  0.10000000000E+02 0.  1.
</event>
<event>
 5    1  0.1303633E-008  0.3730203E+03  0.7957747E-01  0.3482124E+00
         13   -1    0    0    0    0  0.00000000000E+00  0.00000000000E+00  0.14999999963E+04  0.15000000000E+04  0.10566000000E+00 0.  1.
        994   -1    0    0    0    0 -0.00000000000E+00 -0.00000000000E+00  0.11368683772E-12  0.17120000000E+03  0.17120000000E+03 0.  0.
         13    1    1    2    0    0 -0.20789045185E+02 -0.12303527108E+03  0.75257604458E+03  0.76285029748E+03  0.10566000000E+00 0.  1.
        994    1    1    2    0    0 -0.23946577518E+02  0.10800448847E+03  0.50813775931E+02  0.21007114968E+03  0.17120000000E+03 0.  0.
        998    1    1    2    0    0  0.44735622703E+02  0.15030782608E+02  0.69661017577E+03  0.69827855284E+03  0.10000000000E+02 0.  1.
</event>
<event>
 5    1  0.2119726E-008  0.3862309E+03  0.7957747E-01  0.3424469E+00
         13   -1    0    0    0    0  0.00000000000E+00  0.00000000000E+00  0.14999999963E+04  0.15000000000E+04  0.10566000000E+00 0. -1.
        994   -1    0    0    0    0 -0.00000000000E+00 -0.00000000000E+00  0.11368683772E-12  0.17120000000E+03  0.17120000000E+03 0.  0.
         13    1    1    2    0    0  0.10129217728E+02 -0.44461364247E+01  0.64591204446E+02  0.65531702532E+02  0.10566000000E+00 0. -1.
        994    1    1    2    0    0  0.93066202554E+00  0.24020554163E+01  0.10419969985E+01  0.17122255038E+03  0.17120000000E+03 0.  0.
        998    1    1    2    0    0 -0.11059879753E+02  0.20440810084E+01  0.14343667948E+04  0.14344457471E+04  0.10000000000E+02 0. -1.
</event>
<event>
 5    1  0.1303633E-008  0.3801814E+03  0.7957747E-01  0.3450369E+00
         13   -1    0    0    0    0  0.00000000000E+00  0.00000000000E+00  0.14999999963E+04  0.15000000000E+04  0.10566000000E+00 0.  1.
        994   -1    0    0    0    0 -0.00000000000E+00 -0.00000000000E+00  0.11368683772E-12  0.17120000000E+03  0.17120000000E+03 0.  0.
         13    1    1    2    0    0  0.10665107742E+02  0.68084254852E+01  0.18139766487E+02  0.22116995117E+02  0.10566000000E+00 0.  1.
        994    1    1    2    0    0 -0.81109085567E+01 -0.27147685463E+01  0.42860437413E+01  0.17146710173E+03  0.17120000000E+03 0.  0.
        998    1    1    2    0    0 -0.25541991853E+01 -0.40936569389E+01  0.14775741861E+04  0.14776159032E+04  0.10000000000E+02 0.  1.
</event>
<event>
 5    1  0.1303633E-008  0.3796851E+03  0.7957747E-01  0.3452531E+00
         13   -1    0    0    0    0  0.00000000000E+00  0.00000000000E+00  0.14999999963E+04  0.15000000000E+04  0.10566000000E+00 0. -1.
        994   -1    0    0    0    0 -0.00000000000E+00 -0.00000000000E+00  0.11368683772E-12  0.17120000000E+03  0.17120000000E+03 0.  0.
         13    1    1    2    0    0 -0.71942842106E+01 -0.10935011231E+02  0.19037564640E+02  0.23103511148E+02  0.10566000000E+00 0. -1.
        994    1    1    2    0    0 -0.12405423627E+02 -0.28066695621E+01  0.48337327571E+01  0.17173985240E+03  0.17120000000E+03 0.  0.
        998    1    1    2    0    0  0.19599707837E+02  0.13741680793E+02  0.14761286989E+04  0.14763566365E+04  0.10000000000E+02 0. -1.
</event>
<event>
 5    1  0.1303633E-008  0.3757071E+03  0.7957747E-01  0.3470066E+00
         13   -1    0    0    0    0  0.00000000000E+00  0.00000000000E+00  0.14999999963E+04  0.15000000000E+04  0.10566000000E+00 0.  1.
        994   -1    0    0    0    0 -0.00000000000E+00 -0.00000000000E+00  0.11368683772E-12  0.17120000000E+03  0.17120000000E+03 0.  0.
         13    1    1    2    0    0  0.29049204288E+02  0.79201555740E+02  0.22038316584E+03  0.23597773973E+03  0.10566000000E+00 0.  1.
        994    1    1    2    0    0 -0.95813808134E+02 -0.49804595497E+02  0.56853580703E+02  0.21024403250E+03  0.17120000000E+03 0.  0.
        998    1    1    2    0    0  0.66764603847E+02 -0.29396960243E+02  0.12227632497E+04  0.12249782278E+04  0.10000000000E+02 0.  1.
</event>
<event>
 5    1  0.1303633E-008  0.3838004E+03  0.7957747E-01  0.3434776E+00
         13   -1    0    0    0    0  0.00000000000E+00  0.00000000000E+00  0.14999999963E+04  0.15000000000E+04  0.10566000000E+00 0.  1.
        994   -1    0    0    0    0 -0.00000000000E+00 -0.00000000000E+00  0.11368683772E-12  0.17120000000E+03  0.17120000000E+03 0.  0.
         13    1    1    2    0    0 -0.10828758458E+02  0.10362648115E+02  0.55180965301E+02  0.57180386334E+02  0.10566000000E+00 0.  1.
        994    1    1    2    0    0  0.18001847717E+01  0.15566248108E+02  0.30379715507E+01  0.17194248462E+03  0.17120000000E+03 0.  0.
        998    1    1    2    0    0  0.90285736867E+01 -0.25928896223E+02  0.14417810594E+04  0.14420771290E+04  0.10000000000E+02 0.  1.
</event>
<event>
 5    1  0.1303633E-008  0.3768527E+03  0.7957747E-01  0.3464978E+00
         13   -1    0    0    0    0  0.00000000000E+00  0.00000000000E+00  0.14999999963E+04  0.15000000000E+04  0.10566000000E+00 0. -1.
        994   -1    0    0    0    0 -0.00000000000E+00 -0.00000000000E+00  0.11368683772E-12  0.17120000000E+03  0.17120000000E+03 0.  0.
         13    1    1    2    0    0  0.19233055983E+00 -0.13222426615E+02  0.12914098425E+02  0.18483902694E+02  0.10566000000E+00 0. -1.
        994    1    1    2    0    0 -0.69342059798E+00  0.31241609061E+01  0.57649857151E+01  0.17132692805E+03  0.17120000000E+03 0.  0.
        998    1    1    2    0    0  0.50109003815E+00  0.10098265709E+02  0.14813209121E+04  0.14813891693E+04  0.10000000000E+02 0. -1.
</event>
<event>
 5    1  0.1303633E-008  0.3750302E+03  0.7957747E-01  0.3473088E+00
         13   -1    0    0    0    0  0.00000000000E+00  0.00000000000E+00  0.14999999963E+04  0.15000000000E+04  0.10566000000E+00 0. -1.
        994   -1    0    0    0    0 -0.00000000000E+00 -0.00000000000E+00  0.11368683772E-12  0.17120000000E+03  0.17120000000E+03 0.  0.
         13    1    1    2    0    0 -0.90874551175E-01 -0.10400070129E+02  0.50700891567E+01  0.11570941403E+02  0.10566000000E+00 0. -1.
        994    1    1    2    0    0 -0.18701029982E+01  0.52799793444E+01  0.67698852886E+01  0.17142533889E+03  0.17120000000E+03 0.  0.
        998    1    1    2    0    0  0.19609775494E+01  0.51200907843E+01  0.14881600218E+04  0.14882037197E+04  0.10000000000E+02 0. -1.
</event>
<event>
 5    1  0.1303633E-008  0.3775711E+03  0.7957747E-01  0.3461803E+00
         13   -1    0    0    0    0  0.00000000000E+00  0.00000000000E+00  0.14999999963E+04  0.15000000000E+04  0.10566000000E+00 0.  1.
        994   -1    0    0    0    0 -0.00000000000E+00 -0.00000000000E+00  0.11368683772E-12  0.17120000000E+03  0.17120000000E+03 0.  0.
         13    1    1    2    0    0  0.21175455798E+02  0.20369378013E+02  0.24142329550E+02  0.38028604090E+02  0.10566000000E+00 0.  1.
        994    1    1    2    0    0 -0.23432624051E+01  0.11864485379E+02  0.15524963684E+02  0.17232736692E+03  0.17120000000E+03 0.  0.
        998    1    1    2    0    0 -0.18832193393E+02 -0.32233863392E+02  0.14603327030E+04  0.14608440290E+04  0.10000000000E+02 0.  1.
</event>
<event>
 5    1  0.1303633E-008  0.3776357E+03  0.7957747E-01  0.3461518E+00
         13   -1    0    0    0    0  0.00000000000E+00  0.00000000000E+00  0.14999999963E+04  0.15000000000E+04  0.10566000000E+00 0. -1.
        994   -1    0    0    0    0 -0.00000000000E+00 -0.00000000000E+00  0.11368683772E-12  0.17120000000E+03  0.17120000000E+03 0.  0.
         13    1    1    2    0    0 -0.55369752530E+02 -0.68322454694E+02  0.44427708042E+03  0.45289723190E+03  0.10566000000E+00 0. -1.
        994    1    1    2    0    0  0.32531310625E+02  0.10647940998E+03  0.48305483066E+02  0.20985473694E+03  0.17120000000E+03 0.  0.
        998    1    1    2    0    0  0.22838441905E+02 -0.38156955286E+02  0.10074174328E+04  0.10084480312E+04  0.10000000000E+02 0. -1.
</event>
<event>
 5    1  0.1303633E-008  0.3840148E+03  0.7957747E-01  0.3433862E+00
         13   -1    0    0    0    0  0.00000000000E+00  0.00000000000E+00  0.14999999963E+04  0.15000000000E+04  0.10566000000E+00 0. -1.
        994   -1    0    0    0    0 -0.00000000000E+00 -0.00000000000E+00  0.11368683772E-12  0.17120000000E+03  0.17120000000E+03 0.  0.
         13    1    1    2    0    0  0.11692987755E+02  0.14756862170E+02  0.82540015691E+02  0.84660240361E+02  0.10566000000E+00 0. -1.
        994    1    1    2    0    0 -0.12707260919E+02 -0.69086380810E+01  0.28105913072E+01  0.17183289319E+03  0.17120000000E+03 0.  0.
        998    1    1    2    0    0  0.10142731645E+01 -0.78482240892E+01  0.14146493893E+04  0.14147068664E+04  0.10000000000E+02 0. -1.
</event>
<event>
 5    1  0.1303633E-008  0.3862222E+03  0.7957747E-01  0.3424505E+00
         13   -1    0    0    0    0  0.00000000000E+00  0.00000000000E+00  0.14999999963E+04  0.15000000000E+04  0.10566000000E+00 0.  1.
        994   -1    0    0    0    0 -0.00000000000E+00 -0.00000000000E+00  0.11368683772E-12  0.17120000000E+03  0.17120000000E+03 0.  0.
         13    1    1    2    0    0 -0.10623265830E+02 -0.12800477690E+01  0.59870779291E+02  0.60819517231E+02  0.10566000000E+00 0.  1.
        994    1    1    2    0    0  0.80440327501E+00 -0.44053866806E+01  0.10902372357E+01  0.17126203057E+03  0.17120000000E+03 0.  0.
        998    1    1    2    0    0  0.98188625554E+01  0.56854344497E+01  0.14390389798E+04  0.14391184522E+04  0.10000000000E+02 0.  1.
</event>
<event>
 5    1  0.1303633E-008  0.3789798E+03  0.7957747E-01  0.3455613E+00
         13   -1    0    0    0    0  0.00000000000E+00  0.00000000000E+00  0.14999999963E+04  0.15000000000E+04  0.10566000000E+00 0. -1.
        994   -1    0    0    0    0 -0.00000000000E+00 -0.00000000000E+00  0.11368683772E-12  0.17120000000E+03  0.17120000000E+03 0.  0.
         13    1    1    2    0    0 -0.15605898589E+02 -0.99024608338E+00  0.24544293897E+02  0.29102546023E+02  0.10566000000E+00 0. -1.
        994    1    1    2    0    0  0.92094434815E+01 -0.13714414267E+02  0.55649033030E+01  0.17208517413E+03  0.17120000000E+03 0.  0.
        998    1    1    2    0    0  0.63964551074E+01  0.14704660350E+02  0.14698907991E+04  0.14700122798E+04  0.10000000000E+02 0. -1.
</event>
<event>
 5    1  0.1303633E-008  0.3783869E+03  0.7957747E-01  0.3458212E+00
         13   -1    0    0    0    0  0.00000000000E+00  0.00000000000E+00  0.14999999963E+04  0.15000000000E+04  0.10566000000E+00 0. -1.
        994   -1    0    0    0    0 -0.00000000000E+00 -0.00000000000E+00  0.11368683772E-12  0.17120000000E+03  0.17120000000E+03 0.  0.
         13    1    1    2    0    0 -0.24042380048E+02  0.17649005186E+02  0.24187891202E+02  0.38400373270E+02  0.10566000000E+00 0. -1.
        994    1    1    2    0    0 -0.54202989106E+01  0.92281615230E+01  0.15856841340E+02  0.17226554508E+03  0.17120000000E+03 0.  0.
        998    1    1    2    0    0  0.29462678959E+02 -0.26877166709E+02  0.14599552637E+04  0.14605340816E+04  0.10000000000E+02 0. -1.
</event>
<event>
 5    1  0.1303633E-008  0.3760564E+03  0.7957747E-01  0.3468512E+00
         13   -1    0    0    0    0  0.00000000000E+00  0.00000000000E+00  0.14999999963E+04  0.15000000000E+04  0.10566000000E+00 0. -1.
        994   -1    0    0    0    0 -0.00000000000E+00 -0.00000000000E+00  0.11368683772E-12  0.17120000000E+03  0.17120000000E+03 0.  0.
         13    1    1    2    0    0  0.16286727603E+02 -0.99313780366E+01  0.28414611760E+02  0.34224130248E+02  0.10566000000E+00 0. -1.
        994    1    1    2    0    0  0.74044784890E+01  0.33114382161E+01  0.63601137775E+01  0.17151000837E+03  0.17120000000E+03 0.  0.
        998    1    1    2    0    0 -0.23691206092E+02  0.66199398206E+01  0.14652252707E+04  0.14654658614E+04  0.10000000000E+02 0. -1.
</event>
<event>
 5    1  0.1303633E-008  0.3848841E+03  0.7957747E-01  0.3430164E+00
         13   -1    0    0    0    0  0.00000000000E+00  0.00000000000E+00  0.14999999963E+04  0.15000000000E+04  0.10566000000E+00 0.  1.
        994   -1    0    0    0    0 -0.00000000000E+00 -0.00000000000E+00  0.11368683772E-12  0.17120000000E+03  0.17120000000E+03 0.  0.
         13    1    1    2    0    0 -0.90234825706E+01 -0.83087142270E+01  0.44800688846E+02  0.46449659363E+02  0.10566000000E+00 0.  1.
        994    1    1    2    0    0  0.14573419030E+01  0.82533686754E+01  0.19188305040E+01  0.17141576313E+03  0.17120000000E+03 0.  0.
        998    1    1    2    0    0  0.75661406676E+01  0.55345551666E-01  0.14532804769E+04  0.14533345775E+04  0.10000000000E+02 0.  1.
</event>
<event>
 5    1  0.1303633E-008  0.3739059E+03  0.7957747E-01  0.3478130E+00
         13   -1    0    0    0    0  0.00000000000E+00  0.00000000000E+00  0.14999999963E+04  0.15000000000E+04  0.10566000000E+00 0. -1.
        994   -1    0    0    0    0 -0.00000000000E+00 -0.00000000000E+00  0.11368683772E-12  0.17120000000E+03  0.17120000000E+03 0.  0.
         13    1    1    2    0    0 -0.14822633809E+01  0.11480732749E+02  0.58673275616E+01  0.12978483191E+02  0.10566000000E+00 0. -1.
        994    1    1    2    0    0  0.19968729757E+01 -0.12580771585E+02  0.77954316367E+01  0.17185014422E+03  0.17120000000E+03 0.  0.
        998    1    1    2    0    0 -0.51460959481E+00  0.11000388353E+01  0.14863372371E+04  0.14863713726E+04  0.10000000000E+02 0. -1.
</event>
<event>
 5    1  0.1303633E-008  0.3840589E+03  0.7957747E-01  0.3433673E+00
         13   -1    0    0    0    0  0.00000000000E+00  0.00000000000E+00  0.14999999963E+04  0.15000000000E+04  0.10566000000E+00 0. -1.
        994   -1    0    0    0    0 -0.00000000000E+00 -0.00000000000E+00  0.11368683772E-12  0.17120000000E+03  0.17120000000E+03 0.  0.
         13    1    1    2    0    0  0.16857081756E+02  0.20927746425E+01  0.71095795711E+02  0.73096950982E+02  0.10566000000E+00 0. -1.
        994    1    1    2    0    0 -0.36320513097E+01 -0.67585944364E+01  0.22923041309E+01  0.17138717879E+03  0.17120000000E+03 0.  0.
        998    1    1    2    0    0 -0.13225030447E+02  0.46658197938E+01  0.14266118964E+04  0.14267158702E+04  0.10000000000E+02 0. -1.
</event>
<event>
 5    1  0.1303633E-008  0.3821743E+03  0.7957747E-01  0.3441746E+00
         13   -1    0    0    0    0  0.00000000000E+00  0.00000000000E+00  0.14999999963E+04  0.15000000000E+04  0.10566000000E+00 0. -1.
        994   -1    0    0    0    0 -0.00000000000E+00 -0.00000000000E+00  0.11368683772E-12  0.17120000000E+03  0.17120000000E+03 0.  0.
         13    1    1    2    0    0 -0.14622064874E+02 -0.13886252343E+01  0.37895988744E+02  0.40642959885E+02  0.10566000000E+00 0. -1.
        994    1    1    2    0    0 -0.15853966112E+02  0.23417631135E+01  0.38925036679E+01  0.17199251054E+03  0.17120000000E+03 0.  0.
        998    1    1    2    0    0  0.30476030986E+02 -0.95313787918E+00  0.14582115039E+04  0.14585645296E+04  0.10000000000E+02 0. -1.
</event>
<event>
 5    1  0.1303633E-008  0.3832885E+03  0.7957747E-01  0.3436964E+00
         13   -1    0    0    0    0  0.00000000000E+00  0.00000000000E+00  0.14999999963E+04  0.15000000000E+04  0.10566000000E+00 0.  1.
        994   -1    0    0    0    0 -0.00000000000E+00 -0.00000000000E+00  0.11368683772E-12  0.17120000000E+03  0.17120000000E+03 0.  0.
         13    1    1    2    0    0  0.24891594062E+02 -0.13067795395E+02  0.13809925479E+03  0.14093180644E+03  0.10566000000E+00 0.  1.
        994    1    1    2    0    0 -0.27961046312E+02  0.22967227899E+02  0.68242541647E+01  0.17511517385E+03  0.17120000000E+03 0.  0.
        998    1    1    2    0    0  0.30694522491E+01 -0.98994325032E+01  0.13550764873E+04  0.13551530197E+04  0.10000000000E+02 0.  1.
</event>
<event>
 5    1  0.1303633E-008  0.3732244E+03  0.7957747E-01  0.3481202E+00
         13   -1    0    0    0    0  0.00000000000E+00  0.00000000000E+00  0.14999999963E+04  0.15000000000E+04  0.10566000000E+00 0. -1.
        994   -1    0    0    0    0 -0.00000000000E+00 -0.00000000000E+00  0.11368683772E-12  0.17120000000E+03  0.17120000000E+03 0.  0.
         13    1    1    2    0    0 -0.57920707765E+02 -0.56037418544E+02  0.28697201619E+03  0.29807373233E+03  0.10566000000E+00 0. -1.
        994    1    1    2    0    0  0.10911231223E+02  0.25234920990E+02  0.15331277964E+02  0.17406994079E+03  0.17120000000E+03 0.  0.
        998    1    1    2    0    0  0.47009476542E+02  0.30802497554E+02  0.11976967021E+04  0.11990563269E+04  0.10000000000E+02 0. -1.
</event>
<event>
 5    1  0.1303633E-008  0.3772338E+03  0.7957747E-01  0.3463292E+00
         13   -1    0    0    0    0  0.00000000000E+00  0.00000000000E+00  0.14999999963E+04  0.15000000000E+04  0.10566000000E+00 0. -1.
        994   -1    0    0    0    0 -0.00000000000E+00 -0.00000000000E+00  0.11368683772E-12  0.17120000000E+03  0.17120000000E+03 0.  0.
         13    1    1    2    0    0  0.81880168368E+01 -0.35116591739E+02  0.11055114296E+03  0.11628321035E+03  0.10566000000E+00 0. -1.
        994    1    1    2    0    0 -0.35895377954E+01  0.30926609395E+02  0.88133324614E+01  0.17423103851E+03  0.17120000000E+03 0.  0.
        998    1    1    2    0    0 -0.45984790414E+01  0.41899823443E+01  0.13806355209E+04  0.13806857511E+04  0.10000000000E+02 0. -1.
</event>
<event>
 5    1  0.1303633E-008  0.3734498E+03  0.7957747E-01  0.3480185E+00
         13   -1    0    0    0    0  0.00000000000E+00  0.00000000000E+00  0.14999999963E+04  0.15000000000E+04  0.10566000000E+00 0.  1.
        994   -1    0    0    0    0 -0.00000000000E+00 -0.00000000000E+00  0.11368683772E-12  0.17120000000E+03  0.17120000000E+03 0.  0.
         13    1    1    2    0    0  0.13246009975E+02 -0.32344664906E+01  0.88112405023E+01  0.16234767537E+02  0.10566000000E+00 0.  1.
        994    1    1    2    0    0 -0.18245727157E+02  0.16191423833E+02  0.95130185803E+01  0.17319066455E+03  0.17120000000E+03 0.  0.
        998    1    1    2    0    0  0.49997171823E+01 -0.12956957342E+02  0.14816757372E+04  0.14817745679E+04  0.10000000000E+02 0.  1.
</event>
<event>
 5    1  0.1303633E-008  0.3799020E+03  0.7957747E-01  0.3451585E+00
         13   -1    0    0    0    0  0.00000000000E+00  0.00000000000E+00  0.14999999963E+04  0.15000000000E+04  0.10566000000E+00 0. -1.
        994   -1    0    0    0    0 -0.00000000000E+00 -0.00000000000E+00  0.11368683772E-12  0.17120000000E+03  0.17120000000E+03 0.  0.
         13    1    1    2    0    0 -0.27384380171E+02  0.23786518343E+02  0.14203630275E+03  0.14659476524E+03  0.10566000000E+00 0. -1.
        994    1    1    2    0    0  0.34680553727E+02 -0.16290315548E+02  0.91076702994E+01  0.17567158235E+03  0.17120000000E+03 0.  0.
        998    1    1    2    0    0 -0.72961735567E+01 -0.74962027950E+01  0.13488560232E+04  0.13489336524E+04  0.10000000000E+02 0. -1.
</event>
<event>
 5    1  0.1303633E-008  0.3696464E+03  0.7957747E-01  0.3497518E+00
         13   -1    0    0    0    0  0.00000000000E+00  0.00000000000E+00  0.14999999963E+04  0.15000000000E+04  0.10566000000E+00 0. -1.
        994   -1    0    0    0    0 -0.00000000000E+00 -0.00000000000E+00  0.11368683772E-12  0.17120000000E+03  0.17120000000E+03 0.  0.
         13    1    1    2    0    0  0.26298179797E+01  0.10264864541E+02  0.15476880068E+01  0.10709336527E+02  0.10566000000E+00 0. -1.
        994    1    1    2    0    0 -0.34172401989E+01 -0.47906603817E+01  0.95739341136E+01  0.17156843583E+03  0.17120000000E+03 0.  0.
        998    1    1    2    0    0  0.78742221920E+00 -0.54742041589E+01  0.14888783742E+04  0.14889222276E+04  0.10000000000E+02 0. -1.
</event>
<event>
 5    1  0.1303633E-008  0.3841320E+03  0.7957747E-01  0.3433362E+00
         13   -1    0    0    0    0  0.00000000000E+00  0.00000000000E+00  0.14999999963E+04  0.15000000000E+04  0.10566000000E+00 0. -1.
        994   -1    0    0    0    0 -0.00000000000E+00 -0.00000000000E+00  0.11368683772E-12  0.17120000000E+03  0.17120000000E+03 0.  0.
         13    1    1    2    0    0  0.50232436987E+01  0.13202426505E+02  0.52604549670E+02  0.54468218742E+02  0.10566000000E+00 0. -1.
        994    1    1    2    0    0 -0.43280732496E+01  0.10506982973E+02  0.24876897601E+01  0.17159474791E+03  0.17120000000E+03 0.  0.
        998    1    1    2    0    0 -0.69517044907E+00 -0.23709409477E+02  0.14449077568E+04  0.14451370334E+04  0.10000000000E+02 0. -1.
</event>
<event>
 5    1  0.1303633E-008  0.3854883E+03  0.7957747E-01  0.3427604E+00
         13   -1    0    0    0    0  0.00000000000E+00  0.00000000000E+00  0.14999999963E+04  0.15000000000E+04  0.10566000000E+00 0.  1.
        994   -1    0    0    0    0 -0.00000000000E+00 -0.00000000000E+00  0.11368683772E-12  0.17120000000E+03  0.17120000000E+03 0.  0.
         13    1    1    2    0    0 -0.60723000157E+01 -0.11957430906E+02  0.61083186637E+02  0.62538147039E+02  0.10566000000E+00 0.  1.
        994    1    1    2    0    0  0.14502595042E+02  0.13610481482E+02  0.26878347910E+01  0.17237237286E+03  0.17120000000E+03 0.  0.
        998    1    1    2    0    0 -0.84302950260E+01 -0.16530505764E+01  0.14362289749E+04  0.14362894801E+04  0.10000000000E+02 0.  1.
</event>
<event>
 5    1  0.1303633E-008  0.3802395E+03  0.7957747E-01  0.3450116E+00
         13   -1    0    0    0    0  0.00000000000E+00  0.00000000000E+00  0.14999999963E+04  0.15000000000E+04  0.10566000000E+00 0. -1.
        994   -1    0    0    0    0 -0.00000000000E+00 -0.00000000000E+00  0.11368683772E-12  0.17120000000E+03  0.17120000000E+03 0.  0.
         13    1    1    2    0    0 -0.46906622027E+01 -0.39914346534E+02  0.17469823859E+03  0.17926138207E+03  0.10566000000E+00 0. -1.
        994    1    1    2    0    0  0.12230631727E+02  0.42058983350E+02  0.10447517747E+02  0.17702298455E+03  0.17120000000E+03 0.  0.
        998    1    1    2    0    0 -0.75399695239E+01 -0.21446368169E+01  0.13148542399E+04  0.13149156334E+04  0.10000000000E+02 0. -1.
</event>
<event>
 5    1  0.1303633E-008  0.3829099E+03  0.7957747E-01  0.3438585E+00
         13   -1    0    0    0    0  0.00000000000E+00  0.00000000000E+00  0.14999999963E+04  0.15000000000E+04  0.10566000000E+00 0.  1.
        994   -1    0    0    0    0 -0.00000000000E+00 -0.00000000000E+00  0.11368683772E-12  0.17120000000E+03  0.17120000000E+03 0.  0.
         13    1    1    2    0    0  0.24171079423E+02  0.19611060661E+01  0.10471991736E+03  0.10749120557E+03  0.10566000000E+00 0.  1.
        994    1    1    2    0    0 -0.21748425301E+02  0.30801496584E+00  0.42394060156E+01  0.17262821739E+03  0.17120000000E+03 0.  0.
        998    1    1    2    0    0 -0.24226541218E+01 -0.22691210319E+01  0.13910406729E+04  0.13910805770E+04  0.10000000000E+02 0.  1.
</event>
<event>
 5    1  0.1303633E-008  0.3811572E+03  0.7957747E-01  0.3446135E+00
         13   -1    0    0    0    0  0.00000000000E+00  0.00000000000E+00  0.14999999963E+04  0.15000000000E+04  0.10566000000E+00 0.  1.
        994   -1    0    0    0    0 -0.00000000000E+00 -0.00000000000E+00  0.11368683772E-12  0.17120000000E+03  0.17120000000E+03 0.  0.
         13    1    1    2    0    0  0.35069063835E+02 -0.22346808759E+01  0.18141586802E+03  0.18478788210E+03  0.10566000000E+00 0.  1.
        994    1    1    2    0    0 -0.13608806659E+02  0.75352044506E+01  0.43563916609E+01  0.17196045206E+03  0.17120000000E+03 0.  0.
        998    1    1    2    0    0 -0.21460257176E+02 -0.53005235746E+01  0.13142277366E+04  0.13144516658E+04  0.10000000000E+02 0.  1.
</event>
<event>
 5    1  0.1303633E-008  0.3711426E+03  0.7957747E-01  0.3490656E+00
         13   -1    0    0    0    0  0.00000000000E+00  0.00000000000E+00  0.14999999963E+04  0.15000000000E+04  0.10566000000E+00 0. -1.
        994   -1    0    0    0    0 -0.00000000000E+00 -0.00000000000E+00  0.11368683772E-12  0.17120000000E+03  0.17120000000E+03 0.  0.
         13    1    1    2    0    0  0.47206411141E+02 -0.13386521273E+02  0.14292285785E+03  0.15111121290E+03  0.10566000000E+00 0. -1.
        994    1    1    2    0    0 -0.20922265137E+02 -0.59419185567E+01  0.10303959857E+02  0.17288336867E+03  0.17120000000E+03 0.  0.
        998    1    1    2    0    0 -0.26284146005E+02  0.19328439830E+02  0.13467731786E+04  0.13472054184E+04  0.10000000000E+02 0. -1.
</event>
<event>
 5    1  0.1303633E-008  0.3714556E+03  0.7957747E-01  0.3489228E+00
         13   -1    0    0    0    0  0.00000000000E+00  0.00000000000E+00  0.14999999963E+04  0.15000000000E+04  0.10566000000E+00 0. -1.
        994   -1    0    0    0    0 -0.00000000000E+00 -0.00000000000E+00  0.11368683772E-12  0.17120000000E+03  0.17120000000E+03 0.  0.
         13    1    1    2    0    0  0.23171845798E+02 -0.54078591252E+01  0.19654973674E+02  0.30862736952E+02  0.10566000000E+00 0. -1.
        994    1    1    2    0    0 -0.58772446679E+01  0.79775037804E+01  0.12055657120E+02  0.17190974795E+03  0.17120000000E+03 0.  0.
        998    1    1    2    0    0 -0.17294601130E+02 -0.25696446552E+01  0.14682893655E+04  0.14684275151E+04  0.10000000000E+02 0. -1.
</event>
<event>
 5    1  0.1303633E-008  0.3743119E+03  0.7957747E-01  0.3476306E+00
         13   -1    0    0    0    0  0.00000000000E+00  0.00000000000E+00  0.14999999963E+04  0.15000000000E+04  0.10566000000E+00 0.  1.
        994   -1    0    0    0    0 -0.00000000000E+00 -0.00000000000E+00  0.11368683772E-12  0.17120000000E+03  0.17120000000E+03 0.  0.
         13    1    1    2    0    0  0.75434719014E+01  0.65959837325E+01  0.38599869148E+01  0.10738791028E+02  0.10566000000E+00 0.  1.
        994    1    1    2    0    0 -0.69514004558E+01 -0.49179460877E+01  0.72795864990E+01  0.17156614043E+03  0.17120000000E+03 0.  0.
        998    1    1    2    0    0 -0.59207144561E+00 -0.16780376448E+01  0.14888604229E+04  0.14888950685E+04  0.10000000000E+02 0.  1.
</event>
<event>
 5    1  0.1303633E-008  0.3841519E+03  0.7957747E-01  0.3433277E+00
         13   -1    0    0    0    0  0.00000000000E+00  0.00000000000E+00  0.14999999963E+04  0.15000000000E+04  0.10566000000E+00 0.  1.
        994   -1    0    0    0    0 -0.00000000000E+00 -0.00000000000E+00  0.11368683772E-12  0.17120000000E+03  0.17120000000E+03 0.  0.
         13    1    1    2    0    0  0.28216576759E+01 -0.20742581369E+02  0.12045570811E+03  0.12226121713E+03  0.10566000000E+00 0.  1.
        994    1    1    2    0    0 -0.16204133102E-01 -0.25585171794E+01  0.20733905493E+01  0.17123167120E+03  0.17120000000E+03 0.  0.
        998    1    1    2    0    0 -0.28054535428E+01  0.23301098549E+02  0.13774708976E+04  0.13777071117E+04  0.10000000000E+02 0.  1.
</event>
<event>
 5    1  0.1303633E-008  0.3814028E+03  0.7957747E-01  0.3445073E+00
         13   -1    0    0    0    0  0.00000000000E+00  0.00000000000E+00  0.14999999963E+04  0.15000000000E+04  0.10566000000E+00 0.  1.
        994   -1    0    0    0    0 -0.00000000000E+00 -0.00000000000E+00  0.11368683772E-12  0.17120000000E+03  0.17120000000E+03 0.  0.
         13    1    1    2    0    0 -0.15025573000E+02  0.17123129040E+02  0.72735220972E+02  0.76219373692E+02  0.10566000000E+00 0.  1.
        994    1    1    2    0    0  0.14066049720E+02 -0.13685081170E+02  0.47092503407E+01  0.17238547572E+03  0.17120000000E+03 0.  0.
        998    1    1    2    0    0  0.95952328045E+00 -0.34380478703E+01  0.14225555250E+04  0.14225951506E+04  0.10000000000E+02 0.  1.
</event>
<event>
 5    1  0.1303633E-008  0.3721356E+03  0.7957747E-01  0.3486133E+00
         13   -1    0    0    0    0  0.00000000000E+00  0.00000000000E+00  0.14999999963E+04  0.15000000000E+04  0.10566000000E+00 0. -1.
        994   -1    0    0    0    0 -0.00000000000E+00 -0.00000000000E+00  0.11368683772E-12  0.17120000000E+03  0.17120000000E+03 0.  0.
         13    1    1    2    0    0  0.13321119759E+02  0.80226706790E+02  0.32225393902E+03  0.33235732141E+03  0.10566000000E+00 0. -1.
        994    1    1    2    0    0 -0.17247827747E+02 -0.76555741270E+02  0.29600224528E+02  0.19064071542E+03  0.17120000000E+03 0.  0.
        998    1    1    2    0    0  0.39267079873E+01 -0.36709655204E+01  0.11481458327E+04  0.11482019632E+04  0.10000000000E+02 0.  0.
</event>
<event>
 5    1  0.1303633E-008  0.3828120E+03  0.7957747E-01  0.3439005E+00
         13   -1    0    0    0    0  0.00000000000E+00  0.00000000000E+00  0.14999999963E+04  0.15000000000E+04  0.10566000000E+00 0. -1.
        994   -1    0    0    0    0 -0.00000000000E+00 -0.00000000000E+00  0.11368683772E-12  0.17120000000E+03  0.17120000000E+03 0.  0.
         13    1    1    2    0    0 -0.14889714706E+01  0.17172529591E+02  0.55857109763E+02  0.58456314318E+02  0.10566000000E+00 0. -1.
        994    1    1    2    0    0  0.15599500275E+01 -0.30813655098E+01  0.27598391283E+01  0.17125707276E+03  0.17120000000E+03 0.  0.
        998    1    1    2    0    0 -0.70978556873E-01 -0.14091164081E+02  0.14413830474E+04  0.14414866129E+04  0.10000000000E+02 0. -1.
</event>
<event>
 5    1  0.1303633E-008  0.3861143E+03  0.7957747E-01  0.3424960E+00
         13   -1    0    0    0    0  0.00000000000E+00  0.00000000000E+00  0.14999999963E+04  0.15000000000E+04  0.10566000000E+00 0. -1.
        994   -1    0    0    0    0 -0.00000000000E+00 -0.00000000000E+00  0.11368683772E-12  0.17120000000E+03  0.17120000000E+03 0.  0.
         13    1    1    2    0    0 -0.81964960872E+01 -0.10522588228E+02  0.80096785586E+02  0.81199837662E+02  0.10566000000E+00 0. -1.
        994    1    1    2    0    0  0.14840770031E+02  0.60717778515E+01  0.19208692959E+01  0.17196000896E+03  0.17120000000E+03 0.  0.
        998    1    1    2    0    0 -0.66442739439E+01  0.44508103767E+01  0.14179823414E+04  0.14180401534E+04  0.10000000000E+02 0. -1.
</event>
<event>
 5    1  0.1303633E-008  0.3776864E+03  0.7957747E-01  0.3461295E+00
         13   -1    0    0    0    0  0.00000000000E+00  0.00000000000E+00  0.14999999963E+04  0.15000000000E+04  0.10566000000E+00 0.  1.
        994   -1    0    0    0    0 -0.00000000000E+00 -0.00000000000E+00  0.11368683772E-12  0.17120000000E+03  0.17120000000E+03 0.  0.
         13    1    1    2    0    0  0.14612188583E+02 -0.15890861664E+01  0.17849280637E+02  0.23122483286E+02  0.10566000000E+00 0.  1.
        994    1    1    2    0    0 -0.15563891757E+02  0.10711756440E+01  0.61259267400E+01  0.17201845576E+03  0.17120000000E+03 0.  0.
        998    1    1    2    0    0  0.95170317391E+00  0.51791052241E+00  0.14760247889E+04  0.14760590610E+04  0.10000000000E+02 0.  1.
</event>
<event>
 5    1  0.1303633E-008  0.3830016E+03  0.7957747E-01  0.3438192E+00
         13   -1    0    0    0    0  0.00000000000E+00  0.00000000000E+00  0.14999999963E+04  0.15000000000E+04  0.10566000000E+00 0.  1.
        994   -1    0    0    0    0 -0.00000000000E+00 -0.00000000000E+00  0.11368683772E-12  0.17120000000E+03  0.17120000000E+03 0.  0.
         13    1    1    2    0    0  0.90894894720E+01  0.48785298128E+01  0.19058819373E+02  0.21671839606E+02  0.10566000000E+00 0.  1.
        994    1    1    2    0    0 -0.11585147356E+02 -0.18320682201E+01  0.30810710435E+01  0.17162897515E+03  0.17120000000E+03 0.  0.
        998    1    1    2    0    0  0.24956578840E+01 -0.30464615927E+01  0.14778601059E+04  0.14778991852E+04  0.10000000000E+02 0.  1.
</event>
<event>
 5    1  0.1303633E-008  0.3837198E+03  0.7957747E-01  0.3435120E+00
         13   -1    0    0    0    0  0.00000000000E+00  0.00000000000E+00  0.14999999963E+04  0.15000000000E+04  0.10566000000E+00 0. -1.
        994   -1    0    0    0    0 -0.00000000000E+00 -0.00000000000E+00  0.11368683772E-12  0.17120000000E+03  0.17120000000E+03 0.  0.
         13    1    1    2    0    0 -0.10594134240E+02 -0.13406767395E+02  0.63830124497E+02  0.66077780302E+02  0.10566000000E+00 0. -1.
        994    1    1    2    0    0  0.11305711354E+02  0.53854604289E+01  0.27851449285E+01  0.17167999105E+03  0.17120000000E+03 0.  0.
        998    1    1    2    0    0 -0.71157711325E+00  0.80213069665E+01  0.14333847269E+04  0.14334422287E+04  0.10000000000E+02 0. -1.
</event>
<event>
 5    1  0.1303633E-008  0.3778635E+03  0.7957747E-01  0.3460514E+00
         13   -1    0    0    0    0  0.00000000000E+00  0.00000000000E+00  0.14999999963E+04  0.15000000000E+04  0.10566000000E+00 0. -1.
        994   -1    0    0    0    0 -0.00000000000E+00 -0.00000000000E+00  0.11368683772E-12  0.17120000000E+03  0.17120000000E+03 0.  0.
         13    1    1    2    0    0  0.66343634975E+02 -0.66743119261E+01  0.94765383541E+02  0.11587283298E+03  0.10566000000E+00 0. -1.
        994    1    1    2    0    0 -0.16031364260E+03 -0.16841350995E+02  0.11560644852E+03  0.26202745285E+03  0.17120000000E+03 0.  0.
        998    1    1    2    0    0  0.93970007621E+02  0.23515662921E+02  0.12896281642E+04  0.12932997142E+04  0.10000000000E+02 0. -1.
</event>
<event>
 5    1  0.2864218E-008  0.3859490E+03  0.7957747E-01  0.3425657E+00
         13   -1    0    0    0    0  0.00000000000E+00  0.00000000000E+00  0.14999999963E+04  0.15000000000E+04  0.10566000000E+00 0. -1.
        994   -1    0    0    0    0 -0.00000000000E+00 -0.00000000000E+00  0.11368683772E-12  0.17120000000E+03  0.17120000000E+03 0.  0.
         13    1    1    2    0    0 -0.12704516128E+02  0.33167130778E+01  0.76763497997E+02  0.77878437994E+02  0.10566000000E+00 0. -1.
        994    1    1    2    0    0  0.60309673496E+01 -0.69578843391E+00  0.12805683447E+01  0.17131239460E+03  0.17120000000E+03 0.  0.
        998    1    1    2    0    0  0.66735487779E+01 -0.26209246439E+01  0.14219559299E+04  0.14220091674E+04  0.10000000000E+02 0. -1.
</event>
<event>
 5    1  0.1303633E-008  0.3804159E+03  0.7957747E-01  0.3449350E+00
         13   -1    0    0    0    0  0.00000000000E+00  0.00000000000E+00  0.14999999963E+04  0.15000000000E+04  0.10566000000E+00 0. -1.
        994   -1    0    0    0    0 -0.00000000000E+00 -0.00000000000E+00  0.11368683772E-12  0.17120000000E+03  0.17120000000E+03 0.  0.
         13    1    1    2    0    0 -0.47575591759E+01 -0.22445959688E+02  0.82082972997E+02  0.85229578760E+02  0.10566000000E+00 0. -1.
        994    1    1    2    0    0 -0.33358180468E+01 -0.30659398369E+02  0.71050317025E+01  0.17410068313E+03  0.17120000000E+03 0.  0.
        998    1    1    2    0    0  0.80933772228E+01  0.53105358057E+02  0.14108119916E+04  0.14118697381E+04  0.10000000000E+02 0. -1.
</event>
<event>
 5    1  0.1303633E-008  0.3806779E+03  0.7957747E-01  0.3448212E+00
         13   -1    0    0    0    0  0.00000000000E+00  0.00000000000E+00  0.14999999963E+04  0.15000000000E+04  0.10566000000E+00 0.  1.
        994   -1    0    0    0    0 -0.00000000000E+00 -0.00000000000E+00  0.11368683772E-12  0.17120000000E+03  0.17120000000E+03 0.  0.
         13    1    1    2    0    0  0.13707385603E+02 -0.75773736666E+01  0.31958013559E+02  0.35589813240E+02  0.10566000000E+00 0.  1.
        994    1    1    2    0    0 -0.91425224210E+00 -0.15853837669E+01  0.38024968073E+01  0.17125200227E+03  0.17120000000E+03 0.  0.
        998    1    1    2    0    0 -0.12793133361E+02  0.91627574334E+01  0.14642394859E+04  0.14643581845E+04  0.10000000000E+02 0.  1.
</event>
<event>
 5    1  0.1303633E-008  0.3691052E+03  0.7957747E-01  0.3500013E+00
         13   -1    0    0    0    0  0.00000000000E+00  0.00000000000E+00  0.14999999963E+04  0.15000000000E+04  0.10566000000E+00 0. -1.
        994   -1    0    0    0    0 -0.00000000000E+00 -0.00000000000E+00  0.11368683772E-12  0.17120000000E+03  0.17120000000E+03 0.  0.
         13    1    1    2    0    0 -0.58193120122E+01 -0.35701633942E+02  0.64341704734E+02  0.73812852475E+02  0.10566000000E+00 0. -1.
        994    1    1    2    0    0 -0.23856480837E+01  0.20446705252E+02  0.11208639465E+02  0.17279708525E+03  0.17120000000E+03 0.  0.
        998    1    1    2    0    0  0.82049600959E+01  0.15254928690E+02  0.14244496521E+04  0.14245900623E+04  0.10000000000E+02 0. -1.
</event>
<event>
 5    1  0.1303633E-008  0.3753981E+03  0.7957747E-01  0.3471444E+00
         13   -1    0    0    0    0  0.00000000000E+00  0.00000000000E+00  0.14999999963E+04  0.15000000000E+04  0.10566000000E+00 0.  1.
        994   -1    0    0    0    0 -0.00000000000E+00 -0.00000000000E+00  0.11368683772E-12  0.17120000000E+03  0.17120000000E+03 0.  0.
         13    1    1    2    0    0 -0.23729826781E+02 -0.47131443042E+02  0.19552533459E+03  0.20252072791E+03  0.10566000000E+00 0.  1.
        994    1    1    2    0    0  0.28407980580E+01  0.49312395327E+02  0.14802032971E+02  0.17879687538E+03  0.17120000000E+03 0.  0.
        998    1    1    2    0    0  0.20889028723E+02 -0.21809522849E+01  0.12896726287E+04  0.12898823967E+04  0.10000000000E+02 0.  1.
</event>
<event>
 5    1  0.1303633E-008  0.3821314E+03  0.7957747E-01  0.3441930E+00
         13   -1    0    0    0    0  0.00000000000E+00  0.00000000000E+00  0.14999999963E+04  0.15000000000E+04  0.10566000000E+00 0. -1.
        994   -1    0    0    0    0 -0.00000000000E+00 -0.00000000000E+00  0.11368683772E-12  0.17120000000E+03  0.17120000000E+03 0.  0.
         13    1    1    2    0    0  0.22176292730E+02 -0.32030934536E+01  0.72026867454E+02  0.75431615164E+02  0.10566000000E+00 0. -1.
        994    1    1    2    0    0 -0.37472763189E+02  0.60359166958E+01  0.78581444593E+01  0.17553299036E+03  0.17120000000E+03 0.  0.
        998    1    1    2    0    0  0.15296470459E+02 -0.28328232422E+01  0.14201149844E+04  0.14202353945E+04  0.10000000000E+02 0. -1.
</event>
<event>
 5    1  0.1303633E-008  0.3845167E+03  0.7957747E-01  0.3431725E+00
         13   -1    0    0    0    0  0.00000000000E+00  0.00000000000E+00  0.14999999963E+04  0.15000000000E+04  0.10566000000E+00 0. -1.
        994   -1    0    0    0    0 -0.00000000000E+00 -0.00000000000E+00  0.11368683772E-12  0.17120000000E+03  0.17120000000E+03 0.  0.
         13    1    1    2    0    0 -0.11857579004E+01 -0.16414128991E+02  0.65650390691E+02  0.67681715509E+02  0.10566000000E+00 0. -1.
        994    1    1    2    0    0 -0.34695198291E+01  0.27232283802E+02  0.43565721834E+01  0.17344179015E+03  0.17120000000E+03 0.  0.
        998    1    1    2    0    0  0.46552777295E+01 -0.10818154811E+02  0.14299930334E+04  0.14300764943E+04  0.10000000000E+02 0. -1.
</event>
<event>
 5    1  0.1303633E-008  0.3831233E+03  0.7957747E-01  0.3437671E+00
         13   -1    0    0    0    0  0.00000000000E+00  0.00000000000E+00  0.14999999963E+04  0.15000000000E+04  0.10566000000E+00 0.  1.
        994   -1    0    0    0    0 -0.00000000000E+00 -0.00000000000E+00  0.11368683772E-12  0.17120000000E+03  0.17120000000E+03 0.  0.
         13    1    1    2    0    0 -0.95115892785E+01  0.16343971090E+02  0.72598482899E+02  0.75020974433E+02  0.10566000000E+00 0.  1.
        994    1    1    2    0    0 -0.59777859527E+01 -0.68385460413E+01  0.28377594926E+01  0.17146426017E+03  0.17120000000E+03 0.  0.
        998    1    1    2    0    0  0.15489375231E+02 -0.95054250488E+01  0.14245637539E+04  0.14247147654E+04  0.10000000000E+02 0.  1.
</event>
<event>
 5    1  0.1303633E-008  0.3755570E+03  0.7957747E-01  0.3470736E+00
         13   -1    0    0    0    0  0.00000000000E+00  0.00000000000E+00  0.14999999963E+04  0.15000000000E+04  0.10566000000E+00 0. -1.
        994   -1    0    0    0    0 -0.00000000000E+00 -0.00000000000E+00  0.11368683772E-12  0.17120000000E+03  0.17120000000E+03 0.  0.
         13    1    1    2    0    0 -0.38062568162E+02 -0.10718355555E+02  0.14324311196E+03  0.14860095063E+03  0.10566000000E+00 0. -1.
        994    1    1    2    0    0 -0.14498796836E+02  0.15035900946E+02  0.78746512685E+01  0.17264919218E+03  0.17120000000E+03 0.  0.
        998    1    1    2    0    0  0.52561364998E+02 -0.43175453909E+01  0.13488822331E+04  0.13499498572E+04  0.10000000000E+02 0. -1.
</event>
<event>
 5    1  0.1303633E-008  0.3847230E+03  0.7957747E-01  0.3430848E+00
         13   -1    0    0    0    0  0.00000000000E+00  0.00000000000E+00  0.14999999963E+04  0.15000000000E+04  0.10566000000E+00 0.  1.
        994   -1    0    0    0    0 -0.00000000000E+00 -0.00000000000E+00  0.11368683772E-12  0.17120000000E+03  0.17120000000E+03 0.  0.
         13    1    1    2    0    0  0.49669426002E+01 -0.11827673043E+02  0.50648056297E+02  0.52247498879E+02  0.10566000000E+00 0.  1.
        994    1    1    2    0    0 -0.52885412299E+02 -0.26804620983E+02  0.13425759997E+02  0.18167290819E+03  0.17120000000E+03 0.  0.
        998    1    1    2    0    0  0.47918469699E+02  0.38632294026E+02  0.14359261800E+04  0.14372795929E+04  0.10000000000E+02 0.  1.
</event>
<event>
 5    1  0.1303633E-008  0.3846447E+03  0.7957747E-01  0.3431180E+00
         13   -1    0    0    0    0  0.00000000000E+00  0.00000000000E+00  0.14999999963E+04  0.15000000000E+04  0.10566000000E+00 0. -1.
        994   -1    0    0    0    0 -0.00000000000E+00 -0.00000000000E+00  0.11368683772E-12  0.17120000000E+03  0.17120000000E+03 0.  0.
         13    1    1    2    0    0 -0.25355397210E+01  0.13336993709E+02  0.52490568768E+02  0.54217850719E+02  0.10566000000E+00 0. -1.
        994    1    1    2    0    0 -0.91339887216E+00 -0.32737601981E+01  0.18446718482E+01  0.17124367030E+03  0.17120000000E+03 0.  0.
        998    1    1    2    0    0  0.34489385931E+01 -0.10063233511E+02  0.14456647557E+04  0.14457384790E+04  0.10000000000E+02 0. -1.
</event>
<event>
 5    1  0.1303633E-008  0.3806343E+03  0.7957747E-01  0.3448401E+00
         13   -1    0    0    0    0  0.00000000000E+00  0.00000000000E+00  0.14999999963E+04  0.15000000000E+04  0.10566000000E+00 0.  1.
        994   -1    0    0    0    0 -0.00000000000E+00 -0.00000000000E+00  0.11368683772E-12  0.17120000000E+03  0.17120000000E+03 0.  0.
         13    1    1    2    0    0  0.12119400815E+02  0.51003397432E+01  0.21084264704E+02  0.24848555768E+02  0.10566000000E+00 0.  1.
        994    1    1    2    0    0 -0.10120420833E+02 -0.73207895430E+00  0.41568177462E+01  0.17155080295E+03  0.17120000000E+03 0.  0.
        998    1    1    2    0    0 -0.19989799816E+01 -0.43682607889E+01  0.14747589138E+04  0.14748006413E+04  0.10000000000E+02 0.  1.
</event>
<event>
 5    1  0.1303633E-008  0.3723268E+03  0.7957747E-01  0.3485265E+00
         13   -1    0    0    0    0  0.00000000000E+00  0.00000000000E+00  0.14999999963E+04  0.15000000000E+04  0.10566000000E+00 0.  1.
        994   -1    0    0    0    0 -0.00000000000E+00 -0.00000000000E+00  0.11368683772E-12  0.17120000000E+03  0.17120000000E+03 0.  0.
         13    1    1    2    0    0 -0.66142006750E+01  0.24782938638E+02  0.21421803986E+02  0.33419254154E+02  0.10566000000E+00 0.  1.
        994    1    1    2    0    0  0.73915134508E+01 -0.27435362912E+02  0.15025302123E+02  0.17419108276E+03  0.17120000000E+03 0.  0.
        998    1    1    2    0    0 -0.77731277581E+00  0.26524242738E+01  0.14635528902E+04  0.14635896631E+04  0.10000000000E+02 0.  1.
</event>
<event>
 5    1  0.1303633E-008  0.3815106E+03  0.7957747E-01  0.3444607E+00
         13   -1    0    0    0    0  0.00000000000E+00  0.00000000000E+00  0.14999999963E+04  0.15000000000E+04  0.10566000000E+00 0. -1.
        994   -1    0    0    0    0 -0.00000000000E+00 -0.00000000000E+00  0.11368683772E-12  0.17120000000E+03  0.17120000000E+03 0.  0.
         13    1    1    2    0    0  0.15192848561E+02  0.48412558682E+01  0.36752051044E+02  0.40062261865E+02  0.10566000000E+00 0. -1.
        994    1    1    2    0    0 -0.10986608234E+02  0.65879671595E+01  0.39186156921E+01  0.17172333103E+03  0.17120000000E+03 0.  0.
        998    1    1    2    0    0 -0.42062403267E+01 -0.11429223028E+02  0.14593293295E+04  0.14594144071E+04  0.10000000000E+02 0. -1.
</event>
<event>
 5    1  0.1303633E-008  0.3811535E+03  0.7957747E-01  0.3446151E+00
         13   -1    0    0    0    0  0.00000000000E+00  0.00000000000E+00  0.14999999963E+04  0.15000000000E+04  0.10566000000E+00 0. -1.
        994   -1    0    0    0    0 -0.00000000000E+00 -0.00000000000E+00  0.11368683772E-12  0.17120000000E+03  0.17120000000E+03 0.  0.
         13    1    1    2    0    0  0.20942192052E+02  0.88185004139E+01  0.78784803384E+02  0.81996327758E+02  0.10566000000E+00 0. -1.
        994    1    1    2    0    0  0.69184011665E+01 -0.26626761464E+01  0.37350469845E+01  0.17140112221E+03  0.17120000000E+03 0.  0.
        998    1    1    2    0    0 -0.27860593219E+02 -0.61558242675E+01  0.14174801459E+04  0.14178025500E+04  0.10000000000E+02 0. -1.
</event>
<event>
 5    1  0.1303633E-008  0.3838853E+03  0.7957747E-01  0.3434414E+00
         13   -1    0    0    0    0  0.00000000000E+00  0.00000000000E+00  0.14999999963E+04  0.15000000000E+04  0.10566000000E+00 0. -1.
        994   -1    0    0    0    0 -0.00000000000E+00 -0.00000000000E+00  0.11368683772E-12  0.17120000000E+03  0.17120000000E+03 0.  0.
         13    1    1    2    0    0 -0.10370713129E+02  0.10870765672E+00  0.23829549609E+02  0.25988884292E+02  0.10566000000E+00 0. -1.
        994    1    1    2    0    0  0.84015669153E+01 -0.72593361397E+00  0.24193403549E+01  0.17142463800E+03  0.17120000000E+03 0.  0.
        998    1    1    2    0    0  0.19691462139E+01  0.61722595725E+00  0.14737511063E+04  0.14737864777E+04  0.10000000000E+02 0. -1.
</event>
<event>
 5    1  0.1303633E-008  0.3691594E+03  0.7957747E-01  0.3499763E+00
         13   -1    0    0    0    0  0.00000000000E+00  0.00000000000E+00  0.14999999963E+04  0.15000000000E+04  0.10566000000E+00 0. -1.
        994   -1    0    0    0    0 -0.00000000000E+00 -0.00000000000E+00  0.11368683772E-12  0.17120000000E+03  0.17120000000E+03 0.  0.
         13    1    1    2    0    0 -0.70326835464E+02  0.34985644781E+02  0.31825008467E+03  0.32780022374E+03  0.10566000000E+00 0. -1.
        994    1    1    2    0    0  0.10628630030E+03  0.94126134594E+02  0.84454610229E+02  0.23790445148E+03  0.17120000000E+03 0.  0.
        998    1    1    2    0    0 -0.35959464833E+02 -0.12911177938E+03  0.10972953014E+04  0.11054953248E+04  0.10000000000E+02 0. -1.
</event>
<event>
 5    1  0.1303633E-008  0.3834709E+03  0.7957747E-01  0.3436183E+00
         13   -1    0    0    0    0  0.00000000000E+00  0.00000000000E+00  0.14999999963E+04  0.15000000000E+04  0.10566000000E+00 0. -1.
        994   -1    0    0    0    0 -0.00000000000E+00 -0.00000000000E+00  0.11368683772E-12  0.17120000000E+03  0.17120000000E+03 0.  0.
         13    1    1    2    0    0  0.22528900954E+02 -0.40672073057E+00  0.11638455381E+03  0.11854573940E+03  0.10566000000E+00 0. -1.
        994    1    1    2    0    0 -0.43498554687E+00 -0.14166330371E+01  0.23984890465E+01  0.17122321341E+03  0.17120000000E+03 0.  0.
        998    1    1    2    0    0 -0.22093915407E+02  0.18233537676E+01  0.13812169534E+04  0.13814310472E+04  0.10000000000E+02 0. -1.
</event>
<event>
 5    1  0.1303633E-008  0.3845956E+03  0.7957747E-01  0.3431389E+00
         13   -1    0    0    0    0  0.00000000000E+00  0.00000000000E+00  0.14999999963E+04  0.15000000000E+04  0.10566000000E+00 0. -1.
        994   -1    0    0    0    0 -0.00000000000E+00 -0.00000000000E+00  0.11368683772E-12  0.17120000000E+03  0.17120000000E+03 0.  0.
         13    1    1    2    0    0  0.17902757242E+02 -0.24898417332E+01  0.91491783452E+02  0.93260203903E+02  0.10566000000E+00 0. -1.
        994    1    1    2    0    0 -0.69912901524E+01  0.64898042298E+01  0.21307748921E+01  0.17147879140E+03  0.17120000000E+03 0.  0.
        998    1    1    2    0    0 -0.10911467090E+02 -0.39999624966E+01  0.14063774379E+04  0.14064610047E+04  0.10000000000E+02 0. -1.
</event>
<event>
 5    1  0.1303633E-008  0.3741613E+03  0.7957747E-01  0.3476982E+00
         13   -1    0    0    0    0  0.00000000000E+00  0.00000000000E+00  0.14999999963E+04  0.15000000000E+04  0.10566000000E+00 0. -1.
        994   -1    0    0    0    0 -0.00000000000E+00 -0.00000000000E+00  0.11368683772E-12  0.17120000000E+03  0.17120000000E+03 0.  0.
         13    1    1    2    0    0  0.20561061982E+02 -0.25808552282E+01  0.28183109505E+02  0.34981665326E+02  0.10566000000E+00 0. -1.
        994    1    1    2    0    0 -0.15593383956E+01 -0.29539494052E+01  0.71481128324E+01  0.17138171685E+03  0.17120000000E+03 0.  0.
        998    1    1    2    0    0 -0.19001723587E+02  0.55348046334E+01  0.14646687739E+04  0.14648366178E+04  0.10000000000E+02 0. -1.
</event>
<event>
 5    1  0.1303633E-008  0.3857853E+03  0.7957747E-01  0.3426348E+00
         13   -1    0    0    0    0  0.00000000000E+00  0.00000000000E+00  0.14999999963E+04  0.15000000000E+04  0.10566000000E+00 0. -1.
        994   -1    0    0    0    0 -0.00000000000E+00 -0.00000000000E+00  0.11368683772E-12  0.17120000000E+03  0.17120000000E+03 0.  0.
         13    1    1    2    0    0  0.55939401864E+00 -0.12239391410E+02  0.60347724688E+02  0.61579011544E+02  0.10566000000E+00 0. -1.
        994    1    1    2    0    0  0.63232409857E+01  0.10115912124E+02  0.17077265433E+01  0.17162363294E+03  0.17120000000E+03 0.  0.
        998    1    1    2    0    0 -0.68826350044E+01  0.21234792854E+01  0.14379445450E+04  0.14379973555E+04  0.10000000000E+02 0. -1.
</event>
<event>
 5    1  0.1303633E-008  0.3851824E+03  0.7957747E-01  0.3428899E+00
         13   -1    0    0    0    0  0.00000000000E+00  0.00000000000E+00  0.14999999963E+04  0.15000000000E+04  0.10566000000E+00 0. -1.
        994   -1    0    0    0    0 -0.00000000000E+00 -0.00000000000E+00  0.11368683772E-12  0.17120000000E+03  0.17120000000E+03 0.  0.
         13    1    1    2    0    0  0.18176180153E+02  0.46521220968E+00  0.93247190326E+02  0.95003366335E+02  0.10566000000E+00 0. -1.
        994    1    1    2    0    0 -0.30692667128E+02  0.60824786207E+01  0.47640338690E+01  0.17410104072E+03  0.17120000000E+03 0.  0.
        998    1    1    2    0    0  0.12516486975E+02 -0.65476908304E+01  0.14019887721E+04  0.14020955929E+04  0.10000000000E+02 0. -1.
</event>
<event>
 5    1  0.1303633E-008  0.2712909E+03  0.7957747E-01  0.4125008E+00
         13   -1    0    0    0    0  0.00000000000E+00  0.00000000000E+00  0.14999999963E+04  0.15000000000E+04  0.10566000000E+00 0.  1.
        994   -1    0    0    0    0 -0.00000000000E+00 -0.00000000000E+00  0.11368683772E-12  0.17120000000E+03  0.17120000000E+03 0.  0.
         13    1    1    2    0    0  0.10949863484E+03  0.19762312750E+03  0.71749614408E+03  0.75222707973E+03  0.10566000000E+00 0.  1.
        994    1    1    2    0    0 -0.61112099106E+01 -0.57226396315E+02  0.84410920164E+02  0.19936612241E+03  0.17120000000E+03 0.  0.
        998    1    1    2    0    0 -0.10338742493E+03 -0.14039673118E+03  0.69809293204E+03  0.71960679786E+03  0.10000000000E+02 0.  1.
</event>
<event>
 5    1  0.1303633E-008  0.3762308E+03  0.7957747E-01  0.3467736E+00
         13   -1    0    0    0    0  0.00000000000E+00  0.00000000000E+00  0.14999999963E+04  0.15000000000E+04  0.10566000000E+00 0.  1.
        994   -1    0    0    0    0 -0.00000000000E+00 -0.00000000000E+00  0.11368683772E-12  0.17120000000E+03  0.17120000000E+03 0.  0.
         13    1    1    2    0    0 -0.45156796664E+02  0.42181118402E+02  0.26938224191E+03  0.27637870116E+03  0.10566000000E+00 0.  1.
        994    1    1    2    0    0  0.18982817951E+02 -0.64575203604E+02  0.21541142285E+02  0.18521275633E+03  0.17120000000E+03 0.  0.
        998    1    1    2    0    0  0.26173978713E+02  0.22394085202E+02  0.12090766121E+04  0.12096085425E+04  0.10000000000E+02 0.  1.
</event>
<event>
 5    1  0.1303633E-008  0.3829316E+03  0.7957747E-01  0.3438492E+00
         13   -1    0    0    0    0  0.00000000000E+00  0.00000000000E+00  0.14999999963E+04  0.15000000000E+04  0.10566000000E+00 0.  1.
        994   -1    0    0    0    0 -0.00000000000E+00 -0.00000000000E+00  0.11368683772E-12  0.17120000000E+03  0.17120000000E+03 0.  0.
         13    1    1    2    0    0  0.26251435145E+02 -0.11151666968E+01  0.13373323579E+03  0.13629002518E+03  0.10566000000E+00 0.  1.
        994    1    1    2    0    0 -0.10673128650E+02  0.70497208291E+01  0.32024478161E+01  0.17170704677E+03  0.17120000000E+03 0.  0.
        998    1    1    2    0    0 -0.15578306496E+02 -0.59345541323E+01  0.13630643127E+04  0.13632029281E+04  0.10000000000E+02 0.  1.
</event>
<event>
 5    1  0.1303633E-008  0.3821046E+03  0.7957747E-01  0.3442046E+00
         13   -1    0    0    0    0  0.00000000000E+00  0.00000000000E+00  0.14999999963E+04  0.15000000000E+04  0.10566000000E+00 0. -1.
        994   -1    0    0    0    0 -0.00000000000E+00 -0.00000000000E+00  0.11368683772E-12  0.17120000000E+03  0.17120000000E+03 0.  0.
         13    1    1    2    0    0 -0.22932609661E+02 -0.24159618569E+02  0.19863078476E+03  0.20140454706E+03  0.10566000000E+00 0. -1.
        994    1    1    2    0    0  0.40506290446E+01  0.66559817105E+01  0.32761072982E+01  0.17140852536E+03  0.17120000000E+03 0.  0.
        998    1    1    2    0    0  0.18881980617E+02  0.17503636859E+02  0.12980931042E+04  0.12983869276E+04  0.10000000000E+02 0.  0.
</event>
<event>
 5    1  0.1303633E-008  0.3722089E+03  0.7957747E-01  0.3485800E+00
         13   -1    0    0    0    0  0.00000000000E+00  0.00000000000E+00  0.14999999963E+04  0.15000000000E+04  0.10566000000E+00 0.  1.
        994   -1    0    0    0    0 -0.00000000000E+00 -0.00000000000E+00  0.11368683772E-12  0.17120000000E+03  0.17120000000E+03 0.  0.
         13    1    1    2    0    0 -0.44289508363E+02 -0.26004494215E+02  0.17304813136E+03  0.18050889507E+03  0.10566000000E+00 0.  1.
        994    1    1    2    0    0  0.13485470179E+02  0.63647098505E+01  0.88824719525E+01  0.17207761547E+03  0.17120000000E+03 0.  0.
        998    1    1    2    0    0  0.30804038183E+02  0.19639784365E+02  0.13180693930E+04  0.13186134895E+04  0.10000000000E+02 0.  1.
</event>
<event>
 5    1  0.1303633E-008  0.3777304E+03  0.7957747E-01  0.3461101E+00
         13   -1    0    0    0    0  0.00000000000E+00  0.00000000000E+00  0.14999999963E+04  0.15000000000E+04  0.10566000000E+00 0. -1.
        994   -1    0    0    0    0 -0.00000000000E+00 -0.00000000000E+00  0.11368683772E-12  0.17120000000E+03  0.17120000000E+03 0.  0.
         13    1    1    2    0    0  0.48963853791E+01  0.13213364835E+03  0.70940935345E+03  0.72162657763E+03  0.10566000000E+00 0. -1.
        994    1    1    2    0    0  0.29693885474E+01 -0.14089719309E+03  0.75394737777E+02  0.23421068032E+03  0.17120000000E+03 0.  0.
        998    1    1    2    0    0 -0.78657739265E+01  0.87635447423E+01  0.71519590505E+03  0.71536274205E+03  0.10000000000E+02 0. -1.
</event>
<event>
 5    1  0.1303633E-008  0.3809449E+03  0.7957747E-01  0.3447055E+00
         13   -1    0    0    0    0  0.00000000000E+00  0.00000000000E+00  0.14999999963E+04  0.15000000000E+04  0.10566000000E+00 0.  1.
        994   -1    0    0    0    0 -0.00000000000E+00 -0.00000000000E+00  0.11368683772E-12  0.17120000000E+03  0.17120000000E+03 0.  0.
         13    1    1    2    0    0  0.15670537566E+02  0.19818805714E+02  0.82185682530E+02  0.85981674701E+02  0.10566000000E+00 0.  1.
        994    1    1    2    0    0 -0.11804069365E+02 -0.22547626228E+02  0.58185038104E+01  0.17317917452E+03  0.17120000000E+03 0.  0.
        998    1    1    2    0    0 -0.38664682014E+01  0.27288205144E+01  0.14119958099E+04  0.14120391508E+04  0.10000000000E+02 0.  1.
</event>
<event>
 5    1  0.1303633E-008  0.3707872E+03  0.7957747E-01  0.3492281E+00
         13   -1    0    0    0    0  0.00000000000E+00  0.00000000000E+00  0.14999999963E+04  0.15000000000E+04  0.10566000000E+00 0. -1.
        994   -1    0    0    0    0 -0.00000000000E+00 -0.00000000000E+00  0.11368683772E-12  0.17120000000E+03  0.17120000000E+03 0.  0.
         13    1    1    2    0    0 -0.33965793321E+01  0.18050625392E+02  0.14612054645E+02  0.23470942316E+02  0.10566000000E+00 0. -1.
        994    1    1    2    0    0  0.19002175888E+01 -0.29469479118E+02  0.11871175044E+02  0.17413335643E+03  0.17120000000E+03 0.  0.
        998    1    1    2    0    0  0.14963617433E+01  0.11418853725E+02  0.14735167666E+04  0.14735957012E+04  0.10000000000E+02 0. -1.
</event>
<event>
 5    1  0.1303633E-008  0.3812275E+03  0.7957747E-01  0.3445831E+00
         13   -1    0    0    0    0  0.00000000000E+00  0.00000000000E+00  0.14999999963E+04  0.15000000000E+04  0.10566000000E+00 0.  1.
        994   -1    0    0    0    0 -0.00000000000E+00 -0.00000000000E+00  0.11368683772E-12  0.17120000000E+03  0.17120000000E+03 0.  0.
         13    1    1    2    0    0 -0.16641270137E+02  0.46168662827E+01  0.42631883454E+02  0.45997130095E+02  0.10566000000E+00 0.  1.
        994    1    1    2    0    0  0.30953834392E+01  0.37349437043E+01  0.35931270723E+01  0.17130639733E+03  0.17120000000E+03 0.  0.
        998    1    1    2    0    0  0.13545886698E+02 -0.83518099869E+01  0.14537749858E+04  0.14538964726E+04  0.10000000000E+02 0.  1.
</event>
<event>
 5    1  0.1303633E-008  0.3076890E+03  0.7957747E-01  0.3842611E+00
         13   -1    0    0    0    0  0.00000000000E+00  0.00000000000E+00  0.14999999963E+04  0.15000000000E+04  0.10566000000E+00 0.  1.
        994   -1    0    0    0    0 -0.00000000000E+00 -0.00000000000E+00  0.11368683772E-12  0.17120000000E+03  0.17120000000E+03 0.  0.
         13    1    1    2    0    0  0.43371852943E+02 -0.14370610986E+03  0.83008982846E+03  0.84355302033E+03  0.10566000000E+00 0.  1.
        994    1    1    2    0    0  0.36907121025E+02  0.11639633282E+03  0.69909078806E+02  0.22160090518E+03  0.17120000000E+03 0.  0.
        998    1    1    2    0    0 -0.80278973968E+02  0.27309777034E+02  0.60000108902E+03  0.60604607449E+03  0.10000000000E+02 0.  1.
</event>
<event>
 5    1  0.1440557E-008  0.3855886E+03  0.7957747E-01  0.3427180E+00
         13   -1    0    0    0    0  0.00000000000E+00  0.00000000000E+00  0.14999999963E+04  0.15000000000E+04  0.10566000000E+00 0. -1.
        994   -1    0    0    0    0 -0.00000000000E+00 -0.00000000000E+00  0.11368683772E-12  0.17120000000E+03  0.17120000000E+03 0.  0.
         13    1    1    2    0    0 -0.10836839238E+02 -0.26598978263E+00  0.44024026090E+02  0.45339098717E+02  0.10566000000E+00 0. -1.
        994    1    1    2    0    0  0.77395959139E+01 -0.17469442124E+01  0.15448593301E+01  0.17139072247E+03  0.17120000000E+03 0.  0.
        998    1    1    2    0    0  0.30972433237E+01  0.20129339951E+01  0.14544311109E+04  0.14544701788E+04  0.10000000000E+02 0. -1.
</event>
<event>
 5    1  0.1303633E-008  0.3858142E+03  0.7957747E-01  0.3426226E+00
         13   -1    0    0    0    0  0.00000000000E+00  0.00000000000E+00  0.14999999963E+04  0.15000000000E+04  0.10566000000E+00 0.  1.
        994   -1    0    0    0    0 -0.00000000000E+00 -0.00000000000E+00  0.11368683772E-12  0.17120000000E+03  0.17120000000E+03 0.  0.
         13    1    1    2    0    0  0.11791469731E+02 -0.77058108704E+01  0.77906489887E+02  0.79169758179E+02  0.10566000000E+00 0.  1.
        994    1    1    2    0    0 -0.12168759098E+02  0.90097803352E+01  0.19787604067E+01  0.17187963909E+03  0.17120000000E+03 0.  0.
        998    1    1    2    0    0  0.37728936690E+00 -0.13039694648E+01  0.14201147460E+04  0.14201506027E+04  0.10000000000E+02 0.  1.
</event>
<event>
 5    1  0.1303633E-008  0.3697116E+03  0.7957747E-01  0.3497217E+00
         13   -1    0    0    0    0  0.00000000000E+00  0.00000000000E+00  0.14999999963E+04  0.15000000000E+04  0.10566000000E+00 0. -1.
        994   -1    0    0    0    0 -0.00000000000E+00 -0.00000000000E+00  0.11368683772E-12  0.17120000000E+03  0.17120000000E+03 0.  0.
         13    1    1    2    0    0 -0.15531650587E+02  0.63228226485E+02  0.18966493239E+03  0.20052889701E+03  0.10566000000E+00 0. -1.
        994    1    1    2    0    0  0.14341359986E+02 -0.68425478585E+02  0.26532419972E+02  0.18681844137E+03  0.17120000000E+03 0.  0.
        998    1    1    2    0    0  0.11902906011E+01  0.51972521001E+01  0.12838026439E+04  0.12838526616E+04  0.10000000000E+02 0. -1.
</event>
<event>
 5    1  0.1303633E-008  0.3847850E+03  0.7957747E-01  0.3430585E+00
         13   -1    0    0    0    0  0.00000000000E+00  0.00000000000E+00  0.14999999963E+04  0.15000000000E+04  0.10566000000E+00 0.  1.
        994   -1    0    0    0    0 -0.00000000000E+00 -0.00000000000E+00  0.11368683772E-12  0.17120000000E+03  0.17120000000E+03 0.  0.
         13    1    1    2    0    0 -0.11836749772E+02 -0.79366329614E+01  0.58145869685E+02  0.59866953434E+02  0.10566000000E+00 0.  1.
        994    1    1    2    0    0  0.97093557378E+01  0.35341983883E+01  0.20883451373E+01  0.17152423541E+03  0.17120000000E+03 0.  0.
        998    1    1    2    0    0  0.21273940345E+01  0.44024345731E+01  0.14397657815E+04  0.14398088112E+04  0.10000000000E+02 0.  1.
</event>
<event>
 5    1  0.1319975E-008  0.3854964E+03  0.7957747E-01  0.3427570E+00
         13   -1    0    0    0    0  0.00000000000E+00  0.00000000000E+00  0.14999999963E+04  0.15000000000E+04  0.10566000000E+00 0. -1.
        994   -1    0    0    0    0 -0.00000000000E+00 -0.00000000000E+00  0.11368683772E-12  0.17120000000E+03  0.17120000000E+03 0.  0.
         13    1    1    2    0    0  0.11418943197E+02  0.11372737806E+02  0.93729506330E+02  0.95105010119E+02  0.10566000000E+00 0. -1.
        994    1    1    2    0    0 -0.91030259271E+01 -0.66364428948E+01  0.18006852046E+01  0.17157968971E+03  0.17120000000E+03 0.  0.
        998    1    1    2    0    0 -0.23159172703E+01 -0.47362949107E+01  0.14044698047E+04  0.14045153002E+04  0.10000000000E+02 0. -1.
</event>
<event>
 5    1  0.1303633E-008  0.3790532E+03  0.7957747E-01  0.3455292E+00
         13   -1    0    0    0    0  0.00000000000E+00  0.00000000000E+00  0.14999999963E+04  0.15000000000E+04  0.10566000000E+00 0.  1.
        994   -1    0    0    0    0 -0.00000000000E+00 -0.00000000000E+00  0.11368683772E-12  0.17120000000E+03  0.17120000000E+03 0.  0.
         13    1    1    2    0    0 -0.47093152944E+01 -0.30325616872E+02  0.10668945762E+03  0.11101563953E+03  0.10566000000E+00 0.  1.
        994    1    1    2    0    0 -0.53157685781E+01  0.78332322103E+01  0.49124414395E+01  0.17153188917E+03  0.17120000000E+03 0.  0.
        998    1    1    2    0    0  0.10025083873E+02  0.22492384661E+02  0.13883980972E+04  0.13886524713E+04  0.10000000000E+02 0.  1.
</event>
<event>
 5    1  0.1303633E-008  0.3797503E+03  0.7957747E-01  0.3452247E+00
         13   -1    0    0    0    0  0.00000000000E+00  0.00000000000E+00  0.14999999963E+04  0.15000000000E+04  0.10566000000E+00 0.  1.
        994   -1    0    0    0    0 -0.00000000000E+00 -0.00000000000E+00  0.11368683772E-12  0.17120000000E+03  0.17120000000E+03 0.  0.
         13    1    1    2    0    0  0.24268135216E+02 -0.65901461539E+01  0.72434314329E+02  0.76675377205E+02  0.10566000000E+00 0.  1.
        994    1    1    2    0    0 -0.15834578778E+02  0.52740527110E+01  0.51917507838E+01  0.17208992938E+03  0.17120000000E+03 0.  0.
        998    1    1    2    0    0 -0.84335564380E+01  0.13160934429E+01  0.14223739312E+04  0.14224346934E+04  0.10000000000E+02 0.  1.
</event>
<event>
 5    1  0.1303633E-008  0.3732537E+03  0.7957747E-01  0.3481070E+00
         13   -1    0    0    0    0  0.00000000000E+00  0.00000000000E+00  0.14999999963E+04  0.15000000000E+04  0.10566000000E+00 0. -1.
        994   -1    0    0    0    0 -0.00000000000E+00 -0.00000000000E+00  0.11368683772E-12  0.17120000000E+03  0.17120000000E+03 0.  0.
         13    1    1    2    0    0  0.28702496676E+01 -0.39486530475E+02  0.93780160340E+02  0.10179466616E+03  0.10566000000E+00 0. -1.
        994    1    1    2    0    0 -0.39351494254E+01  0.42598609527E+02  0.13861984848E+02  0.17700768785E+03  0.17120000000E+03 0.  0.
        998    1    1    2    0    0  0.10648997578E+01 -0.31120790514E+01  0.13923578511E+04  0.13923976460E+04  0.10000000000E+02 0. -1.
</event>
<event>
 5    1  0.1303633E-008  0.3705793E+03  0.7957747E-01  0.3493233E+00
         13   -1    0    0    0    0  0.00000000000E+00  0.00000000000E+00  0.14999999963E+04  0.15000000000E+04  0.10566000000E+00 0. -1.
        994   -1    0    0    0    0 -0.00000000000E+00 -0.00000000000E+00  0.11368683772E-12  0.17120000000E+03  0.17120000000E+03 0.  0.
         13    1    1    2    0    0  0.53282432869E+02  0.14986619222E+03  0.60355305950E+03  0.62415959499E+03  0.10566000000E+00 0. -1.
        994    1    1    2    0    0 -0.77074938566E+02 -0.14322949828E+03  0.11063587728E+03  0.26077763070E+03  0.17120000000E+03 0.  0.
        998    1    1    2    0    0  0.23792505697E+02 -0.66366939435E+01  0.78581105950E+03  0.78626277432E+03  0.10000000000E+02 0. -1.
</event>
<event>
 5    1  0.1303633E-008  0.3826375E+03  0.7957747E-01  0.3439754E+00
         13   -1    0    0    0    0  0.00000000000E+00  0.00000000000E+00  0.14999999963E+04  0.15000000000E+04  0.10566000000E+00 0. -1.
        994   -1    0    0    0    0 -0.00000000000E+00 -0.00000000000E+00  0.11368683772E-12  0.17120000000E+03  0.17120000000E+03 0.  0.
         13    1    1    2    0    0  0.33079793085E+02 -0.75202215413E+00  0.17113682600E+03  0.17430623232E+03  0.10566000000E+00 0. -1.
        994    1    1    2    0    0 -0.35292609989E+02  0.13482826098E+01  0.69525286671E+01  0.17494331608E+03  0.17120000000E+03 0.  0.
        998    1    1    2    0    0  0.22128169043E+01 -0.59626045563E+00  0.13219106416E+04  0.13219504516E+04  0.10000000000E+02 0.  0.
</event>
<event>
 5    1  0.1303633E-008  0.3817716E+03  0.7957747E-01  0.3443481E+00
         13   -1    0    0    0    0  0.00000000000E+00  0.00000000000E+00  0.14999999963E+04  0.15000000000E+04  0.10566000000E+00 0. -1.
        994   -1    0    0    0    0 -0.00000000000E+00 -0.00000000000E+00  0.11368683772E-12  0.17120000000E+03  0.17120000000E+03 0.  0.
         13    1    1    2    0    0  0.31548868553E+01 -0.30365332106E+02  0.13206779206E+03  0.13555043183E+03  0.10566000000E+00 0. -1.
        994    1    1    2    0    0 -0.75610111353E+01  0.29478263633E+02  0.63255967617E+01  0.17399882210E+03  0.17120000000E+03 0.  0.
        998    1    1    2    0    0  0.44061242799E+01  0.88706847306E+00  0.13616066075E+04  0.13616507461E+04  0.10000000000E+02 0. -1.
</event>
<event>
 5    1  0.1303633E-008  0.3826707E+03  0.7957747E-01  0.3439611E+00
         13   -1    0    0    0    0  0.00000000000E+00  0.00000000000E+00  0.14999999963E+04  0.15000000000E+04  0.10566000000E+00 0.  1.
        994   -1    0    0    0    0 -0.00000000000E+00 -0.00000000000E+00  0.11368683772E-12  0.17120000000E+03  0.17120000000E+03 0.  0.
         13    1    1    2    0    0 -0.10824355342E+02 -0.81008894348E+01  0.31849907043E+02  0.34600850003E+02  0.10566000000E+00 0.  1.
        994    1    1    2    0    0  0.54449278284E+01  0.70678196704E+01  0.30548447905E+01  0.17145953864E+03  0.17120000000E+03 0.  0.
        998    1    1    2    0    0  0.53794275136E+01  0.10330697644E+01  0.14650952444E+04  0.14651396114E+04  0.10000000000E+02 0.  1.
</event>
<event>
 5    1  0.2134026E-008  0.3864889E+03  0.7957747E-01  0.3423382E+00
         13   -1    0    0    0    0  0.00000000000E+00  0.00000000000E+00  0.14999999963E+04  0.15000000000E+04  0.10566000000E+00 0. -1.
        994   -1    0    0    0    0 -0.00000000000E+00 -0.00000000000E+00  0.11368683772E-12  0.17120000000E+03  0.17120000000E+03 0.  0.
         13    1    1    2    0    0 -0.75630704959E+01  0.88291194834E+01  0.65414939136E+02  0.66440039226E+02  0.10566000000E+00 0. -1.
        994    1    1    2    0    0  0.22489722979E+02 -0.17679534264E+02  0.35756705440E+01  0.17361042305E+03  0.17120000000E+03 0.  0.
        998    1    1    2    0    0 -0.14926652483E+02  0.88504147802E+01  0.14310093866E+04  0.14311495377E+04  0.10000000000E+02 0. -1.
</event>
<event>
 5    1  0.1303633E-008  0.3838824E+03  0.7957747E-01  0.3434426E+00
         13   -1    0    0    0    0  0.00000000000E+00  0.00000000000E+00  0.14999999963E+04  0.15000000000E+04  0.10566000000E+00 0. -1.
        994   -1    0    0    0    0 -0.00000000000E+00 -0.00000000000E+00  0.11368683772E-12  0.17120000000E+03  0.17120000000E+03 0.  0.
         13    1    1    2    0    0 -0.33946616738E+00 -0.11557225898E+02  0.29364062380E+02  0.31558580944E+02  0.10566000000E+00 0. -1.
        994    1    1    2    0    0 -0.18176904523E+01  0.13066808579E+02  0.27606880829E+01  0.17172974956E+03  0.17120000000E+03 0.  0.
        998    1    1    2    0    0  0.21571566197E+01 -0.15095826808E+01  0.14678752458E+04  0.14679116695E+04  0.10000000000E+02 0. -1.
</event>
<event>
 5    1  0.1303633E-008  0.3763689E+03  0.7957747E-01  0.3467123E+00
         13   -1    0    0    0    0  0.00000000000E+00  0.00000000000E+00  0.14999999963E+04  0.15000000000E+04  0.10566000000E+00 0. -1.
        994   -1    0    0    0    0 -0.00000000000E+00 -0.00000000000E+00  0.11368683772E-12  0.17120000000E+03  0.17120000000E+03 0.  0.
         13    1    1    2    0    0  0.28050970727E+02 -0.45949461492E+02  0.27307364223E+03  0.27832972392E+03  0.10566000000E+00 0. -1.
        994    1    1    2    0    0  0.40447897875E+01  0.19364334604E+02  0.73026973620E+01  0.17249378878E+03  0.17120000000E+03 0.  0.
        998    1    1    2    0    0 -0.32095760514E+02  0.26585126888E+02  0.12196236567E+04  0.12203764873E+04  0.10000000000E+02 0. -1.
</event>
<event>
 5    1  0.1303633E-008  0.3728603E+03  0.7957747E-01  0.3482848E+00
         13   -1    0    0    0    0  0.00000000000E+00  0.00000000000E+00  0.14999999963E+04  0.15000000000E+04  0.10566000000E+00 0.  1.
        994   -1    0    0    0    0 -0.00000000000E+00 -0.00000000000E+00  0.11368683772E-12  0.17120000000E+03  0.17120000000E+03 0.  0.
         13    1    1    2    0    0  0.92507896655E+01  0.73537605799E+01  0.53811470925E+01  0.12985484672E+02  0.10566000000E+00 0.  1.
        994    1    1    2    0    0 -0.76353636557E+01 -0.62893083702E+01  0.81167633450E+01  0.17167753500E+03  0.17120000000E+03 0.  0.
        998    1    1    2    0    0 -0.16154260098E+01 -0.10644522097E+01  0.14865020858E+04  0.14865369803E+04  0.10000000000E+02 0.  1.
</event>
<event>
 5    1  0.1303633E-008  0.3832020E+03  0.7957747E-01  0.3437334E+00
         13   -1    0    0    0    0  0.00000000000E+00  0.00000000000E+00  0.14999999963E+04  0.15000000000E+04  0.10566000000E+00 0.  1.
        994   -1    0    0    0    0 -0.00000000000E+00 -0.00000000000E+00  0.11368683772E-12  0.17120000000E+03  0.17120000000E+03 0.  0.
         13    1    1    2    0    0 -0.11175520167E+02  0.14425691711E+02  0.66859099043E+02  0.69304712114E+02  0.10566000000E+00 0.  1.
        994    1    1    2    0    0  0.75007309195E+01 -0.31989329848E+01  0.27454174491E+01  0.17141607700E+03  0.17120000000E+03 0.  0.
        998    1    1    2    0    0  0.36747892472E+01 -0.11226758726E+02  0.14303954798E+04  0.14304792109E+04  0.10000000000E+02 0.  1.
</event>
<event>
 5    1  0.1303633E-008  0.3726734E+03  0.7957747E-01  0.3483694E+00
         13   -1    0    0    0    0  0.00000000000E+00  0.00000000000E+00  0.14999999963E+04  0.15000000000E+04  0.10566000000E+00 0. -1.
        994   -1    0    0    0    0 -0.00000000000E+00 -0.00000000000E+00  0.11368683772E-12  0.17120000000E+03  0.17120000000E+03 0.  0.
         13    1    1    2    0    0 -0.39130388589E+02 -0.35143180440E+02  0.19693108314E+03  0.20383349360E+03  0.10566000000E+00 0. -1.
        994    1    1    2    0    0  0.17946288882E+02 -0.79773235535E+01  0.92009303364E+01  0.17256825923E+03  0.17120000000E+03 0.  0.
        998    1    1    2    0    0  0.21184099707E+02  0.43120503993E+02  0.12938679828E+04  0.12947982472E+04  0.10000000000E+02 0. -1.
</event>
<event>
 5    1  0.1303633E-008  0.3853551E+03  0.7957747E-01  0.3428168E+00
         13   -1    0    0    0    0  0.00000000000E+00  0.00000000000E+00  0.14999999963E+04  0.15000000000E+04  0.10566000000E+00 0.  1.
        994   -1    0    0    0    0 -0.00000000000E+00 -0.00000000000E+00  0.11368683772E-12  0.17120000000E+03  0.17120000000E+03 0.  0.
         13    1    1    2    0    0  0.15924839828E+02 -0.38660965945E+01  0.92830435285E+02  0.94265837427E+02  0.10566000000E+00 0.  1.
        994    1    1    2    0    0 -0.11542125203E+02 -0.33637657470E+01  0.19288558899E+01  0.17163244466E+03  0.17120000000E+03 0.  0.
        998    1    1    2    0    0 -0.43827146250E+01  0.72298623414E+01  0.14052407051E+04  0.14053017179E+04  0.10000000000E+02 0.  1.
</event>
<event>
 5    1  0.1303633E-008  0.3826560E+03  0.7957747E-01  0.3439675E+00
         13   -1    0    0    0    0  0.00000000000E+00  0.00000000000E+00  0.14999999963E+04  0.15000000000E+04  0.10566000000E+00 0. -1.
        994   -1    0    0    0    0 -0.00000000000E+00 -0.00000000000E+00  0.11368683772E-12  0.17120000000E+03  0.17120000000E+03 0.  0.
         13    1    1    2    0    0 -0.13887998210E+02 -0.67188496287E+01  0.43054725634E+02  0.45735544143E+02  0.10566000000E+00 0. -1.
        994    1    1    2    0    0  0.37239833898E+01 -0.30171151397E+01  0.28745112689E+01  0.17129119607E+03  0.17120000000E+03 0.  0.
        998    1    1    2    0    0  0.10164014820E+02  0.97359647684E+01  0.14540707594E+04  0.14541732598E+04  0.10000000000E+02 0. -1.
</event>
<event>
 5    1  0.1303633E-008  0.3772073E+03  0.7957747E-01  0.3463409E+00
         13   -1    0    0    0    0  0.00000000000E+00  0.00000000000E+00  0.14999999963E+04  0.15000000000E+04  0.10566000000E+00 0.  1.
        994   -1    0    0    0    0 -0.00000000000E+00 -0.00000000000E+00  0.11368683772E-12  0.17120000000E+03  0.17120000000E+03 0.  0.
         13    1    1    2    0    0  0.14176187165E+02  0.32318512463E+02  0.11511101978E+03  0.12039937113E+03  0.10566000000E+00 0.  1.
        994    1    1    2    0    0 -0.13442774480E+02 -0.77846760691E+01  0.63641870554E+01  0.17202108081E+03  0.17120000000E+03 0.  0.
        998    1    1    2    0    0 -0.73341268445E+00 -0.24533836394E+02  0.13785247894E+04  0.13787795481E+04  0.10000000000E+02 0.  1.
</event>
<event>
 5    1  0.1303633E-008  0.3856118E+03  0.7957747E-01  0.3427082E+00
         13   -1    0    0    0    0  0.00000000000E+00  0.00000000000E+00  0.14999999963E+04  0.15000000000E+04  0.10566000000E+00 0. -1.
        994   -1    0    0    0    0 -0.00000000000E+00 -0.00000000000E+00  0.11368683772E-12  0.17120000000E+03  0.17120000000E+03 0.  0.
         13    1    1    2    0    0 -0.11509385379E+02 -0.93170815829E+01  0.74815721313E+02  0.76267144175E+02  0.10566000000E+00 0. -1.
        994    1    1    2    0    0  0.23395117892E+02  0.95066150272E+01  0.34225609358E+01  0.17308628251E+03  0.17120000000E+03 0.  0.
        998    1    1    2    0    0 -0.11885732514E+02 -0.18953344425E+00  0.14217617140E+04  0.14218465733E+04  0.10000000000E+02 0. -1.
</event>
<event>
 5    1  0.1303633E-008  0.3854767E+03  0.7957747E-01  0.3427653E+00
         13   -1    0    0    0    0  0.00000000000E+00  0.00000000000E+00  0.14999999963E+04  0.15000000000E+04  0.10566000000E+00 0. -1.
        994   -1    0    0    0    0 -0.00000000000E+00 -0.00000000000E+00  0.11368683772E-12  0.17120000000E+03  0.17120000000E+03 0.  0.
         13    1    1    2    0    0  0.38443751091E+01 -0.25791541892E+02  0.91685499875E+01  0.27641568806E+02  0.10566000000E+00 0. -1.
        994    1    1    2    0    0 -0.26906947347E-01  0.24909238258E+02  0.21666340536E+02  0.17435406845E+03  0.17120000000E+03 0.  0.
        998    1    1    2    0    0 -0.38174681618E+01  0.88230363351E+00  0.14691651058E+04  0.14692043627E+04  0.10000000000E+02 0. -1.
</event>
<event>
 5    1  0.1303633E-008  0.3815596E+03  0.7957747E-01  0.3444396E+00
         13   -1    0    0    0    0  0.00000000000E+00  0.00000000000E+00  0.14999999963E+04  0.15000000000E+04  0.10566000000E+00 0.  1.
        994   -1    0    0    0    0 -0.00000000000E+00 -0.00000000000E+00  0.11368683772E-12  0.17120000000E+03  0.17120000000E+03 0.  0.
         13    1    1    2    0    0  0.99599906540E+01  0.12430413536E+02  0.37645946599E+02  0.40877194789E+02  0.10566000000E+00 0.  1.
        994    1    1    2    0    0 -0.64138593965E+01  0.75543063904E+00  0.34866576768E+01  0.17135724394E+03  0.17120000000E+03 0.  0.
        998    1    1    2    0    0 -0.35461312575E+01 -0.13185844175E+02  0.14588673920E+04  0.14589655613E+04  0.10000000000E+02 0.  1.
</event>
<event>
 5    1  0.1303633E-008  0.3708548E+03  0.7957747E-01  0.3491972E+00
         13   -1    0    0    0    0  0.00000000000E+00  0.00000000000E+00  0.14999999963E+04  0.15000000000E+04  0.10566000000E+00 0.  1.
        994   -1    0    0    0    0 -0.00000000000E+00 -0.00000000000E+00  0.11368683772E-12  0.17120000000E+03  0.17120000000E+03 0.  0.
         13    1    1    2    0    0 -0.56862731449E+02  0.33988797909E+02  0.21030301856E+03  0.22049031587E+03  0.10566000000E+00 0.  1.
        994    1    1    2    0    0  0.16886276947E+02 -0.71474537781E+01  0.12571338138E+02  0.17263751327E+03  0.17120000000E+03 0.  0.
        998    1    1    2    0    0  0.39976454503E+02 -0.26841344130E+02  0.12771256396E+04  0.12780721709E+04  0.10000000000E+02 0.  0.
</event>
<event>
 5    1  0.1303633E-008  0.3078495E+03  0.7957747E-01  0.3841527E+00
         13   -1    0    0    0    0  0.00000000000E+00  0.00000000000E+00  0.14999999963E+04  0.15000000000E+04  0.10566000000E+00 0.  1.
        994   -1    0    0    0    0 -0.00000000000E+00 -0.00000000000E+00  0.11368683772E-12  0.17120000000E+03  0.17120000000E+03 0.  0.
         13    1    1    2    0    0  0.17255345146E+03 -0.71664219963E+02  0.71751711824E+03  0.74144539931E+03  0.10566000000E+00 0.  1.
        994    1    1    2    0    0 -0.14807217649E+03  0.98454269220E+02  0.13531492851E+03  0.28149277514E+03  0.17120000000E+03 0.  0.
        998    1    1    2    0    0 -0.24481274976E+02 -0.26790049257E+02  0.64716794953E+03  0.64826182555E+03  0.10000000000E+02 0.  1.
</event>
<event>
 5    1  0.1303633E-008  0.3829196E+03  0.7957747E-01  0.3438544E+00
         13   -1    0    0    0    0  0.00000000000E+00  0.00000000000E+00  0.14999999963E+04  0.15000000000E+04  0.10566000000E+00 0.  1.
        994   -1    0    0    0    0 -0.00000000000E+00 -0.00000000000E+00  0.11368683772E-12  0.17120000000E+03  0.17120000000E+03 0.  0.
         13    1    1    2    0    0 -0.42231098256E+01 -0.27815219310E+02  0.13252634867E+03  0.13547975989E+03  0.10566000000E+00 0.  1.
        994    1    1    2    0    0  0.46517958965E+01  0.31754499399E+02  0.60843001487E+01  0.17428839934E+03  0.17120000000E+03 0.  0.
        998    1    1    2    0    0 -0.42868607092E+00 -0.39392800889E+01  0.13613893475E+04  0.13614318408E+04  0.10000000000E+02 0.  1.
</event>
<event>
 5    1  0.1303633E-008  0.3691506E+03  0.7957747E-01  0.3499803E+00
         13   -1    0    0    0    0  0.00000000000E+00  0.00000000000E+00  0.14999999963E+04  0.15000000000E+04  0.10566000000E+00 0.  1.
        994   -1    0    0    0    0 -0.00000000000E+00 -0.00000000000E+00  0.11368683772E-12  0.17120000000E+03  0.17120000000E+03 0.  0.
         13    1    1    2    0    0  0.71017248039E+01 -0.29508682015E+02  0.42944491787E+02  0.52587425762E+02  0.10566000000E+00 0.  1.
        994    1    1    2    0    0 -0.68197237155E+01  0.25349198824E+02  0.12107020573E+02  0.17362347324E+03  0.17120000000E+03 0.  0.
        998    1    1    2    0    0 -0.28200108839E+00  0.41594831904E+01  0.14449484839E+04  0.14449891010E+04  0.10000000000E+02 0.  1.
</event>
<event>
 5    1  0.1303633E-008  0.3815020E+03  0.7957747E-01  0.3444644E+00
         13   -1    0    0    0    0  0.00000000000E+00  0.00000000000E+00  0.14999999963E+04  0.15000000000E+04  0.10566000000E+00 0.  1.
        994   -1    0    0    0    0 -0.00000000000E+00 -0.00000000000E+00  0.11368683772E-12  0.17120000000E+03  0.17120000000E+03 0.  0.
         13    1    1    2    0    0  0.20102024905E+01  0.41139595237E+02  0.24621824760E+03  0.24963962791E+03  0.10566000000E+00 0.  1.
        994    1    1    2    0    0 -0.58841663132E+01 -0.25104699019E+02  0.55916085597E+01  0.17322117484E+03  0.17120000000E+03 0.  0.
        998    1    1    2    0    0  0.38739638226E+01 -0.16034896218E+02  0.12481901401E+04  0.12483391972E+04  0.10000000000E+02 0.  1.
</event>
<event>
 5    1  0.1630132E-008  0.3865408E+03  0.7957747E-01  0.3423164E+00
         13   -1    0    0    0    0  0.00000000000E+00  0.00000000000E+00  0.14999999963E+04  0.15000000000E+04  0.10566000000E+00 0.  1.
        994   -1    0    0    0    0 -0.00000000000E+00 -0.00000000000E+00  0.11368683772E-12  0.17120000000E+03  0.17120000000E+03 0.  0.
         13    1    1    2    0    0  0.57151691832E+00  0.10406741017E+02  0.61785041000E+02  0.62658034964E+02  0.10566000000E+00 0.  1.
        994    1    1    2    0    0  0.44976663683E+00 -0.11397979086E+02  0.12929542493E+01  0.17158446301E+03  0.17120000000E+03 0.  0.
        998    1    1    2    0    0 -0.10212835551E+01  0.99123806892E+00  0.14369220010E+04  0.14369575020E+04  0.10000000000E+02 0.  1.
</event>
<event>
 5    1  0.1303633E-008  0.3846250E+03  0.7957747E-01  0.3431264E+00
         13   -1    0    0    0    0  0.00000000000E+00  0.00000000000E+00  0.14999999963E+04  0.15000000000E+04  0.10566000000E+00 0.  1.
        994   -1    0    0    0    0 -0.00000000000E+00 -0.00000000000E+00  0.11368683772E-12  0.17120000000E+03  0.17120000000E+03 0.  0.
         13    1    1    2    0    0  0.13159840319E+02  0.42589888944E+01  0.52173665375E+02  0.53976132747E+02  0.10566000000E+00 0.  1.
        994    1    1    2    0    0 -0.95899335624E+01 -0.33958047262E+01  0.21572888565E+01  0.17151557425E+03  0.17120000000E+03 0.  0.
        998    1    1    2    0    0 -0.35699067564E+01 -0.86318416822E+00  0.14456690420E+04  0.14457082930E+04  0.10000000000E+02 0.  1.
</event>
<event>
 5    1  0.1303633E-008  0.3833248E+03  0.7957747E-01  0.3436808E+00
         13   -1    0    0    0    0  0.00000000000E+00  0.00000000000E+00  0.14999999963E+04  0.15000000000E+04  0.10566000000E+00 0.  1.
        994   -1    0    0    0    0 -0.00000000000E+00 -0.00000000000E+00  0.11368683772E-12  0.17120000000E+03  0.17120000000E+03 0.  0.
         13    1    1    2    0    0 -0.18542314179E+02 -0.10074770784E+02  0.95592752479E+02  0.97894350766E+02  0.10566000000E+00 0.  1.
        994    1    1    2    0    0  0.28668620171E+01  0.16626716650E+01  0.25004588104E+01  0.17125033042E+03  0.17120000000E+03 0.  0.
        998    1    1    2    0    0  0.15675452162E+02  0.84120991193E+01  0.14019067850E+04  0.14020553188E+04  0.10000000000E+02 0.  1.
</event>
<event>
 5    1  0.1303633E-008  0.3797669E+03  0.7957747E-01  0.3452174E+00
         13   -1    0    0    0    0  0.00000000000E+00  0.00000000000E+00  0.14999999963E+04  0.15000000000E+04  0.10566000000E+00 0. -1.
        994   -1    0    0    0    0 -0.00000000000E+00 -0.00000000000E+00  0.11368683772E-12  0.17120000000E+03  0.17120000000E+03 0.  0.
         13    1    1    2    0    0 -0.59978353400E+01 -0.23707038017E+02  0.70820259922E+02  0.74923414629E+02  0.10566000000E+00 0. -1.
        994    1    1    2    0    0  0.79360779396E+01  0.70647209644E+01  0.46286024109E+01  0.17159182841E+03  0.17120000000E+03 0.  0.
        998    1    1    2    0    0 -0.19382425996E+01  0.16642317052E+02  0.14245511339E+04  0.14246847570E+04  0.10000000000E+02 0. -1.
</event>
<event>
 5    1  0.1303633E-008  0.3848224E+03  0.7957747E-01  0.3430426E+00
         13   -1    0    0    0    0  0.00000000000E+00  0.00000000000E+00  0.14999999963E+04  0.15000000000E+04  0.10566000000E+00 0.  1.
        994   -1    0    0    0    0 -0.00000000000E+00 -0.00000000000E+00  0.11368683772E-12  0.17120000000E+03  0.17120000000E+03 0.  0.
         13    1    1    2    0    0  0.12000459648E+02 -0.92580497860E+01  0.66734537853E+02  0.68434145162E+02  0.10566000000E+00 0.  1.
        994    1    1    2    0    0 -0.91806075548E+01  0.45436848471E+01  0.20636729262E+01  0.17151859192E+03  0.17120000000E+03 0.  0.
        998    1    1    2    0    0 -0.28198520932E+01  0.47143649389E+01  0.14312017855E+04  0.14312472629E+04  0.10000000000E+02 0.  1.
</event>
<event>
 5    1  0.1303633E-008  0.3690296E+03  0.7957747E-01  0.3500363E+00
         13   -1    0    0    0    0  0.00000000000E+00  0.00000000000E+00  0.14999999963E+04  0.15000000000E+04  0.10566000000E+00 0. -1.
        994   -1    0    0    0    0 -0.00000000000E+00 -0.00000000000E+00  0.11368683772E-12  0.17120000000E+03  0.17120000000E+03 0.  0.
         13    1    1    2    0    0 -0.24921062826E+02  0.62108584607E+02  0.19499911860E+03  0.20616304973E+03  0.10566000000E+00 0. -1.
        994    1    1    2    0    0  0.27388956877E+02 -0.63255177131E+02  0.26446948010E+02  0.18644101869E+03  0.17120000000E+03 0.  0.
        998    1    1    2    0    0 -0.24678940515E+01  0.11465925233E+01  0.12785539297E+04  0.12785959316E+04  0.10000000000E+02 0. -1.
</event>
<event>
 5    1  0.1303633E-008  0.3834405E+03  0.7957747E-01  0.3436313E+00
         13   -1    0    0    0    0  0.00000000000E+00  0.00000000000E+00  0.14999999963E+04  0.15000000000E+04  0.10566000000E+00 0. -1.
        994   -1    0    0    0    0 -0.00000000000E+00 -0.00000000000E+00  0.11368683772E-12  0.17120000000E+03  0.17120000000E+03 0.  0.
         13    1    1    2    0    0 -0.13614144843E+02  0.17096777678E+02  0.96159365809E+02  0.98611761690E+02  0.10566000000E+00 0. -1.
        994    1    1    2    0    0  0.12647838593E+02 -0.12443339774E+02  0.34476368065E+01  0.17215147611E+03  0.17120000000E+03 0.  0.
        998    1    1    2    0    0  0.96630625026E+00 -0.46534379042E+01  0.14003929937E+04  0.14004367622E+04  0.10000000000E+02 0. -1.
</event>
<event>
 5    1  0.1303633E-008  0.3855699E+03  0.7957747E-01  0.3427259E+00
         13   -1    0    0    0    0  0.00000000000E+00  0.00000000000E+00  0.14999999963E+04  0.15000000000E+04  0.10566000000E+00 0. -1.
        994   -1    0    0    0    0 -0.00000000000E+00 -0.00000000000E+00  0.11368683772E-12  0.17120000000E+03  0.17120000000E+03 0.  0.
         13    1    1    2    0    0  0.14207226138E+02 -0.47868668028E+01  0.83540034054E+02  0.84874659481E+02  0.10566000000E+00 0. -1.
        994    1    1    2    0    0 -0.93243383139E+01  0.45641992988E+01  0.17013196647E+01  0.17152291301E+03  0.17120000000E+03 0.  0.
        998    1    1    2    0    0 -0.48828878238E+01  0.22266750407E+00  0.14147586426E+04  0.14148024275E+04  0.10000000000E+02 0. -1.
</event>
<event>
 5    1  0.1303633E-008  0.3733437E+03  0.7957747E-01  0.3480664E+00
         13   -1    0    0    0    0  0.00000000000E+00  0.00000000000E+00  0.14999999963E+04  0.15000000000E+04  0.10566000000E+00 0.  1.
        994   -1    0    0    0    0 -0.00000000000E+00 -0.00000000000E+00  0.11368683772E-12  0.17120000000E+03  0.17120000000E+03 0.  0.
         13    1    1    2    0    0 -0.25469339824E+02 -0.51211182093E+02  0.17220233989E+03  0.18145227876E+03  0.10566000000E+00 0.  1.
        994    1    1    2    0    0  0.20858838005E+01 -0.43900656852E+02  0.19582238057E+02  0.17783285026E+03  0.17120000000E+03 0.  0.
        998    1    1    2    0    0  0.23383456024E+02  0.95111838945E+02  0.13082154183E+04  0.13119148710E+04  0.10000000000E+02 0.  1.
</event>
<event>
 5    1  0.1303633E-008  0.3754282E+03  0.7957747E-01  0.3471310E+00
         13   -1    0    0    0    0  0.00000000000E+00  0.00000000000E+00  0.14999999963E+04  0.15000000000E+04  0.10566000000E+00 0.  1.
        994   -1    0    0    0    0 -0.00000000000E+00 -0.00000000000E+00  0.11368683772E-12  0.17120000000E+03  0.17120000000E+03 0.  0.
         13    1    1    2    0    0  0.36565436512E+02 -0.24757118711E+00  0.95773554658E+02  0.10251671754E+03  0.10566000000E+00 0.  1.
        994    1    1    2    0    0 -0.35663376431E+02 -0.59042809850E+01  0.10907340101E+02  0.17531442331E+03  0.17120000000E+03 0.  0.
        998    1    1    2    0    0 -0.90206008051E+00  0.61518521721E+01  0.13933191015E+04  0.13933688592E+04  0.10000000000E+02 0.  1.
</event>
<event>
 5    1  0.1303633E-008  0.3834203E+03  0.7957747E-01  0.3436399E+00
         13   -1    0    0    0    0  0.00000000000E+00  0.00000000000E+00  0.14999999963E+04  0.15000000000E+04  0.10566000000E+00 0.  1.
        994   -1    0    0    0    0 -0.00000000000E+00 -0.00000000000E+00  0.11368683772E-12  0.17120000000E+03  0.17120000000E+03 0.  0.
         13    1    1    2    0    0  0.27523894715E+02 -0.69237052444E+01  0.16390980234E+03  0.16634884112E+03  0.10566000000E+00 0.  1.
        994    1    1    2    0    0 -0.18132368690E+02  0.33156843898E+01  0.35404063951E+01  0.17222587214E+03  0.17120000000E+03 0.  0.
        998    1    1    2    0    0 -0.93915260245E+01  0.36080208546E+01  0.13325497875E+04  0.13326252867E+04  0.10000000000E+02 0.  1.
</event>
<event>
 5    1  0.1303633E-008  0.3818981E+03  0.7957747E-01  0.3442935E+00
         13   -1    0    0    0    0  0.00000000000E+00  0.00000000000E+00  0.14999999963E+04  0.15000000000E+04  0.10566000000E+00 0. -1.
        994   -1    0    0    0    0 -0.00000000000E+00 -0.00000000000E+00  0.11368683772E-12  0.17120000000E+03  0.17120000000E+03 0.  0.
         13    1    1    2    0    0  0.37299314167E+00 -0.28402392211E+02  0.10641267430E+03  0.11013856465E+03  0.10566000000E+00 0. -1.
        994    1    1    2    0    0 -0.10209258385E+02  0.46064608484E+02  0.10609118117E+02  0.17789932686E+03  0.17120000000E+03 0.  0.
        998    1    1    2    0    0  0.98362652436E+01 -0.17662216273E+02  0.13829782039E+04  0.13831621085E+04  0.10000000000E+02 0. -1.
</event>
<event>
 5    1  0.1303633E-008  0.3801180E+03  0.7957747E-01  0.3450645E+00
         13   -1    0    0    0    0  0.00000000000E+00  0.00000000000E+00  0.14999999963E+04  0.15000000000E+04  0.10566000000E+00 0.  1.
        994   -1    0    0    0    0 -0.00000000000E+00 -0.00000000000E+00  0.11368683772E-12  0.17120000000E+03  0.17120000000E+03 0.  0.
         13    1    1    2    0    0 -0.36404413167E+01  0.12464173165E+02  0.19422307594E+02  0.23363339273E+02  0.10566000000E+00 0.  1.
        994    1    1    2    0    0 -0.40410990359E+01 -0.19856864283E+01  0.41413208691E+01  0.17130926411E+03  0.17120000000E+03 0.  0.
        998    1    1    2    0    0  0.76815403526E+01 -0.10478486737E+02  0.14764363678E+04  0.14765273966E+04  0.10000000000E+02 0.  1.
</event>
<event>
 5    1  0.1303633E-008  0.3711387E+03  0.7957747E-01  0.3490674E+00
         13   -1    0    0    0    0  0.00000000000E+00  0.00000000000E+00  0.14999999963E+04  0.15000000000E+04  0.10566000000E+00 0.  1.
        994   -1    0    0    0    0 -0.00000000000E+00 -0.00000000000E+00  0.11368683772E-12  0.17120000000E+03  0.17120000000E+03 0.  0.
         13    1    1    2    0    0  0.92046420515E+02  0.17540777978E+01  0.43800273677E+03  0.44757348994E+03  0.10566000000E+00 0.  1.
        994    1    1    2    0    0 -0.29693579992E+02 -0.11554633557E+02  0.15113866877E+02  0.17479441416E+03  0.17120000000E+03 0.  0.
        998    1    1    2    0    0 -0.62352840524E+02  0.98005557588E+01  0.10468833926E+04  0.10488320959E+04  0.10000000000E+02 0.  1.
</event>
<event>
 5    1  0.1303633E-008  0.3730950E+03  0.7957747E-01  0.3481787E+00
         13   -1    0    0    0    0  0.00000000000E+00  0.00000000000E+00  0.14999999963E+04  0.15000000000E+04  0.10566000000E+00 0. -1.
        994   -1    0    0    0    0 -0.00000000000E+00 -0.00000000000E+00  0.11368683772E-12  0.17120000000E+03  0.17120000000E+03 0.  0.
         13    1    1    2    0    0  0.12767397137E+02 -0.23161673695E+02  0.42289270579E+02  0.49878483620E+02  0.10566000000E+00 0. -1.
        994    1    1    2    0    0  0.19360781335E+01  0.24381191890E+02  0.97094807351E+01  0.17321057974E+03  0.17120000000E+03 0.  0.
        998    1    1    2    0    0 -0.14703475270E+02 -0.12195181951E+01  0.14480012450E+04  0.14481109366E+04  0.10000000000E+02 0. -1.
</event>
<event>
 5    1  0.2019210E-008  0.3855747E+03  0.7957747E-01  0.3427239E+00
         13   -1    0    0    0    0  0.00000000000E+00  0.00000000000E+00  0.14999999963E+04  0.15000000000E+04  0.10566000000E+00 0.  1.
        994   -1    0    0    0    0 -0.00000000000E+00 -0.00000000000E+00  0.11368683772E-12  0.17120000000E+03  0.17120000000E+03 0.  0.
         13    1    1    2    0    0 -0.72847528143E+01  0.69590747432E+01  0.39281360608E+02  0.40552839605E+02  0.10566000000E+00 0.  1.
        994    1    1    2    0    0  0.15045615963E+01  0.14220454066E+01  0.13591602161E+01  0.17121791155E+03  0.17120000000E+03 0.  0.
        998    1    1    2    0    0  0.57801912180E+01 -0.83811201497E+01  0.14593594755E+04  0.14594292488E+04  0.10000000000E+02 0.  1.
</event>
<event>
 5    1  0.1303633E-008  0.3834465E+03  0.7957747E-01  0.3436288E+00
         13   -1    0    0    0    0  0.00000000000E+00  0.00000000000E+00  0.14999999963E+04  0.15000000000E+04  0.10566000000E+00 0. -1.
        994   -1    0    0    0    0 -0.00000000000E+00 -0.00000000000E+00  0.11368683772E-12  0.17120000000E+03  0.17120000000E+03 0.  0.
         13    1    1    2    0    0  0.12410166521E+02  0.20925233686E+01  0.31743010706E+02  0.34147046429E+02  0.10566000000E+00 0. -1.
        994    1    1    2    0    0 -0.11731983395E+02 -0.47041089314E+01  0.29316470253E+01  0.17169100917E+03  0.17120000000E+03 0.  0.
        998    1    1    2    0    0 -0.67818312571E+00  0.26115855628E+01  0.14653253385E+04  0.14653619444E+04  0.10000000000E+02 0. -1.
</event>
<event>
 5    1  0.1303633E-008  0.3847739E+03  0.7957747E-01  0.3430632E+00
         13   -1    0    0    0    0  0.00000000000E+00  0.00000000000E+00  0.14999999963E+04  0.15000000000E+04  0.10566000000E+00 0. -1.
        994   -1    0    0    0    0 -0.00000000000E+00 -0.00000000000E+00  0.11368683772E-12  0.17120000000E+03  0.17120000000E+03 0.  0.
         13    1    1    2    0    0 -0.10257324000E+02  0.46180485680E+01  0.36697503054E+02  0.38383029618E+02  0.10566000000E+00 0. -1.
        994    1    1    2    0    0  0.48400412159E+01  0.13938476086E+01  0.18259471218E+01  0.17128380803E+03  0.17120000000E+03 0.  0.
        998    1    1    2    0    0  0.54172827836E+01 -0.60118961766E+01  0.14614765461E+04  0.14615331624E+04  0.10000000000E+02 0. -1.
</event>
<event>
 5    1  0.1303633E-008  0.4135677E+03  0.7957747E-01  0.3316869E+00
         13   -1    0    0    0    0  0.00000000000E+00  0.00000000000E+00  0.14999999963E+04  0.15000000000E+04  0.10566000000E+00 0. -1.
        994   -1    0    0    0    0 -0.00000000000E+00 -0.00000000000E+00  0.11368683772E-12  0.17120000000E+03  0.17120000000E+03 0.  0.
         13    1    1    2    0    0  0.50066024487E+02 -0.35798251210E+02  0.39326082506E+02  0.73038849436E+02  0.10566000000E+00 0. -1.
        994    1    1    2    0    0 -0.44959333253E+02  0.34512280612E+02  0.49590315560E+02  0.18703229282E+03  0.17120000000E+03 0.  0.
        998    1    1    2    0    0 -0.51066912340E+01  0.12859705980E+01  0.14110835982E+04  0.14111288577E+04  0.10000000000E+02 0. -1.
</event>
<event>
 5    1  0.1303633E-008  0.3830821E+03  0.7957747E-01  0.3437847E+00
         13   -1    0    0    0    0  0.00000000000E+00  0.00000000000E+00  0.14999999963E+04  0.15000000000E+04  0.10566000000E+00 0.  1.
        994   -1    0    0    0    0 -0.00000000000E+00 -0.00000000000E+00  0.11368683772E-12  0.17120000000E+03  0.17120000000E+03 0.  0.
         13    1    1    2    0    0 -0.15575808868E+02  0.69147963063E+01  0.60596804563E+02  0.62947629957E+02  0.10566000000E+00 0.  1.
        994    1    1    2    0    0 -0.35251889216E+01  0.83440393733E+01  0.28569003326E+01  0.17146326671E+03  0.17120000000E+03 0.  0.
        998    1    1    2    0    0  0.19100997790E+02 -0.15258835680E+02  0.14365462914E+04  0.14367891033E+04  0.10000000000E+02 0.  1.
</event>
<event>
 5    1  0.1303633E-008  0.3838531E+03  0.7957747E-01  0.3434551E+00
         13   -1    0    0    0    0  0.00000000000E+00  0.00000000000E+00  0.14999999963E+04  0.15000000000E+04  0.10566000000E+00 0.  1.
        994   -1    0    0    0    0 -0.00000000000E+00 -0.00000000000E+00  0.11368683772E-12  0.17120000000E+03  0.17120000000E+03 0.  0.
         13    1    1    2    0    0  0.16533878527E+02  0.55333057537E+01  0.73995857434E+02  0.76022264456E+02  0.10566000000E+00 0.  1.
        994    1    1    2    0    0  0.30583393586E+01 -0.45566905973E+01  0.23000334515E+01  0.17130337715E+03  0.17120000000E+03 0.  0.
        998    1    1    2    0    0 -0.19592217885E+02 -0.97661515635E+00  0.14237041054E+04  0.14238743584E+04  0.10000000000E+02 0.  1.
</event>
<event>
 5    1  0.1303633E-008  0.3834541E+03  0.7957747E-01  0.3436255E+00
         13   -1    0    0    0    0  0.00000000000E+00  0.00000000000E+00  0.14999999963E+04  0.15000000000E+04  0.10566000000E+00 0.  1.
        994   -1    0    0    0    0 -0.00000000000E+00 -0.00000000000E+00  0.11368683772E-12  0.17120000000E+03  0.17120000000E+03 0.  0.
         13    1    1    2    0    0  0.10195885059E+02  0.27504259010E+02  0.15064732359E+03  0.15347660279E+03  0.10566000000E+00 0.  1.
        994    1    1    2    0    0  0.62942333482E+01 -0.44846476631E+02  0.92077347112E+01  0.17732751117E+03  0.17120000000E+03 0.  0.
        998    1    1    2    0    0 -0.16490118407E+02  0.17342217621E+02  0.13401449380E+04  0.13403958860E+04  0.10000000000E+02 0.  1.
</event>
<event>
 5    1  0.1303633E-008  0.3856728E+03  0.7957747E-01  0.3426824E+00
         13   -1    0    0    0    0  0.00000000000E+00  0.00000000000E+00  0.14999999963E+04  0.15000000000E+04  0.10566000000E+00 0.  1.
        994   -1    0    0    0    0 -0.00000000000E+00 -0.00000000000E+00  0.11368683772E-12  0.17120000000E+03  0.17120000000E+03 0.  0.
         13    1    1    2    0    0 -0.67682630666E+01  0.93193947754E+01  0.54320969077E+02  0.55528725444E+02  0.10566000000E+00 0.  1.
        994    1    1    2    0    0 -0.92851118413E+01 -0.64383176197E+01  0.17155107654E+01  0.17158102521E+03  0.17120000000E+03 0.  0.
        998    1    1    2    0    0  0.16053374908E+02 -0.28810771557E+01  0.14439635164E+04  0.14440902493E+04  0.10000000000E+02 0.  1.
</event>
<event>
 5    1  0.1303633E-008  0.3814521E+03  0.7957747E-01  0.3444860E+00
         13   -1    0    0    0    0  0.00000000000E+00  0.00000000000E+00  0.14999999963E+04  0.15000000000E+04  0.10566000000E+00 0.  1.
        994   -1    0    0    0    0 -0.00000000000E+00 -0.00000000000E+00  0.11368683772E-12  0.17120000000E+03  0.17120000000E+03 0.  0.
         13    1    1    2    0    0  0.17141439373E+02 -0.24730002320E+02  0.16442709806E+03  0.16715766121E+03  0.10566000000E+00 0.  1.
        994    1    1    2    0    0 -0.10924350298E+01 -0.14379818856E+02  0.40941349053E+01  0.17185509752E+03  0.17120000000E+03 0.  0.
        998    1    1    2    0    0 -0.16049004343E+02  0.39109821177E+02  0.13314787633E+04  0.13321872413E+04  0.10000000000E+02 0.  1.
</event>
<event>
 5    1  0.1303633E-008  0.3767957E+03  0.7957747E-01  0.3465231E+00
         13   -1    0    0    0    0  0.00000000000E+00  0.00000000000E+00  0.14999999963E+04  0.15000000000E+04  0.10566000000E+00 0.  1.
        994   -1    0    0    0    0 -0.00000000000E+00 -0.00000000000E+00  0.11368683772E-12  0.17120000000E+03  0.17120000000E+03 0.  0.
         13    1    1    2    0    0  0.22500052740E+02 -0.10035415478E+02  0.49269295730E+02  0.55085720499E+02  0.10566000000E+00 0.  1.
        994    1    1    2    0    0 -0.21014409702E+02  0.10216858268E+02  0.76064254333E+01  0.17295458166E+03  0.17120000000E+03 0.  0.
        998    1    1    2    0    0 -0.14856430372E+01 -0.18144278986E+00  0.14431242751E+04  0.14431596978E+04  0.10000000000E+02 0.  1.
</event>
<event>
 5    1  0.1303633E-008  0.3860038E+03  0.7957747E-01  0.3425426E+00
         13   -1    0    0    0    0  0.00000000000E+00  0.00000000000E+00  0.14999999963E+04  0.15000000000E+04  0.10566000000E+00 0.  1.
        994   -1    0    0    0    0 -0.00000000000E+00 -0.00000000000E+00  0.11368683772E-12  0.17120000000E+03  0.17120000000E+03 0.  0.
         13    1    1    2    0    0  0.80988912832E+01  0.62037676150E+01  0.45816501146E+02  0.46938701664E+02  0.10566000000E+00 0.  1.
        994    1    1    2    0    0 -0.10416231830E+02 -0.15073958663E+01  0.14957825546E+01  0.17152972772E+03  0.17120000000E+03 0.  0.
        998    1    1    2    0    0  0.23173405467E+01 -0.46963717486E+01  0.14526877126E+04  0.14527315706E+04  0.10000000000E+02 0.  1.
</event>
<event>
 5    1  0.1303633E-008  0.3845926E+03  0.7957747E-01  0.3431402E+00
         13   -1    0    0    0    0  0.00000000000E+00  0.00000000000E+00  0.14999999963E+04  0.15000000000E+04  0.10566000000E+00 0. -1.
        994   -1    0    0    0    0 -0.00000000000E+00 -0.00000000000E+00  0.11368683772E-12  0.17120000000E+03  0.17120000000E+03 0.  0.
         13    1    1    2    0    0  0.12283184128E+02  0.94281855398E+01  0.60624145424E+02  0.62570483995E+02  0.10566000000E+00 0. -1.
        994    1    1    2    0    0 -0.67865771200E+01 -0.29448881925E+02  0.48458083441E+01  0.17391439312E+03  0.17120000000E+03 0.  0.
        998    1    1    2    0    0 -0.54966070077E+01  0.20020696385E+02  0.14345300425E+04  0.14347151229E+04  0.10000000000E+02 0. -1.
</event>
<event>
 5    1  0.1303633E-008  0.2848847E+03  0.7957747E-01  0.4010211E+00
         13   -1    0    0    0    0  0.00000000000E+00  0.00000000000E+00  0.14999999963E+04  0.15000000000E+04  0.10566000000E+00 0.  1.
        994   -1    0    0    0    0 -0.00000000000E+00 -0.00000000000E+00  0.11368683772E-12  0.17120000000E+03  0.17120000000E+03 0.  0.
         13    1    1    2    0    0 -0.56755766756E+02  0.13460349025E+03  0.70679254824E+03  0.72173058274E+03  0.10566000000E+00 0.  1.
        994    1    1    2    0    0  0.46846039702E+02 -0.38720083025E+02  0.34894312229E+02  0.18498878153E+03  0.17120000000E+03 0.  0.
        998    1    1    2    0    0  0.99097270539E+01 -0.95883407224E+02  0.75831313581E+03  0.76448063573E+03  0.10000000000E+02 0. -1.
</event>
<event>
 5    1  0.1333863E-008  0.3856471E+03  0.7957747E-01  0.3426932E+00
         13   -1    0    0    0    0  0.00000000000E+00  0.00000000000E+00  0.14999999963E+04  0.15000000000E+04  0.10566000000E+00 0. -1.
        994   -1    0    0    0    0 -0.00000000000E+00 -0.00000000000E+00  0.11368683772E-12  0.17120000000E+03  0.17120000000E+03 0.  0.
         13    1    1    2    0    0  0.70090871829E+01 -0.11925688803E+02  0.74819616292E+02  0.76087682989E+02  0.10566000000E+00 0. -1.
        994    1    1    2    0    0 -0.57980292780E+01  0.45902924667E+01  0.14887058588E+01  0.17136611151E+03  0.17120000000E+03 0.  0.
        998    1    1    2    0    0 -0.12110579049E+01  0.73353963360E+01  0.14236916741E+04  0.14237462055E+04  0.10000000000E+02 0. -1.
</event>
<event>
 5    1  0.1303633E-008  0.3862614E+03  0.7957747E-01  0.3424340E+00
         13   -1    0    0    0    0  0.00000000000E+00  0.00000000000E+00  0.14999999963E+04  0.15000000000E+04  0.10566000000E+00 0.  1.
        994   -1    0    0    0    0 -0.00000000000E+00 -0.00000000000E+00  0.11368683772E-12  0.17120000000E+03  0.17120000000E+03 0.  0.
         13    1    1    2    0    0 -0.92342339647E+01 -0.39126094725E+01  0.54825881588E+02  0.55735698127E+02  0.10566000000E+00 0.  1.
        994    1    1    2    0    0 -0.63200580577E+01  0.67979662102E+01  0.12873696520E+01  0.17145627081E+03  0.17120000000E+03 0.  0.
        998    1    1    2    0    0  0.15554292022E+02 -0.28853567378E+01  0.14438867450E+04  0.14440080311E+04  0.10000000000E+02 0.  1.
</event>
<event>
 5    1  0.1303633E-008  0.3858790E+03  0.7957747E-01  0.3425953E+00
         13   -1    0    0    0    0  0.00000000000E+00  0.00000000000E+00  0.14999999963E+04  0.15000000000E+04  0.10566000000E+00 0.  1.
        994   -1    0    0    0    0 -0.00000000000E+00 -0.00000000000E+00  0.11368683772E-12  0.17120000000E+03  0.17120000000E+03 0.  0.
         13    1    1    2    0    0 -0.65354469154E+00  0.10526759865E+02  0.45785897541E+02  0.46985097335E+02  0.10566000000E+00 0.  1.
        994    1    1    2    0    0  0.17292161314E+01 -0.11315282809E+02  0.16241581348E+01  0.17158992891E+03  0.17120000000E+03 0.  0.
        998    1    1    2    0    0 -0.10756714399E+01  0.78852294417E+00  0.14525899406E+04  0.14526249738E+04  0.10000000000E+02 0.  1.
</event>
<event>
 5    1  0.1303633E-008  0.3825650E+03  0.7957747E-01  0.3440065E+00
         13   -1    0    0    0    0  0.00000000000E+00  0.00000000000E+00  0.14999999963E+04  0.15000000000E+04  0.10566000000E+00 0. -1.
        994   -1    0    0    0    0 -0.00000000000E+00 -0.00000000000E+00  0.11368683772E-12  0.17120000000E+03  0.17120000000E+03 0.  0.
         13    1    1    2    0    0 -0.82804397009E+01  0.21625827118E+02  0.10284127483E+03  0.10541622766E+03  0.10566000000E+00 0. -1.
        994    1    1    2    0    0  0.56168594133E+01  0.32086116617E+01  0.29826471405E+01  0.17134812658E+03  0.17120000000E+03 0.  0.
        998    1    1    2    0    0  0.26635802876E+01 -0.24834438779E+02  0.13941760743E+04  0.13944356458E+04  0.10000000000E+02 0. -1.
</event>
<event>
 5    1  0.1303633E-008  0.3726699E+03  0.7957747E-01  0.3483710E+00
         13   -1    0    0    0    0  0.00000000000E+00  0.00000000000E+00  0.14999999963E+04  0.15000000000E+04  0.10566000000E+00 0.  1.
        994   -1    0    0    0    0 -0.00000000000E+00 -0.00000000000E+00  0.11368683772E-12  0.17120000000E+03  0.17120000000E+03 0.  0.
         13    1    1    2    0    0 -0.62831524673E-01  0.11149309262E+02  0.45068536075E+01  0.12026385088E+02  0.10566000000E+00 0.  1.
        994    1    1    2    0    0  0.91412121910E+01  0.14495177080E+02  0.88869515577E+01  0.17228490888E+03  0.17120000000E+03 0.  0.
        998    1    1    2    0    0 -0.90783806663E+01 -0.25644486342E+02  0.14866061911E+04  0.14868887060E+04  0.10000000000E+02 0.  1.
</event>
<event>
 5    1  0.1303633E-008  0.3845365E+03  0.7957747E-01  0.3431640E+00
         13   -1    0    0    0    0  0.00000000000E+00  0.00000000000E+00  0.14999999963E+04  0.15000000000E+04  0.10566000000E+00 0.  1.
        994   -1    0    0    0    0 -0.00000000000E+00 -0.00000000000E+00  0.11368683772E-12  0.17120000000E+03  0.17120000000E+03 0.  0.
         13    1    1    2    0    0 -0.12398463833E+02 -0.14752918905E+01  0.40823264527E+02  0.42690145025E+02  0.10566000000E+00 0.  1.
        994    1    1    2    0    0  0.12260393911E+02  0.86695051600E+00  0.23581686788E+01  0.17165683739E+03  0.17120000000E+03 0.  0.
        998    1    1    2    0    0  0.13806992222E+00  0.60834137450E+00  0.14568185631E+04  0.14568530176E+04  0.10000000000E+02 0.  1.
</event>
<event>
 5    1  0.1303633E-008  0.3756702E+03  0.7957747E-01  0.3470231E+00
         13   -1    0    0    0    0  0.00000000000E+00  0.00000000000E+00  0.14999999963E+04  0.15000000000E+04  0.10566000000E+00 0. -1.
        994   -1    0    0    0    0 -0.00000000000E+00 -0.00000000000E+00  0.11368683772E-12  0.17120000000E+03  0.17120000000E+03 0.  0.
         13    1    1    2    0    0 -0.38309793428E+02 -0.23858943882E+02  0.19382505109E+03  0.19901017831E+03  0.10566000000E+00 0. -1.
        994    1    1    2    0    0 -0.12341850404E+02  0.88124984113E+01  0.71153386579E+01  0.17201758469E+03  0.17120000000E+03 0.  0.
        998    1    1    2    0    0  0.50651643832E+02  0.15046445471E+02  0.12990596065E+04  0.13001722370E+04  0.10000000000E+02 0. -1.
</event>
<event>
 5    1  0.1303633E-008  0.3843457E+03  0.7957747E-01  0.3432452E+00
         13   -1    0    0    0    0  0.00000000000E+00  0.00000000000E+00  0.14999999963E+04  0.15000000000E+04  0.10566000000E+00 0. -1.
        994   -1    0    0    0    0 -0.00000000000E+00 -0.00000000000E+00  0.11368683772E-12  0.17120000000E+03  0.17120000000E+03 0.  0.
         13    1    1    2    0    0 -0.17960188186E+02 -0.13269623113E+02  0.11368412267E+03  0.11585655859E+03  0.10566000000E+00 0. -1.
        994    1    1    2    0    0  0.19386528360E+02  0.22230815998E+02  0.48279391388E+01  0.17378951539E+03  0.17120000000E+03 0.  0.
        998    1    1    2    0    0 -0.14263401744E+01 -0.89611928853E+01  0.13814879345E+04  0.13815539260E+04  0.10000000000E+02 0. -1.
</event>
<event>
 5    1  0.1303633E-008  0.3845133E+03  0.7957747E-01  0.3431739E+00
         13   -1    0    0    0    0  0.00000000000E+00  0.00000000000E+00  0.14999999963E+04  0.15000000000E+04  0.10566000000E+00 0.  1.
        994   -1    0    0    0    0 -0.00000000000E+00 -0.00000000000E+00  0.11368683772E-12  0.17120000000E+03  0.17120000000E+03 0.  0.
         13    1    1    2    0    0  0.61721229854E+01 -0.10383746462E+02  0.37913653469E+02  0.39791626961E+02  0.10566000000E+00 0.  1.
        994    1    1    2    0    0 -0.70977215416E+01  0.10006949800E+02  0.23679280149E+01  0.17165536338E+03  0.17120000000E+03 0.  0.
        998    1    1    2    0    0  0.92559855617E+00  0.37679666198E+00  0.14597184148E+04  0.14597530097E+04  0.10000000000E+02 0.  1.
</event>
<event>
 5    1  0.1303633E-008  0.3793007E+03  0.7957747E-01  0.3454209E+00
         13   -1    0    0    0    0  0.00000000000E+00  0.00000000000E+00  0.14999999963E+04  0.15000000000E+04  0.10566000000E+00 0. -1.
        994   -1    0    0    0    0 -0.00000000000E+00 -0.00000000000E+00  0.11368683772E-12  0.17120000000E+03  0.17120000000E+03 0.  0.
         13    1    1    2    0    0  0.16312767582E+02 -0.27104611116E+02  0.99706846108E+02  0.10460512729E+03  0.10566000000E+00 0. -1.
        994    1    1    2    0    0 -0.21053536020E+02  0.32964350907E+02  0.96298202162E+01  0.17587516382E+03  0.17120000000E+03 0.  0.
        998    1    1    2    0    0  0.47407684381E+01 -0.58597397909E+01  0.13906633300E+04  0.13907197089E+04  0.10000000000E+02 0. -1.
</event>
<event>
 5    1  0.1303633E-008  0.3830179E+03  0.7957747E-01  0.3438122E+00
         13   -1    0    0    0    0  0.00000000000E+00  0.00000000000E+00  0.14999999963E+04  0.15000000000E+04  0.10566000000E+00 0.  1.
        994   -1    0    0    0    0 -0.00000000000E+00 -0.00000000000E+00  0.11368683772E-12  0.17120000000E+03  0.17120000000E+03 0.  0.
         13    1    1    2    0    0  0.14529023285E+01  0.14637017197E+02  0.39293628663E+02  0.41956568200E+02  0.10566000000E+00 0.  1.
        994    1    1    2    0    0 -0.39212708101E+01 -0.17058978354E+02  0.36321701909E+01  0.17213081586E+03  0.17120000000E+03 0.  0.
        998    1    1    2    0    0  0.24683684816E+01  0.24219611566E+01  0.14570741974E+04  0.14571126159E+04  0.10000000000E+02 0.  1.
</event>
<event>
 5    1  0.1303633E-008  0.3707260E+03  0.7957747E-01  0.3492561E+00
         13   -1    0    0    0    0  0.00000000000E+00  0.00000000000E+00  0.14999999963E+04  0.15000000000E+04  0.10566000000E+00 0.  1.
        994   -1    0    0    0    0 -0.00000000000E+00 -0.00000000000E+00  0.11368683772E-12  0.17120000000E+03  0.17120000000E+03 0.  0.
         13    1    1    2    0    0  0.43554733186E+02  0.16940328392E+02  0.10564966324E+03  0.11552424860E+03  0.10566000000E+00 0.  1.
        994    1    1    2    0    0 -0.56756192702E+02 -0.22322459455E+02  0.21830285122E+02  0.18304523745E+03  0.17120000000E+03 0.  0.
        998    1    1    2    0    0  0.13201459516E+02  0.53821310637E+01  0.13725200479E+04  0.13726305139E+04  0.10000000000E+02 0.  1.
</event>
<event>
 5    1  0.1303633E-008  0.3765809E+03  0.7957747E-01  0.3466183E+00
         13   -1    0    0    0    0  0.00000000000E+00  0.00000000000E+00  0.14999999963E+04  0.15000000000E+04  0.10566000000E+00 0. -1.
        994   -1    0    0    0    0 -0.00000000000E+00 -0.00000000000E+00  0.11368683772E-12  0.17120000000E+03  0.17120000000E+03 0.  0.
         13    1    1    2    0    0  0.11452953159E+02  0.10245350064E+02  0.18171808297E+02  0.23798384710E+02  0.10566000000E+00 0. -1.
        994    1    1    2    0    0 -0.12919226411E+02  0.19054059018E+02  0.76630976620E+01  0.17291074762E+03  0.17120000000E+03 0.  0.
        998    1    1    2    0    0  0.14662732520E+01 -0.29299409082E+02  0.14741650903E+04  0.14744908677E+04  0.10000000000E+02 0. -1.
</event>
<event>
 5    1  0.1303633E-008  0.3692437E+03  0.7957747E-01  0.3499374E+00
         13   -1    0    0    0    0  0.00000000000E+00  0.00000000000E+00  0.14999999963E+04  0.15000000000E+04  0.10566000000E+00 0.  1.
        994   -1    0    0    0    0 -0.00000000000E+00 -0.00000000000E+00  0.11368683772E-12  0.17120000000E+03  0.17120000000E+03 0.  0.
         13    1    1    2    0    0 -0.48768338333E+02  0.16045949452E+02  0.11514681432E+03  0.12607388044E+03  0.10566000000E+00 0.  1.
        994    1    1    2    0    0  0.48234952725E+02 -0.60035504592E+00  0.18697384901E+02  0.17884631193E+03  0.17120000000E+03 0.  0.
        998    1    1    2    0    0  0.53338560827E+00 -0.15445594406E+02  0.13661557971E+04  0.13662798076E+04  0.10000000000E+02 0.  1.
</event>
<event>
 5    1  0.1303633E-008  0.3815618E+03  0.7957747E-01  0.3444386E+00
         13   -1    0    0    0    0  0.00000000000E+00  0.00000000000E+00  0.14999999963E+04  0.15000000000E+04  0.10566000000E+00 0. -1.
        994   -1    0    0    0    0 -0.00000000000E+00 -0.00000000000E+00  0.11368683772E-12  0.17120000000E+03  0.17120000000E+03 0.  0.
         13    1    1    2    0    0  0.21567479725E+02  0.30726928333E+02  0.18259445080E+03  0.18641363935E+03  0.10566000000E+00 0. -1.
        994    1    1    2    0    0 -0.43254641815E+02 -0.19537279286E+02  0.10875163419E+02  0.17798982696E+03  0.17120000000E+03 0.  0.
        998    1    1    2    0    0  0.21687162090E+02 -0.11189649046E+02  0.13065303821E+04  0.13067965337E+04  0.10000000000E+02 0. -1.
</event>
<event>
 5    1  0.1303633E-008  0.3822569E+03  0.7957747E-01  0.3441390E+00
         13   -1    0    0    0    0  0.00000000000E+00  0.00000000000E+00  0.14999999963E+04  0.15000000000E+04  0.10566000000E+00 0.  1.
        994   -1    0    0    0    0 -0.00000000000E+00 -0.00000000000E+00  0.11368683772E-12  0.17120000000E+03  0.17120000000E+03 0.  0.
         13    1    1    2    0    0 -0.65689565587E+01  0.19955281071E+02  0.85658898222E+02  0.88197632857E+02  0.10566000000E+00 0.  1.
        994    1    1    2    0    0 -0.94987412157E+01  0.13654038351E+02  0.39167363542E+01  0.17205068925E+03  0.17120000000E+03 0.  0.
        998    1    1    2    0    0  0.16067697774E+02 -0.33609319422E+02  0.14104243617E+04  0.14109516779E+04  0.10000000000E+02 0.  1.
</event>
<event>
 5    1  0.1303633E-008  0.3833365E+03  0.7957747E-01  0.3436758E+00
         13   -1    0    0    0    0  0.00000000000E+00  0.00000000000E+00  0.14999999963E+04  0.15000000000E+04  0.10566000000E+00 0.  1.
        994   -1    0    0    0    0 -0.00000000000E+00 -0.00000000000E+00  0.11368683772E-12  0.17120000000E+03  0.17120000000E+03 0.  0.
         13    1    1    2    0    0  0.20347021199E+02  0.12009294123E+02  0.12650685620E+03  0.12869428988E+03  0.10566000000E+00 0.  1.
        994    1    1    2    0    0  0.18558776563E+01 -0.16571680070E+01  0.24787615212E+01  0.17123602059E+03  0.17120000000E+03 0.  0.
        998    1    1    2    0    0 -0.22202898856E+02 -0.10352126116E+02  0.13710143786E+04  0.13712696895E+04  0.10000000000E+02 0.  1.
</event>
<event>
 5    1  0.1303633E-008  0.3753812E+03  0.7957747E-01  0.3471520E+00
         13   -1    0    0    0    0  0.00000000000E+00  0.00000000000E+00  0.14999999963E+04  0.15000000000E+04  0.10566000000E+00 0. -1.
        994   -1    0    0    0    0 -0.00000000000E+00 -0.00000000000E+00  0.11368683772E-12  0.17120000000E+03  0.17120000000E+03 0.  0.
         13    1    1    2    0    0 -0.98345804877E+02  0.86522654011E+02  0.50528180089E+03  0.52198445999E+03  0.10566000000E+00 0. -1.
        994    1    1    2    0    0  0.56247604510E+02 -0.93335056068E+02  0.57437217526E+02  0.21091159205E+03  0.17120000000E+03 0.  0.
        998    1    1    2    0    0  0.42098200367E+02  0.68124020574E+01  0.93728097786E+03  0.93830394796E+03  0.10000000000E+02 0. -1.
</event>
<event>
 5    1  0.1303633E-008  0.3807293E+03  0.7957747E-01  0.3447989E+00
         13   -1    0    0    0    0  0.00000000000E+00  0.00000000000E+00  0.14999999963E+04  0.15000000000E+04  0.10566000000E+00 0. -1.
        994   -1    0    0    0    0 -0.00000000000E+00 -0.00000000000E+00  0.11368683772E-12  0.17120000000E+03  0.17120000000E+03 0.  0.
         13    1    1    2    0    0  0.11408349066E+03 -0.31344670625E+01  0.58386041200E+03  0.59490995923E+03  0.10566000000E+00 0. -1.
        994    1    1    2    0    0 -0.19637233139E+02  0.15191841118E+02  0.18971119313E+02  0.17402803317E+03  0.17120000000E+03 0.  0.
        998    1    1    2    0    0 -0.94446257518E+02 -0.12057374055E+02  0.89716846496E+03  0.90226200760E+03  0.10000000000E+02 0. -1.
</event>
<event>
 5    1  0.1303633E-008  0.3794494E+03  0.7957747E-01  0.3453560E+00
         13   -1    0    0    0    0  0.00000000000E+00  0.00000000000E+00  0.14999999963E+04  0.15000000000E+04  0.10566000000E+00 0.  1.
        994   -1    0    0    0    0 -0.00000000000E+00 -0.00000000000E+00  0.11368683772E-12  0.17120000000E+03  0.17120000000E+03 0.  0.
         13    1    1    2    0    0  0.41691925758E+02 -0.94817773476E+01  0.19604585901E+03  0.20065420697E+03  0.10566000000E+00 0.  1.
        994    1    1    2    0    0 -0.28317405990E+02  0.18378929424E+02  0.82375330191E+01  0.17469103434E+03  0.17120000000E+03 0.  0.
        998    1    1    2    0    0 -0.13374519768E+02 -0.88971520768E+01  0.12957166042E+04  0.12958547587E+04  0.10000000000E+02 0.  1.
</event>
<event>
 5    1  0.1303633E-008  0.3763476E+03  0.7957747E-01  0.3467218E+00
         13   -1    0    0    0    0  0.00000000000E+00  0.00000000000E+00  0.14999999963E+04  0.15000000000E+04  0.10566000000E+00 0. -1.
        994   -1    0    0    0    0 -0.00000000000E+00 -0.00000000000E+00  0.11368683772E-12  0.17120000000E+03  0.17120000000E+03 0.  0.
         13    1    1    2    0    0 -0.16575436427E+01 -0.21232573569E+02  0.33993753471E+02  0.40114287609E+02  0.10566000000E+00 0. -1.
        994    1    1    2    0    0  0.62379319025E+01  0.28561527320E+02  0.88858231924E+01  0.17390534923E+03  0.17120000000E+03 0.  0.
        998    1    1    2    0    0 -0.45803882597E+01 -0.73289537509E+01  0.14571204196E+04  0.14571803632E+04  0.10000000000E+02 0. -1.
</event>
<event>
 5    1  0.1303633E-008  0.4403131E+03  0.7957747E-01  0.3224361E+00
         13   -1    0    0    0    0  0.00000000000E+00  0.00000000000E+00  0.14999999963E+04  0.15000000000E+04  0.10566000000E+00 0. -1.
        994   -1    0    0    0    0 -0.00000000000E+00 -0.00000000000E+00  0.11368683772E-12  0.17120000000E+03  0.17120000000E+03 0.  0.
         13    1    1    2    0    0  0.22797378332E+02  0.10445970240E+03  0.90089666855E+02  0.13981312214E+03  0.10566000000E+00 0. -1.
        994    1    1    2    0    0 -0.49000092298E+02 -0.78020598351E+02  0.95847444752E+02  0.21675884175E+03  0.17120000000E+03 0.  0.
        998    1    1    2    0    0  0.26202713966E+02 -0.26439104053E+02  0.13140628847E+04  0.13146280361E+04  0.10000000000E+02 0. -1.
</event>
<event>
 5    1  0.1303633E-008  0.3848687E+03  0.7957747E-01  0.3430229E+00
         13   -1    0    0    0    0  0.00000000000E+00  0.00000000000E+00  0.14999999963E+04  0.15000000000E+04  0.10566000000E+00 0.  1.
        994   -1    0    0    0    0 -0.00000000000E+00 -0.00000000000E+00  0.11368683772E-12  0.17120000000E+03  0.17120000000E+03 0.  0.
         13    1    1    2    0    0 -0.90940811312E+01  0.12456706447E+02  0.69900719217E+02  0.71582075677E+02  0.10566000000E+00 0.  1.
        994    1    1    2    0    0 -0.25030084653E+01 -0.15096656354E+02  0.24661677604E+01  0.17190025034E+03  0.17120000000E+03 0.  0.
        998    1    1    2    0    0  0.11597089597E+02  0.26399499069E+01  0.14276331093E+04  0.14277176740E+04  0.10000000000E+02 0.  1.
</event>
<event>
 5    1  0.1303633E-008  0.3699603E+03  0.7957747E-01  0.3496073E+00
         13   -1    0    0    0    0  0.00000000000E+00  0.00000000000E+00  0.14999999963E+04  0.15000000000E+04  0.10566000000E+00 0.  1.
        994   -1    0    0    0    0 -0.00000000000E+00 -0.00000000000E+00  0.11368683772E-12  0.17120000000E+03  0.17120000000E+03 0.  0.
         13    1    1    2    0    0 -0.38004587309E+02  0.12521650504E+02  0.66500199777E+02  0.77610747466E+02  0.10566000000E+00 0.  1.
        994    1    1    2    0    0  0.39869719982E+02 -0.68603940190E+01  0.16660591924E+02  0.17670222098E+03  0.17120000000E+03 0.  0.
        998    1    1    2    0    0 -0.18651326725E+01 -0.56612564854E+01  0.14168392046E+04  0.14168870315E+04  0.10000000000E+02 0.  1.
</event>
<event>
 5    1  0.1303633E-008  0.3824924E+03  0.7957747E-01  0.3440377E+00
         13   -1    0    0    0    0  0.00000000000E+00  0.00000000000E+00  0.14999999963E+04  0.15000000000E+04  0.10566000000E+00 0. -1.
        994   -1    0    0    0    0 -0.00000000000E+00 -0.00000000000E+00  0.11368683772E-12  0.17120000000E+03  0.17120000000E+03 0.  0.
         13    1    1    2    0    0  0.10442789995E+02 -0.26822663012E+01  0.18461268419E+02  0.21379336076E+02  0.10566000000E+00 0. -1.
        994    1    1    2    0    0 -0.18347197182E+02  0.27785228893E+01  0.40227596258E+01  0.17224970952E+03  0.17120000000E+03 0.  0.
        998    1    1    2    0    0  0.79044071872E+01 -0.96256588022E-01  0.14775159682E+04  0.14775709544E+04  0.10000000000E+02 0. -1.
</event>
<event>
 5    1  0.1303633E-008  0.3827910E+03  0.7957747E-01  0.3439095E+00
         13   -1    0    0    0    0  0.00000000000E+00  0.00000000000E+00  0.14999999963E+04  0.15000000000E+04  0.10566000000E+00 0.  1.
        994   -1    0    0    0    0 -0.00000000000E+00 -0.00000000000E+00  0.11368683772E-12  0.17120000000E+03  0.17120000000E+03 0.  0.
         13    1    1    2    0    0  0.12078094057E+02 -0.58387237907E+01  0.31851277006E+02  0.34561337684E+02  0.10566000000E+00 0.  1.
        994    1    1    2    0    0 -0.11841786436E+02 -0.21353590394E+00  0.31956479539E+01  0.17163893984E+03  0.17120000000E+03 0.  0.
        998    1    1    2    0    0 -0.23630762120E+00  0.60522596946E+01  0.14649530713E+04  0.14649997225E+04  0.10000000000E+02 0.  1.
</event>
<event>
 5    1  0.1303633E-008  0.3777579E+03  0.7957747E-01  0.3460980E+00
         13   -1    0    0    0    0  0.00000000000E+00  0.00000000000E+00  0.14999999963E+04  0.15000000000E+04  0.10566000000E+00 0. -1.
        994   -1    0    0    0    0 -0.00000000000E+00 -0.00000000000E+00  0.11368683772E-12  0.17120000000E+03  0.17120000000E+03 0.  0.
         13    1    1    2    0    0  0.32122995609E+01  0.11189924587E+02  0.10459065560E+02  0.15650447187E+02  0.10566000000E+00 0. -1.
        994    1    1    2    0    0 -0.26897082214E+01 -0.10057065773E+02  0.56343524975E+01  0.17160875569E+03  0.17120000000E+03 0.  0.
        998    1    1    2    0    0 -0.52259133950E+00 -0.11328588140E+01  0.14839065782E+04  0.14839407971E+04  0.10000000000E+02 0. -1.
</event>
<event>
 5    1  0.1303633E-008  0.3824591E+03  0.7957747E-01  0.3440521E+00
         13   -1    0    0    0    0  0.00000000000E+00  0.00000000000E+00  0.14999999963E+04  0.15000000000E+04  0.10566000000E+00 0. -1.
        994   -1    0    0    0    0 -0.00000000000E+00 -0.00000000000E+00  0.11368683772E-12  0.17120000000E+03  0.17120000000E+03 0.  0.
         13    1    1    2    0    0 -0.34639859980E+02  0.18647715730E+02  0.23196559210E+03  0.23527792987E+03  0.10566000000E+00 0. -1.
        994    1    1    2    0    0  0.33418107249E+02 -0.17175467827E+02  0.75924814279E+01  0.17543902748E+03  0.17120000000E+03 0.  0.
        998    1    1    2    0    0  0.12217527310E+01 -0.14722479025E+01  0.12604419227E+04  0.12604830427E+04  0.10000000000E+02 0.  0.
</event>
<event>
 5    1  0.1303633E-008  0.3810277E+03  0.7957747E-01  0.3446696E+00
         13   -1    0    0    0    0  0.00000000000E+00  0.00000000000E+00  0.14999999963E+04  0.15000000000E+04  0.10566000000E+00 0. -1.
        994   -1    0    0    0    0 -0.00000000000E+00 -0.00000000000E+00  0.11368683772E-12  0.17120000000E+03  0.17120000000E+03 0.  0.
         13    1    1    2    0    0 -0.16549306428E+01  0.13402347091E+02  0.23432489383E+02  0.27045414135E+02  0.10566000000E+00 0. -1.
        994    1    1    2    0    0 -0.16084327695E+01 -0.14624361504E+02  0.43367428728E+01  0.17188573630E+03  0.17120000000E+03 0.  0.
        998    1    1    2    0    0  0.32633634122E+01  0.12220144129E+01  0.14722307640E+04  0.14722688496E+04  0.10000000000E+02 0. -1.
</event>
<event>
 5    1  0.1303633E-008  0.3813471E+03  0.7957747E-01  0.3445314E+00
         13   -1    0    0    0    0  0.00000000000E+00  0.00000000000E+00  0.14999999963E+04  0.15000000000E+04  0.10566000000E+00 0.  1.
        994   -1    0    0    0    0 -0.00000000000E+00 -0.00000000000E+00  0.11368683772E-12  0.17120000000E+03  0.17120000000E+03 0.  0.
         13    1    1    2    0    0  0.30756693500E+02 -0.18194662084E+00  0.13694339049E+03  0.14035494528E+03  0.10566000000E+00 0.  1.
        994    1    1    2    0    0 -0.17550142465E+02 -0.19091262954E+02  0.56959972291E+01  0.17324655323E+03  0.17120000000E+03 0.  0.
        998    1    1    2    0    0 -0.13206551035E+02  0.19273209575E+02  0.13573606086E+04  0.13575985015E+04  0.10000000000E+02 0.  1.
</event>
<event>
 5    1  0.1303633E-008  0.3814477E+03  0.7957747E-01  0.3444879E+00
         13   -1    0    0    0    0  0.00000000000E+00  0.00000000000E+00  0.14999999963E+04  0.15000000000E+04  0.10566000000E+00 0. -1.
        994   -1    0    0    0    0 -0.00000000000E+00 -0.00000000000E+00  0.11368683772E-12  0.17120000000E+03  0.17120000000E+03 0.  0.
         13    1    1    2    0    0  0.24586317497E+02 -0.13074155901E+02  0.10517899315E+03  0.10880281396E+03  0.10566000000E+00 0. -1.
        994    1    1    2    0    0 -0.24360986039E+02  0.16294538254E+02  0.62671652525E+01  0.17380358736E+03  0.17120000000E+03 0.  0.
        998    1    1    2    0    0 -0.22533145812E+00 -0.32203823536E+01  0.13885538379E+04  0.13885935987E+04  0.10000000000E+02 0. -1.
</event>
<event>
 5    1  0.1303633E-008  0.3858375E+03  0.7957747E-01  0.3426128E+00
         13   -1    0    0    0    0  0.00000000000E+00  0.00000000000E+00  0.14999999963E+04  0.15000000000E+04  0.10566000000E+00 0.  1.
        994   -1    0    0    0    0 -0.00000000000E+00 -0.00000000000E+00  0.11368683772E-12  0.17120000000E+03  0.17120000000E+03 0.  0.
         13    1    1    2    0    0 -0.11781675957E+02  0.10286002795E+01  0.54148612107E+02  0.55425168147E+02  0.10566000000E+00 0.  1.
        994    1    1    2    0    0  0.18837245980E+02  0.15005949379E+01  0.23869444657E+01  0.17225629488E+03  0.17120000000E+03 0.  0.
        998    1    1    2    0    0 -0.70555700232E+01 -0.25291952174E+01  0.14434644397E+04  0.14435185370E+04  0.10000000000E+02 0.  1.
</event>
<event>
 5    1  0.1303633E-008  0.3826561E+03  0.7957747E-01  0.3439674E+00
         13   -1    0    0    0    0  0.00000000000E+00  0.00000000000E+00  0.14999999963E+04  0.15000000000E+04  0.10566000000E+00 0.  1.
        994   -1    0    0    0    0 -0.00000000000E+00 -0.00000000000E+00  0.11368683772E-12  0.17120000000E+03  0.17120000000E+03 0.  0.
         13    1    1    2    0    0 -0.28458369627E+02  0.10421400004E+01  0.13848198271E+03  0.14137975653E+03  0.10566000000E+00 0.  1.
        994    1    1    2    0    0  0.22778170101E+02  0.53215290137E+01  0.46136470741E+01  0.17285221851E+03  0.17120000000E+03 0.  0.
        998    1    1    2    0    0  0.56801995258E+01 -0.63636690141E+01  0.13569043665E+04  0.13569680250E+04  0.10000000000E+02 0.  1.
</event>
<event>
 5    1  0.1303633E-008  0.3070261E+03  0.7957747E-01  0.3847102E+00
         13   -1    0    0    0    0  0.00000000000E+00  0.00000000000E+00  0.14999999963E+04  0.15000000000E+04  0.10566000000E+00 0. -1.
        994   -1    0    0    0    0 -0.00000000000E+00 -0.00000000000E+00  0.11368683772E-12  0.17120000000E+03  0.17120000000E+03 0.  0.
         13    1    1    2    0    0  0.13069857705E+03 -0.20710707752E+03  0.47160512105E+03  0.53140084773E+03  0.10566000000E+00 0. -1.
        994    1    1    2    0    0 -0.11941098099E+03  0.22488955986E+03  0.36860356257E+03  0.47959599962E+03  0.17120000000E+03 0.  0.
        998    1    1    2    0    0 -0.11287596063E+02 -0.17782482340E+02  0.65979131266E+03  0.66020315265E+03  0.10000000000E+02 0. -1.
</event>
<event>
 5    1  0.1303633E-008  0.3820292E+03  0.7957747E-01  0.3442370E+00
         13   -1    0    0    0    0  0.00000000000E+00  0.00000000000E+00  0.14999999963E+04  0.15000000000E+04  0.10566000000E+00 0.  1.
        994   -1    0    0    0    0 -0.00000000000E+00 -0.00000000000E+00  0.11368683772E-12  0.17120000000E+03  0.17120000000E+03 0.  0.
         13    1    1    2    0    0  0.14084298464E+02  0.21999535743E+02  0.11576160673E+03  0.11867227053E+03  0.10566000000E+00 0.  1.
        994    1    1    2    0    0 -0.13656091157E+02  0.15832676484E+01  0.37401605176E+01  0.17179180528E+03  0.17120000000E+03 0.  0.
        998    1    1    2    0    0 -0.42820730717E+00 -0.23582803391E+02  0.13804982290E+04  0.13807359242E+04  0.10000000000E+02 0.  1.
</event>
<event>
 5    1  0.1303633E-008  0.3757531E+03  0.7957747E-01  0.3469862E+00
         13   -1    0    0    0    0  0.00000000000E+00  0.00000000000E+00  0.14999999963E+04  0.15000000000E+04  0.10566000000E+00 0.  1.
        994   -1    0    0    0    0 -0.00000000000E+00 -0.00000000000E+00  0.11368683772E-12  0.17120000000E+03  0.17120000000E+03 0.  0.
         13    1    1    2    0    0 -0.17040432017E+02  0.13763372790E+02  0.35061334552E+02  0.41341445288E+02  0.10566000000E+00 0.  1.
        994    1    1    2    0    0  0.12103982786E+02 -0.16796172027E+02  0.77471279608E+01  0.17262119159E+03  0.17120000000E+03 0.  0.
        998    1    1    2    0    0  0.49364492316E+01  0.30327992366E+01  0.14571915338E+04  0.14572373631E+04  0.10000000000E+02 0.  1.
</event>
<event>
 5    1  0.1303633E-008  0.3825511E+03  0.7957747E-01  0.3440125E+00
         13   -1    0    0    0    0  0.00000000000E+00  0.00000000000E+00  0.14999999963E+04  0.15000000000E+04  0.10566000000E+00 0.  1.
        994   -1    0    0    0    0 -0.00000000000E+00 -0.00000000000E+00  0.11368683772E-12  0.17120000000E+03  0.17120000000E+03 0.  0.
         13    1    1    2    0    0  0.63832272676E+01  0.16615848489E+02  0.54171495897E+02  0.57020997388E+02  0.10566000000E+00 0.  1.
        994    1    1    2    0    0 -0.73084071831E+01 -0.11792997459E+02  0.34892115788E+01  0.17179668857E+03  0.17120000000E+03 0.  0.
        998    1    1    2    0    0  0.92517991548E+00 -0.48228510307E+01  0.14423392888E+04  0.14423823140E+04  0.10000000000E+02 0.  1.
</event>
<event>
 5    1  0.1303633E-008  0.3837909E+03  0.7957747E-01  0.3434817E+00
         13   -1    0    0    0    0  0.00000000000E+00  0.00000000000E+00  0.14999999963E+04  0.15000000000E+04  0.10566000000E+00 0. -1.
        994   -1    0    0    0    0 -0.00000000000E+00 -0.00000000000E+00  0.11368683772E-12  0.17120000000E+03  0.17120000000E+03 0.  0.
         13    1    1    2    0    0 -0.30130242720E+00  0.23831340649E+02  0.14078316706E+03  0.14278632592E+03  0.10566000000E+00 0. -1.
        994    1    1    2    0    0 -0.38696936069E+01 -0.19138039028E+01  0.22931810463E+01  0.17126977507E+03  0.17120000000E+03 0.  0.
        998    1    1    2    0    0  0.41709960341E+01 -0.21917536746E+02  0.13569236482E+04  0.13571438990E+04  0.10000000000E+02 0. -1.
</event>
<event>
 5    1  0.1303633E-008  0.3797417E+03  0.7957747E-01  0.3452284E+00
         13   -1    0    0    0    0  0.00000000000E+00  0.00000000000E+00  0.14999999963E+04  0.15000000000E+04  0.10566000000E+00 0.  1.
        994   -1    0    0    0    0 -0.00000000000E+00 -0.00000000000E+00  0.11368683772E-12  0.17120000000E+03  0.17120000000E+03 0.  0.
         13    1    1    2    0    0 -0.11897340417E+02 -0.61705220930E+01  0.18941813184E+02  0.23203997557E+02  0.10566000000E+00 0.  1.
        994    1    1    2    0    0  0.16727156367E+02  0.24774120284E+01  0.52208502479E+01  0.17211226745E+03  0.17120000000E+03 0.  0.
        998    1    1    2    0    0 -0.48298159508E+01  0.36931100646E+01  0.14758373328E+04  0.14758837350E+04  0.10000000000E+02 0.  1.
</event>
<event>
 5    1  0.1303633E-008  0.3850471E+03  0.7957747E-01  0.3429473E+00
         13   -1    0    0    0    0  0.00000000000E+00  0.00000000000E+00  0.14999999963E+04  0.15000000000E+04  0.10566000000E+00 0.  1.
        994   -1    0    0    0    0 -0.00000000000E+00 -0.00000000000E+00  0.11368683772E-12  0.17120000000E+03  0.17120000000E+03 0.  0.
         13    1    1    2    0    0  0.69764248718E+01  0.91226735845E+01  0.41812876580E+02  0.43361520836E+02  0.10566000000E+00 0.  1.
        994    1    1    2    0    0  0.39132122753E+01 -0.77029197259E+01  0.18522596019E+01  0.17142788300E+03  0.17120000000E+03 0.  0.
        998    1    1    2    0    0 -0.10889637147E+02 -0.14197538586E+01  0.14563348601E+04  0.14564105962E+04  0.10000000000E+02 0.  1.
</event>
<event>
 5    1  0.1303633E-008  0.3690041E+03  0.7957747E-01  0.3500480E+00
         13   -1    0    0    0    0  0.00000000000E+00  0.00000000000E+00  0.14999999963E+04  0.15000000000E+04  0.10566000000E+00 0. -1.
        994   -1    0    0    0    0 -0.00000000000E+00 -0.00000000000E+00  0.11368683772E-12  0.17120000000E+03  0.17120000000E+03 0.  0.
         13    1    1    2    0    0 -0.17557191746E+02 -0.18633557610E+02  0.30302991130E+02  0.39670478781E+02  0.10566000000E+00 0. -1.
        994    1    1    2    0    0 -0.15630727039E+02  0.23000453587E+02  0.12478384559E+02  0.17389218089E+03  0.17120000000E+03 0.  0.
        998    1    1    2    0    0  0.33187918785E+02 -0.43668959767E+01  0.14572186206E+04  0.14576373403E+04  0.10000000000E+02 0. -1.
</event>
<event>
 5    1  0.1303633E-008  0.3744649E+03  0.7957747E-01  0.3475619E+00
         13   -1    0    0    0    0  0.00000000000E+00  0.00000000000E+00  0.14999999963E+04  0.15000000000E+04  0.10566000000E+00 0.  1.
        994   -1    0    0    0    0 -0.00000000000E+00 -0.00000000000E+00  0.11368683772E-12  0.17120000000E+03  0.17120000000E+03 0.  0.
         13    1    1    2    0    0  0.21878962932E+02 -0.53294733180E+01  0.32154787712E+02  0.39256003894E+02  0.10566000000E+00 0.  1.
        994    1    1    2    0    0 -0.28842334272E+02  0.15535913102E+02  0.10617254903E+02  0.17462935304E+03  0.17120000000E+03 0.  0.
        998    1    1    2    0    0  0.69633713397E+01 -0.10206439784E+02  0.14572279537E+04  0.14573146431E+04  0.10000000000E+02 0.  1.
</event>
<event>
 5    1  0.1303633E-008  0.3854041E+03  0.7957747E-01  0.3427960E+00
         13   -1    0    0    0    0  0.00000000000E+00  0.00000000000E+00  0.14999999963E+04  0.15000000000E+04  0.10566000000E+00 0. -1.
        994   -1    0    0    0    0 -0.00000000000E+00 -0.00000000000E+00  0.11368683772E-12  0.17120000000E+03  0.17120000000E+03 0.  0.
         13    1    1    2    0    0  0.14372416931E+02  0.64991951323E+01  0.83161838209E+02  0.84644600561E+02  0.10566000000E+00 0. -1.
        994    1    1    2    0    0 -0.19454912620E+02  0.19299250935E+01  0.26859769369E+01  0.17233360876E+03  0.17120000000E+03 0.  0.
        998    1    1    2    0    0  0.50824956894E+01 -0.84291202258E+01  0.14141521811E+04  0.14142217907E+04  0.10000000000E+02 0. -1.
</event>
<event>
 5    1  0.1303633E-008  0.3814200E+03  0.7957747E-01  0.3444999E+00
         13   -1    0    0    0    0  0.00000000000E+00  0.00000000000E+00  0.14999999963E+04  0.15000000000E+04  0.10566000000E+00 0.  1.
        994   -1    0    0    0    0 -0.00000000000E+00 -0.00000000000E+00  0.11368683772E-12  0.17120000000E+03  0.17120000000E+03 0.  0.
         13    1    1    2    0    0  0.62469028584E+01 -0.40912337706E+02  0.23782787475E+03  0.24140205538E+03  0.10566000000E+00 0.  1.
        994    1    1    2    0    0  0.19109382838E+02  0.33492150216E+02  0.83812380212E+01  0.17568886644E+03  0.17120000000E+03 0.  0.
        998    1    1    2    0    0 -0.25356285696E+02  0.74201874893E+01  0.12537908835E+04  0.12541090782E+04  0.10000000000E+02 0.  1.
</event>
<event>
 5    1  0.1303633E-008  0.3696610E+03  0.7957747E-01  0.3497450E+00
         13   -1    0    0    0    0  0.00000000000E+00  0.00000000000E+00  0.14999999963E+04  0.15000000000E+04  0.10566000000E+00 0. -1.
        994   -1    0    0    0    0 -0.00000000000E+00 -0.00000000000E+00  0.11368683772E-12  0.17120000000E+03  0.17120000000E+03 0.  0.
         13    1    1    2    0    0 -0.16360982579E+02  0.31057846371E+02  0.52006483375E+02  0.62745175505E+02  0.10566000000E+00 0. -1.
        994    1    1    2    0    0  0.14508946285E+02 -0.27980041509E+02  0.14236312529E+02  0.17465825156E+03  0.17120000000E+03 0.  0.
        998    1    1    2    0    0  0.18520362934E+01 -0.30778048618E+01  0.14337572004E+04  0.14337965729E+04  0.10000000000E+02 0. -1.
</event>
<event>
 5    1  0.1303633E-008  0.3838010E+03  0.7957747E-01  0.3434773E+00
         13   -1    0    0    0    0  0.00000000000E+00  0.00000000000E+00  0.14999999963E+04  0.15000000000E+04  0.10566000000E+00 0.  1.
        994   -1    0    0    0    0 -0.00000000000E+00 -0.00000000000E+00  0.11368683772E-12  0.17120000000E+03  0.17120000000E+03 0.  0.
         13    1    1    2    0    0 -0.18711429207E+02 -0.13182192774E+02  0.12907481815E+03  0.13108854883E+03  0.10566000000E+00 0.  1.
        994    1    1    2    0    0  0.60887660057E+01 -0.53881101933E+01  0.24448513905E+01  0.17141039088E+03  0.17120000000E+03 0.  0.
        998    1    1    2    0    0  0.12622663202E+02  0.18570302967E+02  0.13684803267E+04  0.13687010603E+04  0.10000000000E+02 0.  1.
</event>
<event>
 5    1  0.1303633E-008  0.3831118E+03  0.7957747E-01  0.3437720E+00
         13   -1    0    0    0    0  0.00000000000E+00  0.00000000000E+00  0.14999999963E+04  0.15000000000E+04  0.10566000000E+00 0.  1.
        994   -1    0    0    0    0 -0.00000000000E+00 -0.00000000000E+00  0.11368683772E-12  0.17120000000E+03  0.17120000000E+03 0.  0.
         13    1    1    2    0    0  0.21359667787E+02 -0.63789660243E+01  0.10106832812E+03  0.10349755904E+03  0.10566000000E+00 0.  1.
        994    1    1    2    0    0 -0.66432840666E+01 -0.19538606241E+01  0.27291756368E+01  0.17136172033E+03  0.17120000000E+03 0.  0.
        998    1    1    2    0    0 -0.14716383721E+02  0.83328266485E+01  0.13962024925E+04  0.13963407206E+04  0.10000000000E+02 0.  1.
</event>
<event>
 5    1  0.1303633E-008  0.3732561E+03  0.7957747E-01  0.3481059E+00
         13   -1    0    0    0    0  0.00000000000E+00  0.00000000000E+00  0.14999999963E+04  0.15000000000E+04  0.10566000000E+00 0.  1.
        994   -1    0    0    0    0 -0.00000000000E+00 -0.00000000000E+00  0.11368683772E-12  0.17120000000E+03  0.17120000000E+03 0.  0.
         13    1    1    2    0    0  0.18266091427E+03 -0.15946042325E+02  0.80951170557E+03  0.83001716759E+03  0.10566000000E+00 0.  1.
        994    1    1    2    0    0 -0.18839132070E+03 -0.59577923415E+01  0.14085401229E+03  0.29099154246E+03  0.17120000000E+03 0.  0.
        998    1    1    2    0    0  0.57304064281E+01  0.21903834666E+02  0.54963427841E+03  0.55019128995E+03  0.10000000000E+02 0.  1.
</event>
<event>
 5    1  0.1303633E-008  0.3818939E+03  0.7957747E-01  0.3442953E+00
         13   -1    0    0    0    0  0.00000000000E+00  0.00000000000E+00  0.14999999963E+04  0.15000000000E+04  0.10566000000E+00 0. -1.
        994   -1    0    0    0    0 -0.00000000000E+00 -0.00000000000E+00  0.11368683772E-12  0.17120000000E+03  0.17120000000E+03 0.  0.
         13    1    1    2    0    0 -0.30726995662E+02  0.26312171601E+01  0.17266957144E+03  0.17540200578E+03  0.10566000000E+00 0. -1.
        994    1    1    2    0    0  0.45579081180E+00  0.12878989347E+02  0.37320634154E+01  0.17172490911E+03  0.17120000000E+03 0.  0.
        998    1    1    2    0    0  0.30271204851E+02 -0.15510206507E+02  0.13235983614E+04  0.13240730851E+04  0.10000000000E+02 0. -1.
</event>
<event>
 5    1  0.1303633E-008  0.3859512E+03  0.7957747E-01  0.3425648E+00
         13   -1    0    0    0    0  0.00000000000E+00  0.00000000000E+00  0.14999999963E+04  0.15000000000E+04  0.10566000000E+00 0. -1.
        994   -1    0    0    0    0 -0.00000000000E+00 -0.00000000000E+00  0.11368683772E-12  0.17120000000E+03  0.17120000000E+03 0.  0.
         13    1    1    2    0    0 -0.81122873300E+01 -0.76903433579E+01  0.56398386883E+02  0.57495563252E+02  0.10566000000E+00 0. -1.
        994    1    1    2    0    0  0.23234273773E+01  0.13990108534E+01  0.11827378117E+01  0.17122556589E+03  0.17120000000E+03 0.  0.
        998    1    1    2    0    0  0.57888599527E+01  0.62913325045E+01  0.14424188716E+04  0.14424788709E+04  0.10000000000E+02 0. -1.
</event>
<event>
 5    1  0.1303633E-008  0.3635555E+03  0.7957747E-01  0.3526043E+00
         13   -1    0    0    0    0  0.00000000000E+00  0.00000000000E+00  0.14999999963E+04  0.15000000000E+04  0.10566000000E+00 0. -1.
        994   -1    0    0    0    0 -0.00000000000E+00 -0.00000000000E+00  0.11368683772E-12  0.17120000000E+03  0.17120000000E+03 0.  0.
         13    1    1    2    0    0 -0.19491614222E+03  0.13970997864E+03  0.10748573025E+04  0.11012853457E+04  0.10566000000E+00 0. -1.
        994    1    1    2    0    0  0.18384053206E+03 -0.13729907645E+03  0.21199046611E+03  0.35622714010E+03  0.17120000000E+03 0.  0.
        998    1    1    2    0    0  0.11075610154E+02 -0.24109021869E+01  0.21315222764E+03  0.21368751423E+03  0.10000000000E+02 0.  0.
</event>
<event>
 5    1  0.1338401E-008  0.3853841E+03  0.7957747E-01  0.3428045E+00
         13   -1    0    0    0    0  0.00000000000E+00  0.00000000000E+00  0.14999999963E+04  0.15000000000E+04  0.10566000000E+00 0.  1.
        994   -1    0    0    0    0 -0.00000000000E+00 -0.00000000000E+00  0.11368683772E-12  0.17120000000E+03  0.17120000000E+03 0.  0.
         13    1    1    2    0    0  0.55865689491E+01  0.83112532863E+01  0.34730476720E+02  0.36145592554E+02  0.10566000000E+00 0.  1.
        994    1    1    2    0    0 -0.18297862255E+01 -0.76383617062E+01  0.16421996489E+01  0.17138795030E+03  0.17120000000E+03 0.  0.
        998    1    1    2    0    0 -0.37567827236E+01 -0.67289158009E+00  0.14636273199E+04  0.14636664571E+04  0.10000000000E+02 0.  1.
</event>
<event>
 5    1  0.1303633E-008  0.3771357E+03  0.7957747E-01  0.3463726E+00
         13   -1    0    0    0    0  0.00000000000E+00  0.00000000000E+00  0.14999999963E+04  0.15000000000E+04  0.10566000000E+00 0.  1.
        994   -1    0    0    0    0 -0.00000000000E+00 -0.00000000000E+00  0.11368683772E-12  0.17120000000E+03  0.17120000000E+03 0.  0.
         13    1    1    2    0    0  0.12237637693E+02  0.19213663241E+02  0.44071703034E+02  0.49610994787E+02  0.10566000000E+00 0.  1.
        994    1    1    2    0    0 -0.98661504022E+00 -0.18794659555E+02  0.67824109275E+01  0.17236488545E+03  0.17120000000E+03 0.  0.
        998    1    1    2    0    0 -0.11251022653E+02 -0.41900368590E+00  0.14491458823E+04  0.14492241198E+04  0.10000000000E+02 0.  1.
</event>
<event>
 5    1  0.2108516E-008  0.3863138E+03  0.7957747E-01  0.3424119E+00
         13   -1    0    0    0    0  0.00000000000E+00  0.00000000000E+00  0.14999999963E+04  0.15000000000E+04  0.10566000000E+00 0.  1.
        994   -1    0    0    0    0 -0.00000000000E+00 -0.00000000000E+00  0.11368683772E-12  0.17120000000E+03  0.17120000000E+03 0.  0.
         13    1    1    2    0    0 -0.87820284457E+01  0.58555428137E+01  0.56813002087E+02  0.57785290303E+02  0.10566000000E+00 0.  1.
        994    1    1    2    0    0  0.92339461375E+01 -0.34457437016E+01  0.12974186732E+01  0.17148837338E+03  0.17120000000E+03 0.  0.
        998    1    1    2    0    0 -0.45191769176E+00 -0.24097991121E+01  0.14418895755E+04  0.14419263363E+04  0.10000000000E+02 0.  1.
</event>
<event>
 5    1  0.1303633E-008  0.3828693E+03  0.7957747E-01  0.3438759E+00
         13   -1    0    0    0    0  0.00000000000E+00  0.00000000000E+00  0.14999999963E+04  0.15000000000E+04  0.10566000000E+00 0.  1.
        994   -1    0    0    0    0 -0.00000000000E+00 -0.00000000000E+00  0.11368683772E-12  0.17120000000E+03  0.17120000000E+03 0.  0.
         13    1    1    2    0    0  0.11470711749E+02  0.17716927747E+02  0.81060609955E+02  0.83763359574E+02  0.10566000000E+00 0.  1.
        994    1    1    2    0    0 -0.11242627425E+02 -0.10961453680E+02  0.35085641875E+01  0.17195435488E+03  0.17120000000E+03 0.  0.
        998    1    1    2    0    0 -0.22808432371E+00 -0.67554740665E+01  0.14154308221E+04  0.14154822856E+04  0.10000000000E+02 0.  1.
</event>
<event>
 5    1  0.1303633E-008  0.3832628E+03  0.7957747E-01  0.3437074E+00
         13   -1    0    0    0    0  0.00000000000E+00  0.00000000000E+00  0.14999999963E+04  0.15000000000E+04  0.10566000000E+00 0. -1.
        994   -1    0    0    0    0 -0.00000000000E+00 -0.00000000000E+00  0.11368683772E-12  0.17120000000E+03  0.17120000000E+03 0.  0.
         13    1    1    2    0    0 -0.17027011709E+02  0.89832900437E+01  0.74684688485E+02  0.77126081748E+02  0.10566000000E+00 0. -1.
        994    1    1    2    0    0  0.64787464070E+01 -0.85168156081E+01  0.28739073314E+01  0.17155818152E+03  0.17120000000E+03 0.  0.
        998    1    1    2    0    0  0.10548265302E+02 -0.46647443555E+00  0.14224414005E+04  0.14225157367E+04  0.10000000000E+02 0. -1.
</event>
<event>
 5    1  0.1303633E-008  0.3685368E+03  0.7957747E-01  0.3502643E+00
         13   -1    0    0    0    0  0.00000000000E+00  0.00000000000E+00  0.14999999963E+04  0.15000000000E+04  0.10566000000E+00 0. -1.
        994   -1    0    0    0    0 -0.00000000000E+00 -0.00000000000E+00  0.11368683772E-12  0.17120000000E+03  0.17120000000E+03 0.  0.
         13    1    1    2    0    0  0.27982033141E+02 -0.72067895800E+02  0.35106689042E+03  0.35947843955E+03  0.10566000000E+00 0. -1.
        994    1    1    2    0    0  0.88183290579E+01  0.25548725273E+02  0.12578684806E+02  0.17377618825E+03  0.17120000000E+03 0.  0.
        998    1    1    2    0    0 -0.36800362198E+02  0.46519170526E+02  0.11363544211E+04  0.11379453722E+04  0.10000000000E+02 0. -1.
</event>
<event>
 5    1  0.1303633E-008  0.3807028E+03  0.7957747E-01  0.3448104E+00
         13   -1    0    0    0    0  0.00000000000E+00  0.00000000000E+00  0.14999999963E+04  0.15000000000E+04  0.10566000000E+00 0.  1.
        994   -1    0    0    0    0 -0.00000000000E+00 -0.00000000000E+00  0.11368683772E-12  0.17120000000E+03  0.17120000000E+03 0.  0.
         13    1    1    2    0    0 -0.11150324281E+02 -0.12509052150E+02  0.37799461417E+02  0.41347509777E+02  0.10566000000E+00 0.  1.
        994    1    1    2    0    0 -0.19757700672E+02  0.10885068912E+02  0.54777203806E+01  0.17276659654E+03  0.17120000000E+03 0.  0.
        998    1    1    2    0    0  0.30908024953E+02  0.16239832389E+01  0.14567228145E+04  0.14570858937E+04  0.10000000000E+02 0.  1.
</event>
<event>
 5    1  0.1303633E-008  0.3885981E+03  0.7957747E-01  0.3414554E+00
         13   -1    0    0    0    0  0.00000000000E+00  0.00000000000E+00  0.14999999963E+04  0.15000000000E+04  0.10566000000E+00 0.  1.
        994   -1    0    0    0    0 -0.00000000000E+00 -0.00000000000E+00  0.11368683772E-12  0.17120000000E+03  0.17120000000E+03 0.  0.
         13    1    1    2    0    0 -0.15754666862E+03  0.61360251862E+01  0.38754329098E+03  0.41838787882E+03  0.10566000000E+00 0.  1.
        994    1    1    2    0    0  0.16310506942E+03 -0.61170649341E+01  0.12926601126E+03  0.26955486236E+03  0.17120000000E+03 0.  0.
        998    1    1    2    0    0 -0.55584008020E+01 -0.18960252087E-01  0.98319069404E+03  0.98325725882E+03  0.10000000000E+02 0.  0.
</event>
<event>
 5    1  0.1303633E-008  0.3845320E+03  0.7957747E-01  0.3431659E+00
         13   -1    0    0    0    0  0.00000000000E+00  0.00000000000E+00  0.14999999963E+04  0.15000000000E+04  0.10566000000E+00 0.  1.
        994   -1    0    0    0    0 -0.00000000000E+00 -0.00000000000E+00  0.11368683772E-12  0.17120000000E+03  0.17120000000E+03 0.  0.
         13    1    1    2    0    0  0.45128649141E+01 -0.12383351368E+02  0.42904509360E+02  0.44883420416E+02  0.10566000000E+00 0.  1.
        994    1    1    2    0    0  0.12023534925E+02  0.31059733327E+02  0.55247645666E+01  0.17449709296E+03  0.17120000000E+03 0.  0.
        998    1    1    2    0    0 -0.16536399839E+02 -0.18676381960E+02  0.14515707224E+04  0.14518194866E+04  0.10000000000E+02 0.  1.
</event>
<event>
 5    1  0.1303633E-008  0.3806657E+03  0.7957747E-01  0.3448265E+00
         13   -1    0    0    0    0  0.00000000000E+00  0.00000000000E+00  0.14999999963E+04  0.15000000000E+04  0.10566000000E+00 0. -1.
        994   -1    0    0    0    0 -0.00000000000E+00 -0.00000000000E+00  0.11368683772E-12  0.17120000000E+03  0.17120000000E+03 0.  0.
         13    1    1    2    0    0 -0.16216167617E+02  0.26228866989E+02  0.12730844830E+03  0.13098996041E+03  0.10566000000E+00 0. -1.
        994    1    1    2    0    0  0.16888486886E+02 -0.61378765652E+01  0.48752404646E+01  0.17220947270E+03  0.17120000000E+03 0.  0.
        998    1    1    2    0    0 -0.67231926874E+00 -0.20090990424E+02  0.13678163075E+04  0.13680005669E+04  0.10000000000E+02 0. -1.
</event>
<event>
 5    1  0.1303633E-008  0.3835078E+03  0.7957747E-01  0.3436026E+00
         13   -1    0    0    0    0  0.00000000000E+00  0.00000000000E+00  0.14999999963E+04  0.15000000000E+04  0.10566000000E+00 0. -1.
        994   -1    0    0    0    0 -0.00000000000E+00 -0.00000000000E+00  0.11368683772E-12  0.17120000000E+03  0.17120000000E+03 0.  0.
         13    1    1    2    0    0 -0.18310219720E+02 -0.21333983113E+02  0.12467105567E+03  0.12780174595E+03  0.10566000000E+00 0. -1.
        994    1    1    2    0    0  0.50947109484E+02  0.32655113259E+02  0.14569713815E+02  0.18216388486E+03  0.17120000000E+03 0.  0.
        998    1    1    2    0    0 -0.32636889764E+02 -0.11321130146E+02  0.13607592268E+04  0.13612343692E+04  0.10000000000E+02 0. -1.
</event>
<event>
 5    1  0.1303633E-008  0.3797265E+03  0.7957747E-01  0.3452350E+00
         13   -1    0    0    0    0  0.00000000000E+00  0.00000000000E+00  0.14999999963E+04  0.15000000000E+04  0.10566000000E+00 0.  1.
        994   -1    0    0    0    0 -0.00000000000E+00 -0.00000000000E+00  0.11368683772E-12  0.17120000000E+03  0.17120000000E+03 0.  0.
         13    1    1    2    0    0 -0.20010087849E+02 -0.42066623411E+01  0.46089296504E+02  0.50421563245E+02  0.10566000000E+00 0.  1.
        994    1    1    2    0    0  0.21051369848E+02  0.11069343936E+01  0.57595835363E+01  0.17258910243E+03  0.17120000000E+03 0.  0.
        998    1    1    2    0    0 -0.10412819996E+01  0.30997279475E+01  0.14481511162E+04  0.14481893343E+04  0.10000000000E+02 0.  1.
</event>
<event>
 5    1  0.1303633E-008  0.3857779E+03  0.7957747E-01  0.3426380E+00
         13   -1    0    0    0    0  0.00000000000E+00  0.00000000000E+00  0.14999999963E+04  0.15000000000E+04  0.10566000000E+00 0.  1.
        994   -1    0    0    0    0 -0.00000000000E+00 -0.00000000000E+00  0.11368683772E-12  0.17120000000E+03  0.17120000000E+03 0.  0.
         13    1    1    2    0    0 -0.32864680275E+01  0.10641921119E+02  0.49870995781E+02  0.51099694142E+02  0.10566000000E+00 0.  1.
        994    1    1    2    0    0  0.10738050286E+02 -0.58710759744E+01  0.17358880819E+01  0.17164564825E+03  0.17120000000E+03 0.  0.
        998    1    1    2    0    0 -0.74515822583E+01 -0.47708451442E+01  0.14483931124E+04  0.14484546576E+04  0.10000000000E+02 0.  1.
</event>
<event>
 5    1  0.1303633E-008  0.3827043E+03  0.7957747E-01  0.3439467E+00
         13   -1    0    0    0    0  0.00000000000E+00  0.00000000000E+00  0.14999999963E+04  0.15000000000E+04  0.10566000000E+00 0.  1.
        994   -1    0    0    0    0 -0.00000000000E+00 -0.00000000000E+00  0.11368683772E-12  0.17120000000E+03  0.17120000000E+03 0.  0.
         13    1    1    2    0    0 -0.57035147907E+01  0.25476639196E+02  0.11133738296E+03  0.11435739256E+03  0.10566000000E+00 0.  1.
        994    1    1    2    0    0  0.90524298558E+01 -0.28946796807E+02  0.58279846753E+01  0.17396341264E+03  0.17120000000E+03 0.  0.
        998    1    1    2    0    0 -0.33489150650E+01  0.34701576118E+01  0.13828346286E+04  0.13828791948E+04  0.10000000000E+02 0.  1.
</event>
<event>
 5    1  0.1303633E-008  0.3804174E+03  0.7957747E-01  0.3449343E+00
         13   -1    0    0    0    0  0.00000000000E+00  0.00000000000E+00  0.14999999963E+04  0.15000000000E+04  0.10566000000E+00 0.  1.
        994   -1    0    0    0    0 -0.00000000000E+00 -0.00000000000E+00  0.11368683772E-12  0.17120000000E+03  0.17120000000E+03 0.  0.
         13    1    1    2    0    0 -0.23118025662E+02 -0.53609180552E+01  0.71092343628E+02  0.74948749419E+02  0.10566000000E+00 0.  1.
        994    1    1    2    0    0  0.11162844281E+02  0.85314679245E+01  0.45818383213E+01  0.17183663253E+03  0.17120000000E+03 0.  0.
        998    1    1    2    0    0  0.11955181381E+02 -0.31705498693E+01  0.14243258143E+04  0.14244146180E+04  0.10000000000E+02 0.  1.
</event>
<event>
 5    1  0.1303633E-008  0.3798770E+03  0.7957747E-01  0.3451694E+00
         13   -1    0    0    0    0  0.00000000000E+00  0.00000000000E+00  0.14999999963E+04  0.15000000000E+04  0.10566000000E+00 0.  1.
        994   -1    0    0    0    0 -0.00000000000E+00 -0.00000000000E+00  0.11368683772E-12  0.17120000000E+03  0.17120000000E+03 0.  0.
         13    1    1    2    0    0  0.11422226856E+02  0.12642846420E+02  0.31974535308E+02  0.36231076497E+02  0.10566000000E+00 0.  1.
        994    1    1    2    0    0 -0.18717692261E+02 -0.11502583509E+02  0.58110541247E+01  0.17270167857E+03  0.17120000000E+03 0.  0.
        998    1    1    2    0    0  0.72954654057E+01 -0.11402629112E+01  0.14622144068E+04  0.14622672449E+04  0.10000000000E+02 0.  1.
</event>
<event>
 5    1  0.1303633E-008  0.3805196E+03  0.7957747E-01  0.3448899E+00
         13   -1    0    0    0    0  0.00000000000E+00  0.00000000000E+00  0.14999999963E+04  0.15000000000E+04  0.10566000000E+00 0.  1.
        994   -1    0    0    0    0 -0.00000000000E+00 -0.00000000000E+00  0.11368683772E-12  0.17120000000E+03  0.17120000000E+03 0.  0.
         13    1    1    2    0    0 -0.20080720288E+00  0.13427415360E+02  0.22376266402E+02  0.26096824882E+02  0.10566000000E+00 0.  1.
        994    1    1    2    0    0 -0.15772315268E+02  0.11126037311E+01  0.47058563302E+01  0.17199299084E+03  0.17120000000E+03 0.  0.
        998    1    1    2    0    0  0.15973122471E+02 -0.14540019091E+02  0.14729178735E+04  0.14731101843E+04  0.10000000000E+02 0.  1.
</event>
<event>
 5    1  0.1303633E-008  0.3829820E+03  0.7957747E-01  0.3438276E+00
         13   -1    0    0    0    0  0.00000000000E+00  0.00000000000E+00  0.14999999963E+04  0.15000000000E+04  0.10566000000E+00 0.  1.
        994   -1    0    0    0    0 -0.00000000000E+00 -0.00000000000E+00  0.11368683772E-12  0.17120000000E+03  0.17120000000E+03 0.  0.
         13    1    1    2    0    0  0.16620616679E+02 -0.67880494599E+01  0.62428790317E+02  0.64959122059E+02  0.10566000000E+00 0.  1.
        994    1    1    2    0    0 -0.56162146541E+01 -0.50050900260E+00  0.27406327823E+01  0.17131474964E+03  0.17120000000E+03 0.  0.
        998    1    1    2    0    0 -0.11004402024E+02  0.72885584625E+01  0.14348305732E+04  0.14349261283E+04  0.10000000000E+02 0.  1.
</event>
<event>
 5    1  0.1303633E-008  0.3701837E+03  0.7957747E-01  0.3495047E+00
         13   -1    0    0    0    0  0.00000000000E+00  0.00000000000E+00  0.14999999963E+04  0.15000000000E+04  0.10566000000E+00 0. -1.
        994   -1    0    0    0    0 -0.00000000000E+00 -0.00000000000E+00  0.11368683772E-12  0.17120000000E+03  0.17120000000E+03 0.  0.
         13    1    1    2    0    0 -0.93851568741E+01  0.21469118309E+02  0.19845315286E+02  0.30705893788E+02  0.10566000000E+00 0. -1.
        994    1    1    2    0    0  0.16047056299E+02 -0.19603049421E+02  0.13284303015E+02  0.17357332822E+03  0.17120000000E+03 0.  0.
        998    1    1    2    0    0 -0.66618994254E+01 -0.18660688884E+01  0.14668703780E+04  0.14669207780E+04  0.10000000000E+02 0. -1.
</event>
<event>
 5    1  0.1303633E-008  0.3720081E+03  0.7957747E-01  0.3486713E+00
         13   -1    0    0    0    0  0.00000000000E+00  0.00000000000E+00  0.14999999963E+04  0.15000000000E+04  0.10566000000E+00 0. -1.
        994   -1    0    0    0    0 -0.00000000000E+00 -0.00000000000E+00  0.11368683772E-12  0.17120000000E+03  0.17120000000E+03 0.  0.
         13    1    1    2    0    0 -0.40532880755E+02  0.60494306717E+02  0.23622400918E+03  0.24719277749E+03  0.10566000000E+00 0. -1.
        994    1    1    2    0    0  0.20858670077E+01 -0.31341729599E+02  0.15486230061E+02  0.17474529515E+03  0.17120000000E+03 0.  0.
        998    1    1    2    0    0  0.38447013748E+02 -0.29152577118E+02  0.12482897570E+04  0.12492619274E+04  0.10000000000E+02 0. -1.
</event>
<event>
 5    1  0.1303633E-008  0.3758060E+03  0.7957747E-01  0.3469626E+00
         13   -1    0    0    0    0  0.00000000000E+00  0.00000000000E+00  0.14999999963E+04  0.15000000000E+04  0.10566000000E+00 0.  1.
        994   -1    0    0    0    0 -0.00000000000E+00 -0.00000000000E+00  0.11368683772E-12  0.17120000000E+03  0.17120000000E+03 0.  0.
         13    1    1    2    0    0 -0.48581994423E+02  0.91740044713E+02  0.57592020546E+03  0.58520128178E+03  0.10566000000E+00 0.  1.
        994    1    1    2    0    0  0.48478504919E+02 -0.82320165754E+02  0.37861574310E+02  0.19967401919E+03  0.17120000000E+03 0.  0.
        998    1    1    2    0    0  0.10348950403E+00 -0.94198789598E+01  0.88621821651E+03  0.88632469903E+03  0.10000000000E+02 0.  0.
</event>
<event>
 5    1  0.1303633E-008  0.3824328E+03  0.7957747E-01  0.3440634E+00
         13   -1    0    0    0    0  0.00000000000E+00  0.00000000000E+00  0.14999999963E+04  0.15000000000E+04  0.10566000000E+00 0.  1.
        994   -1    0    0    0    0 -0.00000000000E+00 -0.00000000000E+00  0.11368683772E-12  0.17120000000E+03  0.17120000000E+03 0.  0.
         13    1    1    2    0    0 -0.16281424441E+02 -0.12655893495E+02  0.73714210122E+02  0.76544446957E+02  0.10566000000E+00 0.  1.
        994    1    1    2    0    0  0.77111555704E+01  0.47371518208E+01  0.31817600851E+01  0.17146855725E+03  0.17120000000E+03 0.  0.
        998    1    1    2    0    0  0.85702688709E+01  0.79187416737E+01  0.14231040261E+04  0.14231869958E+04  0.10000000000E+02 0.  1.
</event>
<event>
 5    1  0.1303633E-008  0.3931219E+03  0.7957747E-01  0.3395940E+00
         13   -1    0    0    0    0  0.00000000000E+00  0.00000000000E+00  0.14999999963E+04  0.15000000000E+04  0.10566000000E+00 0.  1.
        994   -1    0    0    0    0 -0.00000000000E+00 -0.00000000000E+00  0.11368683772E-12  0.17120000000E+03  0.17120000000E+03 0.  0.
         13    1    1    2    0    0  0.10858090712E+02  0.60469539757E+02  0.68139622559E+02  0.91746840266E+02  0.10566000000E+00 0.  1.
        994    1    1    2    0    0 -0.17663446262E+02 -0.60480012392E+02  0.39010163628E+02  0.18655042776E+03  0.17120000000E+03 0.  0.
        998    1    1    2    0    0  0.68053555501E+01  0.10472634452E-01  0.13928502101E+04  0.13929027320E+04  0.10000000000E+02 0.  1.
</event>
<event>
 5    1  0.1303633E-008  0.3816310E+03  0.7957747E-01  0.3444087E+00
         13   -1    0    0    0    0  0.00000000000E+00  0.00000000000E+00  0.14999999963E+04  0.15000000000E+04  0.10566000000E+00 0. -1.
        994   -1    0    0    0    0 -0.00000000000E+00 -0.00000000000E+00  0.11368683772E-12  0.17120000000E+03  0.17120000000E+03 0.  0.
         13    1    1    2    0    0  0.13252580791E+02  0.25376813825E+02  0.11625943234E+03  0.11973253672E+03  0.10566000000E+00 0. -1.
        994    1    1    2    0    0 -0.12441742686E+02 -0.22906762136E+02  0.55747377258E+01  0.17326290547E+03  0.17120000000E+03 0.  0.
        998    1    1    2    0    0 -0.81083810582E+00 -0.24700516891E+01  0.13781658262E+04  0.13782045578E+04  0.10000000000E+02 0. -1.
</event>
<event>
 5    1  0.1303633E-008  0.3795104E+03  0.7957747E-01  0.3453293E+00
         13   -1    0    0    0    0  0.00000000000E+00  0.00000000000E+00  0.14999999963E+04  0.15000000000E+04  0.10566000000E+00 0.  1.
        994   -1    0    0    0    0 -0.00000000000E+00 -0.00000000000E+00  0.11368683772E-12  0.17120000000E+03  0.17120000000E+03 0.  0.
         13    1    1    2    0    0  0.45466629748E+02 -0.10475396367E+02  0.18009120436E+03  0.18603709684E+03  0.10566000000E+00 0.  1.
        994    1    1    2    0    0 -0.81078607112E+02 -0.11229641477E+02  0.27150714620E+02  0.19169362713E+03  0.17120000000E+03 0.  0.
        998    1    1    2    0    0  0.35611977364E+02  0.21705037844E+02  0.12927580773E+04  0.12934692760E+04  0.10000000000E+02 0.  1.
</event>
<event>
 5    1  0.1303633E-008  0.2933015E+03  0.7957747E-01  0.3945032E+00
         13   -1    0    0    0    0  0.00000000000E+00  0.00000000000E+00  0.14999999963E+04  0.15000000000E+04  0.10566000000E+00 0.  1.
        994   -1    0    0    0    0 -0.00000000000E+00 -0.00000000000E+00  0.11368683772E-12  0.17120000000E+03  0.17120000000E+03 0.  0.
         13    1    1    2    0    0  0.65828626488E+02 -0.19177301807E+03  0.56277608839E+03  0.59818662251E+03  0.10566000000E+00 0.  1.
        994    1    1    2    0    0 -0.53391202541E+02  0.18580662549E+03  0.17808949397E+03  0.31368779136E+03  0.17120000000E+03 0.  0.
        998    1    1    2    0    0 -0.12437423947E+02  0.59663925833E+01  0.75913441392E+03  0.75932558613E+03  0.10000000000E+02 0.  1.
</event>
<event>
 5    1  0.1303633E-008  0.3856568E+03  0.7957747E-01  0.3426891E+00
         13   -1    0    0    0    0  0.00000000000E+00  0.00000000000E+00  0.14999999963E+04  0.15000000000E+04  0.10566000000E+00 0.  1.
        994   -1    0    0    0    0 -0.00000000000E+00 -0.00000000000E+00  0.11368683772E-12  0.17120000000E+03  0.17120000000E+03 0.  0.
         13    1    1    2    0    0 -0.69027504612E+01  0.10207529150E+02  0.60865394433E+02  0.62100314160E+02  0.10566000000E+00 0.  1.
        994    1    1    2    0    0  0.50686120560E+01  0.13377249543E+00  0.13887492875E+01  0.17128069753E+03  0.17120000000E+03 0.  0.
        998    1    1    2    0    0  0.18341384052E+01 -0.10341301646E+02  0.14377458526E+04  0.14378189883E+04  0.10000000000E+02 0.  1.
</event>
<event>
 5    1  0.1303633E-008  0.3726676E+03  0.7957747E-01  0.3483720E+00
         13   -1    0    0    0    0  0.00000000000E+00  0.00000000000E+00  0.14999999963E+04  0.15000000000E+04  0.10566000000E+00 0.  1.
        994   -1    0    0    0    0 -0.00000000000E+00 -0.00000000000E+00  0.11368683772E-12  0.17120000000E+03  0.17120000000E+03 0.  0.
         13    1    1    2    0    0  0.21212954022E+02  0.79909557662E+01  0.29359459809E+02  0.37092234183E+02  0.10566000000E+00 0.  1.
        994    1    1    2    0    0 -0.15833209576E+02 -0.19384167443E+01  0.87536054088E+01  0.17216420532E+03  0.17120000000E+03 0.  0.
        998    1    1    2    0    0 -0.53797444454E+01 -0.60525390219E+01  0.14618869311E+04  0.14619435605E+04  0.10000000000E+02 0.  1.
</event>
<event>
 5    1  0.1340925E-008  0.3859633E+03  0.7957747E-01  0.3425597E+00
         13   -1    0    0    0    0  0.00000000000E+00  0.00000000000E+00  0.14999999963E+04  0.15000000000E+04  0.10566000000E+00 0.  1.
        994   -1    0    0    0    0 -0.00000000000E+00 -0.00000000000E+00  0.11368683772E-12  0.17120000000E+03  0.17120000000E+03 0.  0.
         13    1    1    2    0    0 -0.92001943983E+01 -0.45046019119E+01  0.46397041943E+02  0.47514541778E+02  0.10566000000E+00 0.  1.
        994    1    1    2    0    0  0.25148657645E+01  0.77124784839E+01  0.13684035225E+01  0.17139754783E+03  0.17120000000E+03 0.  0.
        998    1    1    2    0    0  0.66853286338E+01 -0.32078765720E+01  0.14522345508E+04  0.14522879104E+04  0.10000000000E+02 0.  1.
</event>
<event>
 5    1  0.1303633E-008  0.3711946E+03  0.7957747E-01  0.3490418E+00
         13   -1    0    0    0    0  0.00000000000E+00  0.00000000000E+00  0.14999999963E+04  0.15000000000E+04  0.10566000000E+00 0.  1.
        994   -1    0    0    0    0 -0.00000000000E+00 -0.00000000000E+00  0.11368683772E-12  0.17120000000E+03  0.17120000000E+03 0.  0.
         13    1    1    2    0    0  0.28794848246E+02  0.21030533385E+02  0.50408626690E+02  0.61745181421E+02  0.10566000000E+00 0.  1.
        994    1    1    2    0    0 -0.21515405948E+02 -0.13227535393E+02  0.13814487895E+02  0.17360345752E+03  0.17120000000E+03 0.  0.
        998    1    1    2    0    0 -0.72794422983E+01 -0.78029979926E+01  0.14357768817E+04  0.14358513611E+04  0.10000000000E+02 0.  1.
</event>
<event>
 5    1  0.1303633E-008  0.3848096E+03  0.7957747E-01  0.3430480E+00
         13   -1    0    0    0    0  0.00000000000E+00  0.00000000000E+00  0.14999999963E+04  0.15000000000E+04  0.10566000000E+00 0. -1.
        994   -1    0    0    0    0 -0.00000000000E+00 -0.00000000000E+00  0.11368683772E-12  0.17120000000E+03  0.17120000000E+03 0.  0.
         13    1    1    2    0    0 -0.21217735664E+02  0.30652844021E+01  0.12843129267E+03  0.13020828075E+03  0.10566000000E+00 0. -1.
        994    1    1    2    0    0  0.17593704161E+02 -0.59693651701E+00  0.27451124737E+01  0.17212457815E+03  0.17120000000E+03 0.  0.
        998    1    1    2    0    0  0.36240315028E+01 -0.24683478851E+01  0.13688235911E+04  0.13688671411E+04  0.10000000000E+02 0. -1.
</event>
<event>
 5    1  0.1303633E-008  0.3810312E+03  0.7957747E-01  0.3446681E+00
         13   -1    0    0    0    0  0.00000000000E+00  0.00000000000E+00  0.14999999963E+04  0.15000000000E+04  0.10566000000E+00 0. -1.
        994   -1    0    0    0    0 -0.00000000000E+00 -0.00000000000E+00  0.11368683772E-12  0.17120000000E+03  0.17120000000E+03 0.  0.
         13    1    1    2    0    0  0.17555465942E+03 -0.41492656733E+02  0.85835845507E+03  0.87710907393E+03  0.10566000000E+00 0. -1.
        994    1    1    2    0    0 -0.19892862643E+03  0.48009707176E+02  0.15870553506E+03  0.31044229295E+03  0.17120000000E+03 0.  0.
        998    1    1    2    0    0  0.23373967010E+02 -0.65170504433E+01  0.48293600615E+03  0.48364863312E+03  0.10000000000E+02 0. -1.
</event>
<event>
 5    1  0.1303633E-008  0.3833242E+03  0.7957747E-01  0.3436811E+00
         13   -1    0    0    0    0  0.00000000000E+00  0.00000000000E+00  0.14999999963E+04  0.15000000000E+04  0.10566000000E+00 0.  1.
        994   -1    0    0    0    0 -0.00000000000E+00 -0.00000000000E+00  0.11368683772E-12  0.17120000000E+03  0.17120000000E+03 0.  0.
         13    1    1    2    0    0 -0.12610197709E+02  0.31378812628E+00  0.32659327137E+02  0.35010832071E+02  0.10566000000E+00 0.  1.
        994    1    1    2    0    0 -0.62048211221E+00  0.60363526061E+01  0.25861809260E+01  0.17132702905E+03  0.17120000000E+03 0.  0.
        998    1    1    2    0    0  0.13230679822E+02 -0.63501407324E+01  0.14647544882E+04  0.14648621389E+04  0.10000000000E+02 0.  1.
</event>
<event>
 5    1  0.1303633E-008  0.3726712E+03  0.7957747E-01  0.3483704E+00
         13   -1    0    0    0    0  0.00000000000E+00  0.00000000000E+00  0.14999999963E+04  0.15000000000E+04  0.10566000000E+00 0.  1.
        994   -1    0    0    0    0 -0.00000000000E+00 -0.00000000000E+00  0.11368683772E-12  0.17120000000E+03  0.17120000000E+03 0.  0.
         13    1    1    2    0    0 -0.33447278665E+02  0.21508303028E+02  0.91649449227E+02  0.99904755928E+02  0.10566000000E+00 0.  1.
        994    1    1    2    0    0  0.33391374125E+02 -0.23954041556E+02  0.13687671286E+02  0.17659437227E+03  0.17120000000E+03 0.  0.
        998    1    1    2    0    0  0.55904539141E-01  0.24457385285E+01  0.13946628758E+04  0.13947008718E+04  0.10000000000E+02 0.  1.
</event>
<event>
 5    1  0.1303633E-008  0.3765309E+03  0.7957747E-01  0.3466404E+00
         13   -1    0    0    0    0  0.00000000000E+00  0.00000000000E+00  0.14999999963E+04  0.15000000000E+04  0.10566000000E+00 0.  1.
        994   -1    0    0    0    0 -0.00000000000E+00 -0.00000000000E+00  0.11368683772E-12  0.17120000000E+03  0.17120000000E+03 0.  0.
         13    1    1    2    0    0  0.11558016180E+02  0.45408714959E+01  0.10421417091E+02  0.16211858320E+02  0.10566000000E+00 0.  1.
        994    1    1    2    0    0 -0.97286246505E+01 -0.20101895626E+01  0.62284832258E+01  0.17160105187E+03  0.17120000000E+03 0.  0.
        998    1    1    2    0    0 -0.18293915299E+01 -0.25306819332E+01  0.14833500960E+04  0.14833870898E+04  0.10000000000E+02 0.  1.
</event>
<event>
 5    1  0.1303633E-008  0.3855170E+03  0.7957747E-01  0.3427482E+00
         13   -1    0    0    0    0  0.00000000000E+00  0.00000000000E+00  0.14999999963E+04  0.15000000000E+04  0.10566000000E+00 0. -1.
        994   -1    0    0    0    0 -0.00000000000E+00 -0.00000000000E+00  0.11368683772E-12  0.17120000000E+03  0.17120000000E+03 0.  0.
         13    1    1    2    0    0  0.11177002519E+02  0.32262817160E+01  0.52072511660E+02  0.53356273423E+02  0.10566000000E+00 0. -1.
        994    1    1    2    0    0  0.96809010029E+00 -0.20099111236E+01  0.13899941792E+01  0.17122017704E+03  0.17120000000E+03 0.  0.
        998    1    1    2    0    0 -0.12145092619E+02 -0.12163705924E+01  0.14465374904E+04  0.14466235495E+04  0.10000000000E+02 0. -1.
</event>
<event>
 5    1  0.1303633E-008  0.3794788E+03  0.7957747E-01  0.3453431E+00
         13   -1    0    0    0    0  0.00000000000E+00  0.00000000000E+00  0.14999999963E+04  0.15000000000E+04  0.10566000000E+00 0. -1.
        994   -1    0    0    0    0 -0.00000000000E+00 -0.00000000000E+00  0.11368683772E-12  0.17120000000E+03  0.17120000000E+03 0.  0.
         13    1    1    2    0    0 -0.21489595709E+02  0.10427567312E+02  0.68978716770E+02  0.72997338411E+02  0.10566000000E+00 0. -1.
        994    1    1    2    0    0 -0.35653466000E+01  0.44440777403E+01  0.45051927644E+01  0.17135401450E+03  0.17120000000E+03 0.  0.
        998    1    1    2    0    0  0.25054942309E+02 -0.14871645052E+02  0.14265160867E+04  0.14268486471E+04  0.10000000000E+02 0. -1.
</event>
<event>
 5    1  0.1303633E-008  0.3798656E+03  0.7957747E-01  0.3451744E+00
         13   -1    0    0    0    0  0.00000000000E+00  0.00000000000E+00  0.14999999963E+04  0.15000000000E+04  0.10566000000E+00 0. -1.
        994   -1    0    0    0    0 -0.00000000000E+00 -0.00000000000E+00  0.11368683772E-12  0.17120000000E+03  0.17120000000E+03 0.  0.
         13    1    1    2    0    0  0.32201050951E+02  0.38958715427E+02  0.24832203459E+03  0.25341375893E+03  0.10566000000E+00 0. -1.
        994    1    1    2    0    0 -0.69587498897E+02 -0.15947806000E+02  0.21439330220E+02  0.18672396043E+03  0.17120000000E+03 0.  0.
        998    1    1    2    0    0  0.37386447946E+02 -0.23010909427E+02  0.12302386315E+04  0.12310622806E+04  0.10000000000E+02 0. -1.
</event>
<event>
 5    1  0.1303633E-008  0.3858870E+03  0.7957747E-01  0.3425919E+00
         13   -1    0    0    0    0  0.00000000000E+00  0.00000000000E+00  0.14999999963E+04  0.15000000000E+04  0.10566000000E+00 0. -1.
        994   -1    0    0    0    0 -0.00000000000E+00 -0.00000000000E+00  0.11368683772E-12  0.17120000000E+03  0.17120000000E+03 0.  0.
         13    1    1    2    0    0  0.55790233849E+01  0.86553122525E+01  0.43746919274E+02  0.44942675066E+02  0.10566000000E+00 0. -1.
        994    1    1    2    0    0 -0.76665809591E+01 -0.87333924112E+01  0.16333629093E+01  0.17160173799E+03  0.17120000000E+03 0.  0.
        998    1    1    2    0    0  0.20875575742E+01  0.78080158650E-01  0.14546197141E+04  0.14546555869E+04  0.10000000000E+02 0. -1.
</event>
<event>
 5    1  0.1303633E-008  0.3846616E+03  0.7957747E-01  0.3431108E+00
         13   -1    0    0    0    0  0.00000000000E+00  0.00000000000E+00  0.14999999963E+04  0.15000000000E+04  0.10566000000E+00 0.  1.
        994   -1    0    0    0    0 -0.00000000000E+00 -0.00000000000E+00  0.11368683772E-12  0.17120000000E+03  0.17120000000E+03 0.  0.
         13    1    1    2    0    0  0.17807664412E+02  0.87272664121E-02  0.96996123641E+02  0.98617301491E+02  0.10566000000E+00 0.  1.
        994    1    1    2    0    0  0.13788991273E+01  0.76417320023E+01  0.19967608472E+01  0.17138764391E+03  0.17120000000E+03 0.  0.
        998    1    1    2    0    0 -0.19186563540E+02 -0.76504592687E+01  0.14010071118E+04  0.14011950546E+04  0.10000000000E+02 0.  1.
</event>
<event>
 5    1  0.1303633E-008  0.3772527E+03  0.7957747E-01  0.3463209E+00
         13   -1    0    0    0    0  0.00000000000E+00  0.00000000000E+00  0.14999999963E+04  0.15000000000E+04  0.10566000000E+00 0. -1.
        994   -1    0    0    0    0 -0.00000000000E+00 -0.00000000000E+00  0.11368683772E-12  0.17120000000E+03  0.17120000000E+03 0.  0.
         13    1    1    2    0    0  0.20388636164E+02 -0.13293234301E+02  0.48773038800E+02  0.54508962939E+02  0.10566000000E+00 0. -1.
        994    1    1    2    0    0 -0.23475729198E+02  0.22473414722E+02  0.90977349228E+01  0.17449462173E+03  0.17120000000E+03 0.  0.
        998    1    1    2    0    0  0.30870930339E+01 -0.91801804204E+01  0.14421292226E+04  0.14421964153E+04  0.10000000000E+02 0. -1.
</event>
<event>
 5    1  0.1303633E-008  0.3779265E+03  0.7957747E-01  0.3460237E+00
         13   -1    0    0    0    0  0.00000000000E+00  0.00000000000E+00  0.14999999963E+04  0.15000000000E+04  0.10566000000E+00 0.  1.
        994   -1    0    0    0    0 -0.00000000000E+00 -0.00000000000E+00  0.11368683772E-12  0.17120000000E+03  0.17120000000E+03 0.  0.
         13    1    1    2    0    0 -0.18046757818E+02 -0.78164875731E+01  0.35758154307E+02  0.40809799181E+02  0.10566000000E+00 0.  1.
        994    1    1    2    0    0  0.11033677044E+02 -0.43634149425E+01  0.56575308765E+01  0.17170389942E+03  0.17120000000E+03 0.  0.
        998    1    1    2    0    0  0.70130807742E+01  0.12179902516E+02  0.14585843111E+04  0.14586863014E+04  0.10000000000E+02 0.  1.
</event>
<event>
 5    1  0.1303633E-008  0.3719063E+03  0.7957747E-01  0.3487175E+00
         13   -1    0    0    0    0  0.00000000000E+00  0.00000000000E+00  0.14999999963E+04  0.15000000000E+04  0.10566000000E+00 0. -1.
        994   -1    0    0    0    0 -0.00000000000E+00 -0.00000000000E+00  0.11368683772E-12  0.17120000000E+03  0.17120000000E+03 0.  0.
         13    1    1    2    0    0  0.65550874468E+01  0.62754661800E+02  0.16205450047E+03  0.17390454001E+03  0.10566000000E+00 0. -1.
        994    1    1    2    0    0  0.21781613944E+02 -0.42231205177E+02  0.19939714033E+02  0.17878743130E+03  0.17120000000E+03 0.  0.
        998    1    1    2    0    0 -0.28336701391E+02 -0.20523456623E+02  0.13180057818E+04  0.13185080287E+04  0.10000000000E+02 0. -1.
</event>
<event>
 5    1  0.1419292E-008  0.3859877E+03  0.7957747E-01  0.3425494E+00
         13   -1    0    0    0    0  0.00000000000E+00  0.00000000000E+00  0.14999999963E+04  0.15000000000E+04  0.10566000000E+00 0. -1.
        994   -1    0    0    0    0 -0.00000000000E+00 -0.00000000000E+00  0.11368683772E-12  0.17120000000E+03  0.17120000000E+03 0.  0.
         13    1    1    2    0    0 -0.72220340422E+01 -0.79876914603E+01  0.50573133158E+02  0.51707000996E+02  0.10566000000E+00 0. -1.
        994    1    1    2    0    0  0.51039489183E+01  0.85473446931E+01  0.14655191291E+01  0.17149546683E+03  0.17120000000E+03 0.  0.
        998    1    1    2    0    0  0.21180851240E+01 -0.55965323280E+00  0.14479613440E+04  0.14479975322E+04  0.10000000000E+02 0. -1.
</event>
<event>
 5    1  0.1303633E-008  0.3853023E+03  0.7957747E-01  0.3428391E+00
         13   -1    0    0    0    0  0.00000000000E+00  0.00000000000E+00  0.14999999963E+04  0.15000000000E+04  0.10566000000E+00 0. -1.
        994   -1    0    0    0    0 -0.00000000000E+00 -0.00000000000E+00  0.11368683772E-12  0.17120000000E+03  0.17120000000E+03 0.  0.
         13    1    1    2    0    0  0.11614950700E+02  0.20774992412E+01  0.46675631100E+02  0.48144042056E+02  0.10566000000E+00 0. -1.
        994    1    1    2    0    0 -0.99999267030E+01  0.15057281955E+01  0.18162049120E+01  0.17150802999E+03  0.17120000000E+03 0.  0.
        998    1    1    2    0    0 -0.16150239968E+01 -0.35832274367E+01  0.14515081603E+04  0.14515479280E+04  0.10000000000E+02 0. -1.
</event>
<event>
 5    1  0.2022973E-008  0.3863673E+03  0.7957747E-01  0.3423894E+00
         13   -1    0    0    0    0  0.00000000000E+00  0.00000000000E+00  0.14999999963E+04  0.15000000000E+04  0.10566000000E+00 0.  1.
        994   -1    0    0    0    0 -0.00000000000E+00 -0.00000000000E+00  0.11368683772E-12  0.17120000000E+03  0.17120000000E+03 0.  0.
         13    1    1    2    0    0  0.94116868410E+01 -0.42157449749E+01  0.56041533162E+02  0.56982602241E+02  0.10566000000E+00 0.  1.
        994    1    1    2    0    0 -0.61503442088E+01  0.80222702129E+01  0.12874367310E+01  0.17150300594E+03  0.17120000000E+03 0.  0.
        998    1    1    2    0    0 -0.32613426322E+01 -0.38065252380E+01  0.14426710264E+04  0.14427143918E+04  0.10000000000E+02 0.  1.
</event>
<event>
 5    1  0.1303633E-008  0.3843056E+03  0.7957747E-01  0.3432622E+00
         13   -1    0    0    0    0  0.00000000000E+00  0.00000000000E+00  0.14999999963E+04  0.15000000000E+04  0.10566000000E+00 0. -1.
        994   -1    0    0    0    0 -0.00000000000E+00 -0.00000000000E+00  0.11368683772E-12  0.17120000000E+03  0.17120000000E+03 0.  0.
         13    1    1    2    0    0 -0.15491559975E+01 -0.14085614941E+02  0.51933115106E+02  0.53831812539E+02  0.10566000000E+00 0. -1.
        994    1    1    2    0    0 -0.10271904460E+01  0.41132180729E+01  0.20345212361E+01  0.17126457007E+03  0.17120000000E+03 0.  0.
        998    1    1    2    0    0  0.25763464436E+01  0.99723968684E+01  0.14460323599E+04  0.14461036174E+04  0.10000000000E+02 0. -1.
</event>
<event>
 5    1  0.1303633E-008  0.3855431E+03  0.7957747E-01  0.3427372E+00
         13   -1    0    0    0    0  0.00000000000E+00  0.00000000000E+00  0.14999999963E+04  0.15000000000E+04  0.10566000000E+00 0.  1.
        994   -1    0    0    0    0 -0.00000000000E+00 -0.00000000000E+00  0.11368683772E-12  0.17120000000E+03  0.17120000000E+03 0.  0.
         13    1    1    2    0    0  0.93304481890E+01 -0.51475263879E+01  0.41698741137E+02  0.43038941294E+02  0.10566000000E+00 0.  1.
        994    1    1    2    0    0 -0.47282049651E+01  0.80607739031E+01  0.16474882613E+01  0.17146278376E+03  0.17120000000E+03 0.  0.
        998    1    1    2    0    0 -0.46022432238E+01 -0.29132475152E+01  0.14566537669E+04  0.14566982749E+04  0.10000000000E+02 0.  1.
</event>
<event>
 5    1  0.1303633E-008  0.3811637E+03  0.7957747E-01  0.3446107E+00
         13   -1    0    0    0    0  0.00000000000E+00  0.00000000000E+00  0.14999999963E+04  0.15000000000E+04  0.10566000000E+00 0.  1.
        994   -1    0    0    0    0 -0.00000000000E+00 -0.00000000000E+00  0.11368683772E-12  0.17120000000E+03  0.17120000000E+03 0.  0.
         13    1    1    2    0    0  0.19053315436E+02  0.16874471582E+02  0.86420519179E+02  0.90090476298E+02  0.10566000000E+00 0.  1.
        994    1    1    2    0    0 -0.87468667466E+01 -0.26489599913E+02  0.61426971748E+01  0.17356664227E+03  0.17120000000E+03 0.  0.
        998    1    1    2    0    0 -0.10306448690E+02  0.96151283307E+01  0.14074367799E+04  0.14075428814E+04  0.10000000000E+02 0.  1.
</event>
<event>
 5    1  0.1303633E-008  0.3859772E+03  0.7957747E-01  0.3425538E+00
         13   -1    0    0    0    0  0.00000000000E+00  0.00000000000E+00  0.14999999963E+04  0.15000000000E+04  0.10566000000E+00 0.  1.
        994   -1    0    0    0    0 -0.00000000000E+00 -0.00000000000E+00  0.11368683772E-12  0.17120000000E+03  0.17120000000E+03 0.  0.
         13    1    1    2    0    0  0.10293811581E+02 -0.49917434665E+01  0.56953305215E+02  0.58091050934E+02  0.10566000000E+00 0.  1.
        994    1    1    2    0    0 -0.90741312711E+01  0.35115879048E+01  0.14561537336E+01  0.17148245243E+03  0.17120000000E+03 0.  0.
        998    1    1    2    0    0 -0.12196803104E+01  0.14801555616E+01  0.14415905373E+04  0.14416264966E+04  0.10000000000E+02 0.  1.
</event>
<event>
 5    1  0.1303633E-008  0.3810382E+03  0.7957747E-01  0.3446650E+00
         13   -1    0    0    0    0  0.00000000000E+00  0.00000000000E+00  0.14999999963E+04  0.15000000000E+04  0.10566000000E+00 0.  1.
        994   -1    0    0    0    0 -0.00000000000E+00 -0.00000000000E+00  0.11368683772E-12  0.17120000000E+03  0.17120000000E+03 0.  0.
         13    1    1    2    0    0  0.43856187895E+01 -0.40311763535E+02  0.23775962846E+03  0.24119271137E+03  0.10566000000E+00 0.  1.
        994    1    1    2    0    0  0.58713271263E+00  0.17929547792E+02  0.46828209088E+01  0.17220099367E+03  0.17120000000E+03 0.  0.
        998    1    1    2    0    0 -0.49727515022E+01  0.22382215743E+02  0.12575575469E+04  0.12578062950E+04  0.10000000000E+02 0.  1.
</event>
<event>
 5    1  0.1303633E-008  0.3779265E+03  0.7957747E-01  0.3460237E+00
         13   -1    0    0    0    0  0.00000000000E+00  0.00000000000E+00  0.14999999963E+04  0.15000000000E+04  0.10566000000E+00 0.  1.
        994   -1    0    0    0    0 -0.00000000000E+00 -0.00000000000E+00  0.11368683772E-12  0.17120000000E+03  0.17120000000E+03 0.  0.
         13    1    1    2    0    0 -0.30986013628E+01  0.32507305394E+02  0.29056689860E+02  0.43710738086E+02  0.10566000000E+00 0.  1.
        994    1    1    2    0    0  0.10837851127E+01 -0.23216313732E+02  0.17137828460E+02  0.17361830830E+03  0.17120000000E+03 0.  0.
        998    1    1    2    0    0  0.20148162502E+01 -0.92909916623E+01  0.14538054780E+04  0.14538709536E+04  0.10000000000E+02 0.  1.
</event>
<event>
 5    1  0.1303633E-008  0.3829285E+03  0.7957747E-01  0.3438505E+00
         13   -1    0    0    0    0  0.00000000000E+00  0.00000000000E+00  0.14999999963E+04  0.15000000000E+04  0.10566000000E+00 0. -1.
        994   -1    0    0    0    0 -0.00000000000E+00 -0.00000000000E+00  0.11368683772E-12  0.17120000000E+03  0.17120000000E+03 0.  0.
         13    1    1    2    0    0 -0.27731996370E+01 -0.37435666287E+02  0.21591694010E+03  0.21915578006E+03  0.10566000000E+00 0. -1.
        994    1    1    2    0    0  0.81643513425E+00  0.43818126052E+02  0.90474722849E+01  0.17695194684E+03  0.17120000000E+03 0.  0.
        998    1    1    2    0    0  0.19567645028E+01 -0.63824597655E+01  0.12750355839E+04  0.12750922731E+04  0.10000000000E+02 0. -1.
</event>
<event>
 5    1  0.1303633E-008  0.3688036E+03  0.7957747E-01  0.3501408E+00
         13   -1    0    0    0    0  0.00000000000E+00  0.00000000000E+00  0.14999999963E+04  0.15000000000E+04  0.10566000000E+00 0.  1.
        994   -1    0    0    0    0 -0.00000000000E+00 -0.00000000000E+00  0.11368683772E-12  0.17120000000E+03  0.17120000000E+03 0.  0.
         13    1    1    2    0    0 -0.29572652484E+01 -0.10894283183E+02  0.12681326873E+01  0.11360024136E+02  0.10566000000E+00 0.  1.
        994    1    1    2    0    0  0.63597756592E+01  0.20305402978E+02  0.11885354656E+02  0.17292616283E+03  0.17120000000E+03 0.  0.
        998    1    1    2    0    0 -0.34025104108E+01 -0.94111197955E+01  0.14868465089E+04  0.14869138130E+04  0.10000000000E+02 0.  1.
</event>
<event>
 5    1  0.1303633E-008  0.3719235E+03  0.7957747E-01  0.3487097E+00
         13   -1    0    0    0    0  0.00000000000E+00  0.00000000000E+00  0.14999999963E+04  0.15000000000E+04  0.10566000000E+00 0. -1.
        994   -1    0    0    0    0 -0.00000000000E+00 -0.00000000000E+00  0.11368683772E-12  0.17120000000E+03  0.17120000000E+03 0.  0.
         13    1    1    2    0    0 -0.28279238588E+02 -0.63747762323E+02  0.25766359117E+03  0.26693450491E+03  0.10566000000E+00 0. -1.
        994    1    1    2    0    0  0.51934147530E+02  0.43710105547E+02  0.24264055921E+02  0.18575767391E+03  0.17120000000E+03 0.  0.
        998    1    1    2    0    0 -0.23654908942E+02  0.20037656776E+02  0.12180723492E+04  0.12185078212E+04  0.10000000000E+02 0. -1.
</event>
<event>
 5    1  0.1303633E-008  0.2273918E+03  0.7957747E-01  0.4605748E+00
         13   -1    0    0    0    0  0.00000000000E+00  0.00000000000E+00  0.14999999963E+04  0.15000000000E+04  0.10566000000E+00 0.  1.
        994   -1    0    0    0    0 -0.00000000000E+00 -0.00000000000E+00  0.11368683772E-12  0.17120000000E+03  0.17120000000E+03 0.  0.
         13    1    1    2    0    0 -0.74557135341E+02  0.15125342672E+03  0.29094522629E+03  0.33628187788E+03  0.10566000000E+00 0.  1.
        994    1    1    2    0    0  0.43842870898E+02 -0.57045635206E+02  0.81209081935E+02  0.20268388395E+03  0.17120000000E+03 0.  0.
        998    1    1    2    0    0  0.30714264443E+02 -0.94207791516E+02  0.11278456881E+04  0.11322342382E+04  0.10000000000E+02 0.  1.
</event>
<event>
 5    1  0.1303633E-008  0.3710188E+03  0.7957747E-01  0.3491222E+00
         13   -1    0    0    0    0  0.00000000000E+00  0.00000000000E+00  0.14999999963E+04  0.15000000000E+04  0.10566000000E+00 0.  1.
        994   -1    0    0    0    0 -0.00000000000E+00 -0.00000000000E+00  0.11368683772E-12  0.17120000000E+03  0.17120000000E+03 0.  0.
         13    1    1    2    0    0  0.51349121930E+02  0.21814849600E+01  0.13535554508E+03  0.14478475731E+03  0.10566000000E+00 0.  1.
        994    1    1    2    0    0 -0.51772364861E+02 -0.94789032019E+00  0.18033246456E+02  0.17976627670E+03  0.17120000000E+03 0.  0.
        998    1    1    2    0    0  0.42324293065E+00 -0.12335946398E+01  0.13466112047E+04  0.13466489660E+04  0.10000000000E+02 0.  0.
</event>
<event>
 5    1  0.1303633E-008  0.3748664E+03  0.7957747E-01  0.3473820E+00
         13   -1    0    0    0    0  0.00000000000E+00  0.00000000000E+00  0.14999999963E+04  0.15000000000E+04  0.10566000000E+00 0. -1.
        994   -1    0    0    0    0 -0.00000000000E+00 -0.00000000000E+00  0.11368683772E-12  0.17120000000E+03  0.17120000000E+03 0.  0.
         13    1    1    2    0    0 -0.32368152210E+02  0.25700581809E+02  0.11852282563E+03  0.12552246230E+03  0.10566000000E+00 0. -1.
        994    1    1    2    0    0  0.39349935108E+02 -0.74694948065E+01  0.12222400797E+02  0.17624709310E+03  0.17120000000E+03 0.  0.
        998    1    1    2    0    0 -0.69817828980E+01 -0.18231087003E+02  0.13692547698E+04  0.13694304446E+04  0.10000000000E+02 0. -1.
</event>
<event>
 5    1  0.1303633E-008  0.3696988E+03  0.7957747E-01  0.3497276E+00
         13   -1    0    0    0    0  0.00000000000E+00  0.00000000000E+00  0.14999999963E+04  0.15000000000E+04  0.10566000000E+00 0.  1.
        994   -1    0    0    0    0 -0.00000000000E+00 -0.00000000000E+00  0.11368683772E-12  0.17120000000E+03  0.17120000000E+03 0.  0.
         13    1    1    2    0    0  0.22450419728E+02 -0.15801557843E+02  0.36736798593E+02  0.45861902612E+02  0.10566000000E+00 0.  1.
        994    1    1    2    0    0 -0.32009004721E+02 -0.23900170576E+02  0.14970305533E+02  0.17643510021E+03  0.17120000000E+03 0.  0.
        998    1    1    2    0    0  0.95585849926E+01  0.39701728419E+02  0.14482928922E+04  0.14489029972E+04  0.10000000000E+02 0.  1.
</event>
<event>
 5    1  0.1303633E-008  0.3793696E+03  0.7957747E-01  0.3453908E+00
         13   -1    0    0    0    0  0.00000000000E+00  0.00000000000E+00  0.14999999963E+04  0.15000000000E+04  0.10566000000E+00 0. -1.
        994   -1    0    0    0    0 -0.00000000000E+00 -0.00000000000E+00  0.11368683772E-12  0.17120000000E+03  0.17120000000E+03 0.  0.
         13    1    1    2    0    0  0.20792432036E+02 -0.27162454934E+02  0.12016887695E+03  0.12494276426E+03  0.10566000000E+00 0. -1.
        994    1    1    2    0    0 -0.29029944452E+02  0.21702935937E+02  0.88652256458E+01  0.17521925502E+03  0.17120000000E+03 0.  0.
        998    1    1    2    0    0  0.82375124159E+01  0.54595189971E+01  0.13709658937E+04  0.13710379807E+04  0.10000000000E+02 0. -1.
</event>
<event>
 5    1  0.1303633E-008  0.3703619E+03  0.7957747E-01  0.3494229E+00
         13   -1    0    0    0    0  0.00000000000E+00  0.00000000000E+00  0.14999999963E+04  0.15000000000E+04  0.10566000000E+00 0. -1.
        994   -1    0    0    0    0 -0.00000000000E+00 -0.00000000000E+00  0.11368683772E-12  0.17120000000E+03  0.17120000000E+03 0.  0.
         13    1    1    2    0    0 -0.85480831632E+02  0.39527245634E+02  0.38600979070E+03  0.39733228588E+03  0.10566000000E+00 0. -1.
        994    1    1    2    0    0  0.60235003306E+02 -0.78073530548E+02  0.43449882671E+02  0.20228955509E+03  0.17120000000E+03 0.  0.
        998    1    1    2    0    0  0.25245828326E+02  0.38546284914E+02  0.10705403229E+04  0.10715781590E+04  0.10000000000E+02 0. -1.
</event>
<event>
 5    1  0.1303633E-008  0.3851031E+03  0.7957747E-01  0.3429235E+00
         13   -1    0    0    0    0  0.00000000000E+00  0.00000000000E+00  0.14999999963E+04  0.15000000000E+04  0.10566000000E+00 0. -1.
        994   -1    0    0    0    0 -0.00000000000E+00 -0.00000000000E+00  0.11368683772E-12  0.17120000000E+03  0.17120000000E+03 0.  0.
         13    1    1    2    0    0 -0.12737146927E+02 -0.85870514633E+01  0.78048507251E+02  0.79545917637E+02  0.10566000000E+00 0. -1.
        994    1    1    2    0    0  0.50255545619E+01 -0.11487988539E+00  0.16620505867E+01  0.17128184903E+03  0.17120000000E+03 0.  0.
        998    1    1    2    0    0  0.77115923649E+01  0.87019313487E+01  0.14202894384E+04  0.14203722333E+04  0.10000000000E+02 0. -1.
</event>
<event>
 5    1  0.1303633E-008  0.3692054E+03  0.7957747E-01  0.3499551E+00
         13   -1    0    0    0    0  0.00000000000E+00  0.00000000000E+00  0.14999999963E+04  0.15000000000E+04  0.10566000000E+00 0.  1.
        994   -1    0    0    0    0 -0.00000000000E+00 -0.00000000000E+00  0.11368683772E-12  0.17120000000E+03  0.17120000000E+03 0.  0.
         13    1    1    2    0    0  0.20666878736E+02 -0.20326567161E+02  0.44330888500E+02  0.52967235613E+02  0.10566000000E+00 0.  1.
        994    1    1    2    0    0  0.24253336860E+02 -0.77087761154E+01  0.11933735970E+02  0.17349208522E+03  0.17120000000E+03 0.  0.
        998    1    1    2    0    0 -0.44920215597E+02  0.28035343277E+02  0.14437353718E+04  0.14447406792E+04  0.10000000000E+02 0.  1.
</event>
<event>
 5    1  0.1303633E-008  0.3816614E+03  0.7957747E-01  0.3443956E+00
         13   -1    0    0    0    0  0.00000000000E+00  0.00000000000E+00  0.14999999963E+04  0.15000000000E+04  0.10566000000E+00 0.  1.
        994   -1    0    0    0    0 -0.00000000000E+00 -0.00000000000E+00  0.11368683772E-12  0.17120000000E+03  0.17120000000E+03 0.  0.
         13    1    1    2    0    0  0.25173951879E+02 -0.20634055454E+02  0.17267145934E+03  0.17571265217E+03  0.10566000000E+00 0.  1.
        994    1    1    2    0    0  0.13073690064E+01  0.15938724651E+02  0.41475947130E+01  0.17199533336E+03  0.17120000000E+03 0.  0.
        998    1    1    2    0    0 -0.26481320885E+02  0.46953308035E+01  0.13231809422E+04  0.13234920145E+04  0.10000000000E+02 0.  1.
</event>
<event>
 5    1  0.1303633E-008  0.3847255E+03  0.7957747E-01  0.3430837E+00
         13   -1    0    0    0    0  0.00000000000E+00  0.00000000000E+00  0.14999999963E+04  0.15000000000E+04  0.10566000000E+00 0. -1.
        994   -1    0    0    0    0 -0.00000000000E+00 -0.00000000000E+00  0.11368683772E-12  0.17120000000E+03  0.17120000000E+03 0.  0.
         13    1    1    2    0    0  0.70343211162E+01  0.13172315919E+02  0.63116856499E+02  0.64859388824E+02  0.10566000000E+00 0. -1.
        994    1    1    2    0    0 -0.25218477310E+02  0.20381416302E+01  0.38763356885E+01  0.17310283532E+03  0.17120000000E+03 0.  0.
        998    1    1    2    0    0  0.18184156194E+02 -0.15210457550E+02  0.14330068041E+04  0.14332377759E+04  0.10000000000E+02 0. -1.
</event>
<event>
 5    1  0.1303633E-008  0.3834397E+03  0.7957747E-01  0.3436317E+00
         13   -1    0    0    0    0  0.00000000000E+00  0.00000000000E+00  0.14999999963E+04  0.15000000000E+04  0.10566000000E+00 0. -1.
        994   -1    0    0    0    0 -0.00000000000E+00 -0.00000000000E+00  0.11368683772E-12  0.17120000000E+03  0.17120000000E+03 0.  0.
         13    1    1    2    0    0 -0.83671067178E+01  0.20905045045E+02  0.11871358231E+03  0.12083027424E+03  0.10566000000E+00 0. -1.
        994    1    1    2    0    0 -0.55905996961E+01  0.12103767370E+01  0.25149316002E+01  0.17131399446E+03  0.17120000000E+03 0.  0.
        998    1    1    2    0    0  0.13957706414E+02 -0.22115421782E+02  0.13787714824E+04  0.13790557313E+04  0.10000000000E+02 0. -1.
</event>
<event>
 5    1  0.1303633E-008  0.3801674E+03  0.7957747E-01  0.3450430E+00
         13   -1    0    0    0    0  0.00000000000E+00  0.00000000000E+00  0.14999999963E+04  0.15000000000E+04  0.10566000000E+00 0.  1.
        994   -1    0    0    0    0 -0.00000000000E+00 -0.00000000000E+00  0.11368683772E-12  0.17120000000E+03  0.17120000000E+03 0.  0.
         13    1    1    2    0    0 -0.54284985533E+01  0.16783765473E+02  0.37568481927E+02  0.41503799565E+02  0.10566000000E+00 0.  1.
        994    1    1    2    0    0  0.66302215623E+01 -0.44177646987E+01  0.42607724471E+01  0.17143824155E+03  0.17120000000E+03 0.  0.
        998    1    1    2    0    0 -0.12017230090E+01 -0.12366000775E+02  0.14581707419E+04  0.14582579589E+04  0.10000000000E+02 0.  1.
</event>
<event>
 5    1  0.1303633E-008  0.3821090E+03  0.7957747E-01  0.3442027E+00
         13   -1    0    0    0    0  0.00000000000E+00  0.00000000000E+00  0.14999999963E+04  0.15000000000E+04  0.10566000000E+00 0. -1.
        994   -1    0    0    0    0 -0.00000000000E+00 -0.00000000000E+00  0.11368683772E-12  0.17120000000E+03  0.17120000000E+03 0.  0.
         13    1    1    2    0    0  0.10205080559E+02  0.12863732529E+02  0.41489234650E+02  0.44620477806E+02  0.10566000000E+00 0. -1.
        994    1    1    2    0    0 -0.13399675858E+02 -0.13656896321E+02  0.42885083191E+01  0.17231916154E+03  0.17120000000E+03 0.  0.
        998    1    1    2    0    0  0.31945952995E+01  0.79316379238E+00  0.14542222533E+04  0.14542603607E+04  0.10000000000E+02 0. -1.
</event>
<event>
 5    1  0.1303633E-008  0.3790612E+03  0.7957747E-01  0.3455257E+00
         13   -1    0    0    0    0  0.00000000000E+00  0.00000000000E+00  0.14999999963E+04  0.15000000000E+04  0.10566000000E+00 0. -1.
        994   -1    0    0    0    0 -0.00000000000E+00 -0.00000000000E+00  0.11368683772E-12  0.17120000000E+03  0.17120000000E+03 0.  0.
         13    1    1    2    0    0  0.28183613031E+02  0.15341686367E+02  0.10046701693E+03  0.10546713250E+03  0.10566000000E+00 0. -1.
        994    1    1    2    0    0 -0.36206017155E+02 -0.13504122936E+02  0.96314436306E+01  0.17577099226E+03  0.17120000000E+03 0.  0.
        998    1    1    2    0    0  0.80224041233E+01 -0.18375634315E+01  0.13899015357E+04  0.13899618752E+04  0.10000000000E+02 0. -1.
</event>
<event>
 5    1  0.1303633E-008  0.3704942E+03  0.7957747E-01  0.3493623E+00
         13   -1    0    0    0    0  0.00000000000E+00  0.00000000000E+00  0.14999999963E+04  0.15000000000E+04  0.10566000000E+00 0.  1.
        994   -1    0    0    0    0 -0.00000000000E+00 -0.00000000000E+00  0.11368683772E-12  0.17120000000E+03  0.17120000000E+03 0.  0.
         13    1    1    2    0    0  0.34583847239E+02  0.43245470556E+02  0.17612370567E+03  0.18462335734E+03  0.10566000000E+00 0.  1.
        994    1    1    2    0    0 -0.19880005542E+02 -0.12832498344E+02  0.10945960331E+02  0.17317373265E+03  0.17120000000E+03 0.  0.
        998    1    1    2    0    0 -0.14703841697E+02 -0.30412972213E+02  0.13129303303E+04  0.13134029100E+04  0.10000000000E+02 0.  1.
</event>
<event>
 5    1  0.1303633E-008  0.3850009E+03  0.7957747E-01  0.3429668E+00
         13   -1    0    0    0    0  0.00000000000E+00  0.00000000000E+00  0.14999999963E+04  0.15000000000E+04  0.10566000000E+00 0. -1.
        994   -1    0    0    0    0 -0.00000000000E+00 -0.00000000000E+00  0.11368683772E-12  0.17120000000E+03  0.17120000000E+03 0.  0.
         13    1    1    2    0    0  0.33183362090E+01  0.94871560164E+01  0.31438899248E+02  0.33006560476E+02  0.10566000000E+00 0. -1.
        994    1    1    2    0    0 -0.82340986544E+00 -0.19176347062E+01  0.16440054856E+01  0.17122061231E+03  0.17120000000E+03 0.  0.
        998    1    1    2    0    0 -0.24949263436E+01 -0.75695213103E+01  0.14669170915E+04  0.14669728272E+04  0.10000000000E+02 0. -1.
</event>
<event>
 5    1  0.1303633E-008  0.3706291E+03  0.7957747E-01  0.3493005E+00
         13   -1    0    0    0    0  0.00000000000E+00  0.00000000000E+00  0.14999999963E+04  0.15000000000E+04  0.10566000000E+00 0. -1.
        994   -1    0    0    0    0 -0.00000000000E+00 -0.00000000000E+00  0.11368683772E-12  0.17120000000E+03  0.17120000000E+03 0.  0.
         13    1    1    2    0    0  0.14659584098E+02 -0.38426803766E+02  0.96261745685E+02  0.10467978554E+03  0.10566000000E+00 0. -1.
        994    1    1    2    0    0  0.12444257115E+01  0.13319964153E+02  0.95583415460E+01  0.17198770867E+03  0.17120000000E+03 0.  0.
        998    1    1    2    0    0 -0.15904009810E+02  0.25106839612E+02  0.13941799090E+04  0.13945325058E+04  0.10000000000E+02 0. -1.
</event>
<event>
 5    1  0.1303633E-008  0.3770513E+03  0.7957747E-01  0.3464099E+00
         13   -1    0    0    0    0  0.00000000000E+00  0.00000000000E+00  0.14999999963E+04  0.15000000000E+04  0.10566000000E+00 0.  1.
        994   -1    0    0    0    0 -0.00000000000E+00 -0.00000000000E+00  0.11368683772E-12  0.17120000000E+03  0.17120000000E+03 0.  0.
         13    1    1    2    0    0  0.26726377628E+02  0.76489136750E+02  0.44493961398E+03  0.45225673965E+03  0.10566000000E+00 0.  1.
        994    1    1    2    0    0 -0.33298072988E+02 -0.65826557808E+02  0.24226438828E+02  0.18798472735E+03  0.17120000000E+03 0.  0.
        998    1    1    2    0    0  0.65716953598E+01 -0.10662578942E+02  0.10308339435E+04  0.10309585330E+04  0.10000000000E+02 0. -1.
</event>
<event>
 5    1  0.1303633E-008  0.3799454E+03  0.7957747E-01  0.3451396E+00
         13   -1    0    0    0    0  0.00000000000E+00  0.00000000000E+00  0.14999999963E+04  0.15000000000E+04  0.10566000000E+00 0. -1.
        994   -1    0    0    0    0 -0.00000000000E+00 -0.00000000000E+00  0.11368683772E-12  0.17120000000E+03  0.17120000000E+03 0.  0.
         13    1    1    2    0    0  0.20028014552E+02  0.12699754116E+02  0.72837294462E+02  0.76600833873E+02  0.10566000000E+00 0. -1.
        994    1    1    2    0    0  0.16254776603E+01  0.10090004400E+02  0.45100270390E+01  0.17156407174E+03  0.17120000000E+03 0.  0.
        998    1    1    2    0    0 -0.21653492213E+02 -0.22789758516E+02  0.14226526748E+04  0.14230350944E+04  0.10000000000E+02 0. -1.
</event>
<event>
 5    1  0.1303633E-008  0.3753932E+03  0.7957747E-01  0.3471466E+00
         13   -1    0    0    0    0  0.00000000000E+00  0.00000000000E+00  0.14999999963E+04  0.15000000000E+04  0.10566000000E+00 0.  1.
        994   -1    0    0    0    0 -0.00000000000E+00 -0.00000000000E+00  0.11368683772E-12  0.17120000000E+03  0.17120000000E+03 0.  0.
         13    1    1    2    0    0 -0.20424998058E+02  0.87347446769E+01  0.34710147718E+02  0.41210215104E+02  0.10566000000E+00 0.  1.
        994    1    1    2    0    0  0.16981995266E+02 -0.18030776220E+02  0.85623743386E+01  0.17319425888E+03  0.17120000000E+03 0.  0.
        998    1    1    2    0    0  0.34430027926E+01  0.92960315435E+01  0.14567274742E+04  0.14567955260E+04  0.10000000000E+02 0.  1.
</event>
<event>
 5    1  0.1303633E-008  0.3785253E+03  0.7957747E-01  0.3457605E+00
         13   -1    0    0    0    0  0.00000000000E+00  0.00000000000E+00  0.14999999963E+04  0.15000000000E+04  0.10566000000E+00 0. -1.
        994   -1    0    0    0    0 -0.00000000000E+00 -0.00000000000E+00  0.11368683772E-12  0.17120000000E+03  0.17120000000E+03 0.  0.
         13    1    1    2    0    0 -0.25791953539E+02  0.10957946759E+02  0.82891472895E+02  0.87500336613E+02  0.10566000000E+00 0. -1.
        994    1    1    2    0    0  0.47018185170E+01 -0.34618433257E+01  0.49939573067E+01  0.17137231709E+03  0.17120000000E+03 0.  0.
        998    1    1    2    0    0  0.21090135023E+02 -0.74961034330E+01  0.14121145661E+04  0.14123273463E+04  0.10000000000E+02 0. -1.
</event>
<event>
 5    1  0.1303633E-008  0.3834584E+03  0.7957747E-01  0.3436237E+00
         13   -1    0    0    0    0  0.00000000000E+00  0.00000000000E+00  0.14999999963E+04  0.15000000000E+04  0.10566000000E+00 0. -1.
        994   -1    0    0    0    0 -0.00000000000E+00 -0.00000000000E+00  0.11368683772E-12  0.17120000000E+03  0.17120000000E+03 0.  0.
         13    1    1    2    0    0  0.24960138799E+02  0.22801880236E-01  0.14948046444E+03  0.15155008896E+03  0.10566000000E+00 0. -1.
        994    1    1    2    0    0  0.22947328574E+01 -0.30944328549E+01  0.24465026948E+01  0.17126081481E+03  0.17120000000E+03 0.  0.
        998    1    1    2    0    0 -0.27254871656E+02  0.30716309747E+01  0.13480730291E+04  0.13483890962E+04  0.10000000000E+02 0. -1.
</event>
<event>
 5    1  0.1303633E-008  0.3698855E+03  0.7957747E-01  0.3496417E+00
         13   -1    0    0    0    0  0.00000000000E+00  0.00000000000E+00  0.14999999963E+04  0.15000000000E+04  0.10566000000E+00 0.  1.
        994   -1    0    0    0    0 -0.00000000000E+00 -0.00000000000E+00  0.11368683772E-12  0.17120000000E+03  0.17120000000E+03 0.  0.
         13    1    1    2    0    0  0.19351588882E+02 -0.10431399561E+02  0.17430705784E+02  0.28055993250E+02  0.10566000000E+00 0.  1.
        994    1    1    2    0    0 -0.15734083355E+02  0.10834528880E+02  0.12154623876E+02  0.17269083148E+03  0.17120000000E+03 0.  0.
        998    1    1    2    0    0 -0.36175055275E+01 -0.40312931834E+00  0.14704146666E+04  0.14704531753E+04  0.10000000000E+02 0.  1.
</event>
<event>
 5    1  0.1303633E-008  0.3808286E+03  0.7957747E-01  0.3447558E+00
         13   -1    0    0    0    0  0.00000000000E+00  0.00000000000E+00  0.14999999963E+04  0.15000000000E+04  0.10566000000E+00 0. -1.
        994   -1    0    0    0    0 -0.00000000000E+00 -0.00000000000E+00  0.11368683772E-12  0.17120000000E+03  0.17120000000E+03 0.  0.
         13    1    1    2    0    0 -0.21693098611E+01  0.13162212017E+02  0.22996379112E+02  0.26585604126E+02  0.10566000000E+00 0. -1.
        994    1    1    2    0    0  0.11761900035E+02  0.10284496923E+01  0.41803174682E+01  0.17165755170E+03  0.17120000000E+03 0.  0.
        998    1    1    2    0    0 -0.95925901737E+01 -0.14190661710E+02  0.14728232997E+04  0.14729568442E+04  0.10000000000E+02 0. -1.
</event>
<event>
 5    1  0.1303633E-008  0.3799540E+03  0.7957747E-01  0.3451359E+00
         13   -1    0    0    0    0  0.00000000000E+00  0.00000000000E+00  0.14999999963E+04  0.15000000000E+04  0.10566000000E+00 0. -1.
        994   -1    0    0    0    0 -0.00000000000E+00 -0.00000000000E+00  0.11368683772E-12  0.17120000000E+03  0.17120000000E+03 0.  0.
         13    1    1    2    0    0 -0.20476915732E+02  0.13452692210E+02  0.65603329550E+02  0.70029186898E+02  0.10566000000E+00 0. -1.
        994    1    1    2    0    0  0.44496174967E+02  0.63074717316E+01  0.10938802771E+02  0.17733807034E+03  0.17120000000E+03 0.  0.
        998    1    1    2    0    0 -0.24019259235E+02 -0.19760163942E+02  0.14234578640E+04  0.14238327428E+04  0.10000000000E+02 0. -1.
</event>
<event>
 5    1  0.1303633E-008  0.3864654E+03  0.7957747E-01  0.3423481E+00
         13   -1    0    0    0    0  0.00000000000E+00  0.00000000000E+00  0.14999999963E+04  0.15000000000E+04  0.10566000000E+00 0. -1.
        994   -1    0    0    0    0 -0.00000000000E+00 -0.00000000000E+00  0.11368683772E-12  0.17120000000E+03  0.17120000000E+03 0.  0.
         13    1    1    2    0    0  0.10240508195E+02  0.11722121068E+01  0.53616428902E+02  0.54598303102E+02  0.10566000000E+00 0. -1.
        994    1    1    2    0    0 -0.22834135728E+02  0.57800407425E+01  0.27223622165E+01  0.17283419188E+03  0.17120000000E+03 0.  0.
        998    1    1    2    0    0  0.12593627532E+02 -0.69522528493E+01  0.14436612052E+04  0.14437675050E+04  0.10000000000E+02 0. -1.
</event>
<event>
 5    1  0.1303633E-008  0.3852039E+03  0.7957747E-01  0.3428808E+00
         13   -1    0    0    0    0  0.00000000000E+00  0.00000000000E+00  0.14999999963E+04  0.15000000000E+04  0.10566000000E+00 0.  1.
        994   -1    0    0    0    0 -0.00000000000E+00 -0.00000000000E+00  0.11368683772E-12  0.17120000000E+03  0.17120000000E+03 0.  0.
         13    1    1    2    0    0  0.89193027859E+01 -0.12921177446E+02  0.80189145859E+02  0.81711817177E+02  0.10566000000E+00 0.  1.
        994    1    1    2    0    0 -0.10655491882E+02  0.63820275244E+01  0.20361151444E+01  0.17166203875E+03  0.17120000000E+03 0.  0.
        998    1    1    2    0    0  0.17361890965E+01  0.65391499216E+01  0.14177747353E+04  0.14178261441E+04  0.10000000000E+02 0.  1.
</event>
<event>
 5    1  0.1303633E-008  0.3688294E+03  0.7957747E-01  0.3501288E+00
         13   -1    0    0    0    0  0.00000000000E+00  0.00000000000E+00  0.14999999963E+04  0.15000000000E+04  0.10566000000E+00 0.  1.
        994   -1    0    0    0    0 -0.00000000000E+00 -0.00000000000E+00  0.11368683772E-12  0.17120000000E+03  0.17120000000E+03 0.  0.
         13    1    1    2    0    0  0.19072329982E+02 -0.45589271007E+01  0.14901966422E+02  0.24629603215E+02  0.10566000000E+00 0.  1.
        994    1    1    2    0    0 -0.20338342472E+02  0.76501605725E+01  0.11523136049E+02  0.17295778617E+03  0.17120000000E+03 0.  0.
        998    1    1    2    0    0  0.12660124902E+01 -0.30912334718E+01  0.14735748938E+04  0.14736126106E+04  0.10000000000E+02 0.  1.
</event>
<event>
 5    1  0.1303633E-008  0.3824670E+03  0.7957747E-01  0.3440486E+00
         13   -1    0    0    0    0  0.00000000000E+00  0.00000000000E+00  0.14999999963E+04  0.15000000000E+04  0.10566000000E+00 0. -1.
        994   -1    0    0    0    0 -0.00000000000E+00 -0.00000000000E+00  0.11368683772E-12  0.17120000000E+03  0.17120000000E+03 0.  0.
         13    1    1    2    0    0  0.84343430098E+01  0.18255946399E+02  0.67363799047E+02  0.70301566889E+02  0.10566000000E+00 0. -1.
        994    1    1    2    0    0 -0.10107491611E+02 -0.14816611958E+02  0.39603945069E+01  0.17218251392E+03  0.17120000000E+03 0.  0.
        998    1    1    2    0    0  0.16731486007E+01 -0.34393344410E+01  0.14286758027E+04  0.14287159192E+04  0.10000000000E+02 0. -1.
</event>
<event>
 5    1  0.1303633E-008  0.3838771E+03  0.7957747E-01  0.3434449E+00
         13   -1    0    0    0    0  0.00000000000E+00  0.00000000000E+00  0.14999999963E+04  0.15000000000E+04  0.10566000000E+00 0. -1.
        994   -1    0    0    0    0 -0.00000000000E+00 -0.00000000000E+00  0.11368683772E-12  0.17120000000E+03  0.17120000000E+03 0.  0.
         13    1    1    2    0    0 -0.56106055857E+01  0.11881677510E+02  0.40424889568E+02  0.42506893748E+02  0.10566000000E+00 0. -1.
        994    1    1    2    0    0 -0.13842209897E+01 -0.75836797194E+00  0.21969108296E+01  0.17122137018E+03  0.17120000000E+03 0.  0.
        998    1    1    2    0    0  0.69948265754E+01 -0.11123309538E+02  0.14573781959E+04  0.14574717361E+04  0.10000000000E+02 0. -1.
</event>
<event>
 5    1  0.1303633E-008  0.3880153E+03  0.7957747E-01  0.3416984E+00
         13   -1    0    0    0    0  0.00000000000E+00  0.00000000000E+00  0.14999999963E+04  0.15000000000E+04  0.10566000000E+00 0. -1.
        994   -1    0    0    0    0 -0.00000000000E+00 -0.00000000000E+00  0.11368683772E-12  0.17120000000E+03  0.17120000000E+03 0.  0.
         13    1    1    2    0    0  0.54483959989E+01 -0.48360512750E+02  0.51175585983E+02  0.70621356381E+02  0.10566000000E+00 0. -1.
        994    1    1    2    0    0  0.12902688828E+02  0.23427755653E+02  0.23476763121E+02  0.17485976530E+03  0.17120000000E+03 0.  0.
        998    1    1    2    0    0 -0.18351084827E+02  0.24932757097E+02  0.14253476472E+04  0.14257188783E+04  0.10000000000E+02 0. -1.
</event>
<event>
 5    1  0.1303633E-008  0.3804909E+03  0.7957747E-01  0.3449024E+00
         13   -1    0    0    0    0  0.00000000000E+00  0.00000000000E+00  0.14999999963E+04  0.15000000000E+04  0.10566000000E+00 0.  1.
        994   -1    0    0    0    0 -0.00000000000E+00 -0.00000000000E+00  0.11368683772E-12  0.17120000000E+03  0.17120000000E+03 0.  0.
         13    1    1    2    0    0 -0.11441507047E+02 -0.24764294180E+01  0.16249256620E+02  0.20027238724E+02  0.10566000000E+00 0.  1.
        994    1    1    2    0    0  0.27880541165E+01 -0.30107372556E+01  0.39417674795E+01  0.17129452798E+03  0.17120000000E+03 0.  0.
        998    1    1    2    0    0  0.86534529303E+01  0.54871666736E+01  0.14798089722E+04  0.14798782333E+04  0.10000000000E+02 0.  1.
</event>
<event>
 5    1  0.1303633E-008  0.3845992E+03  0.7957747E-01  0.3431374E+00
         13   -1    0    0    0    0  0.00000000000E+00  0.00000000000E+00  0.14999999963E+04  0.15000000000E+04  0.10566000000E+00 0.  1.
        994   -1    0    0    0    0 -0.00000000000E+00 -0.00000000000E+00  0.11368683772E-12  0.17120000000E+03  0.17120000000E+03 0.  0.
         13    1    1    2    0    0 -0.53180015496E+01 -0.11738270022E+02  0.43356280431E+02  0.45231032935E+02  0.10566000000E+00 0.  1.
        994    1    1    2    0    0  0.76023184530E+01  0.14956899650E+02  0.27567695635E+01  0.17204227350E+03  0.17120000000E+03 0.  0.
        998    1    1    2    0    0 -0.22843169034E+01 -0.32186296281E+01  0.14538869463E+04  0.14539266936E+04  0.10000000000E+02 0.  1.
</event>
<event>
 5    1  0.1303633E-008  0.3856039E+03  0.7957747E-01  0.3427115E+00
         13   -1    0    0    0    0  0.00000000000E+00  0.00000000000E+00  0.14999999963E+04  0.15000000000E+04  0.10566000000E+00 0. -1.
        994   -1    0    0    0    0 -0.00000000000E+00 -0.00000000000E+00  0.11368683772E-12  0.17120000000E+03  0.17120000000E+03 0.  0.
         13    1    1    2    0    0  0.94022005435E+01 -0.64035566172E+01  0.47815706343E+02  0.49150379953E+02  0.10566000000E+00 0. -1.
        994    1    1    2    0    0 -0.91273974282E+01  0.68531649019E+01  0.17583018081E+01  0.17158906398E+03  0.17120000000E+03 0.  0.
        998    1    1    2    0    0 -0.27480311522E+00 -0.44960828471E+00  0.14504259881E+04  0.14504605561E+04  0.10000000000E+02 0.  0.
</event>
<event>
 5    1  0.1303633E-008  0.3712780E+03  0.7957747E-01  0.3490038E+00
         13   -1    0    0    0    0  0.00000000000E+00  0.00000000000E+00  0.14999999963E+04  0.15000000000E+04  0.10566000000E+00 0.  1.
        994   -1    0    0    0    0 -0.00000000000E+00 -0.00000000000E+00  0.11368683772E-12  0.17120000000E+03  0.17120000000E+03 0.  0.
         13    1    1    2    0    0  0.17859342377E+02  0.61857429429E+02  0.20128363433E+03  0.21133009795E+03  0.10566000000E+00 0.  1.
        994    1    1    2    0    0 -0.99114811375E+01 -0.69245544765E+02  0.25640458011E+02  0.18670847869E+03  0.17120000000E+03 0.  0.
        998    1    1    2    0    0 -0.79478612398E+01  0.73881153361E+01  0.12730759039E+04  0.12731614234E+04  0.10000000000E+02 0.  1.
</event>
<event>
 5    1  0.1303633E-008  0.3840096E+03  0.7957747E-01  0.3433884E+00
         13   -1    0    0    0    0  0.00000000000E+00  0.00000000000E+00  0.14999999963E+04  0.15000000000E+04  0.10566000000E+00 0.  1.
        994   -1    0    0    0    0 -0.00000000000E+00 -0.00000000000E+00  0.11368683772E-12  0.17120000000E+03  0.17120000000E+03 0.  0.
         13    1    1    2    0    0 -0.75516346452E+00  0.28672584431E+02  0.16555992732E+03  0.16802615293E+03  0.10566000000E+00 0.  1.
        994    1    1    2    0    0  0.99140424522E+00 -0.34685374870E+02  0.61052847467E+01  0.17478779309E+03  0.17120000000E+03 0.  0.
        998    1    1    2    0    0 -0.23624078070E+00  0.60127904387E+01  0.13283347842E+04  0.13283860540E+04  0.10000000000E+02 0.  1.
</event>
<event>
 5    1  0.1303633E-008  0.3734676E+03  0.7957747E-01  0.3480105E+00
         13   -1    0    0    0    0  0.00000000000E+00  0.00000000000E+00  0.14999999963E+04  0.15000000000E+04  0.10566000000E+00 0. -1.
        994   -1    0    0    0    0 -0.00000000000E+00 -0.00000000000E+00  0.11368683772E-12  0.17120000000E+03  0.17120000000E+03 0.  0.
         13    1    1    2    0    0 -0.27121789586E+02 -0.21116827171E+01  0.46254546768E+02  0.53661391475E+02  0.10566000000E+00 0. -1.
        994    1    1    2    0    0  0.22167295856E+02 -0.18634283215E+02  0.10338566850E+02  0.17393950523E+03  0.17120000000E+03 0.  0.
        998    1    1    2    0    0  0.49544937303E+01  0.20745965932E+02  0.14434068827E+04  0.14435991033E+04  0.10000000000E+02 0. -1.
</event>
<event>
 5    1  0.1303633E-008  0.3739681E+03  0.7957747E-01  0.3477851E+00
         13   -1    0    0    0    0  0.00000000000E+00  0.00000000000E+00  0.14999999963E+04  0.15000000000E+04  0.10566000000E+00 0.  1.
        994   -1    0    0    0    0 -0.00000000000E+00 -0.00000000000E+00  0.11368683772E-12  0.17120000000E+03  0.17120000000E+03 0.  0.
         13    1    1    2    0    0 -0.40128350375E+02  0.21449102587E+02  0.78225956785E+02  0.90496740188E+02  0.10566000000E+00 0.  1.
        994    1    1    2    0    0  0.13167928427E+02 -0.71249698186E+01  0.13847678395E+02  0.17241043394E+03  0.17120000000E+03 0.  0.
        998    1    1    2    0    0  0.26960421948E+02 -0.14324132769E+02  0.14079263611E+04  0.14082928259E+04  0.10000000000E+02 0.  1.
</event>
<event>
 5    1  0.1303633E-008  0.3747666E+03  0.7957747E-01  0.3474267E+00
         13   -1    0    0    0    0  0.00000000000E+00  0.00000000000E+00  0.14999999963E+04  0.15000000000E+04  0.10566000000E+00 0.  1.
        994   -1    0    0    0    0 -0.00000000000E+00 -0.00000000000E+00  0.11368683772E-12  0.17120000000E+03  0.17120000000E+03 0.  0.
         13    1    1    2    0    0 -0.98026871266E+01 -0.52871146446E+02  0.29139525762E+03  0.29631513315E+03  0.10566000000E+00 0.  1.
        994    1    1    2    0    0  0.18896672865E+02 -0.13975447906E+02  0.86800597207E+01  0.17302364239E+03  0.17120000000E+03 0.  0.
        998    1    1    2    0    0 -0.90939857380E+01  0.66846594352E+02  0.11999246789E+04  0.12018612245E+04  0.10000000000E+02 0.  1.
</event>
<event>
 5    1  0.1349857E-008  0.3860684E+03  0.7957747E-01  0.3425153E+00
         13   -1    0    0    0    0  0.00000000000E+00  0.00000000000E+00  0.14999999963E+04  0.15000000000E+04  0.10566000000E+00 0. -1.
        994   -1    0    0    0    0 -0.00000000000E+00 -0.00000000000E+00  0.11368683772E-12  0.17120000000E+03  0.17120000000E+03 0.  0.
         13    1    1    2    0    0 -0.84115725843E+01  0.84901799841E+01  0.70069564420E+02  0.71081592072E+02  0.10566000000E+00 0. -1.
        994    1    1    2    0    0  0.31858490963E+01  0.31182419301E+01  0.11657289503E+01  0.17126199809E+03  0.17120000000E+03 0.  0.
        998    1    1    2    0    0  0.52257234880E+01 -0.11608421914E+02  0.14287647029E+04  0.14288564098E+04  0.10000000000E+02 0. -1.
</event>
<event>
 5    1  0.1315368E-008  0.3857938E+03  0.7957747E-01  0.3426313E+00
         13   -1    0    0    0    0  0.00000000000E+00  0.00000000000E+00  0.14999999963E+04  0.15000000000E+04  0.10566000000E+00 0.  1.
        994   -1    0    0    0    0 -0.00000000000E+00 -0.00000000000E+00  0.11368683772E-12  0.17120000000E+03  0.17120000000E+03 0.  0.
         13    1    1    2    0    0 -0.98742309330E+01 -0.95535019989E+01  0.80957508619E+02  0.82115158179E+02  0.10566000000E+00 0.  1.
        994    1    1    2    0    0  0.41984258847E+01 -0.22863294588E+00  0.12945370171E+01  0.17125651777E+03  0.17120000000E+03 0.  0.
        998    1    1    2    0    0  0.56758050484E+01  0.97821349447E+01  0.14177479506E+04  0.14178283241E+04  0.10000000000E+02 0.  1.
</event>
<event>
 5    1  0.1303633E-008  0.3844315E+03  0.7957747E-01  0.3432087E+00
         13   -1    0    0    0    0  0.00000000000E+00  0.00000000000E+00  0.14999999963E+04  0.15000000000E+04  0.10566000000E+00 0. -1.
        994   -1    0    0    0    0 -0.00000000000E+00 -0.00000000000E+00  0.11368683772E-12  0.17120000000E+03  0.17120000000E+03 0.  0.
         13    1    1    2    0    0 -0.16151013472E+02 -0.16602585214E+02  0.14001631592E+03  0.14191927621E+03  0.10566000000E+00 0. -1.
        994    1    1    2    0    0 -0.38373056679E+01  0.24532436896E+02  0.39466746121E+01  0.17303635923E+03  0.17120000000E+03 0.  0.
        998    1    1    2    0    0  0.19988319140E+02 -0.79298516814E+01  0.13560370058E+04  0.13562443646E+04  0.10000000000E+02 0. -1.
</event>
<event>
 5    1  0.1303633E-008  0.3728695E+03  0.7957747E-01  0.3482806E+00
         13   -1    0    0    0    0  0.00000000000E+00  0.00000000000E+00  0.14999999963E+04  0.15000000000E+04  0.10566000000E+00 0. -1.
        994   -1    0    0    0    0 -0.00000000000E+00 -0.00000000000E+00  0.11368683772E-12  0.17120000000E+03  0.17120000000E+03 0.  0.
         13    1    1    2    0    0 -0.44934616803E+02 -0.42339979258E+02  0.19492149821E+03  0.20446563344E+03  0.10566000000E+00 0. -1.
        994    1    1    2    0    0  0.65464263802E+02  0.41879110111E+02  0.28746328858E+02  0.19019784731E+03  0.17120000000E+03 0.  0.
        998    1    1    2    0    0 -0.20529646999E+02  0.46086914662E+00  0.12763321692E+04  0.12765365193E+04  0.10000000000E+02 0. -1.
</event>
<event>
 5    1  0.1303633E-008  0.3777027E+03  0.7957747E-01  0.3461223E+00
         13   -1    0    0    0    0  0.00000000000E+00  0.00000000000E+00  0.14999999963E+04  0.15000000000E+04  0.10566000000E+00 0. -1.
        994   -1    0    0    0    0 -0.00000000000E+00 -0.00000000000E+00  0.11368683772E-12  0.17120000000E+03  0.17120000000E+03 0.  0.
         13    1    1    2    0    0 -0.39372876269E+02  0.42275839423E+02  0.34641890286E+03  0.35120298605E+03  0.10566000000E+00 0. -1.
        994    1    1    2    0    0  0.74619352443E+01 -0.23500925005E+02  0.73480027204E+01  0.17312252048E+03  0.17120000000E+03 0.  0.
        998    1    1    2    0    0  0.31910941024E+02 -0.18774914418E+02  0.11462330907E+04  0.11468744935E+04  0.10000000000E+02 0. -1.
</event>
<event>
 5    1  0.1303633E-008  0.3757933E+03  0.7957747E-01  0.3469683E+00
         13   -1    0    0    0    0  0.00000000000E+00  0.00000000000E+00  0.14999999963E+04  0.15000000000E+04  0.10566000000E+00 0. -1.
        994   -1    0    0    0    0 -0.00000000000E+00 -0.00000000000E+00  0.11368683772E-12  0.17120000000E+03  0.17120000000E+03 0.  0.
         13    1    1    2    0    0 -0.18044419262E+03 -0.69200602763E+02  0.89067728927E+03  0.91140269632E+03  0.10566000000E+00 0. -1.
        994    1    1    2    0    0  0.18233352178E+03  0.71030715932E+02  0.14961822891E+03  0.29997654941E+03  0.17120000000E+03 0.  0.
        998    1    1    2    0    0 -0.18893291683E+01 -0.18301131684E+01  0.45970447810E+03  0.45982075428E+03  0.10000000000E+02 0.  0.
</event>
<event>
 5    1  0.1303633E-008  0.3811894E+03  0.7957747E-01  0.3445996E+00
         13   -1    0    0    0    0  0.00000000000E+00  0.00000000000E+00  0.14999999963E+04  0.15000000000E+04  0.10566000000E+00 0. -1.
        994   -1    0    0    0    0 -0.00000000000E+00 -0.00000000000E+00  0.11368683772E-12  0.17120000000E+03  0.17120000000E+03 0.  0.
         13    1    1    2    0    0 -0.84586023144E+01  0.23779510028E+02  0.86391799065E+02  0.90003150834E+02  0.10566000000E+00 0. -1.
        994    1    1    2    0    0  0.15052920408E+02 -0.17309001935E+02  0.52880178391E+01  0.17281086509E+03  0.17120000000E+03 0.  0.
        998    1    1    2    0    0 -0.65943180933E+01 -0.64705080930E+01  0.14083201794E+04  0.14083859841E+04  0.10000000000E+02 0. -1.
</event>
<event>
 5    1  0.1303633E-008  0.3820390E+03  0.7957747E-01  0.3442328E+00
         13   -1    0    0    0    0  0.00000000000E+00  0.00000000000E+00  0.14999999963E+04  0.15000000000E+04  0.10566000000E+00 0. -1.
        994   -1    0    0    0    0 -0.00000000000E+00 -0.00000000000E+00  0.11368683772E-12  0.17120000000E+03  0.17120000000E+03 0.  0.
         13    1    1    2    0    0  0.12968219278E+02 -0.50406175635E+01  0.30578670777E+02  0.33595368835E+02  0.10566000000E+00 0. -1.
        994    1    1    2    0    0 -0.45681232719E+01 -0.80407974426E+00  0.31788254672E+01  0.17129232098E+03  0.17120000000E+03 0.  0.
        998    1    1    2    0    0 -0.84000960057E+01  0.58446973078E+01  0.14662425000E+04  0.14663123102E+04  0.10000000000E+02 0. -1.
</event>
<event>
 5    1  0.1303633E-008  0.3703680E+03  0.7957747E-01  0.3494202E+00
         13   -1    0    0    0    0  0.00000000000E+00  0.00000000000E+00  0.14999999963E+04  0.15000000000E+04  0.10566000000E+00 0. -1.
        994   -1    0    0    0    0 -0.00000000000E+00 -0.00000000000E+00  0.11368683772E-12  0.17120000000E+03  0.17120000000E+03 0.  0.
         13    1    1    2    0    0 -0.44016761151E+01  0.42678754972E+02  0.10540985260E+03  0.11380728917E+03  0.10566000000E+00 0. -1.
        994    1    1    2    0    0 -0.23400546445E+00 -0.85275066572E+01  0.93282140566E+01  0.17166603830E+03  0.17120000000E+03 0.  0.
        998    1    1    2    0    0  0.46356815796E+01 -0.34151248315E+02  0.13852619296E+04  0.13857266725E+04  0.10000000000E+02 0. -1.
</event>
<event>
 5    1  0.1303633E-008  0.3818482E+03  0.7957747E-01  0.3443150E+00
         13   -1    0    0    0    0  0.00000000000E+00  0.00000000000E+00  0.14999999963E+04  0.15000000000E+04  0.10566000000E+00 0. -1.
        994   -1    0    0    0    0 -0.00000000000E+00 -0.00000000000E+00  0.11368683772E-12  0.17120000000E+03  0.17120000000E+03 0.  0.
         13    1    1    2    0    0 -0.16465094157E+02  0.11973818930E+02  0.62713089703E+02  0.65934925870E+02  0.10566000000E+00 0. -1.
        994    1    1    2    0    0  0.10412310527E+02 -0.13275778055E+02  0.41494959624E+01  0.17207940263E+03  0.17120000000E+03 0.  0.
        998    1    1    2    0    0  0.60527836290E+01  0.13019591252E+01  0.14331374106E+04  0.14331856715E+04  0.10000000000E+02 0. -1.
</event>
<event>
 5    1  0.1303633E-008  0.3838209E+03  0.7957747E-01  0.3434688E+00
         13   -1    0    0    0    0  0.00000000000E+00  0.00000000000E+00  0.14999999963E+04  0.15000000000E+04  0.10566000000E+00 0. -1.
        994   -1    0    0    0    0 -0.00000000000E+00 -0.00000000000E+00  0.11368683772E-12  0.17120000000E+03  0.17120000000E+03 0.  0.
         13    1    1    2    0    0 -0.16719848029E+02  0.13408476391E+02  0.97319081878E+02  0.99651168678E+02  0.10566000000E+00 0. -1.
        994    1    1    2    0    0  0.19853219136E+02 -0.10639494013E+02  0.38933510169E+01  0.17271927317E+03  0.17120000000E+03 0.  0.
        998    1    1    2    0    0 -0.31333711062E+01 -0.27689823777E+01  0.13987875634E+04  0.13988295582E+04  0.10000000000E+02 0. -1.
</event>
<event>
 5    1  0.1303633E-008  0.3757853E+03  0.7957747E-01  0.3469718E+00
         13   -1    0    0    0    0  0.00000000000E+00  0.00000000000E+00  0.14999999963E+04  0.15000000000E+04  0.10566000000E+00 0.  1.
        994   -1    0    0    0    0 -0.00000000000E+00 -0.00000000000E+00  0.11368683772E-12  0.17120000000E+03  0.17120000000E+03 0.  0.
         13    1    1    2    0    0 -0.46092016457E+02 -0.62897137161E+01  0.17892988736E+03  0.18487820379E+03  0.10566000000E+00 0.  1.
        994    1    1    2    0    0  0.18577283310E+02  0.18140120742E+01  0.74580701107E+01  0.17237595222E+03  0.17120000000E+03 0.  0.
        998    1    1    2    0    0  0.27514733147E+02  0.44757016419E+01  0.13136120388E+04  0.13139458440E+04  0.10000000000E+02 0.  1.
</event>
<event>
 5    1  0.1303633E-008  0.3772260E+03  0.7957747E-01  0.3463327E+00
         13   -1    0    0    0    0  0.00000000000E+00  0.00000000000E+00  0.14999999963E+04  0.15000000000E+04  0.10566000000E+00 0. -1.
        994   -1    0    0    0    0 -0.00000000000E+00 -0.00000000000E+00  0.11368683772E-12  0.17120000000E+03  0.17120000000E+03 0.  0.
         13    1    1    2    0    0 -0.76883004512E+01  0.10900498098E+02  0.13537223220E+02  0.19005220313E+02  0.10566000000E+00 0. -1.
        994    1    1    2    0    0  0.74169028748E+01 -0.97362090708E+01  0.60456458924E+01  0.17174339594E+03  0.17120000000E+03 0.  0.
        998    1    1    2    0    0  0.27139757641E+00 -0.11642890269E+01  0.14804171272E+04  0.14804513837E+04  0.10000000000E+02 0. -1.
</event>
<event>
 5    1  0.1303633E-008  0.3863044E+03  0.7957747E-01  0.3424159E+00
         13   -1    0    0    0    0  0.00000000000E+00  0.00000000000E+00  0.14999999963E+04  0.15000000000E+04  0.10566000000E+00 0.  1.
        994   -1    0    0    0    0 -0.00000000000E+00 -0.00000000000E+00  0.11368683772E-12  0.17120000000E+03  0.17120000000E+03 0.  0.
         13    1    1    2    0    0 -0.90590910496E-01 -0.12029781872E+02  0.72152398076E+02  0.73148503544E+02  0.10566000000E+00 0.  1.
        994    1    1    2    0    0  0.22584638997E+01  0.12208944973E+02  0.14889118949E+01  0.17165609763E+03  0.17120000000E+03 0.  0.
        998    1    1    2    0    0 -0.21678729892E+01 -0.17916310186E+00  0.14263586863E+04  0.14263953988E+04  0.10000000000E+02 0.  1.
</event>
<event>
 5    1  0.1303633E-008  0.2749442E+03  0.7957747E-01  0.4092906E+00
         13   -1    0    0    0    0  0.00000000000E+00  0.00000000000E+00  0.14999999963E+04  0.15000000000E+04  0.10566000000E+00 0.  1.
        994   -1    0    0    0    0 -0.00000000000E+00 -0.00000000000E+00  0.11368683772E-12  0.17120000000E+03  0.17120000000E+03 0.  0.
         13    1    1    2    0    0 -0.62130417583E+02 -0.15130140056E+03  0.51411402928E+03  0.53950491088E+03  0.10566000000E+00 0.  1.
        994    1    1    2    0    0  0.16900657959E+03  0.10665791930E+03  0.18321768154E+03  0.32065135977E+03  0.17120000000E+03 0.  0.
        998    1    1    2    0    0 -0.10687616201E+03  0.44643481265E+02  0.80266828546E+03  0.81104372935E+03  0.10000000000E+02 0.  1.
</event>
<event>
 5    1  0.1303633E-008  0.3823283E+03  0.7957747E-01  0.3441083E+00
         13   -1    0    0    0    0  0.00000000000E+00  0.00000000000E+00  0.14999999963E+04  0.15000000000E+04  0.10566000000E+00 0. -1.
        994   -1    0    0    0    0 -0.00000000000E+00 -0.00000000000E+00  0.11368683772E-12  0.17120000000E+03  0.17120000000E+03 0.  0.
         13    1    1    2    0    0  0.12982590604E+02 -0.16686499567E+02  0.86527524655E+02  0.89073063344E+02  0.10566000000E+00 0. -1.
        994    1    1    2    0    0  0.12861574463E+02 -0.64099253057E+01  0.36477735080E+01  0.17184077948E+03  0.17120000000E+03 0.  0.
        998    1    1    2    0    0 -0.25844165066E+02  0.23096424873E+02  0.14098246981E+04  0.14102861572E+04  0.10000000000E+02 0. -1.
</event>
<event>
 5    1  0.1303633E-008  0.3844010E+03  0.7957747E-01  0.3432216E+00
         13   -1    0    0    0    0  0.00000000000E+00  0.00000000000E+00  0.14999999963E+04  0.15000000000E+04  0.10566000000E+00 0.  1.
        994   -1    0    0    0    0 -0.00000000000E+00 -0.00000000000E+00  0.11368683772E-12  0.17120000000E+03  0.17120000000E+03 0.  0.
         13    1    1    2    0    0 -0.24637654297E+02  0.34091877849E+01  0.14956847757E+03  0.15162248256E+03  0.10566000000E+00 0.  1.
        994    1    1    2    0    0  0.22751977413E+02 -0.19823124575E+01  0.36483245493E+01  0.17275512239E+03  0.17120000000E+03 0.  0.
        998    1    1    2    0    0  0.18856768840E+01 -0.14268753274E+01  0.13467831942E+04  0.13468223951E+04  0.10000000000E+02 0.  1.
</event>
<event>
 5    1  0.1303633E-008  0.3696853E+03  0.7957747E-01  0.3497338E+00
         13   -1    0    0    0    0  0.00000000000E+00  0.00000000000E+00  0.14999999963E+04  0.15000000000E+04  0.10566000000E+00 0.  1.
        994   -1    0    0    0    0 -0.00000000000E+00 -0.00000000000E+00  0.11368683772E-12  0.17120000000E+03  0.17120000000E+03 0.  0.
         13    1    1    2    0    0 -0.53647466626E+01  0.13131368896E+02  0.43580535712E+01  0.14839715321E+02  0.10566000000E+00 0.  1.
        994    1    1    2    0    0  0.70582313846E+01 -0.13430060543E+02  0.11576747568E+02  0.17226040242E+03  0.17120000000E+03 0.  0.
        998    1    1    2    0    0 -0.16934847220E+01  0.29869164679E+00  0.14840651951E+04  0.14840998823E+04  0.10000000000E+02 0.  1.
</event>
<event>
 5    1  0.1303633E-008  0.3842824E+03  0.7957747E-01  0.3432721E+00
         13   -1    0    0    0    0  0.00000000000E+00  0.00000000000E+00  0.14999999963E+04  0.15000000000E+04  0.10566000000E+00 0.  1.
        994   -1    0    0    0    0 -0.00000000000E+00 -0.00000000000E+00  0.11368683772E-12  0.17120000000E+03  0.17120000000E+03 0.  0.
         13    1    1    2    0    0 -0.14042140078E+01 -0.14772004321E+02  0.58254570158E+02  0.60114807136E+02  0.10566000000E+00 0.  1.
        994    1    1    2    0    0  0.89063693382E+01 -0.11455454160E+01  0.22526551247E+01  0.17145013894E+03  0.17120000000E+03 0.  0.
        998    1    1    2    0    0 -0.75021553304E+01  0.15917549737E+02  0.14394927710E+04  0.14396350539E+04  0.10000000000E+02 0.  1.
</event>
<event>
 5    1  0.1303633E-008  0.3688491E+03  0.7957747E-01  0.3501197E+00
         13   -1    0    0    0    0  0.00000000000E+00  0.00000000000E+00  0.14999999963E+04  0.15000000000E+04  0.10566000000E+00 0.  1.
        994   -1    0    0    0    0 -0.00000000000E+00 -0.00000000000E+00  0.11368683772E-12  0.17120000000E+03  0.17120000000E+03 0.  0.
         13    1    1    2    0    0 -0.27451748566E+02 -0.94198740807E+02  0.46419659013E+03  0.47445282876E+03  0.10566000000E+00 0.  1.
        994    1    1    2    0    0  0.25296998485E+02  0.51536803654E+02  0.21897547889E+02  0.18189261356E+03  0.17120000000E+03 0.  0.
        998    1    1    2    0    0  0.21547500813E+01  0.42661937153E+02  0.10139058583E+04  0.10148545577E+04  0.10000000000E+02 0.  1.
</event>
<event>
 5    1  0.1303633E-008  0.3857230E+03  0.7957747E-01  0.3426612E+00
         13   -1    0    0    0    0  0.00000000000E+00  0.00000000000E+00  0.14999999963E+04  0.15000000000E+04  0.10566000000E+00 0.  1.
        994   -1    0    0    0    0 -0.00000000000E+00 -0.00000000000E+00  0.11368683772E-12  0.17120000000E+03  0.17120000000E+03 0.  0.
         13    1    1    2    0    0  0.96531120987E+01  0.63199089384E+01  0.54818173691E+02  0.56019346239E+02  0.10566000000E+00 0.  1.
        994    1    1    2    0    0 -0.25690337046E+01  0.48108993655E+00  0.12940313144E+01  0.17122484019E+03  0.17120000000E+03 0.  0.
        998    1    1    2    0    0 -0.70840783942E+01 -0.68009988749E+01  0.14438877913E+04  0.14439558136E+04  0.10000000000E+02 0.  1.
</event>
<event>
 5    1  0.1303633E-008  0.3751075E+03  0.7957747E-01  0.3472742E+00
         13   -1    0    0    0    0  0.00000000000E+00  0.00000000000E+00  0.14999999963E+04  0.15000000000E+04  0.10566000000E+00 0.  1.
        994   -1    0    0    0    0 -0.00000000000E+00 -0.00000000000E+00  0.11368683772E-12  0.17120000000E+03  0.17120000000E+03 0.  0.
         13    1    1    2    0    0 -0.27754145264E+02 -0.18973480220E+02  0.87777116404E+02  0.93995312964E+02  0.10566000000E+00 0.  1.
        994    1    1    2    0    0  0.38930029656E+01  0.62149320398E+01  0.68063263775E+01  0.17149211915E+03  0.17120000000E+03 0.  0.
        998    1    1    2    0    0  0.23861142299E+02  0.12758548180E+02  0.14054165535E+04  0.14057125679E+04  0.10000000000E+02 0.  1.
</event>
<event>
 5    1  0.1303633E-008  0.3863388E+03  0.7957747E-01  0.3424014E+00
         13   -1    0    0    0    0  0.00000000000E+00  0.00000000000E+00  0.14999999963E+04  0.15000000000E+04  0.10566000000E+00 0.  1.
        994   -1    0    0    0    0 -0.00000000000E+00 -0.00000000000E+00  0.11368683772E-12  0.17120000000E+03  0.17120000000E+03 0.  0.
         13    1    1    2    0    0  0.67671535169E+01 -0.83195820295E+01  0.57805975847E+02  0.58792446960E+02  0.10566000000E+00 0.  1.
        994    1    1    2    0    0 -0.96308090389E+01  0.93085259872E+01  0.15545481178E+01  0.17173018884E+03  0.17120000000E+03 0.  0.
        998    1    1    2    0    0  0.28636555220E+01 -0.98894395773E+00  0.14406394723E+04  0.14406773642E+04  0.10000000000E+02 0.  1.
</event>
<event>
 5    1  0.1303633E-008  0.3856136E+03  0.7957747E-01  0.3427074E+00
         13   -1    0    0    0    0  0.00000000000E+00  0.00000000000E+00  0.14999999963E+04  0.15000000000E+04  0.10566000000E+00 0.  1.
        994   -1    0    0    0    0 -0.00000000000E+00 -0.00000000000E+00  0.11368683772E-12  0.17120000000E+03  0.17120000000E+03 0.  0.
         13    1    1    2    0    0 -0.26387851769E+01 -0.11564514584E+02  0.49441422497E+02  0.50844533702E+02  0.10566000000E+00 0.  1.
        994    1    1    2    0    0  0.11258694307E+02  0.18683934559E+02  0.28891402502E+01  0.17260832755E+03  0.17120000000E+03 0.  0.
        998    1    1    2    0    0 -0.86199091302E+01 -0.71194199752E+01  0.14476694335E+04  0.14477471387E+04  0.10000000000E+02 0.  1.
</event>
<event>
 5    1  0.1303633E-008  0.3801099E+03  0.7957747E-01  0.3450680E+00
         13   -1    0    0    0    0  0.00000000000E+00  0.00000000000E+00  0.14999999963E+04  0.15000000000E+04  0.10566000000E+00 0.  1.
        994   -1    0    0    0    0 -0.00000000000E+00 -0.00000000000E+00  0.11368683772E-12  0.17120000000E+03  0.17120000000E+03 0.  0.
         13    1    1    2    0    0  0.25545796566E+02  0.21880027682E+02  0.14828109150E+03  0.15204807330E+03  0.10566000000E+00 0.  1.
        994    1    1    2    0    0 -0.79556459144E+01 -0.28293262469E+01  0.43159823417E+01  0.17146243056E+03  0.17120000000E+03 0.  0.
        998    1    1    2    0    0 -0.17590150651E+02 -0.19050701435E+02  0.13474029224E+04  0.13476894961E+04  0.10000000000E+02 0.  1.
</event>
<event>
 5    1  0.1303633E-008  0.3844996E+03  0.7957747E-01  0.3431797E+00
         13   -1    0    0    0    0  0.00000000000E+00  0.00000000000E+00  0.14999999963E+04  0.15000000000E+04  0.10566000000E+00 0. -1.
        994   -1    0    0    0    0 -0.00000000000E+00 -0.00000000000E+00  0.11368683772E-12  0.17120000000E+03  0.17120000000E+03 0.  0.
         13    1    1    2    0    0  0.11498801427E+02 -0.48269305987E+00  0.39807585029E+02  0.41438031043E+02  0.10566000000E+00 0. -1.
        994    1    1    2    0    0  0.19730036324E+02 -0.13885865620E+01  0.31684490535E+01  0.17236786700E+03  0.17120000000E+03 0.  0.
        998    1    1    2    0    0 -0.31228837751E+02  0.18712796219E+01  0.14570239622E+04  0.14573941020E+04  0.10000000000E+02 0. -1.
</event>
<event>
 5    1  0.1303633E-008  0.3787565E+03  0.7957747E-01  0.3456591E+00
         13   -1    0    0    0    0  0.00000000000E+00  0.00000000000E+00  0.14999999963E+04  0.15000000000E+04  0.10566000000E+00 0. -1.
        994   -1    0    0    0    0 -0.00000000000E+00 -0.00000000000E+00  0.11368683772E-12  0.17120000000E+03  0.17120000000E+03 0.  0.
         13    1    1    2    0    0 -0.51420863465E+01  0.10613743299E+02  0.12428032366E+02  0.17133585478E+02  0.10566000000E+00 0. -1.
        994    1    1    2    0    0  0.62973191479E+01 -0.94349391884E+01  0.51941922458E+01  0.17165399482E+03  0.17120000000E+03 0.  0.
        998    1    1    2    0    0 -0.11552328014E+01 -0.11788041108E+01  0.14823777717E+04  0.14824124197E+04  0.10000000000E+02 0. -1.
</event>
<event>
 5    1  0.1303633E-008  0.3849344E+03  0.7957747E-01  0.3429951E+00
         13   -1    0    0    0    0  0.00000000000E+00  0.00000000000E+00  0.14999999963E+04  0.15000000000E+04  0.10566000000E+00 0.  1.
        994   -1    0    0    0    0 -0.00000000000E+00 -0.00000000000E+00  0.11368683772E-12  0.17120000000E+03  0.17120000000E+03 0.  0.
         13    1    1    2    0    0  0.82227884093E+00 -0.13877499889E+02  0.56416772720E+02  0.58104428006E+02  0.10566000000E+00 0.  1.
        994    1    1    2    0    0  0.10363214392E+01  0.14262285568E+02  0.23356473442E+01  0.17181205429E+03  0.17120000000E+03 0.  0.
        998    1    1    2    0    0 -0.18586002802E+01 -0.38478567834E+00  0.14412475762E+04  0.14412835177E+04  0.10000000000E+02 0.  1.
</event>
<event>
 5    1  0.1303633E-008  0.3909001E+03  0.7957747E-01  0.3405028E+00
         13   -1    0    0    0    0  0.00000000000E+00  0.00000000000E+00  0.14999999963E+04  0.15000000000E+04  0.10566000000E+00 0. -1.
        994   -1    0    0    0    0 -0.00000000000E+00 -0.00000000000E+00  0.11368683772E-12  0.17120000000E+03  0.17120000000E+03 0.  0.
         13    1    1    2    0    0 -0.10992932099E+02 -0.24619752864E+02  0.67156311666E+01  0.27786465288E+02  0.10566000000E+00 0. -1.
        994    1    1    2    0    0  0.10763382736E+02  0.16147106079E+02  0.23871431281E+02  0.17394213024E+03  0.17120000000E+03 0.  0.
        998    1    1    2    0    0  0.22954936238E+00  0.84726467846E+01  0.14694129338E+04  0.14694714045E+04  0.10000000000E+02 0. -1.
</event>
<event>
 5    1  0.1303633E-008  0.3754136E+03  0.7957747E-01  0.3471375E+00
         13   -1    0    0    0    0  0.00000000000E+00  0.00000000000E+00  0.14999999963E+04  0.15000000000E+04  0.10566000000E+00 0.  1.
        994   -1    0    0    0    0 -0.00000000000E+00 -0.00000000000E+00  0.11368683772E-12  0.17120000000E+03  0.17120000000E+03 0.  0.
         13    1    1    2    0    0 -0.54313521150E+02 -0.37669792156E+02  0.28616449283E+03  0.29369899547E+03  0.10566000000E+00 0.  1.
        994    1    1    2    0    0  0.49065425681E+02  0.33998226902E+02  0.18659547341E+02  0.18226605317E+03  0.17120000000E+03 0.  0.
        998    1    1    2    0    0  0.52480954690E+01  0.36715652539E+01  0.11951759561E+04  0.11952349514E+04  0.10000000000E+02 0.  1.
</event>
<event>
 5    1  0.1303633E-008  0.3838930E+03  0.7957747E-01  0.3434381E+00
         13   -1    0    0    0    0  0.00000000000E+00  0.00000000000E+00  0.14999999963E+04  0.15000000000E+04  0.10566000000E+00 0.  1.
        994   -1    0    0    0    0 -0.00000000000E+00 -0.00000000000E+00  0.11368683772E-12  0.17120000000E+03  0.17120000000E+03 0.  0.
         13    1    1    2    0    0 -0.27053672234E+01  0.16329020708E+02  0.66342757371E+02  0.68376374200E+02  0.10566000000E+00 0.  1.
        994    1    1    2    0    0 -0.14154655055E+02 -0.23218036592E+01  0.28600900471E+01  0.17182364548E+03  0.17120000000E+03 0.  0.
        998    1    1    2    0    0  0.16860022278E+02 -0.14007217049E+02  0.14307971489E+04  0.14309999803E+04  0.10000000000E+02 0.  1.
</event>
<event>
 5    1  0.1303633E-008  0.3835174E+03  0.7957747E-01  0.3435984E+00
         13   -1    0    0    0    0  0.00000000000E+00  0.00000000000E+00  0.14999999963E+04  0.15000000000E+04  0.10566000000E+00 0. -1.
        994   -1    0    0    0    0 -0.00000000000E+00 -0.00000000000E+00  0.11368683772E-12  0.17120000000E+03  0.17120000000E+03 0.  0.
         13    1    1    2    0    0  0.13522026906E+02 -0.67655916921E+01  0.47779546309E+02  0.50115014239E+02  0.10566000000E+00 0. -1.
        994    1    1    2    0    0 -0.11003264783E+02 -0.10043387263E+01  0.27715322362E+01  0.17157855904E+03  0.17120000000E+03 0.  0.
        998    1    1    2    0    0 -0.25187621227E+01  0.77699304183E+01  0.14494489177E+04  0.14495064267E+04  0.10000000000E+02 0. -1.
</event>
<event>
 5    1  0.1303633E-008  0.3781094E+03  0.7957747E-01  0.3459432E+00
         13   -1    0    0    0    0  0.00000000000E+00  0.00000000000E+00  0.14999999963E+04  0.15000000000E+04  0.10566000000E+00 0.  1.
        994   -1    0    0    0    0 -0.00000000000E+00 -0.00000000000E+00  0.11368683772E-12  0.17120000000E+03  0.17120000000E+03 0.  0.
         13    1    1    2    0    0  0.40375086175E+02 -0.63497975769E+01  0.16522820208E+03  0.17020821790E+03  0.10566000000E+00 0.  1.
        994    1    1    2    0    0 -0.18497039288E+02  0.19188168576E+02  0.74837339740E+01  0.17342367932E+03  0.17120000000E+03 0.  0.
        998    1    1    2    0    0 -0.21878046887E+02 -0.12838370999E+02  0.13272880602E+04  0.13275681028E+04  0.10000000000E+02 0.  1.
</event>
<event>
 5    1  0.1303633E-008  0.3702727E+03  0.7957747E-01  0.3494639E+00
         13   -1    0    0    0    0  0.00000000000E+00  0.00000000000E+00  0.14999999963E+04  0.15000000000E+04  0.10566000000E+00 0. -1.
        994   -1    0    0    0    0 -0.00000000000E+00 -0.00000000000E+00  0.11368683772E-12  0.17120000000E+03  0.17120000000E+03 0.  0.
         13    1    1    2    0    0 -0.26821537765E+02 -0.12350355560E+02  0.44012588883E+02  0.53000427496E+02  0.10566000000E+00 0. -1.
        994    1    1    2    0    0  0.20307034878E+02  0.70065376112E+01  0.10722307354E+02  0.17287531666E+03  0.17120000000E+03 0.  0.
        998    1    1    2    0    0  0.65145028869E+01  0.53438179489E+01  0.14452651000E+04  0.14453242558E+04  0.10000000000E+02 0. -1.
</event>
<event>
 5    1  0.1303633E-008  0.2882761E+03  0.7957747E-01  0.3983443E+00
         13   -1    0    0    0    0  0.00000000000E+00  0.00000000000E+00  0.14999999963E+04  0.15000000000E+04  0.10566000000E+00 0. -1.
        994   -1    0    0    0    0 -0.00000000000E+00 -0.00000000000E+00  0.11368683772E-12  0.17120000000E+03  0.17120000000E+03 0.  0.
         13    1    1    2    0    0 -0.20958773489E+03 -0.94337511379E+02  0.43619522180E+03  0.49304448821E+03  0.10566000000E+00 0. -1.
        994    1    1    2    0    0  0.18795034718E+03  0.10183963462E+03  0.27212155384E+03  0.38607800281E+03  0.17120000000E+03 0.  0.
        998    1    1    2    0    0  0.21637387708E+02 -0.75021232367E+01  0.79168322064E+03  0.79207750898E+03  0.10000000000E+02 0. -1.
</event>
<event>
 5    1  0.1303633E-008  0.3813520E+03  0.7957747E-01  0.3445292E+00
         13   -1    0    0    0    0  0.00000000000E+00  0.00000000000E+00  0.14999999963E+04  0.15000000000E+04  0.10566000000E+00 0.  1.
        994   -1    0    0    0    0 -0.00000000000E+00 -0.00000000000E+00  0.11368683772E-12  0.17120000000E+03  0.17120000000E+03 0.  0.
         13    1    1    2    0    0  0.24394760992E+02 -0.17842563053E+02  0.13472342709E+03  0.13807198989E+03  0.10566000000E+00 0.  1.
        994    1    1    2    0    0 -0.10555359538E+02  0.91057729207E+01  0.40992018947E+01  0.17181552366E+03  0.17120000000E+03 0.  0.
        998    1    1    2    0    0 -0.13839401454E+02  0.87367901318E+01  0.13611773673E+04  0.13613124864E+04  0.10000000000E+02 0.  1.
</event>
<event>
 5    1  0.1303633E-008  0.3816182E+03  0.7957747E-01  0.3444142E+00
         13   -1    0    0    0    0  0.00000000000E+00  0.00000000000E+00  0.14999999963E+04  0.15000000000E+04  0.10566000000E+00 0. -1.
        994   -1    0    0    0    0 -0.00000000000E+00 -0.00000000000E+00  0.11368683772E-12  0.17120000000E+03  0.17120000000E+03 0.  0.
         13    1    1    2    0    0 -0.42395063200E+01  0.85391538933E+02  0.46834144888E+03  0.47608130843E+03  0.10566000000E+00 0. -1.
        994    1    1    2    0    0  0.33694291847E+02 -0.12160639118E+03  0.58212835498E+02  0.22050304736E+03  0.17120000000E+03 0.  0.
        998    1    1    2    0    0 -0.29454785527E+02  0.36214852248E+02  0.97344571190E+03  0.97461564421E+03  0.10000000000E+02 0. -1.
</event>
<event>
 5    1  0.1303633E-008  0.3853308E+03  0.7957747E-01  0.3428271E+00
         13   -1    0    0    0    0  0.00000000000E+00  0.00000000000E+00  0.14999999963E+04  0.15000000000E+04  0.10566000000E+00 0. -1.
        994   -1    0    0    0    0 -0.00000000000E+00 -0.00000000000E+00  0.11368683772E-12  0.17120000000E+03  0.17120000000E+03 0.  0.
         13    1    1    2    0    0  0.10543239409E+02  0.28383077337E+01  0.49623155504E+02  0.50810280596E+02  0.10566000000E+00 0. -1.
        994    1    1    2    0    0  0.23446274509E+02  0.10398405899E+02  0.36301214998E+01  0.17314870030E+03  0.17120000000E+03 0.  0.
        998    1    1    2    0    0 -0.33989513917E+02 -0.13236713632E+02  0.14467467193E+04  0.14472410191E+04  0.10000000000E+02 0. -1.
</event>
<event>
 5    1  0.1303633E-008  0.3778559E+03  0.7957747E-01  0.3460548E+00
         13   -1    0    0    0    0  0.00000000000E+00  0.00000000000E+00  0.14999999963E+04  0.15000000000E+04  0.10566000000E+00 0. -1.
        994   -1    0    0    0    0 -0.00000000000E+00 -0.00000000000E+00  0.11368683772E-12  0.17120000000E+03  0.17120000000E+03 0.  0.
         13    1    1    2    0    0  0.23779853965E+02  0.23434599176E+00  0.53816052851E+02  0.58836341500E+02  0.10566000000E+00 0. -1.
        994    1    1    2    0    0 -0.68031534889E+01  0.46986605710E+01  0.54495952398E+01  0.17148614637E+03  0.17120000000E+03 0.  0.
        998    1    1    2    0    0 -0.16976700476E+02 -0.49330065627E+01  0.14407343482E+04  0.14408775121E+04  0.10000000000E+02 0. -1.
</event>
<event>
 5    1  0.1303633E-008  0.3710238E+03  0.7957747E-01  0.3491199E+00
         13   -1    0    0    0    0  0.00000000000E+00  0.00000000000E+00  0.14999999963E+04  0.15000000000E+04  0.10566000000E+00 0. -1.
        994   -1    0    0    0    0 -0.00000000000E+00 -0.00000000000E+00  0.11368683772E-12  0.17120000000E+03  0.17120000000E+03 0.  0.
         13    1    1    2    0    0  0.78022827635E+02  0.56748789105E+02  0.52203465227E+03  0.53087491562E+03  0.10566000000E+00 0. -1.
        994    1    1    2    0    0 -0.63067326138E+02 -0.13388625230E+02  0.23196031247E+02  0.18440238279E+03  0.17120000000E+03 0.  0.
        998    1    1    2    0    0 -0.14955501497E+02 -0.43360163875E+02  0.95476931276E+03  0.95592270159E+03  0.10000000000E+02 0. -1.
</event>
<event>
 5    1  0.1303633E-008  0.3814526E+03  0.7957747E-01  0.3444858E+00
         13   -1    0    0    0    0  0.00000000000E+00  0.00000000000E+00  0.14999999963E+04  0.15000000000E+04  0.10566000000E+00 0. -1.
        994   -1    0    0    0    0 -0.00000000000E+00 -0.00000000000E+00  0.11368683772E-12  0.17120000000E+03  0.17120000000E+03 0.  0.
         13    1    1    2    0    0 -0.35206176637E+02 -0.28683960824E+01  0.14287471185E+03  0.14717641462E+03  0.10566000000E+00 0. -1.
        994    1    1    2    0    0  0.58410518801E+02  0.15539707007E+01  0.14845011349E+02  0.18150487016E+03  0.17120000000E+03 0.  0.
        998    1    1    2    0    0 -0.23204342164E+02  0.13144253818E+01  0.13422802731E+04  0.13425187152E+04  0.10000000000E+02 0. -1.
</event>
<event>
 5    1  0.1410255E-008  0.3860416E+03  0.7957747E-01  0.3425267E+00
         13   -1    0    0    0    0  0.00000000000E+00  0.00000000000E+00  0.14999999963E+04  0.15000000000E+04  0.10566000000E+00 0.  1.
        994   -1    0    0    0    0 -0.00000000000E+00 -0.00000000000E+00  0.11368683772E-12  0.17120000000E+03  0.17120000000E+03 0.  0.
         13    1    1    2    0    0 -0.76614297498E+01 -0.82443779092E+01  0.58615901933E+02  0.59686702006E+02  0.10566000000E+00 0.  1.
        994    1    1    2    0    0  0.46084816229E+01  0.26286719157E+01  0.12061329204E+01  0.17128643488E+03  0.17120000000E+03 0.  0.
        998    1    1    2    0    0  0.30529481270E+01  0.56157059935E+01  0.14401779614E+04  0.14402268631E+04  0.10000000000E+02 0.  1.
</event>
<event>
 5    1  0.1303633E-008  0.3785911E+03  0.7957747E-01  0.3457316E+00
         13   -1    0    0    0    0  0.00000000000E+00  0.00000000000E+00  0.14999999963E+04  0.15000000000E+04  0.10566000000E+00 0.  1.
        994   -1    0    0    0    0 -0.00000000000E+00 -0.00000000000E+00  0.11368683772E-12  0.17120000000E+03  0.17120000000E+03 0.  0.
         13    1    1    2    0    0  0.31082893416E+02 -0.23476600559E+02  0.14874859985E+03  0.15376428116E+03  0.10566000000E+00 0.  1.
        994    1    1    2    0    0 -0.15215606559E+02  0.29671426142E+02  0.85895003535E+01  0.17462854214E+03  0.17120000000E+03 0.  0.
        998    1    1    2    0    0 -0.15867286857E+02 -0.61948255829E+01  0.13426618961E+04  0.13428071767E+04  0.10000000000E+02 0.  1.
</event>
<event>
 5    1  0.1303633E-008  0.3826865E+03  0.7957747E-01  0.3439544E+00
         13   -1    0    0    0    0  0.00000000000E+00  0.00000000000E+00  0.14999999963E+04  0.15000000000E+04  0.10566000000E+00 0. -1.
        994   -1    0    0    0    0 -0.00000000000E+00 -0.00000000000E+00  0.11368683772E-12  0.17120000000E+03  0.17120000000E+03 0.  0.
         13    1    1    2    0    0  0.34884599408E+01  0.18450376149E+02  0.63161039888E+02  0.65893200382E+02  0.10566000000E+00 0. -1.
        994    1    1    2    0    0  0.60198552297E+00 -0.10249791165E+02  0.31325341018E+01  0.17153621593E+03  0.17120000000E+03 0.  0.
        998    1    1    2    0    0 -0.40904454638E+01 -0.82005849839E+01  0.14337064223E+04  0.14337705837E+04  0.10000000000E+02 0. -1.
</event>
<event>
 5    1  0.1303633E-008  0.3829391E+03  0.7957747E-01  0.3438460E+00
         13   -1    0    0    0    0  0.00000000000E+00  0.00000000000E+00  0.14999999963E+04  0.15000000000E+04  0.10566000000E+00 0. -1.
        994   -1    0    0    0    0 -0.00000000000E+00 -0.00000000000E+00  0.11368683772E-12  0.17120000000E+03  0.17120000000E+03 0.  0.
         13    1    1    2    0    0  0.10598927849E+02  0.13098625772E+01  0.21746587997E+02  0.24227634327E+02  0.10566000000E+00 0. -1.
        994    1    1    2    0    0  0.11990149184E+02 -0.39539112636E+01  0.31846938580E+01  0.17169443604E+03  0.17120000000E+03 0.  0.
        998    1    1    2    0    0 -0.22589077033E+02  0.26440486863E+01  0.14750687144E+04  0.14752779296E+04  0.10000000000E+02 0. -1.
</event>
<event>
 5    1  0.1303633E-008  0.3840868E+03  0.7957747E-01  0.3433554E+00
         13   -1    0    0    0    0  0.00000000000E+00  0.00000000000E+00  0.14999999963E+04  0.15000000000E+04  0.10566000000E+00 0. -1.
        994   -1    0    0    0    0 -0.00000000000E+00 -0.00000000000E+00  0.11368683772E-12  0.17120000000E+03  0.17120000000E+03 0.  0.
         13    1    1    2    0    0  0.13149011221E+02  0.33427544978E+01  0.44086565084E+02  0.46127073272E+02  0.10566000000E+00 0. -1.
        994    1    1    2    0    0 -0.82596351417E+01  0.32748227933E+01  0.23446328804E+01  0.17144644453E+03  0.17120000000E+03 0.  0.
        998    1    1    2    0    0 -0.48893760794E+01 -0.66175772910E+01  0.14535687983E+04  0.14536264822E+04  0.10000000000E+02 0. -1.
</event>
<event>
 5    1  0.1303633E-008  0.3766565E+03  0.7957747E-01  0.3465847E+00
         13   -1    0    0    0    0  0.00000000000E+00  0.00000000000E+00  0.14999999963E+04  0.15000000000E+04  0.10566000000E+00 0.  1.
        994   -1    0    0    0    0 -0.00000000000E+00 -0.00000000000E+00  0.11368683772E-12  0.17120000000E+03  0.17120000000E+03 0.  0.
         13    1    1    2    0    0 -0.12156722789E+03  0.54242750997E+01  0.62842219003E+03  0.64009567546E+03  0.10566000000E+00 0.  1.
        994    1    1    2    0    0  0.12949845560E+03 -0.34769209049E+01  0.64845073441E+02  0.22426828249E+03  0.17120000000E+03 0.  0.
        998    1    1    2    0    0 -0.79312277135E+01 -0.19473541948E+01  0.80673273281E+03  0.80683604205E+03  0.10000000000E+02 0.  1.
</event>
<event>
 5    1  0.1303633E-008  0.3837624E+03  0.7957747E-01  0.3434938E+00
         13   -1    0    0    0    0  0.00000000000E+00  0.00000000000E+00  0.14999999963E+04  0.15000000000E+04  0.10566000000E+00 0. -1.
        994   -1    0    0    0    0 -0.00000000000E+00 -0.00000000000E+00  0.11368683772E-12  0.17120000000E+03  0.17120000000E+03 0.  0.
         13    1    1    2    0    0 -0.16641251047E+02 -0.19024303596E+01  0.61172511539E+02  0.63424268302E+02  0.10566000000E+00 0. -1.
        994    1    1    2    0    0  0.13004079233E+02  0.31812909696E+01  0.28378390935E+01  0.17174609172E+03  0.17120000000E+03 0.  0.
        998    1    1    2    0    0  0.36371718143E+01 -0.12788606100E+01  0.14359896456E+04  0.14360296400E+04  0.10000000000E+02 0.  0.
</event>
<event>
 5    1  0.1303633E-008  0.3813193E+03  0.7957747E-01  0.3445434E+00
         13   -1    0    0    0    0  0.00000000000E+00  0.00000000000E+00  0.14999999963E+04  0.15000000000E+04  0.10566000000E+00 0.  1.
        994   -1    0    0    0    0 -0.00000000000E+00 -0.00000000000E+00  0.11368683772E-12  0.17120000000E+03  0.17120000000E+03 0.  0.
         13    1    1    2    0    0 -0.74013155065E+01 -0.28515644329E+02  0.12088902992E+03  0.12442704755E+03  0.10566000000E+00 0.  1.
        994    1    1    2    0    0 -0.16681632705E+01  0.23018823787E+02  0.52435284260E+01  0.17282819101E+03  0.17120000000E+03 0.  0.
        998    1    1    2    0    0  0.90694787770E+01  0.54968205415E+01  0.13738674379E+04  0.13739447614E+04  0.10000000000E+02 0.  1.
</event>
<event>
 5    1  0.1303633E-008  0.3830930E+03  0.7957747E-01  0.3437800E+00
         13   -1    0    0    0    0  0.00000000000E+00  0.00000000000E+00  0.14999999963E+04  0.15000000000E+04  0.10566000000E+00 0.  1.
        994   -1    0    0    0    0 -0.00000000000E+00 -0.00000000000E+00  0.11368683772E-12  0.17120000000E+03  0.17120000000E+03 0.  0.
         13    1    1    2    0    0  0.29569371562E+02  0.23846096519E+02  0.22491764177E+03  0.22810291712E+03  0.10566000000E+00 0.  1.
        994    1    1    2    0    0 -0.32820955856E+02 -0.30662985435E+02  0.92846543313E+01  0.17723735110E+03  0.17120000000E+03 0.  0.
        998    1    1    2    0    0  0.32515842941E+01  0.68168889155E+01  0.12657977002E+04  0.12658597318E+04  0.10000000000E+02 0.  1.
</event>
<event>
 5    1  0.1303633E-008  0.3816512E+03  0.7957747E-01  0.3444000E+00
         13   -1    0    0    0    0  0.00000000000E+00  0.00000000000E+00  0.14999999963E+04  0.15000000000E+04  0.10566000000E+00 0. -1.
        994   -1    0    0    0    0 -0.00000000000E+00 -0.00000000000E+00  0.11368683772E-12  0.17120000000E+03  0.17120000000E+03 0.  0.
         13    1    1    2    0    0  0.90107676362E+01 -0.13772037870E+02  0.40336812439E+02  0.43565267843E+02  0.10566000000E+00 0. -1.
        994    1    1    2    0    0 -0.14291376627E+02 -0.22902094186E+00  0.39814586406E+01  0.17184175252E+03  0.17120000000E+03 0.  0.
        998    1    1    2    0    0  0.52806089905E+01  0.14001058812E+02  0.14556817252E+04  0.14557929796E+04  0.10000000000E+02 0. -1.
</event>
<event>
 5    1  0.1303633E-008  0.3854193E+03  0.7957747E-01  0.3427896E+00
         13   -1    0    0    0    0  0.00000000000E+00  0.00000000000E+00  0.14999999963E+04  0.15000000000E+04  0.10566000000E+00 0. -1.
        994   -1    0    0    0    0 -0.00000000000E+00 -0.00000000000E+00  0.11368683772E-12  0.17120000000E+03  0.17120000000E+03 0.  0.
         13    1    1    2    0    0  0.81991461708E+01  0.13132829310E+02  0.72850493703E+02  0.74477532185E+02  0.10566000000E+00 0. -1.
        994    1    1    2    0    0 -0.27113777046E+02 -0.20641788777E+02  0.52451336991E+01  0.17463731496E+03  0.17120000000E+03 0.  0.
        998    1    1    2    0    0  0.18914630875E+02  0.75089594667E+01  0.14219043689E+04  0.14220851529E+04  0.10000000000E+02 0. -1.
</event>
<event>
 5    1  0.1303633E-008  0.3779841E+03  0.7957747E-01  0.3459983E+00
         13   -1    0    0    0    0  0.00000000000E+00  0.00000000000E+00  0.14999999963E+04  0.15000000000E+04  0.10566000000E+00 0.  1.
        994   -1    0    0    0    0 -0.00000000000E+00 -0.00000000000E+00  0.11368683772E-12  0.17120000000E+03  0.17120000000E+03 0.  0.
         13    1    1    2    0    0 -0.90901279796E+02  0.16546875533E+02  0.53357572774E+03  0.54151630645E+03  0.10566000000E+00 0.  1.
        994    1    1    2    0    0  0.91633111337E+02 -0.69289020131E+01  0.34121439766E+02  0.19727734140E+03  0.17120000000E+03 0.  0.
        998    1    1    2    0    0 -0.73183154063E+00 -0.96179735204E+01  0.93230282878E+03  0.93240635215E+03  0.10000000000E+02 0.  0.
</event>
<event>
 5    1  0.1303633E-008  0.3024297E+03  0.7957747E-01  0.3878824E+00
         13   -1    0    0    0    0  0.00000000000E+00  0.00000000000E+00  0.14999999963E+04  0.15000000000E+04  0.10566000000E+00 0.  1.
        994   -1    0    0    0    0 -0.00000000000E+00 -0.00000000000E+00  0.11368683772E-12  0.17120000000E+03  0.17120000000E+03 0.  0.
         13    1    1    2    0    0 -0.61001918737E+02  0.16818219315E+03  0.92805645516E+03  0.94514299411E+03  0.10566000000E+00 0.  1.
        994    1    1    2    0    0  0.10590965523E+02 -0.41487576343E+02  0.45632688096E+02  0.18227772701E+03  0.17120000000E+03 0.  0.
        998    1    1    2    0    0  0.50410953214E+02 -0.12669461681E+03  0.52631085302E+03  0.54377927888E+03  0.10000000000E+02 0.  1.
</event>
<event>
 5    1  0.1303633E-008  0.3853209E+03  0.7957747E-01  0.3428312E+00
         13   -1    0    0    0    0  0.00000000000E+00  0.00000000000E+00  0.14999999963E+04  0.15000000000E+04  0.10566000000E+00 0. -1.
        994   -1    0    0    0    0 -0.00000000000E+00 -0.00000000000E+00  0.11368683772E-12  0.17120000000E+03  0.17120000000E+03 0.  0.
         13    1    1    2    0    0 -0.81722345903E+01  0.12181909295E+02  0.71413385465E+02  0.72904506855E+02  0.10566000000E+00 0. -1.
        994    1    1    2    0    0  0.58477401985E+01 -0.12427558761E+02  0.20908613922E+01  0.17176277822E+03  0.17120000000E+03 0.  0.
        998    1    1    2    0    0  0.23244943918E+01  0.24564946647E+00  0.14264957494E+04  0.14265327149E+04  0.10000000000E+02 0.  0.
</event>
<event>
 5    1  0.1303633E-008  0.3777252E+03  0.7957747E-01  0.3461124E+00
         13   -1    0    0    0    0  0.00000000000E+00  0.00000000000E+00  0.14999999963E+04  0.15000000000E+04  0.10566000000E+00 0.  1.
        994   -1    0    0    0    0 -0.00000000000E+00 -0.00000000000E+00  0.11368683772E-12  0.17120000000E+03  0.17120000000E+03 0.  0.
         13    1    1    2    0    0  0.27335479671E+02 -0.15831799841E+01  0.76603055571E+02  0.81349703101E+02  0.10566000000E+00 0.  1.
        994    1    1    2    0    0  0.96294739108E+01  0.34361262734E+02  0.95870846231E+01  0.17514215751E+03  0.17120000000E+03 0.  0.
        998    1    1    2    0    0 -0.36964953582E+02 -0.32778082750E+02  0.14138098561E+04  0.14147081394E+04  0.10000000000E+02 0.  1.
</event>
<event>
 5    1  0.1303633E-008  0.3844972E+03  0.7957747E-01  0.3431808E+00
         13   -1    0    0    0    0  0.00000000000E+00  0.00000000000E+00  0.14999999963E+04  0.15000000000E+04  0.10566000000E+00 0. -1.
        994   -1    0    0    0    0 -0.00000000000E+00 -0.00000000000E+00  0.11368683772E-12  0.17120000000E+03  0.17120000000E+03 0.  0.
         13    1    1    2    0    0 -0.33443387566E+01 -0.13701149060E+02  0.52930876913E+02  0.54777686899E+02  0.10566000000E+00 0. -1.
        994    1    1    2    0    0  0.53325159459E+01  0.72680720613E+01  0.21477125174E+01  0.17145061466E+03  0.17120000000E+03 0.  0.
        998    1    1    2    0    0 -0.19881771893E+01  0.64330769989E+01  0.14449214068E+04  0.14449716984E+04  0.10000000000E+02 0. -1.
</event>
<event>
 5    1  0.1303633E-008  0.4097255E+03  0.7957747E-01  0.3331132E+00
         13   -1    0    0    0    0  0.00000000000E+00  0.00000000000E+00  0.14999999963E+04  0.15000000000E+04  0.10566000000E+00 0. -1.
        994   -1    0    0    0    0 -0.00000000000E+00 -0.00000000000E+00  0.11368683772E-12  0.17120000000E+03  0.17120000000E+03 0.  0.
         13    1    1    2    0    0 -0.54991978844E+02  0.10513757485E+03  0.17424968941E+03  0.21081032424E+03  0.10566000000E+00 0. -1.
        994    1    1    2    0    0  0.59110630833E+02 -0.10298044451E+03  0.93966894888E+02  0.22855689874E+03  0.17120000000E+03 0.  0.
        998    1    1    2    0    0 -0.41186519885E+01 -0.21571303400E+01  0.12317834120E+04  0.12318327770E+04  0.10000000000E+02 0.  0.
</event>
<event>
 5    1  0.1303633E-008  0.3858247E+03  0.7957747E-01  0.3426182E+00
         13   -1    0    0    0    0  0.00000000000E+00  0.00000000000E+00  0.14999999963E+04  0.15000000000E+04  0.10566000000E+00 0. -1.
        994   -1    0    0    0    0 -0.00000000000E+00 -0.00000000000E+00  0.11368683772E-12  0.17120000000E+03  0.17120000000E+03 0.  0.
         13    1    1    2    0    0 -0.56549428787E+01  0.10644142171E+02  0.64245091867E+02  0.65366039612E+02  0.10566000000E+00 0. -1.
        994    1    1    2    0    0  0.97663666362E+01  0.63627931096E+01  0.16669851264E+01  0.17160444602E+03  0.17120000000E+03 0.  0.
        998    1    1    2    0    0 -0.41114237574E+01 -0.17006935280E+02  0.14340879193E+04  0.14342295144E+04  0.10000000000E+02 0. -1.
</event>
<event>
 5    1  0.1303633E-008  0.3405453E+03  0.7957747E-01  0.3643274E+00
         13   -1    0    0    0    0  0.00000000000E+00  0.00000000000E+00  0.14999999963E+04  0.15000000000E+04  0.10566000000E+00 0.  1.
        994   -1    0    0    0    0 -0.00000000000E+00 -0.00000000000E+00  0.11368683772E-12  0.17120000000E+03  0.17120000000E+03 0.  0.
         13    1    1    2    0    0  0.51900058966E+02 -0.21919498776E+03  0.11623588922E+04  0.11839840641E+04  0.10566000000E+00 0.  1.
        994    1    1    2    0    0 -0.35854731626E+02  0.12717618753E+03  0.11361116487E+03  0.24428729242E+03  0.17120000000E+03 0.  0.
        998    1    1    2    0    0 -0.16045327339E+02  0.92018800238E+02  0.22402993926E+03  0.24292864345E+03  0.10000000000E+02 0. -1.
</event>
<event>
 5    1  0.1303633E-008  0.3831850E+03  0.7957747E-01  0.3437407E+00
         13   -1    0    0    0    0  0.00000000000E+00  0.00000000000E+00  0.14999999963E+04  0.15000000000E+04  0.10566000000E+00 0. -1.
        994   -1    0    0    0    0 -0.00000000000E+00 -0.00000000000E+00  0.11368683772E-12  0.17120000000E+03  0.17120000000E+03 0.  0.
         13    1    1    2    0    0 -0.10956584028E+02  0.12738909562E+01  0.22901942567E+02  0.25420064302E+02  0.10566000000E+00 0. -1.
        994    1    1    2    0    0  0.97074363552E+01 -0.69150495610E+01  0.30040202910E+01  0.17164066059E+03  0.17120000000E+03 0.  0.
        998    1    1    2    0    0  0.12491476728E+01  0.56411586048E+01  0.14740940334E+04  0.14741392751E+04  0.10000000000E+02 0. -1.
</event>
<event>
 5    1  0.1303633E-008  0.3832260E+03  0.7957747E-01  0.3437231E+00
         13   -1    0    0    0    0  0.00000000000E+00  0.00000000000E+00  0.14999999963E+04  0.15000000000E+04  0.10566000000E+00 0.  1.
        994   -1    0    0    0    0 -0.00000000000E+00 -0.00000000000E+00  0.11368683772E-12  0.17120000000E+03  0.17120000000E+03 0.  0.
         13    1    1    2    0    0 -0.40252026623E+01 -0.22433716363E+02  0.10623148623E+03  0.10864903919E+03  0.10566000000E+00 0.  1.
        994    1    1    2    0    0  0.96543335009E+01  0.74615997501E+01  0.30060670039E+01  0.17166058973E+03  0.17120000000E+03 0.  0.
        998    1    1    2    0    0 -0.56291308386E+01  0.14972116613E+02  0.13907624430E+04  0.13908903711E+04  0.10000000000E+02 0.  1.
</event>
<event>
 5    1  0.1303633E-008  0.3848852E+03  0.7957747E-01  0.3430159E+00
         13   -1    0    0    0    0  0.00000000000E+00  0.00000000000E+00  0.14999999963E+04  0.15000000000E+04  0.10566000000E+00 0.  1.
        994   -1    0    0    0    0 -0.00000000000E+00 -0.00000000000E+00  0.11368683772E-12  0.17120000000E+03  0.17120000000E+03 0.  0.
         13    1    1    2    0    0  0.18779089351E+02 -0.83490020261E+01  0.12372401390E+03  0.12541930797E+03  0.10566000000E+00 0.  1.
        994    1    1    2    0    0 -0.69522352457E+01  0.20400385480E+02  0.32167980208E+01  0.17258127677E+03  0.17120000000E+03 0.  0.
        998    1    1    2    0    0 -0.11826854105E+02 -0.12051383454E+02  0.13730591844E+04  0.13731994153E+04  0.10000000000E+02 0.  1.
</event>
<event>
 5    1  0.1303633E-008  0.3843274E+03  0.7957747E-01  0.3432530E+00
         13   -1    0    0    0    0  0.00000000000E+00  0.00000000000E+00  0.14999999963E+04  0.15000000000E+04  0.10566000000E+00 0.  1.
        994   -1    0    0    0    0 -0.00000000000E+00 -0.00000000000E+00  0.11368683772E-12  0.17120000000E+03  0.17120000000E+03 0.  0.
         13    1    1    2    0    0 -0.15069546872E+02  0.63777712622E+01  0.68221536343E+02  0.70156656094E+02  0.10566000000E+00 0.  1.
        994    1    1    2    0    0  0.68386310293E+01 -0.89725647914E+01  0.23840184909E+01  0.17158787060E+03  0.17120000000E+03 0.  0.
        998    1    1    2    0    0  0.82309158425E+01  0.25947935291E+01  0.14293944414E+04  0.14294554733E+04  0.10000000000E+02 0.  1.
</event>
<event>
 5    1  0.1303633E-008  0.3845847E+03  0.7957747E-01  0.3431435E+00
         13   -1    0    0    0    0  0.00000000000E+00  0.00000000000E+00  0.14999999963E+04  0.15000000000E+04  0.10566000000E+00 0. -1.
        994   -1    0    0    0    0 -0.00000000000E+00 -0.00000000000E+00  0.11368683772E-12  0.17120000000E+03  0.17120000000E+03 0.  0.
         13    1    1    2    0    0 -0.11117352361E+02  0.40289223738E+01  0.37425175386E+02  0.39248982862E+02  0.10566000000E+00 0. -1.
        994    1    1    2    0    0  0.78916380679E+01 -0.71705181467E+01  0.22109611144E+01  0.17154597818E+03  0.17120000000E+03 0.  0.
        998    1    1    2    0    0  0.32257142929E+01  0.31415957729E+01  0.14603638598E+04  0.14604050390E+04  0.10000000000E+02 0. -1.
</event>
<event>
 5    1  0.1303633E-008  0.2824031E+03  0.7957747E-01  0.4030249E+00
         13   -1    0    0    0    0  0.00000000000E+00  0.00000000000E+00  0.14999999963E+04  0.15000000000E+04  0.10566000000E+00 0.  1.
        994   -1    0    0    0    0 -0.00000000000E+00 -0.00000000000E+00  0.11368683772E-12  0.17120000000E+03  0.17120000000E+03 0.  0.
         13    1    1    2    0    0 -0.30774948638E+00 -0.20081562833E+03  0.44424140187E+03  0.48752173859E+03  0.10566000000E+00 0.  1.
        994    1    1    2    0    0  0.84012651583E+01  0.20896678016E+03  0.22194003019E+03  0.34972062202E+03  0.17120000000E+03 0.  0.
        998    1    1    2    0    0 -0.80935156719E+01 -0.81511518242E+01  0.83381856421E+03  0.83395763939E+03  0.10000000000E+02 0. -1.
</event>
<event>
 5    1  0.1303633E-008  0.3815575E+03  0.7957747E-01  0.3444405E+00
         13   -1    0    0    0    0  0.00000000000E+00  0.00000000000E+00  0.14999999963E+04  0.15000000000E+04  0.10566000000E+00 0.  1.
        994   -1    0    0    0    0 -0.00000000000E+00 -0.00000000000E+00  0.11368683772E-12  0.17120000000E+03  0.17120000000E+03 0.  0.
         13    1    1    2    0    0 -0.91241903883E+01 -0.38369825503E+02  0.22267019924E+03  0.22613607220E+03  0.10566000000E+00 0.  1.
        994    1    1    2    0    0  0.19662276510E+02  0.23469630516E+02  0.64729259030E+01  0.17403668419E+03  0.17120000000E+03 0.  0.
        998    1    1    2    0    0 -0.10538086121E+02  0.14900194987E+02  0.12708568711E+04  0.12710272436E+04  0.10000000000E+02 0.  1.
</event>
<event>
 5    1  0.1303633E-008  0.3844037E+03  0.7957747E-01  0.3432205E+00
         13   -1    0    0    0    0  0.00000000000E+00  0.00000000000E+00  0.14999999963E+04  0.15000000000E+04  0.10566000000E+00 0. -1.
        994   -1    0    0    0    0 -0.00000000000E+00 -0.00000000000E+00  0.11368683772E-12  0.17120000000E+03  0.17120000000E+03 0.  0.
         13    1    1    2    0    0 -0.16595009044E+02 -0.11522344926E+01  0.77918919062E+02  0.79674908731E+02  0.10566000000E+00 0. -1.
        994    1    1    2    0    0 -0.14066003523E+01 -0.10862633344E+02  0.23219018605E+01  0.17156574995E+03  0.17120000000E+03 0.  0.
        998    1    1    2    0    0  0.18001609396E+02  0.12014867837E+02  0.14197591754E+04  0.14199593413E+04  0.10000000000E+02 0. -1.
</event>
<event>
 5    1  0.1303633E-008  0.3813918E+03  0.7957747E-01  0.3445120E+00
         13   -1    0    0    0    0  0.00000000000E+00  0.00000000000E+00  0.14999999963E+04  0.15000000000E+04  0.10566000000E+00 0. -1.
        994   -1    0    0    0    0 -0.00000000000E+00 -0.00000000000E+00  0.11368683772E-12  0.17120000000E+03  0.17120000000E+03 0.  0.
         13    1    1    2    0    0 -0.16407828583E+01 -0.14811893633E+02  0.33676644388E+02  0.36826782409E+02  0.10566000000E+00 0. -1.
        994    1    1    2    0    0  0.71025968399E+01 -0.14341892404E+02  0.42849867638E+01  0.17199981939E+03  0.17120000000E+03 0.  0.
        998    1    1    2    0    0 -0.54618139816E+01  0.29153786037E+02  0.14620383651E+04  0.14623733982E+04  0.10000000000E+02 0. -1.
</event>
<event>
 5    1  0.1303633E-008  0.3800001E+03  0.7957747E-01  0.3451158E+00
         13   -1    0    0    0    0  0.00000000000E+00  0.00000000000E+00  0.14999999963E+04  0.15000000000E+04  0.10566000000E+00 0.  1.
        994   -1    0    0    0    0 -0.00000000000E+00 -0.00000000000E+00  0.11368683772E-12  0.17120000000E+03  0.17120000000E+03 0.  0.
         13    1    1    2    0    0  0.16799020162E+02  0.17800524908E+01  0.28736627175E+02  0.33334375210E+02  0.10566000000E+00 0.  1.
        994    1    1    2    0    0 -0.50385348361E+02 -0.46243640754E+02  0.19930223125E+02  0.18542872332E+03  0.17120000000E+03 0.  0.
        998    1    1    2    0    0  0.33586328199E+02  0.44463588263E+02  0.14513331460E+04  0.14524369015E+04  0.10000000000E+02 0.  1.
</event>
<event>
 5    1  0.1303633E-008  0.3782355E+03  0.7957747E-01  0.3458878E+00
         13   -1    0    0    0    0  0.00000000000E+00  0.00000000000E+00  0.14999999963E+04  0.15000000000E+04  0.10566000000E+00 0. -1.
        994   -1    0    0    0    0 -0.00000000000E+00 -0.00000000000E+00  0.11368683772E-12  0.17120000000E+03  0.17120000000E+03 0.  0.
         13    1    1    2    0    0  0.30740202912E+02 -0.10820055318E+02  0.10798181985E+03  0.11279236789E+03  0.10566000000E+00 0. -1.
        994    1    1    2    0    0 -0.11453774357E+02  0.32272558615E+01  0.55027857397E+01  0.17170126609E+03  0.17120000000E+03 0.  0.
        998    1    1    2    0    0 -0.19286428555E+02  0.75927994561E+01  0.13865153907E+04  0.13867063660E+04  0.10000000000E+02 0. -1.
</event>
<event>
 5    1  0.1303633E-008  0.3828706E+03  0.7957747E-01  0.3438754E+00
         13   -1    0    0    0    0  0.00000000000E+00  0.00000000000E+00  0.14999999963E+04  0.15000000000E+04  0.10566000000E+00 0.  1.
        994   -1    0    0    0    0 -0.00000000000E+00 -0.00000000000E+00  0.11368683772E-12  0.17120000000E+03  0.17120000000E+03 0.  0.
         13    1    1    2    0    0  0.12822501220E+02 -0.18573925130E+02  0.97205131794E+02  0.99791061941E+02  0.10566000000E+00 0.  1.
        994    1    1    2    0    0 -0.61179115813E+01  0.59521117963E+01  0.29323270439E+01  0.17143772927E+03  0.17120000000E+03 0.  0.
        998    1    1    2    0    0 -0.67045896390E+01  0.12621813333E+02  0.13998625374E+04  0.13999712088E+04  0.10000000000E+02 0.  1.
</event>
<event>
 5    1  0.1303633E-008  0.3856061E+03  0.7957747E-01  0.3427106E+00
         13   -1    0    0    0    0  0.00000000000E+00  0.00000000000E+00  0.14999999963E+04  0.15000000000E+04  0.10566000000E+00 0. -1.
        994   -1    0    0    0    0 -0.00000000000E+00 -0.00000000000E+00  0.11368683772E-12  0.17120000000E+03  0.17120000000E+03 0.  0.
         13    1    1    2    0    0 -0.30079661796E+01  0.13439261066E+02  0.73766373674E+02  0.75040993114E+02  0.10566000000E+00 0. -1.
        994    1    1    2    0    0  0.30165359684E+00 -0.54798637101E+01  0.14284092345E+01  0.17129390022E+03  0.17120000000E+03 0.  0.
        998    1    1    2    0    0  0.27063125828E+01 -0.79593973557E+01  0.14248052134E+04  0.14248651067E+04  0.10000000000E+02 0. -1.
</event>
<event>
 5    1  0.1303633E-008  0.3767826E+03  0.7957747E-01  0.3465289E+00
         13   -1    0    0    0    0  0.00000000000E+00  0.00000000000E+00  0.14999999963E+04  0.15000000000E+04  0.10566000000E+00 0.  1.
        994   -1    0    0    0    0 -0.00000000000E+00 -0.00000000000E+00  0.11368683772E-12  0.17120000000E+03  0.17120000000E+03 0.  0.
         13    1    1    2    0    0  0.25047649407E+02 -0.53172875834E+02  0.10830390683E+03  0.12322534993E+03  0.10566000000E+00 0.  1.
        994    1    1    2    0    0 -0.14157419175E+02  0.51406793037E+02  0.24823977734E+02  0.18102143729E+03  0.17120000000E+03 0.  0.
        998    1    1    2    0    0 -0.10890230232E+02  0.17660827976E+01  0.13668721117E+04  0.13669532128E+04  0.10000000000E+02 0.  1.
</event>
<event>
 5    1  0.1303633E-008  0.3832936E+03  0.7957747E-01  0.3436942E+00
         13   -1    0    0    0    0  0.00000000000E+00  0.00000000000E+00  0.14999999963E+04  0.15000000000E+04  0.10566000000E+00 0. -1.
        994   -1    0    0    0    0 -0.00000000000E+00 -0.00000000000E+00  0.11368683772E-12  0.17120000000E+03  0.17120000000E+03 0.  0.
         13    1    1    2    0    0  0.83086700041E+01 -0.76992367539E+01  0.25685891903E+02  0.28072913114E+02  0.10566000000E+00 0. -1.
        994    1    1    2    0    0  0.18250583880E+01  0.25078764142E+01  0.25115422550E+01  0.17124651274E+03  0.17120000000E+03 0.  0.
        998    1    1    2    0    0 -0.10133728392E+02  0.51913603397E+01  0.14718025621E+04  0.14718805741E+04  0.10000000000E+02 0. -1.
</event>
<event>
 5    1  0.1303633E-008  0.3859587E+03  0.7957747E-01  0.3425616E+00
         13   -1    0    0    0    0  0.00000000000E+00  0.00000000000E+00  0.14999999963E+04  0.15000000000E+04  0.10566000000E+00 0.  1.
        994   -1    0    0    0    0 -0.00000000000E+00 -0.00000000000E+00  0.11368683772E-12  0.17120000000E+03  0.17120000000E+03 0.  0.
         13    1    1    2    0    0  0.91182004957E+01  0.58994815582E+01  0.49189891072E+02  0.50374616730E+02  0.10566000000E+00 0.  1.
        994    1    1    2    0    0 -0.10853658168E+02 -0.10488698714E+02  0.19021216492E+01  0.17187458440E+03  0.17120000000E+03 0.  0.
        998    1    1    2    0    0  0.17354576722E+01  0.45892171554E+01  0.14489079836E+04  0.14489507989E+04  0.10000000000E+02 0.  1.
</event>
<event>
 5    1  0.1303633E-008  0.3825619E+03  0.7957747E-01  0.3440079E+00
         13   -1    0    0    0    0  0.00000000000E+00  0.00000000000E+00  0.14999999963E+04  0.15000000000E+04  0.10566000000E+00 0.  1.
        994   -1    0    0    0    0 -0.00000000000E+00 -0.00000000000E+00  0.11368683772E-12  0.17120000000E+03  0.17120000000E+03 0.  0.
         13    1    1    2    0    0 -0.12325058248E+02 -0.96282901479E+01  0.40865027070E+02  0.43755829708E+02  0.10566000000E+00 0.  1.
        994    1    1    2    0    0  0.72317078957E+01  0.19301385321E+02  0.42550373618E+01  0.17248880085E+03  0.17120000000E+03 0.  0.
        998    1    1    2    0    0  0.50933503521E+01 -0.96730951736E+01  0.14548799318E+04  0.14549553694E+04  0.10000000000E+02 0.  1.
</event>
<event>
 5    1  0.1303633E-008  0.3808392E+03  0.7957747E-01  0.3447513E+00
         13   -1    0    0    0    0  0.00000000000E+00  0.00000000000E+00  0.14999999963E+04  0.15000000000E+04  0.10566000000E+00 0.  1.
        994   -1    0    0    0    0 -0.00000000000E+00 -0.00000000000E+00  0.11368683772E-12  0.17120000000E+03  0.17120000000E+03 0.  0.
         13    1    1    2    0    0  0.31932338077E+02 -0.50481396927E+01  0.13943541529E+03  0.14313421719E+03  0.10566000000E+00 0.  1.
        994    1    1    2    0    0 -0.16996583939E+02  0.18152348916E+02  0.57743621290E+01  0.17309296605E+03  0.17120000000E+03 0.  0.
        998    1    1    2    0    0 -0.14935754138E+02 -0.13104209223E+02  0.13547902189E+04  0.13549728168E+04  0.10000000000E+02 0.  1.
</event>
<event>
 5    1  0.1303633E-008  0.3767580E+03  0.7957747E-01  0.3465398E+00
         13   -1    0    0    0    0  0.00000000000E+00  0.00000000000E+00  0.14999999963E+04  0.15000000000E+04  0.10566000000E+00 0.  1.
        994   -1    0    0    0    0 -0.00000000000E+00 -0.00000000000E+00  0.11368683772E-12  0.17120000000E+03  0.17120000000E+03 0.  0.
         13    1    1    2    0    0  0.26744929325E+02 -0.29301796831E+02  0.14643765491E+03  0.15171646082E+03  0.10566000000E+00 0.  1.
        994    1    1    2    0    0 -0.94492611116E+01  0.15331830624E+01  0.60884546485E+01  0.17157548912E+03  0.17120000000E+03 0.  0.
        998    1    1    2    0    0 -0.17295668213E+02  0.27768613769E+02  0.13474738867E+04  0.13479080501E+04  0.10000000000E+02 0.  1.
</event>
<event>
 5    1  0.1303633E-008  0.3846948E+03  0.7957747E-01  0.3430968E+00
         13   -1    0    0    0    0  0.00000000000E+00  0.00000000000E+00  0.14999999963E+04  0.15000000000E+04  0.10566000000E+00 0. -1.
        994   -1    0    0    0    0 -0.00000000000E+00 -0.00000000000E+00  0.11368683772E-12  0.17120000000E+03  0.17120000000E+03 0.  0.
         13    1    1    2    0    0 -0.14852862900E+02 -0.52208399271E+01  0.79240052043E+02  0.80788995028E+02  0.10566000000E+00 0. -1.
        994    1    1    2    0    0 -0.37802767741E+01 -0.15599506592E+02  0.26303225593E+01  0.17197090944E+03  0.17120000000E+03 0.  0.
        998    1    1    2    0    0  0.18633139674E+02  0.20820346519E+02  0.14181296217E+04  0.14184400955E+04  0.10000000000E+02 0. -1.
</event>
<event>
 5    1  0.1303633E-008  0.3745946E+03  0.7957747E-01  0.3475038E+00
         13   -1    0    0    0    0  0.00000000000E+00  0.00000000000E+00  0.14999999963E+04  0.15000000000E+04  0.10566000000E+00 0. -1.
        994   -1    0    0    0    0 -0.00000000000E+00 -0.00000000000E+00  0.11368683772E-12  0.17120000000E+03  0.17120000000E+03 0.  0.
         13    1    1    2    0    0 -0.33036330362E+01  0.40017520348E+02  0.12234972747E+03  0.12877027181E+03  0.10566000000E+00 0. -1.
        994    1    1    2    0    0  0.23122304305E+02 -0.85985798569E+01  0.89613069623E+01  0.17320023543E+03  0.17120000000E+03 0.  0.
        998    1    1    2    0    0 -0.19818671269E+02 -0.31418940491E+02  0.13686889618E+04  0.13692294928E+04  0.10000000000E+02 0. -1.
</event>
<event>
 5    1  0.1303633E-008  0.2937299E+03  0.7957747E-01  0.3941824E+00
         13   -1    0    0    0    0  0.00000000000E+00  0.00000000000E+00  0.14999999963E+04  0.15000000000E+04  0.10566000000E+00 0. -1.
        994   -1    0    0    0    0 -0.00000000000E+00 -0.00000000000E+00  0.11368683772E-12  0.17120000000E+03  0.17120000000E+03 0.  0.
         13    1    1    2    0    0 -0.10237318358E+03 -0.14576811652E+03  0.63580405602E+03  0.66028434884E+03  0.10566000000E+00 0. -1.
        994    1    1    2    0    0  0.55948149286E+02  0.15457997921E+03  0.12147999411E+03  0.26663082033E+03  0.17120000000E+03 0.  0.
        998    1    1    2    0    0  0.46425034289E+02 -0.88118626989E+01  0.74271594615E+03  0.74428483083E+03  0.10000000000E+02 0. -1.
</event>
<event>
 5    1  0.1303633E-008  0.3813835E+03  0.7957747E-01  0.3445156E+00
         13   -1    0    0    0    0  0.00000000000E+00  0.00000000000E+00  0.14999999963E+04  0.15000000000E+04  0.10566000000E+00 0.  1.
        994   -1    0    0    0    0 -0.00000000000E+00 -0.00000000000E+00  0.11368683772E-12  0.17120000000E+03  0.17120000000E+03 0.  0.
         13    1    1    2    0    0  0.54604567580E+01  0.12395607122E+02  0.25318948749E+02  0.28714595482E+02  0.10566000000E+00 0.  1.
        994    1    1    2    0    0  0.82379203475E+01 -0.14287729563E+02  0.43420383048E+01  0.17204736512E+03  0.17120000000E+03 0.  0.
        998    1    1    2    0    0 -0.13698377106E+02  0.18921224409E+01  0.14703390092E+04  0.14704380394E+04  0.10000000000E+02 0.  1.
</event>
<event>
 5    1  0.1303633E-008  0.3821425E+03  0.7957747E-01  0.3441882E+00
         13   -1    0    0    0    0  0.00000000000E+00  0.00000000000E+00  0.14999999963E+04  0.15000000000E+04  0.10566000000E+00 0. -1.
        994   -1    0    0    0    0 -0.00000000000E+00 -0.00000000000E+00  0.11368683772E-12  0.17120000000E+03  0.17120000000E+03 0.  0.
         13    1    1    2    0    0 -0.84444539410E+01 -0.24739218307E+02  0.10577152353E+03  0.10895395394E+03  0.10566000000E+00 0. -1.
        994    1    1    2    0    0  0.17747901266E+02  0.19175752411E+02  0.53249536482E+01  0.17326422773E+03  0.17120000000E+03 0.  0.
        998    1    1    2    0    0 -0.93034473254E+01  0.55634658960E+01  0.13889035191E+04  0.13889818183E+04  0.10000000000E+02 0. -1.
</event>
<event>
 5    1  0.1303633E-008  0.3710400E+03  0.7957747E-01  0.3491125E+00
         13   -1    0    0    0    0  0.00000000000E+00  0.00000000000E+00  0.14999999963E+04  0.15000000000E+04  0.10566000000E+00 0. -1.
        994   -1    0    0    0    0 -0.00000000000E+00 -0.00000000000E+00  0.11368683772E-12  0.17120000000E+03  0.17120000000E+03 0.  0.
         13    1    1    2    0    0 -0.11813442614E+02 -0.85015177132E+02  0.24733802239E+03  0.26180765125E+03  0.10566000000E+00 0. -1.
        994    1    1    2    0    0  0.66291342903E+01  0.96985039893E+02  0.45429284815E+02  0.20204777480E+03  0.17120000000E+03 0.  0.
        998    1    1    2    0    0  0.51843083241E+01 -0.11969862761E+02  0.12072326891E+04  0.12073445739E+04  0.10000000000E+02 0. -1.
</event>
<event>
 5    1  0.1303633E-008  0.3728113E+03  0.7957747E-01  0.3483070E+00
         13   -1    0    0    0    0  0.00000000000E+00  0.00000000000E+00  0.14999999963E+04  0.15000000000E+04  0.10566000000E+00 0. -1.
        994   -1    0    0    0    0 -0.00000000000E+00 -0.00000000000E+00  0.11368683772E-12  0.17120000000E+03  0.17120000000E+03 0.  0.
         13    1    1    2    0    0 -0.50307349769E+02 -0.42835359885E+01  0.13932636942E+03  0.14819253187E+03  0.10566000000E+00 0. -1.
        994    1    1    2    0    0  0.60239908565E+02  0.11416929429E+02  0.20791883143E+02  0.18303260711E+03  0.17120000000E+03 0.  0.
        998    1    1    2    0    0 -0.99325587953E+01 -0.71333934402E+01  0.13398817437E+04  0.13399748610E+04  0.10000000000E+02 0. -1.
</event>
<event>
 5    1  0.1303633E-008  0.3837147E+03  0.7957747E-01  0.3435142E+00
         13   -1    0    0    0    0  0.00000000000E+00  0.00000000000E+00  0.14999999963E+04  0.15000000000E+04  0.10566000000E+00 0. -1.
        994   -1    0    0    0    0 -0.00000000000E+00 -0.00000000000E+00  0.11368683772E-12  0.17120000000E+03  0.17120000000E+03 0.  0.
         13    1    1    2    0    0  0.23066827374E+02 -0.15665206084E+02  0.15339526724E+03  0.15590893619E+03  0.10566000000E+00 0. -1.
        994    1    1    2    0    0 -0.21269205015E+02  0.21522515845E+02  0.52991725827E+01  0.17393423757E+03  0.17120000000E+03 0.  0.
        998    1    1    2    0    0 -0.17976223584E+01 -0.58573097618E+01  0.13413055565E+04  0.13413568262E+04  0.10000000000E+02 0. -1.
</event>
<event>
 5    1  0.1303633E-008  0.3854997E+03  0.7957747E-01  0.3427556E+00
         13   -1    0    0    0    0  0.00000000000E+00  0.00000000000E+00  0.14999999963E+04  0.15000000000E+04  0.10566000000E+00 0. -1.
        994   -1    0    0    0    0 -0.00000000000E+00 -0.00000000000E+00  0.11368683772E-12  0.17120000000E+03  0.17120000000E+03 0.  0.
         13    1    1    2    0    0  0.11405872810E+01  0.14460316312E+02  0.74118591020E+02  0.75524687262E+02  0.10566000000E+00 0. -1.
        994    1    1    2    0    0 -0.16617288470E+02 -0.12957358773E+02  0.28415153415E+01  0.17251533738E+03  0.17120000000E+03 0.  0.
        998    1    1    2    0    0  0.15476701189E+02 -0.15029575388E+01  0.14230398899E+04  0.14231599754E+04  0.10000000000E+02 0. -1.
</event>
<event>
 5    1  0.1303633E-008  0.3743856E+03  0.7957747E-01  0.3475975E+00
         13   -1    0    0    0    0  0.00000000000E+00  0.00000000000E+00  0.14999999963E+04  0.15000000000E+04  0.10566000000E+00 0. -1.
        994   -1    0    0    0    0 -0.00000000000E+00 -0.00000000000E+00  0.11368683772E-12  0.17120000000E+03  0.17120000000E+03 0.  0.
         13    1    1    2    0    0  0.38349391719E+02 -0.14132961680E+02  0.11003213028E+03  0.11737758436E+03  0.10566000000E+00 0. -1.
        994    1    1    2    0    0 -0.38015073998E+02  0.95193097549E+01  0.12243798899E+02  0.17605429197E+03  0.17120000000E+03 0.  0.
        998    1    1    2    0    0 -0.33431772098E+00  0.46136519248E+01  0.13777240671E+04  0.13777681237E+04  0.10000000000E+02 0. -1.
</event>
<event>
 5    1  0.1303633E-008  0.3828999E+03  0.7957747E-01  0.3438628E+00
         13   -1    0    0    0    0  0.00000000000E+00  0.00000000000E+00  0.14999999963E+04  0.15000000000E+04  0.10566000000E+00 0.  1.
        994   -1    0    0    0    0 -0.00000000000E+00 -0.00000000000E+00  0.11368683772E-12  0.17120000000E+03  0.17120000000E+03 0.  0.
         13    1    1    2    0    0  0.16670188317E+02  0.12399578063E+02  0.84423257255E+02  0.86942177591E+02  0.10566000000E+00 0.  1.
        994    1    1    2    0    0 -0.99114228253E+01  0.71954576480E+01  0.31732911568E+01  0.17166688874E+03  0.17120000000E+03 0.  0.
        998    1    1    2    0    0 -0.67587654922E+01 -0.19595035711E+02  0.14124034479E+04  0.14125909337E+04  0.10000000000E+02 0.  1.
</event>
<event>
 5    1  0.1303633E-008  0.3859370E+03  0.7957747E-01  0.3425708E+00
         13   -1    0    0    0    0  0.00000000000E+00  0.00000000000E+00  0.14999999963E+04  0.15000000000E+04  0.10566000000E+00 0.  1.
        994   -1    0    0    0    0 -0.00000000000E+00 -0.00000000000E+00  0.11368683772E-12  0.17120000000E+03  0.17120000000E+03 0.  0.
         13    1    1    2    0    0 -0.35597956387E+01  0.13194233996E+02  0.75972125536E+02  0.77191547324E+02  0.10566000000E+00 0.  1.
        994    1    1    2    0    0  0.79017350900E+01 -0.15464980360E+02  0.21551152687E+01  0.17209209034E+03  0.17120000000E+03 0.  0.
        998    1    1    2    0    0 -0.43419394513E+01  0.22707463645E+01  0.14218727555E+04  0.14219163623E+04  0.10000000000E+02 0.  1.
</event>
<event>
 5    1  0.1303633E-008  0.3687445E+03  0.7957747E-01  0.3501681E+00
         13   -1    0    0    0    0  0.00000000000E+00  0.00000000000E+00  0.14999999963E+04  0.15000000000E+04  0.10566000000E+00 0. -1.
        994   -1    0    0    0    0 -0.00000000000E+00 -0.00000000000E+00  0.11368683772E-12  0.17120000000E+03  0.17120000000E+03 0.  0.
         13    1    1    2    0    0 -0.14536831985E+02 -0.50740850032E+02  0.16331602713E+03  0.17163359003E+03  0.10566000000E+00 0. -1.
        994    1    1    2    0    0  0.97595929309E+01 -0.17286382009E+02  0.11649260483E+02  0.17274030777E+03  0.17120000000E+03 0.  0.
        998    1    1    2    0    0  0.47772390545E+01  0.68027232041E+02  0.13250347087E+04  0.13268261022E+04  0.10000000000E+02 0. -1.
</event>
<event>
 5    1  0.1303633E-008  0.3852420E+03  0.7957747E-01  0.3428646E+00
         13   -1    0    0    0    0  0.00000000000E+00  0.00000000000E+00  0.14999999963E+04  0.15000000000E+04  0.10566000000E+00 0.  1.
        994   -1    0    0    0    0 -0.00000000000E+00 -0.00000000000E+00  0.11368683772E-12  0.17120000000E+03  0.17120000000E+03 0.  0.
         13    1    1    2    0    0  0.65541919346E+01 -0.10458710357E+02  0.58997036276E+02  0.60274401761E+02  0.10566000000E+00 0.  1.
        994    1    1    2    0    0  0.21665390180E+01 -0.17224855033E+02  0.25010479912E+01  0.17209614976E+03  0.17120000000E+03 0.  0.
        998    1    1    2    0    0 -0.87207309526E+01  0.27683565390E+02  0.14385019120E+04  0.14388294485E+04  0.10000000000E+02 0.  1.
</event>
<event>
 5    1  0.1303633E-008  0.3783162E+03  0.7957747E-01  0.3458523E+00
         13   -1    0    0    0    0  0.00000000000E+00  0.00000000000E+00  0.14999999963E+04  0.15000000000E+04  0.10566000000E+00 0. -1.
        994   -1    0    0    0    0 -0.00000000000E+00 -0.00000000000E+00  0.11368683772E-12  0.17120000000E+03  0.17120000000E+03 0.  0.
         13    1    1    2    0    0 -0.65788314805E+01  0.19583438778E+02  0.40343464632E+02  0.45325471874E+02  0.10566000000E+00 0. -1.
        994    1    1    2    0    0  0.64765072170E+01 -0.16385792402E+02  0.60297855393E+01  0.17220986514E+03  0.17120000000E+03 0.  0.
        998    1    1    2    0    0  0.10232426353E+00 -0.31976463762E+01  0.14536267461E+04  0.14536646630E+04  0.10000000000E+02 0. -1.
</event>
<event>
 5    1  0.1303633E-008  0.3836019E+03  0.7957747E-01  0.3435624E+00
         13   -1    0    0    0    0  0.00000000000E+00  0.00000000000E+00  0.14999999963E+04  0.15000000000E+04  0.10566000000E+00 0. -1.
        994   -1    0    0    0    0 -0.00000000000E+00 -0.00000000000E+00  0.11368683772E-12  0.17120000000E+03  0.17120000000E+03 0.  0.
         13    1    1    2    0    0 -0.18145027370E+02  0.24203334834E+02  0.17989872908E+03  0.18242425092E+03  0.10566000000E+00 0. -1.
        994    1    1    2    0    0  0.12695110569E+02 -0.24906990371E+02  0.49120190277E+01  0.17353700451E+03  0.17120000000E+03 0.  0.
        998    1    1    2    0    0  0.54499168012E+01  0.70365553684E+00  0.13151892482E+04  0.13152387446E+04  0.10000000000E+02 0. -1.
</event>
<event>
 5    1  0.1303633E-008  0.3857683E+03  0.7957747E-01  0.3426420E+00
         13   -1    0    0    0    0  0.00000000000E+00  0.00000000000E+00  0.14999999963E+04  0.15000000000E+04  0.10566000000E+00 0.  1.
        994   -1    0    0    0    0 -0.00000000000E+00 -0.00000000000E+00  0.11368683772E-12  0.17120000000E+03  0.17120000000E+03 0.  0.
         13    1    1    2    0    0  0.61420362853E+01  0.10061314668E+02  0.58093305575E+02  0.59277297334E+02  0.10566000000E+00 0.  1.
        994    1    1    2    0    0 -0.18561111015E+01 -0.20748820748E+01  0.12745838363E+01  0.17122737762E+03  0.17120000000E+03 0.  0.
        998    1    1    2    0    0 -0.42859251838E+01 -0.79864325928E+01  0.14406321069E+04  0.14406953250E+04  0.10000000000E+02 0.  1.
</event>
<event>
 5    1  0.1303633E-008  0.3853972E+03  0.7957747E-01  0.3427989E+00
         13   -1    0    0    0    0  0.00000000000E+00  0.00000000000E+00  0.14999999963E+04  0.15000000000E+04  0.10566000000E+00 0.  1.
        994   -1    0    0    0    0 -0.00000000000E+00 -0.00000000000E+00  0.11368683772E-12  0.17120000000E+03  0.17120000000E+03 0.  0.
         13    1    1    2    0    0 -0.13987449091E+02  0.27950189571E+01  0.71883341801E+02  0.73284970189E+02  0.10566000000E+00 0.  1.
        994    1    1    2    0    0  0.71105575688E+01 -0.63822307018E+01  0.17329414395E+01  0.17147517600E+03  0.17120000000E+03 0.  0.
        998    1    1    2    0    0  0.68768915219E+01  0.35872117447E+01  0.14263837130E+04  0.14264398538E+04  0.10000000000E+02 0.  1.
</event>
<event>
 5    1  0.1303633E-008  0.3855903E+03  0.7957747E-01  0.3427172E+00
         13   -1    0    0    0    0  0.00000000000E+00  0.00000000000E+00  0.14999999963E+04  0.15000000000E+04  0.10566000000E+00 0.  1.
        994   -1    0    0    0    0 -0.00000000000E+00 -0.00000000000E+00  0.11368683772E-12  0.17120000000E+03  0.17120000000E+03 0.  0.
         13    1    1    2    0    0  0.11420511220E+02 -0.67399278050E+01  0.65629411920E+02  0.66955847963E+02  0.10566000000E+00 0.  1.
        994    1    1    2    0    0 -0.95690740806E+01  0.33171575131E+01  0.16740888099E+01  0.17150747297E+03  0.17120000000E+03 0.  0.
        998    1    1    2    0    0 -0.18514371391E+01  0.34227702919E+01  0.14326964955E+04  0.14327366791E+04  0.10000000000E+02 0.  1.
</event>
<event>
 5    1  0.1303633E-008  0.3712235E+03  0.7957747E-01  0.3490287E+00
         13   -1    0    0    0    0  0.00000000000E+00  0.00000000000E+00  0.14999999963E+04  0.15000000000E+04  0.10566000000E+00 0.  1.
        994   -1    0    0    0    0 -0.00000000000E+00 -0.00000000000E+00  0.11368683772E-12  0.17120000000E+03  0.17120000000E+03 0.  0.
         13    1    1    2    0    0  0.69784040457E+02 -0.25545405276E+02  0.33024487635E+03  0.33850268766E+03  0.10566000000E+00 0.  1.
        994    1    1    2    0    0 -0.31984973271E+02  0.20790435983E+02  0.13658298470E+02  0.17592972989E+03  0.17120000000E+03 0.  0.
        998    1    1    2    0    0 -0.37799067186E+02  0.47549692929E+01  0.11560968215E+04  0.11567675824E+04  0.10000000000E+02 0.  1.
</event>
<event>
 5    1  0.1303633E-008  0.3850031E+03  0.7957747E-01  0.3429659E+00
         13   -1    0    0    0    0  0.00000000000E+00  0.00000000000E+00  0.14999999963E+04  0.15000000000E+04  0.10566000000E+00 0.  1.
        994   -1    0    0    0    0 -0.00000000000E+00 -0.00000000000E+00  0.11368683772E-12  0.17120000000E+03  0.17120000000E+03 0.  0.
         13    1    1    2    0    0  0.46799119097E+01  0.10561047967E+02  0.41032758380E+02  0.42627875082E+02  0.10566000000E+00 0.  1.
        994    1    1    2    0    0  0.89247404203E+01 -0.11640816637E+02  0.23364907058E+01  0.17184312262E+03  0.17120000000E+03 0.  0.
        998    1    1    2    0    0 -0.13604652330E+02  0.10797686704E+01  0.14566307472E+04  0.14567290023E+04  0.10000000000E+02 0.  1.
</event>
<event>
 5    1  0.1303633E-008  0.3791263E+03  0.7957747E-01  0.3454971E+00
         13   -1    0    0    0    0  0.00000000000E+00  0.00000000000E+00  0.14999999963E+04  0.15000000000E+04  0.10566000000E+00 0. -1.
        994   -1    0    0    0    0 -0.00000000000E+00 -0.00000000000E+00  0.11368683772E-12  0.17120000000E+03  0.17120000000E+03 0.  0.
         13    1    1    2    0    0 -0.16282904235E+02 -0.34055497466E+01  0.27872362434E+02  0.32459366769E+02  0.10566000000E+00 0. -1.
        994    1    1    2    0    0  0.17652928607E+02  0.21008178369E+01  0.56350715808E+01  0.17221275608E+03  0.17120000000E+03 0.  0.
        998    1    1    2    0    0 -0.13700243721E+01  0.13047319097E+01  0.14664925623E+04  0.14665278772E+04  0.10000000000E+02 0. -1.
</event>
<event>
 5    1  0.1303633E-008  0.4134387E+03  0.7957747E-01  0.3317344E+00
         13   -1    0    0    0    0  0.00000000000E+00  0.00000000000E+00  0.14999999963E+04  0.15000000000E+04  0.10566000000E+00 0. -1.
        994   -1    0    0    0    0 -0.00000000000E+00 -0.00000000000E+00  0.11368683772E-12  0.17120000000E+03  0.17120000000E+03 0.  0.
         13    1    1    2    0    0 -0.21185343883E+02  0.69570407786E+02  0.65306451015E+02  0.97743563181E+02  0.10566000000E+00 0. -1.
        994    1    1    2    0    0  0.41577847397E+02 -0.25305639929E+02  0.45947845259E+02  0.18381985010E+03  0.17120000000E+03 0.  0.
        998    1    1    2    0    0 -0.20392503513E+02 -0.44264767858E+02  0.13887457000E+04  0.13896365867E+04  0.10000000000E+02 0. -1.
</event>
<event>
 5    1  0.1303633E-008  0.3830466E+03  0.7957747E-01  0.3437999E+00
         13   -1    0    0    0    0  0.00000000000E+00  0.00000000000E+00  0.14999999963E+04  0.15000000000E+04  0.10566000000E+00 0. -1.
        994   -1    0    0    0    0 -0.00000000000E+00 -0.00000000000E+00  0.11368683772E-12  0.17120000000E+03  0.17120000000E+03 0.  0.
         13    1    1    2    0    0 -0.17000417495E+02  0.39189387640E+02  0.17355800193E+03  0.17873783454E+03  0.10566000000E+00 0. -1.
        994    1    1    2    0    0  0.40256762022E+02 -0.11055107879E+03  0.49850908966E+02  0.21362748193E+03  0.17120000000E+03 0.  0.
        998    1    1    2    0    0 -0.23256344527E+02  0.71361691148E+02  0.12765910854E+04  0.12788346835E+04  0.10000000000E+02 0. -1.
</event>
<event>
 5    1  0.1303633E-008  0.3817195E+03  0.7957747E-01  0.3443705E+00
         13   -1    0    0    0    0  0.00000000000E+00  0.00000000000E+00  0.14999999963E+04  0.15000000000E+04  0.10566000000E+00 0.  1.
        994   -1    0    0    0    0 -0.00000000000E+00 -0.00000000000E+00  0.11368683772E-12  0.17120000000E+03  0.17120000000E+03 0.  0.
         13    1    1    2    0    0 -0.18412016695E+02 -0.12343606595E+02  0.72878236597E+02  0.76174900827E+02  0.10566000000E+00 0.  1.
        994    1    1    2    0    0  0.10376402749E+02  0.15854122480E+02  0.44619697622E+01  0.17230314016E+03  0.17120000000E+03 0.  0.
        998    1    1    2    0    0  0.80356139458E+01 -0.35105158850E+01  0.14226597899E+04  0.14227219590E+04  0.10000000000E+02 0.  1.
</event>
<event>
 5    1  0.1303633E-008  0.3766281E+03  0.7957747E-01  0.3465973E+00
         13   -1    0    0    0    0  0.00000000000E+00  0.00000000000E+00  0.14999999963E+04  0.15000000000E+04  0.10566000000E+00 0.  1.
        994   -1    0    0    0    0 -0.00000000000E+00 -0.00000000000E+00  0.11368683772E-12  0.17120000000E+03  0.17120000000E+03 0.  0.
         13    1    1    2    0    0  0.10672734324E+03  0.24713270291E+02  0.41081099512E+03  0.42516720993E+03  0.10566000000E+00 0.  1.
        994    1    1    2    0    0 -0.56443770252E+02 -0.43861359072E+02  0.33011195933E+02  0.18843804573E+03  0.17120000000E+03 0.  0.
        998    1    1    2    0    0 -0.50283572986E+02  0.19148088781E+02  0.10561778052E+04  0.10575947443E+04  0.10000000000E+02 0. -1.
</event>
<event>
 5    1  0.1303633E-008  0.3851165E+03  0.7957747E-01  0.3429178E+00
         13   -1    0    0    0    0  0.00000000000E+00  0.00000000000E+00  0.14999999963E+04  0.15000000000E+04  0.10566000000E+00 0.  1.
        994   -1    0    0    0    0 -0.00000000000E+00 -0.00000000000E+00  0.11368683772E-12  0.17120000000E+03  0.17120000000E+03 0.  0.
         13    1    1    2    0    0  0.10479475943E+02  0.37821172346E+01  0.39419770154E+02  0.40964048504E+02  0.10566000000E+00 0.  1.
        994    1    1    2    0    0 -0.73858279032E+01 -0.12665196626E+01  0.17569280444E+01  0.17137293054E+03  0.17120000000E+03 0.  0.
        998    1    1    2    0    0 -0.30936480402E+01 -0.25155975721E+01  0.14588232981E+04  0.14588630210E+04  0.10000000000E+02 0.  1.
</event>
<event>
 5    1  0.1303633E-008  0.3860465E+03  0.7957747E-01  0.3425246E+00
         13   -1    0    0    0    0  0.00000000000E+00  0.00000000000E+00  0.14999999963E+04  0.15000000000E+04  0.10566000000E+00 0. -1.
        994   -1    0    0    0    0 -0.00000000000E+00 -0.00000000000E+00  0.11368683772E-12  0.17120000000E+03  0.17120000000E+03 0.  0.
         13    1    1    2    0    0 -0.79709195663E+01  0.94162812712E+01  0.70361543710E+02  0.71435004788E+02  0.10566000000E+00 0. -1.
        994    1    1    2    0    0  0.11747194523E+02  0.14616597840E+01  0.15708586495E+01  0.17161596845E+03  0.17120000000E+03 0.  0.
        998    1    1    2    0    0 -0.37762749570E+01 -0.10877941055E+02  0.14280675939E+04  0.14281490268E+04  0.10000000000E+02 0. -1.
</event>
<event>
 5    1  0.1303633E-008  0.3787406E+03  0.7957747E-01  0.3456661E+00
         13   -1    0    0    0    0  0.00000000000E+00  0.00000000000E+00  0.14999999963E+04  0.15000000000E+04  0.10566000000E+00 0.  1.
        994   -1    0    0    0    0 -0.00000000000E+00 -0.00000000000E+00  0.11368683772E-12  0.17120000000E+03  0.17120000000E+03 0.  0.
         13    1    1    2    0    0 -0.22546877847E+01 -0.10824977410E+02  0.10631384652E+02  0.15339532476E+02  0.10566000000E+00 0.  1.
        994    1    1    2    0    0  0.34205904984E+01  0.10042225454E+02  0.51481187931E+01  0.17160562304E+03  0.17120000000E+03 0.  0.
        998    1    1    2    0    0 -0.11659027137E+01  0.78275195609E+00  0.14842204928E+04  0.14842548445E+04  0.10000000000E+02 0.  1.
</event>
<event>
 5    1  0.1303633E-008  0.3771455E+03  0.7957747E-01  0.3463682E+00
         13   -1    0    0    0    0  0.00000000000E+00  0.00000000000E+00  0.14999999963E+04  0.15000000000E+04  0.10566000000E+00 0.  1.
        994   -1    0    0    0    0 -0.00000000000E+00 -0.00000000000E+00  0.11368683772E-12  0.17120000000E+03  0.17120000000E+03 0.  0.
         13    1    1    2    0    0 -0.11513605508E+02  0.15868865635E+01  0.96091536886E+01  0.15080726754E+02  0.10566000000E+00 0.  1.
        994    1    1    2    0    0  0.82059690401E+01  0.34803694876E+01  0.58492243502E+01  0.17153164234E+03  0.17120000000E+03 0.  0.
        998    1    1    2    0    0  0.33076364684E+01 -0.50672560512E+01  0.14845416182E+04  0.14845876309E+04  0.10000000000E+02 0.  1.
</event>
<event>
 5    1  0.1303633E-008  0.3821963E+03  0.7957747E-01  0.3441651E+00
         13   -1    0    0    0    0  0.00000000000E+00  0.00000000000E+00  0.14999999963E+04  0.15000000000E+04  0.10566000000E+00 0. -1.
        994   -1    0    0    0    0 -0.00000000000E+00 -0.00000000000E+00  0.11368683772E-12  0.17120000000E+03  0.17120000000E+03 0.  0.
         13    1    1    2    0    0  0.34576194365E+02 -0.16660999846E+02  0.19723471623E+03  0.20093443355E+03  0.10566000000E+00 0. -1.
        994    1    1    2    0    0 -0.48865181983E+02  0.85517216807E+01  0.11239400467E+02  0.17859647834E+03  0.17120000000E+03 0.  0.
        998    1    1    2    0    0  0.14288987618E+02  0.81092781656E+01  0.12915258796E+04  0.12916690881E+04  0.10000000000E+02 0. -1.
</event>
<event>
 5    1  0.1303633E-008  0.3780804E+03  0.7957747E-01  0.3459560E+00
         13   -1    0    0    0    0  0.00000000000E+00  0.00000000000E+00  0.14999999963E+04  0.15000000000E+04  0.10566000000E+00 0.  1.
        994   -1    0    0    0    0 -0.00000000000E+00 -0.00000000000E+00  0.11368683772E-12  0.17120000000E+03  0.17120000000E+03 0.  0.
         13    1    1    2    0    0  0.11188963417E+02  0.32819459958E+01  0.11158639717E+02  0.16139717353E+02  0.10566000000E+00 0.  1.
        994    1    1    2    0    0 -0.11546156241E+02  0.28369705598E+02  0.82679335466E+01  0.17411476860E+03  0.17120000000E+03 0.  0.
        998    1    1    2    0    0  0.35719282385E+00 -0.31651651593E+02  0.14805734230E+04  0.14809455140E+04  0.10000000000E+02 0.  1.
</event>
<event>
 5    1  0.1303633E-008  0.3840206E+03  0.7957747E-01  0.3433837E+00
         13   -1    0    0    0    0  0.00000000000E+00  0.00000000000E+00  0.14999999963E+04  0.15000000000E+04  0.10566000000E+00 0. -1.
        994   -1    0    0    0    0 -0.00000000000E+00 -0.00000000000E+00  0.11368683772E-12  0.17120000000E+03  0.17120000000E+03 0.  0.
         13    1    1    2    0    0 -0.18783378099E+02  0.85221879355E+01  0.10229029905E+03  0.10434921861E+03  0.10566000000E+00 0. -1.
        994    1    1    2    0    0  0.60224888068E+01 -0.10653819769E+02  0.26114756068E+01  0.17165673320E+03  0.17120000000E+03 0.  0.
        998    1    1    2    0    0  0.12760889292E+02  0.21316318336E+01  0.13950982216E+04  0.13951940482E+04  0.10000000000E+02 0. -1.
</event>
<event>
 5    1  0.1303633E-008  0.3738702E+03  0.7957747E-01  0.3478291E+00
         13   -1    0    0    0    0  0.00000000000E+00  0.00000000000E+00  0.14999999963E+04  0.15000000000E+04  0.10566000000E+00 0. -1.
        994   -1    0    0    0    0 -0.00000000000E+00 -0.00000000000E+00  0.11368683772E-12  0.17120000000E+03  0.17120000000E+03 0.  0.
         13    1    1    2    0    0  0.12257057582E+02  0.11951007620E+02  0.16896659291E+02  0.24053488373E+02  0.10566000000E+00 0. -1.
        994    1    1    2    0    0 -0.10072316195E+02 -0.12038809919E+02  0.81011864523E+01  0.17210884265E+03  0.17120000000E+03 0.  0.
        998    1    1    2    0    0 -0.21847413875E+01  0.87802298977E-01  0.14750021505E+04  0.14750376690E+04  0.10000000000E+02 0. -1.
</event>
<event>
 5    1  0.1303633E-008  0.3801207E+03  0.7957747E-01  0.3450633E+00
         13   -1    0    0    0    0  0.00000000000E+00  0.00000000000E+00  0.14999999963E+04  0.15000000000E+04  0.10566000000E+00 0.  1.
        994   -1    0    0    0    0 -0.00000000000E+00 -0.00000000000E+00  0.11368683772E-12  0.17120000000E+03  0.17120000000E+03 0.  0.
         13    1    1    2    0    0  0.26934410564E+02  0.14765773737E+02  0.10868168210E+03  0.11293896464E+03  0.10566000000E+00 0.  1.
        994    1    1    2    0    0 -0.14909937173E+02 -0.32152499732E+02  0.82809867988E+01  0.17502601009E+03  0.17120000000E+03 0.  0.
        998    1    1    2    0    0 -0.12024473391E+02  0.17386725995E+02  0.13830373274E+04  0.13832350253E+04  0.10000000000E+02 0.  1.
</event>
<event>
 5    1  0.1303633E-008  0.3863400E+03  0.7957747E-01  0.3424009E+00
         13   -1    0    0    0    0  0.00000000000E+00  0.00000000000E+00  0.14999999963E+04  0.15000000000E+04  0.10566000000E+00 0. -1.
        994   -1    0    0    0    0 -0.00000000000E+00 -0.00000000000E+00  0.11368683772E-12  0.17120000000E+03  0.17120000000E+03 0.  0.
         13    1    1    2    0    0 -0.10708095572E+02 -0.37197578437E+01  0.64103936142E+02  0.65098584486E+02  0.10566000000E+00 0. -1.
        994    1    1    2    0    0  0.16436709013E+02 -0.32241881441E+01  0.18855423020E+01  0.17202777701E+03  0.17120000000E+03 0.  0.
        998    1    1    2    0    0 -0.57286134414E+01  0.69439459878E+01  0.14340105178E+04  0.14340736385E+04  0.10000000000E+02 0. -1.
</event>
<event>
 5    1  0.1303633E-008  0.3833415E+03  0.7957747E-01  0.3436737E+00
         13   -1    0    0    0    0  0.00000000000E+00  0.00000000000E+00  0.14999999963E+04  0.15000000000E+04  0.10566000000E+00 0. -1.
        994   -1    0    0    0    0 -0.00000000000E+00 -0.00000000000E+00  0.11368683772E-12  0.17120000000E+03  0.17120000000E+03 0.  0.
         13    1    1    2    0    0  0.54358995030E+01  0.21278904791E+02  0.11983243640E+03  0.12182842349E+03  0.10566000000E+00 0. -1.
        994    1    1    2    0    0  0.11216206048E+02  0.11658763393E+02  0.33216481523E+01  0.17199477721E+03  0.17120000000E+03 0.  0.
        998    1    1    2    0    0 -0.16652105551E+02 -0.32937668184E+02  0.13768459117E+04  0.13773767993E+04  0.10000000000E+02 0. -1.
</event>
<event>
 5    1  0.1303633E-008  0.3791272E+03  0.7957747E-01  0.3454967E+00
         13   -1    0    0    0    0  0.00000000000E+00  0.00000000000E+00  0.14999999963E+04  0.15000000000E+04  0.10566000000E+00 0.  1.
        994   -1    0    0    0    0 -0.00000000000E+00 -0.00000000000E+00  0.11368683772E-12  0.17120000000E+03  0.17120000000E+03 0.  0.
         13    1    1    2    0    0 -0.15451405073E+01  0.10857073001E+02  0.11152234579E+02  0.15641195398E+02  0.10566000000E+00 0.  1.
        994    1    1    2    0    0  0.80332379337E+01 -0.55930503992E+01  0.48956451547E+01  0.17154947527E+03  0.17120000000E+03 0.  0.
        998    1    1    2    0    0 -0.64880974264E+01 -0.52640226018E+01  0.14839521165E+04  0.14840093293E+04  0.10000000000E+02 0.  1.
</event>
<event>
 5    1  0.1303633E-008  0.3753977E+03  0.7957747E-01  0.3471446E+00
         13   -1    0    0    0    0  0.00000000000E+00  0.00000000000E+00  0.14999999963E+04  0.15000000000E+04  0.10566000000E+00 0. -1.
        994   -1    0    0    0    0 -0.00000000000E+00 -0.00000000000E+00  0.11368683772E-12  0.17120000000E+03  0.17120000000E+03 0.  0.
         13    1    1    2    0    0 -0.17469581767E+02 -0.21263940782E+02  0.21020935331E+02  0.34629934319E+02  0.10566000000E+00 0. -1.
        994    1    1    2    0    0  0.26212409678E+02  0.20460535899E+02  0.17772230104E+02  0.17530264149E+03  0.17120000000E+03 0.  0.
        998    1    1    2    0    0 -0.87428279106E+01  0.80340488241E+00  0.14612068308E+04  0.14612674242E+04  0.10000000000E+02 0. -1.
</event>
<event>
 5    1  0.1303633E-008  0.3783625E+03  0.7957747E-01  0.3458320E+00
         13   -1    0    0    0    0  0.00000000000E+00  0.00000000000E+00  0.14999999963E+04  0.15000000000E+04  0.10566000000E+00 0. -1.
        994   -1    0    0    0    0 -0.00000000000E+00 -0.00000000000E+00  0.11368683772E-12  0.17120000000E+03  0.17120000000E+03 0.  0.
         13    1    1    2    0    0 -0.32073822102E+02  0.24657444931E+02  0.16959421050E+03  0.17435288083E+03  0.10566000000E+00 0. -1.
        994    1    1    2    0    0  0.81330301102E+01 -0.18285927669E+02  0.63093807913E+01  0.17248121525E+03  0.17120000000E+03 0.  0.
        998    1    1    2    0    0  0.23940791992E+02 -0.63715172619E+01  0.13240964050E+04  0.13243659039E+04  0.10000000000E+02 0. -1.
</event>
<event>
 5    1  0.1303633E-008  0.3855605E+03  0.7957747E-01  0.3427298E+00
         13   -1    0    0    0    0  0.00000000000E+00  0.00000000000E+00  0.14999999963E+04  0.15000000000E+04  0.10566000000E+00 0.  1.
        994   -1    0    0    0    0 -0.00000000000E+00 -0.00000000000E+00  0.11368683772E-12  0.17120000000E+03  0.17120000000E+03 0.  0.
         13    1    1    2    0    0 -0.25682294010E+02  0.19633449097E+02  0.18689395709E+02  0.37341092981E+02  0.10566000000E+00 0.  1.
        994    1    1    2    0    0  0.16337307322E+02 -0.29409925439E+02  0.23613780089E+02  0.17606505029E+03  0.17120000000E+03 0.  0.
        998    1    1    2    0    0  0.93449866878E+01  0.97764763419E+01  0.14576968205E+04  0.14577938567E+04  0.10000000000E+02 0.  1.
</event>
<event>
 5    1  0.1303633E-008  0.3852008E+03  0.7957747E-01  0.3428821E+00
         13   -1    0    0    0    0  0.00000000000E+00  0.00000000000E+00  0.14999999963E+04  0.15000000000E+04  0.10566000000E+00 0.  1.
        994   -1    0    0    0    0 -0.00000000000E+00 -0.00000000000E+00  0.11368683772E-12  0.17120000000E+03  0.17120000000E+03 0.  0.
         13    1    1    2    0    0  0.47119202425E+01 -0.15910039272E+02  0.10022872422E+03  0.10159301090E+03  0.10566000000E+00 0.  1.
        994    1    1    2    0    0  0.14123869821E+01 -0.17839518106E+01  0.15475145470E+01  0.17122211342E+03  0.17120000000E+03 0.  0.
        998    1    1    2    0    0 -0.61243072246E+01  0.17693991083E+02  0.13982237575E+04  0.13983848757E+04  0.10000000000E+02 0.  1.
</event>
<event>
 5    1  0.1303633E-008  0.3831230E+03  0.7957747E-01  0.3437672E+00
         13   -1    0    0    0    0  0.00000000000E+00  0.00000000000E+00  0.14999999963E+04  0.15000000000E+04  0.10566000000E+00 0. -1.
        994   -1    0    0    0    0 -0.00000000000E+00 -0.00000000000E+00  0.11368683772E-12  0.17120000000E+03  0.17120000000E+03 0.  0.
         13    1    1    2    0    0 -0.22614618646E+01  0.16982301730E+02  0.57116335356E+02  0.59630526665E+02  0.10566000000E+00 0. -1.
        994    1    1    2    0    0  0.35219226563E+01 -0.85034180696E+01  0.28452567534E+01  0.17147083584E+03  0.17120000000E+03 0.  0.
        998    1    1    2    0    0 -0.12604607917E+01 -0.84788836603E+01  0.14400384042E+04  0.14400986375E+04  0.10000000000E+02 0. -1.
</event>
<event>
 5    1  0.1303633E-008  0.3840201E+03  0.7957747E-01  0.3433839E+00
         13   -1    0    0    0    0  0.00000000000E+00  0.00000000000E+00  0.14999999963E+04  0.15000000000E+04  0.10566000000E+00 0. -1.
        994   -1    0    0    0    0 -0.00000000000E+00 -0.00000000000E+00  0.11368683772E-12  0.17120000000E+03  0.17120000000E+03 0.  0.
         13    1    1    2    0    0 -0.12693696889E+02  0.82317176160E+01  0.55009287222E+02  0.57051940899E+02  0.10566000000E+00 0. -1.
        994    1    1    2    0    0  0.20678085220E+01 -0.60427954649E+01  0.22519873919E+01  0.17133389232E+03  0.17120000000E+03 0.  0.
        998    1    1    2    0    0  0.10625888367E+02 -0.21889221511E+01  0.14427387217E+04  0.14428141668E+04  0.10000000000E+02 0. -1.
</event>
<event>
 5    1  0.1303633E-008  0.3850713E+03  0.7957747E-01  0.3429370E+00
         13   -1    0    0    0    0  0.00000000000E+00  0.00000000000E+00  0.14999999963E+04  0.15000000000E+04  0.10566000000E+00 0.  1.
        994   -1    0    0    0    0 -0.00000000000E+00 -0.00000000000E+00  0.11368683772E-12  0.17120000000E+03  0.17120000000E+03 0.  0.
         13    1    1    2    0    0  0.16055479322E+02  0.30767809700E+01  0.80050644178E+02  0.81702887310E+02  0.10566000000E+00 0.  1.
        994    1    1    2    0    0 -0.17322922440E+02 -0.13701078065E+01  0.25882083358E+01  0.17209909837E+03  0.17120000000E+03 0.  0.
        998    1    1    2    0    0  0.12674431181E+01 -0.17066731635E+01  0.14173611438E+04  0.14173980143E+04  0.10000000000E+02 0.  1.
</event>
<event>
 5    1  0.1303633E-008  0.3794109E+03  0.7957747E-01  0.3453728E+00
         13   -1    0    0    0    0  0.00000000000E+00  0.00000000000E+00  0.14999999963E+04  0.15000000000E+04  0.10566000000E+00 0. -1.
        994   -1    0    0    0    0 -0.00000000000E+00 -0.00000000000E+00  0.11368683772E-12  0.17120000000E+03  0.17120000000E+03 0.  0.
         13    1    1    2    0    0 -0.40791236715E+00  0.15445147101E+02  0.24858894395E+02  0.29269348404E+02  0.10566000000E+00 0. -1.
        994    1    1    2    0    0  0.12730861029E+01 -0.14387670591E+02  0.51298897785E+01  0.17188479160E+03  0.17120000000E+03 0.  0.
        998    1    1    2    0    0 -0.86517373575E+00 -0.10574765103E+01  0.14700112121E+04  0.14700458600E+04  0.10000000000E+02 0. -1.
</event>
<event>
 5    1  0.1303633E-008  0.3854039E+03  0.7957747E-01  0.3427961E+00
         13   -1    0    0    0    0  0.00000000000E+00  0.00000000000E+00  0.14999999963E+04  0.15000000000E+04  0.10566000000E+00 0.  1.
        994   -1    0    0    0    0 -0.00000000000E+00 -0.00000000000E+00  0.11368683772E-12  0.17120000000E+03  0.17120000000E+03 0.  0.
         13    1    1    2    0    0 -0.60512729899E+01  0.10377480559E+02  0.48996115518E+02  0.50447403377E+02  0.10566000000E+00 0.  1.
        994    1    1    2    0    0  0.66875659538E+01 -0.11936347737E+02  0.20448002986E+01  0.17175803080E+03  0.17120000000E+03 0.  0.
        998    1    1    2    0    0 -0.63629296390E+00  0.15588671782E+01  0.14489590805E+04  0.14489945658E+04  0.10000000000E+02 0.  1.
</event>
<event>
 5    1  0.1303633E-008  0.3797181E+03  0.7957747E-01  0.3452387E+00
         13   -1    0    0    0    0  0.00000000000E+00  0.00000000000E+00  0.14999999963E+04  0.15000000000E+04  0.10566000000E+00 0.  1.
        994   -1    0    0    0    0 -0.00000000000E+00 -0.00000000000E+00  0.11368683772E-12  0.17120000000E+03  0.17120000000E+03 0.  0.
         13    1    1    2    0    0  0.56646361437E+02 -0.21007953379E+02  0.35504571649E+03  0.36014943612E+03  0.10566000000E+00 0.  1.
        994    1    1    2    0    0 -0.48420174281E+02  0.20660194162E+02  0.13604959796E+02  0.17962709103E+03  0.17120000000E+03 0.  0.
        998    1    1    2    0    0 -0.82261871557E+01  0.34775921687E+00  0.11313493200E+04  0.11314234729E+04  0.10000000000E+02 0.  1.
</event>
<event>
 5    1  0.1303633E-008  0.3825527E+03  0.7957747E-01  0.3440118E+00
         13   -1    0    0    0    0  0.00000000000E+00  0.00000000000E+00  0.14999999963E+04  0.15000000000E+04  0.10566000000E+00 0. -1.
        994   -1    0    0    0    0 -0.00000000000E+00 -0.00000000000E+00  0.11368683772E-12  0.17120000000E+03  0.17120000000E+03 0.  0.
         13    1    1    2    0    0  0.10821068834E+01  0.22925941800E+02  0.86275408319E+02  0.89276127869E+02  0.10566000000E+00 0. -1.
        994    1    1    2    0    0  0.25473394939E+01 -0.25085551937E+02  0.49604751291E+01  0.17311793716E+03  0.17120000000E+03 0.  0.
        998    1    1    2    0    0 -0.36294463773E+01  0.21596101364E+01  0.14087641128E+04  0.14088059350E+04  0.10000000000E+02 0. -1.
</event>
<event>
 5    1  0.1303633E-008  0.3846605E+03  0.7957747E-01  0.3431113E+00
         13   -1    0    0    0    0  0.00000000000E+00  0.00000000000E+00  0.14999999963E+04  0.15000000000E+04  0.10566000000E+00 0. -1.
        994   -1    0    0    0    0 -0.00000000000E+00 -0.00000000000E+00  0.11368683772E-12  0.17120000000E+03  0.17120000000E+03 0.  0.
         13    1    1    2    0    0 -0.11172128652E+02 -0.16394234038E+02  0.11070661795E+03  0.11247023514E+03  0.10566000000E+00 0. -1.
        994    1    1    2    0    0  0.65593710361E+01  0.86352371045E+01  0.21860495489E+01  0.17155702108E+03  0.17120000000E+03 0.  0.
        998    1    1    2    0    0  0.46127576163E+01  0.77589969339E+01  0.13871073288E+04  0.13871727438E+04  0.10000000000E+02 0. -1.
</event>
<event>
 5    1  0.1303633E-008  0.3798139E+03  0.7957747E-01  0.3451969E+00
         13   -1    0    0    0    0  0.00000000000E+00  0.00000000000E+00  0.14999999963E+04  0.15000000000E+04  0.10566000000E+00 0. -1.
        994   -1    0    0    0    0 -0.00000000000E+00 -0.00000000000E+00  0.11368683772E-12  0.17120000000E+03  0.17120000000E+03 0.  0.
         13    1    1    2    0    0 -0.34482284447E+02  0.42458726351E+01  0.15647231079E+03  0.16028303274E+03  0.10566000000E+00 0. -1.
        994    1    1    2    0    0  0.47505711712E+01 -0.66328620935E+00  0.43040827955E+01  0.17132125672E+03  0.17120000000E+03 0.  0.
        998    1    1    2    0    0  0.29731713276E+02 -0.35825864257E+01  0.13392236027E+04  0.13395957105E+04  0.10000000000E+02 0. -1.
</event>
<event>
 5    1  0.1303633E-008  0.3856557E+03  0.7957747E-01  0.3426896E+00
         13   -1    0    0    0    0  0.00000000000E+00  0.00000000000E+00  0.14999999963E+04  0.15000000000E+04  0.10566000000E+00 0. -1.
        994   -1    0    0    0    0 -0.00000000000E+00 -0.00000000000E+00  0.11368683772E-12  0.17120000000E+03  0.17120000000E+03 0.  0.
         13    1    1    2    0    0  0.13516000079E+02 -0.47703655479E+01  0.78498519989E+02  0.79796412514E+02  0.10566000000E+00 0. -1.
        994    1    1    2    0    0 -0.10593621284E+02  0.19267792101E+01  0.16855073998E+01  0.17154654828E+03  0.17120000000E+03 0.  0.
        998    1    1    2    0    0 -0.29223787951E+01  0.28435863378E+01  0.14198159689E+04  0.14198570392E+04  0.10000000000E+02 0. -1.
</event>
<event>
 5    1  0.1303633E-008  0.3759952E+03  0.7957747E-01  0.3468784E+00
         13   -1    0    0    0    0  0.00000000000E+00  0.00000000000E+00  0.14999999963E+04  0.15000000000E+04  0.10566000000E+00 0. -1.
        994   -1    0    0    0    0 -0.00000000000E+00 -0.00000000000E+00  0.11368683772E-12  0.17120000000E+03  0.17120000000E+03 0.  0.
         13    1    1    2    0    0  0.55313536813E+01  0.18268668560E+02  0.26396707326E+02  0.32575104700E+02  0.10566000000E+00 0. -1.
        994    1    1    2    0    0  0.42167685369E+00 -0.22288137541E+02  0.78538955934E+01  0.17282379050E+03  0.17120000000E+03 0.  0.
        998    1    1    2    0    0 -0.59530305350E+01  0.40194689810E+01  0.14657493934E+04  0.14658011048E+04  0.10000000000E+02 0. -1.
</event>
<event>
 5    1  0.1303633E-008  0.3731994E+03  0.7957747E-01  0.3481315E+00
         13   -1    0    0    0    0  0.00000000000E+00  0.00000000000E+00  0.14999999963E+04  0.15000000000E+04  0.10566000000E+00 0.  1.
        994   -1    0    0    0    0 -0.00000000000E+00 -0.00000000000E+00  0.11368683772E-12  0.17120000000E+03  0.17120000000E+03 0.  0.
         13    1    1    2    0    0 -0.66918152001E+00  0.14569929838E+02  0.10459725392E+02  0.17948472880E+02  0.10566000000E+00 0.  1.
        994    1    1    2    0    0 -0.62791304929E+01 -0.15855714875E+02  0.86015407438E+01  0.17226217715E+03  0.17120000000E+03 0.  0.
        998    1    1    2    0    0  0.69483120129E+01  0.12857850367E+01  0.14809387301E+04  0.14809893500E+04  0.10000000000E+02 0.  1.
</event>
<event>
 5    1  0.1303633E-008  0.3778876E+03  0.7957747E-01  0.3460408E+00
         13   -1    0    0    0    0  0.00000000000E+00  0.00000000000E+00  0.14999999963E+04  0.15000000000E+04  0.10566000000E+00 0. -1.
        994   -1    0    0    0    0 -0.00000000000E+00 -0.00000000000E+00  0.11368683772E-12  0.17120000000E+03  0.17120000000E+03 0.  0.
         13    1    1    2    0    0 -0.38262219511E+02 -0.30390009525E+02  0.72373434242E+02  0.87323967322E+02  0.10566000000E+00 0. -1.
        994    1    1    2    0    0  0.30040871429E+02  0.22974409336E+02  0.20332043153E+02  0.17650243460E+03  0.17120000000E+03 0.  0.
        998    1    1    2    0    0  0.82213480817E+01  0.74156001888E+01  0.14072945189E+04  0.14073735981E+04  0.10000000000E+02 0. -1.
</event>
<event>
 5    1  0.1303633E-008  0.3769075E+03  0.7957747E-01  0.3464736E+00
         13   -1    0    0    0    0  0.00000000000E+00  0.00000000000E+00  0.14999999963E+04  0.15000000000E+04  0.10566000000E+00 0. -1.
        994   -1    0    0    0    0 -0.00000000000E+00 -0.00000000000E+00  0.11368683772E-12  0.17120000000E+03  0.17120000000E+03 0.  0.
         13    1    1    2    0    0  0.43622621222E+02 -0.79011778726E+01  0.16494752863E+03  0.17080122968E+03  0.10566000000E+00 0. -1.
        994    1    1    2    0    0 -0.32554151002E+02 -0.23042518870E+01  0.93081609436E+01  0.17453126993E+03  0.17120000000E+03 0.  0.
        998    1    1    2    0    0 -0.11068470221E+02  0.10205429760E+02  0.13257443067E+04  0.13258675004E+04  0.10000000000E+02 0. -1.
</event>
<event>
 5    1  0.1303633E-008  0.3774040E+03  0.7957747E-01  0.3462541E+00
         13   -1    0    0    0    0  0.00000000000E+00  0.00000000000E+00  0.14999999963E+04  0.15000000000E+04  0.10566000000E+00 0. -1.
        994   -1    0    0    0    0 -0.00000000000E+00 -0.00000000000E+00  0.11368683772E-12  0.17120000000E+03  0.17120000000E+03 0.  0.
         13    1    1    2    0    0  0.45685246389E+02 -0.26335842179E+02  0.26342121004E+03  0.26864747046E+03  0.10566000000E+00 0. -1.
        994    1    1    2    0    0 -0.19728037324E+02  0.15929399295E+02  0.76203196415E+01  0.17323524610E+03  0.17120000000E+03 0.  0.
        998    1    1    2    0    0 -0.25957209065E+02  0.10406442883E+02  0.12289584666E+04  0.12293172834E+04  0.10000000000E+02 0. -1.
</event>
<event>
 5    1  0.1303633E-008  0.3825810E+03  0.7957747E-01  0.3439996E+00
         13   -1    0    0    0    0  0.00000000000E+00  0.00000000000E+00  0.14999999963E+04  0.15000000000E+04  0.10566000000E+00 0.  1.
        994   -1    0    0    0    0 -0.00000000000E+00 -0.00000000000E+00  0.11368683772E-12  0.17120000000E+03  0.17120000000E+03 0.  0.
         13    1    1    2    0    0 -0.13121753558E+02 -0.58698927456E+01  0.34843171802E+02  0.37692092573E+02  0.10566000000E+00 0.  1.
        994    1    1    2    0    0  0.16301084809E+02 -0.10718311925E+01  0.37209793151E+01  0.17201790568E+03  0.17120000000E+03 0.  0.
        998    1    1    2    0    0 -0.31793312514E+01  0.69417239381E+01  0.14614358452E+04  0.14614900017E+04  0.10000000000E+02 0.  1.
</event>
<event>
 5    1  0.1303633E-008  0.3777146E+03  0.7957747E-01  0.3461170E+00
         13   -1    0    0    0    0  0.00000000000E+00  0.00000000000E+00  0.14999999963E+04  0.15000000000E+04  0.10566000000E+00 0.  1.
        994   -1    0    0    0    0 -0.00000000000E+00 -0.00000000000E+00  0.11368683772E-12  0.17120000000E+03  0.17120000000E+03 0.  0.
         13    1    1    2    0    0  0.11971867029E+02 -0.75870538890E+01  0.16502540680E+02  0.21753942167E+02  0.10566000000E+00 0.  1.
        994    1    1    2    0    0 -0.10778479920E+02  0.10669394185E+02  0.60664152747E+01  0.17197747816E+03  0.17120000000E+03 0.  0.
        998    1    1    2    0    0 -0.11933871086E+01 -0.30823402964E+01  0.14774310403E+04  0.14774685797E+04  0.10000000000E+02 0.  1.
</event>
<event>
 5    1  0.1303633E-008  0.3824205E+03  0.7957747E-01  0.3440686E+00
         13   -1    0    0    0    0  0.00000000000E+00  0.00000000000E+00  0.14999999963E+04  0.15000000000E+04  0.10566000000E+00 0.  1.
        994   -1    0    0    0    0 -0.00000000000E+00 -0.00000000000E+00  0.11368683772E-12  0.17120000000E+03  0.17120000000E+03 0.  0.
         13    1    1    2    0    0  0.25619304999E+02 -0.93862395547E+01  0.11859201832E+03  0.12169029647E+03  0.10566000000E+00 0.  1.
        994    1    1    2    0    0 -0.23970474312E+02  0.12343986495E+02  0.53308622361E+01  0.17339208671E+03  0.17120000000E+03 0.  0.
        998    1    1    2    0    0 -0.16488306871E+01 -0.29577469401E+01  0.13760771157E+04  0.13761176168E+04  0.10000000000E+02 0.  1.
</event>
<event>
 5    1  0.1303633E-008  0.3837044E+03  0.7957747E-01  0.3435186E+00
         13   -1    0    0    0    0  0.00000000000E+00  0.00000000000E+00  0.14999999963E+04  0.15000000000E+04  0.10566000000E+00 0.  1.
        994   -1    0    0    0    0 -0.00000000000E+00 -0.00000000000E+00  0.11368683772E-12  0.17120000000E+03  0.17120000000E+03 0.  0.
         13    1    1    2    0    0  0.45570672188E+01  0.22808485993E+02  0.10815449641E+03  0.11062730293E+03  0.10566000000E+00 0.  1.
        994    1    1    2    0    0  0.47127226296E+01 -0.29094424541E+02  0.51489288636E+01  0.17379484101E+03  0.17120000000E+03 0.  0.
        998    1    1    2    0    0 -0.92697898484E+01  0.62859385483E+01  0.13866965710E+04  0.13867778561E+04  0.10000000000E+02 0.  1.
</event>
<event>
 5    1  0.1303633E-008  0.4194939E+03  0.7957747E-01  0.3295376E+00
         13   -1    0    0    0    0  0.00000000000E+00  0.00000000000E+00  0.14999999963E+04  0.15000000000E+04  0.10566000000E+00 0. -1.
        994   -1    0    0    0    0 -0.00000000000E+00 -0.00000000000E+00  0.11368683772E-12  0.17120000000E+03  0.17120000000E+03 0.  0.
         13    1    1    2    0    0 -0.71332458276E+01 -0.22921542680E+02 -0.97861140237E+01  0.25924110526E+02  0.10566000000E+00 0. -1.
        994    1    1    2    0    0  0.14875350364E+02  0.25433808352E+02  0.43694919385E+02  0.17912800070E+03  0.17120000000E+03 0.  0.
        998    1    1    2    0    0 -0.77421045366E+01 -0.25122656718E+01  0.14660911909E+04  0.14661478888E+04  0.10000000000E+02 0. -1.
</event>
<event>
 5    1  0.1303633E-008  0.3699027E+03  0.7957747E-01  0.3496338E+00
         13   -1    0    0    0    0  0.00000000000E+00  0.00000000000E+00  0.14999999963E+04  0.15000000000E+04  0.10566000000E+00 0.  1.
        994   -1    0    0    0    0 -0.00000000000E+00 -0.00000000000E+00  0.11368683772E-12  0.17120000000E+03  0.17120000000E+03 0.  0.
         13    1    1    2    0    0 -0.91390210397E+02  0.13279189993E+02  0.30133317857E+03  0.31516694483E+03  0.10566000000E+00 0.  1.
        994    1    1    2    0    0  0.11185884524E+03 -0.65057387800E+02  0.69682355219E+02  0.22563230175E+03  0.17120000000E+03 0.  0.
        998    1    1    2    0    0 -0.20468634840E+02  0.51778197806E+02  0.11289844625E+04  0.11304007534E+04  0.10000000000E+02 0.  1.
</event>
<event>
 5    1  0.1303633E-008  0.3859906E+03  0.7957747E-01  0.3425482E+00
         13   -1    0    0    0    0  0.00000000000E+00  0.00000000000E+00  0.14999999963E+04  0.15000000000E+04  0.10566000000E+00 0. -1.
        994   -1    0    0    0    0 -0.00000000000E+00 -0.00000000000E+00  0.11368683772E-12  0.17120000000E+03  0.17120000000E+03 0.  0.
         13    1    1    2    0    0 -0.91792508545E+01 -0.95547107834E+01  0.77601241009E+02  0.78724296850E+02  0.10566000000E+00 0. -1.
        994    1    1    2    0    0  0.48922877332E+01  0.81044701529E+01  0.14329653098E+01  0.17146751968E+03  0.17120000000E+03 0.  0.
        998    1    1    2    0    0  0.42869631213E+01  0.14502406305E+01  0.14209657900E+04  0.14210081835E+04  0.10000000000E+02 0. -1.
</event>
<event>
 5    1  0.1303633E-008  0.3831232E+03  0.7957747E-01  0.3437671E+00
         13   -1    0    0    0    0  0.00000000000E+00  0.00000000000E+00  0.14999999963E+04  0.15000000000E+04  0.10566000000E+00 0.  1.
        994   -1    0    0    0    0 -0.00000000000E+00 -0.00000000000E+00  0.11368683772E-12  0.17120000000E+03  0.17120000000E+03 0.  0.
         13    1    1    2    0    0 -0.31550514512E+02 -0.60395902868E+01  0.19136345831E+03  0.19404096464E+03  0.10566000000E+00 0.  1.
        994    1    1    2    0    0  0.23390442676E+02  0.54824219656E+01  0.44768866637E+01  0.17293539913E+03  0.17120000000E+03 0.  0.
        998    1    1    2    0    0  0.81600718361E+01  0.55716832119E+00  0.13041596513E+04  0.13042236362E+04  0.10000000000E+02 0.  0.
</event>
<event>
 5    1  0.1303633E-008  0.3731493E+03  0.7957747E-01  0.3481541E+00
         13   -1    0    0    0    0  0.00000000000E+00  0.00000000000E+00  0.14999999963E+04  0.15000000000E+04  0.10566000000E+00 0. -1.
        994   -1    0    0    0    0 -0.00000000000E+00 -0.00000000000E+00  0.11368683772E-12  0.17120000000E+03  0.17120000000E+03 0.  0.
         13    1    1    2    0    0  0.65571938108E+02  0.77851239204E+02  0.52777127427E+03  0.53749699871E+03  0.10566000000E+00 0. -1.
        994    1    1    2    0    0 -0.35454910364E+02 -0.81289642120E+02  0.35032905270E+02  0.19596377481E+03  0.17120000000E+03 0.  0.
        998    1    1    2    0    0 -0.30117027743E+02  0.34384029155E+01  0.93719581674E+03  0.93773922648E+03  0.10000000000E+02 0.  1.
</event>
<event>
 5    1  0.1303633E-008  0.3701369E+03  0.7957747E-01  0.3495262E+00
         13   -1    0    0    0    0  0.00000000000E+00  0.00000000000E+00  0.14999999963E+04  0.15000000000E+04  0.10566000000E+00 0.  1.
        994   -1    0    0    0    0 -0.00000000000E+00 -0.00000000000E+00  0.11368683772E-12  0.17120000000E+03  0.17120000000E+03 0.  0.
         13    1    1    2    0    0  0.70883372423E+02  0.43748144534E+02  0.25127008764E+03  0.26471686902E+03  0.10566000000E+00 0.  1.
        994    1    1    2    0    0 -0.10152739683E+03 -0.58421850003E+02  0.58228692364E+02  0.21545520527E+03  0.17120000000E+03 0.  0.
        998    1    1    2    0    0  0.30644024409E+02  0.14673705468E+02  0.11905012163E+04  0.11910279257E+04  0.10000000000E+02 0.  1.
</event>
<event>
 5    1  0.1303633E-008  0.3834613E+03  0.7957747E-01  0.3436224E+00
         13   -1    0    0    0    0  0.00000000000E+00  0.00000000000E+00  0.14999999963E+04  0.15000000000E+04  0.10566000000E+00 0. -1.
        994   -1    0    0    0    0 -0.00000000000E+00 -0.00000000000E+00  0.11368683772E-12  0.17120000000E+03  0.17120000000E+03 0.  0.
         13    1    1    2    0    0  0.53780936328E+01 -0.11820896219E+02  0.33914602403E+02  0.36316234644E+02  0.10566000000E+00 0. -1.
        994    1    1    2    0    0  0.19376956514E+01  0.15103036727E+02  0.31626925241E+01  0.17190491269E+03  0.17120000000E+03 0.  0.
        998    1    1    2    0    0 -0.73157892842E+01 -0.32821405083E+01  0.14629227014E+04  0.14629788527E+04  0.10000000000E+02 0. -1.
</event>
<event>
 5    1  0.1303633E-008  0.3730376E+03  0.7957747E-01  0.3482046E+00
         13   -1    0    0    0    0  0.00000000000E+00  0.00000000000E+00  0.14999999963E+04  0.15000000000E+04  0.10566000000E+00 0.  1.
        994   -1    0    0    0    0 -0.00000000000E+00 -0.00000000000E+00  0.11368683772E-12  0.17120000000E+03  0.17120000000E+03 0.  0.
         13    1    1    2    0    0  0.76859103117E+01 -0.57592300948E+02  0.31383480141E+03  0.31916804365E+03  0.10566000000E+00 0.  1.
        994    1    1    2    0    0  0.26384274036E+02 -0.97461983561E+01  0.10401785216E+02  0.17380666108E+03  0.17120000000E+03 0.  0.
        998    1    1    2    0    0 -0.34070184347E+02  0.67338499304E+02  0.11757634097E+04  0.11782252953E+04  0.10000000000E+02 0.  1.
</event>
<event>
 5    1  0.1303633E-008  0.3808097E+03  0.7957747E-01  0.3447640E+00
         13   -1    0    0    0    0  0.00000000000E+00  0.00000000000E+00  0.14999999963E+04  0.15000000000E+04  0.10566000000E+00 0. -1.
        994   -1    0    0    0    0 -0.00000000000E+00 -0.00000000000E+00  0.11368683772E-12  0.17120000000E+03  0.17120000000E+03 0.  0.
         13    1    1    2    0    0 -0.72252068449E+01  0.11991266509E+02  0.26301005110E+02  0.29795102287E+02  0.10566000000E+00 0. -1.
        994    1    1    2    0    0 -0.71794684596E-01  0.10965125869E+02  0.41259324319E+01  0.17160041509E+03  0.17120000000E+03 0.  0.
        998    1    1    2    0    0  0.72970015295E+01 -0.22956392378E+02  0.14695730587E+04  0.14698044826E+04  0.10000000000E+02 0. -1.
</event>
<event>
 5    1  0.1303633E-008  0.3822306E+03  0.7957747E-01  0.3441503E+00
         13   -1    0    0    0    0  0.00000000000E+00  0.00000000000E+00  0.14999999963E+04  0.15000000000E+04  0.10566000000E+00 0. -1.
        994   -1    0    0    0    0 -0.00000000000E+00 -0.00000000000E+00  0.11368683772E-12  0.17120000000E+03  0.17120000000E+03 0.  0.
         13    1    1    2    0    0  0.11287187990E+02  0.79345871346E+01  0.29573798604E+02  0.32634016204E+02  0.10566000000E+00 0. -1.
        994    1    1    2    0    0 -0.10778698704E+02 -0.16944501101E+02  0.43508186348E+01  0.17242872755E+03  0.17120000000E+03 0.  0.
        998    1    1    2    0    0 -0.50848928564E+00  0.90099139663E+01  0.14660753790E+04  0.14661372562E+04  0.10000000000E+02 0. -1.
</event>
<event>
 5    1  0.1303633E-008  0.3825530E+03  0.7957747E-01  0.3440117E+00
         13   -1    0    0    0    0  0.00000000000E+00  0.00000000000E+00  0.14999999963E+04  0.15000000000E+04  0.10566000000E+00 0.  1.
        994   -1    0    0    0    0 -0.00000000000E+00 -0.00000000000E+00  0.11368683772E-12  0.17120000000E+03  0.17120000000E+03 0.  0.
         13    1    1    2    0    0 -0.13066843324E+02 -0.25300531723E+02  0.13042822319E+03  0.13350053134E+03  0.10566000000E+00 0.  1.
        994    1    1    2    0    0  0.14273616601E+02  0.25081094184E+02  0.56155044867E+01  0.17370599099E+03  0.17120000000E+03 0.  0.
        998    1    1    2    0    0 -0.12067732767E+01  0.21943753829E+00  0.13639562686E+04  0.13639934777E+04  0.10000000000E+02 0.  1.
</event>
<event>
 5    1  0.1303633E-008  0.3783075E+03  0.7957747E-01  0.3458561E+00
         13   -1    0    0    0    0  0.00000000000E+00  0.00000000000E+00  0.14999999963E+04  0.15000000000E+04  0.10566000000E+00 0.  1.
        994   -1    0    0    0    0 -0.00000000000E+00 -0.00000000000E+00  0.11368683772E-12  0.17120000000E+03  0.17120000000E+03 0.  0.
         13    1    1    2    0    0 -0.89401996569E+01  0.13451392841E+02  0.24326638438E+02  0.29200404809E+02  0.10566000000E+00 0.  1.
        994    1    1    2    0    0  0.48843517482E+01 -0.53874544781E+01  0.51677486297E+01  0.17143228163E+03  0.17120000000E+03 0.  0.
        998    1    1    2    0    0  0.40558479087E+01 -0.80639383629E+01  0.14705056092E+04  0.14705673136E+04  0.10000000000E+02 0.  1.
</event>
<event>
 5    1  0.1303633E-008  0.3816161E+03  0.7957747E-01  0.3444152E+00
         13   -1    0    0    0    0  0.00000000000E+00  0.00000000000E+00  0.14999999963E+04  0.15000000000E+04  0.10566000000E+00 0. -1.
        994   -1    0    0    0    0 -0.00000000000E+00 -0.00000000000E+00  0.11368683772E-12  0.17120000000E+03  0.17120000000E+03 0.  0.
         13    1    1    2    0    0  0.27012993457E+02 -0.13729305983E+02  0.17392823919E+03  0.17654812152E+03  0.10566000000E+00 0. -1.
        994    1    1    2    0    0  0.11110532071E+02 -0.48368687501E+01  0.38079891454E+01  0.17167055660E+03  0.17120000000E+03 0.  0.
        998    1    1    2    0    0 -0.38123525528E+02  0.18566174734E+02  0.13222637679E+04  0.13229813219E+04  0.10000000000E+02 0. -1.
</event>
<event>
 5    1  0.1303633E-008  0.3828154E+03  0.7957747E-01  0.3438990E+00
         13   -1    0    0    0    0  0.00000000000E+00  0.00000000000E+00  0.14999999963E+04  0.15000000000E+04  0.10566000000E+00 0.  1.
        994   -1    0    0    0    0 -0.00000000000E+00 -0.00000000000E+00  0.11368683772E-12  0.17120000000E+03  0.17120000000E+03 0.  0.
         13    1    1    2    0    0 -0.43860536489E+02  0.18718592772E+03  0.10492002659E+04  0.10666693617E+04  0.10566000000E+00 0.  1.
        994    1    1    2    0    0  0.39086595415E+02 -0.19709959593E+03  0.15050964202E+03  0.30387267893E+03  0.17120000000E+03 0.  0.
        998    1    1    2    0    0  0.47739410742E+01  0.99136682060E+01  0.30029008839E+03  0.30065795935E+03  0.10000000000E+02 0. -1.
</event>
<event>
 5    1  0.1303633E-008  0.3841982E+03  0.7957747E-01  0.3433080E+00
         13   -1    0    0    0    0  0.00000000000E+00  0.00000000000E+00  0.14999999963E+04  0.15000000000E+04  0.10566000000E+00 0.  1.
        994   -1    0    0    0    0 -0.00000000000E+00 -0.00000000000E+00  0.11368683772E-12  0.17120000000E+03  0.17120000000E+03 0.  0.
         13    1    1    2    0    0 -0.10766945709E+02 -0.12837175764E+01  0.28704718962E+02  0.30684639569E+02  0.10566000000E+00 0.  1.
        994    1    1    2    0    0  0.57595789885E+01 -0.54901728835E+01  0.22375226889E+01  0.17139942023E+03  0.17120000000E+03 0.  0.
        998    1    1    2    0    0  0.50073667209E+01  0.67738904599E+01  0.14690577546E+04  0.14691159402E+04  0.10000000000E+02 0.  1.
</event>
<event>
 5    1  0.1303633E-008  0.3824437E+03  0.7957747E-01  0.3440587E+00
         13   -1    0    0    0    0  0.00000000000E+00  0.00000000000E+00  0.14999999963E+04  0.15000000000E+04  0.10566000000E+00 0. -1.
        994   -1    0    0    0    0 -0.00000000000E+00 -0.00000000000E+00  0.11368683772E-12  0.17120000000E+03  0.17120000000E+03 0.  0.
         13    1    1    2    0    0 -0.15416359951E+02 -0.21141645213E+02  0.12538870387E+03  0.12808970114E+03  0.10566000000E+00 0. -1.
        994    1    1    2    0    0  0.53940580416E+01  0.30703671046E+01  0.30324090444E+01  0.17133930816E+03  0.17120000000E+03 0.  0.
        998    1    1    2    0    0  0.10022301910E+02  0.18071278108E+02  0.13715788834E+04  0.13717709907E+04  0.10000000000E+02 0. -1.
</event>
<event>
 5    1  0.1303633E-008  0.3817472E+03  0.7957747E-01  0.3443586E+00
         13   -1    0    0    0    0  0.00000000000E+00  0.00000000000E+00  0.14999999963E+04  0.15000000000E+04  0.10566000000E+00 0. -1.
        994   -1    0    0    0    0 -0.00000000000E+00 -0.00000000000E+00  0.11368683772E-12  0.17120000000E+03  0.17120000000E+03 0.  0.
         13    1    1    2    0    0  0.17966396106E+02 -0.89980684422E+01  0.63070302932E+02  0.66193888696E+02  0.10566000000E+00 0. -1.
        994    1    1    2    0    0  0.53053281179E+00  0.13479055156E+02  0.38588106308E+01  0.17177397012E+03  0.17120000000E+03 0.  0.
        998    1    1    2    0    0 -0.18496928917E+02 -0.44809867142E+01  0.14330708827E+04  0.14332321412E+04  0.10000000000E+02 0. -1.
</event>
<event>
 5    1  0.1303633E-008  0.3743502E+03  0.7957747E-01  0.3476134E+00
         13   -1    0    0    0    0  0.00000000000E+00  0.00000000000E+00  0.14999999963E+04  0.15000000000E+04  0.10566000000E+00 0. -1.
        994   -1    0    0    0    0 -0.00000000000E+00 -0.00000000000E+00  0.11368683772E-12  0.17120000000E+03  0.17120000000E+03 0.  0.
         13    1    1    2    0    0 -0.31348244904E+02  0.67284311492E+02  0.43200596805E+03  0.43833669551E+03  0.10566000000E+00 0. -1.
        994    1    1    2    0    0  0.30786119844E+01 -0.34048793461E+02  0.11004851280E+02  0.17492668447E+03  0.17120000000E+03 0.  0.
        998    1    1    2    0    0  0.28269632920E+02 -0.33235518031E+02  0.10569891769E+04  0.10579366200E+04  0.10000000000E+02 0. -1.
</event>
<event>
 5    1  0.1303633E-008  0.3837841E+03  0.7957747E-01  0.3434845E+00
         13   -1    0    0    0    0  0.00000000000E+00  0.00000000000E+00  0.14999999963E+04  0.15000000000E+04  0.10566000000E+00 0. -1.
        994   -1    0    0    0    0 -0.00000000000E+00 -0.00000000000E+00  0.11368683772E-12  0.17120000000E+03  0.17120000000E+03 0.  0.
         13    1    1    2    0    0 -0.23683130377E+02 -0.12406484474E+02  0.14211824275E+03  0.14461126376E+03  0.10566000000E+00 0. -1.
        994    1    1    2    0    0  0.29843584307E+02  0.88359309471E+01  0.54399305702E+01  0.17409120037E+03  0.17120000000E+03 0.  0.
        998    1    1    2    0    0 -0.61604539298E+01  0.35705535264E+01  0.13524418230E+04  0.13524975359E+04  0.10000000000E+02 0. -1.
</event>
<event>
 5    1  0.1303633E-008  0.3751668E+03  0.7957747E-01  0.3472477E+00
         13   -1    0    0    0    0  0.00000000000E+00  0.00000000000E+00  0.14999999963E+04  0.15000000000E+04  0.10566000000E+00 0. -1.
        994   -1    0    0    0    0 -0.00000000000E+00 -0.00000000000E+00  0.11368683772E-12  0.17120000000E+03  0.17120000000E+03 0.  0.
         13    1    1    2    0    0  0.34038876599E+02  0.70846504654E+01  0.89195878958E+02  0.95732718438E+02  0.10566000000E+00 0. -1.
        994    1    1    2    0    0 -0.23085001593E+02  0.36853976282E+01  0.84519246145E+01  0.17299530191E+03  0.17120000000E+03 0.  0.
        998    1    1    2    0    0 -0.10953875006E+02 -0.10770048094E+02  0.14023521927E+04  0.14024719796E+04  0.10000000000E+02 0. -1.
</event>
<event>
 5    1  0.1303633E-008  0.3812194E+03  0.7957747E-01  0.3445866E+00
         13   -1    0    0    0    0  0.00000000000E+00  0.00000000000E+00  0.14999999963E+04  0.15000000000E+04  0.10566000000E+00 0.  1.
        994   -1    0    0    0    0 -0.00000000000E+00 -0.00000000000E+00  0.11368683772E-12  0.17120000000E+03  0.17120000000E+03 0.  0.
         13    1    1    2    0    0 -0.28608275899E+02 -0.15616082619E+02  0.17152029558E+03  0.17458957142E+03  0.10566000000E+00 0.  1.
        994    1    1    2    0    0  0.55479590675E+01 -0.77460425975E+01  0.38211766553E+01  0.17150749959E+03  0.17120000000E+03 0.  0.
        998    1    1    2    0    0  0.23060316832E+02  0.23362125216E+02  0.13246585240E+04  0.13251029290E+04  0.10000000000E+02 0.  1.
</event>
<event>
 5    1  0.1303633E-008  0.3858641E+03  0.7957747E-01  0.3426016E+00
         13   -1    0    0    0    0  0.00000000000E+00  0.00000000000E+00  0.14999999963E+04  0.15000000000E+04  0.10566000000E+00 0. -1.
        994   -1    0    0    0    0 -0.00000000000E+00 -0.00000000000E+00  0.11368683772E-12  0.17120000000E+03  0.17120000000E+03 0.  0.
         13    1    1    2    0    0  0.34580952399E+01  0.11560726015E+02  0.62785477531E+02  0.63934624121E+02  0.10566000000E+00 0. -1.
        994    1    1    2    0    0  0.53905797365E+01 -0.63345276744E+01  0.14286361949E+01  0.17140789244E+03  0.17120000000E+03 0.  0.
        998    1    1    2    0    0 -0.88486749764E+01 -0.52261983403E+01  0.14357858826E+04  0.14358574834E+04  0.10000000000E+02 0. -1.
</event>
<event>
 5    1  0.1303634E-008  0.3854607E+03  0.7957747E-01  0.3427721E+00
         13   -1    0    0    0    0  0.00000000000E+00  0.00000000000E+00  0.14999999963E+04  0.15000000000E+04  0.10566000000E+00 0.  1.
        994   -1    0    0    0    0 -0.00000000000E+00 -0.00000000000E+00  0.11368683772E-12  0.17120000000E+03  0.17120000000E+03 0.  0.
         13    1    1    2    0    0  0.68168645479E+01  0.13010509738E+02  0.84782151103E+02  0.86045146961E+02  0.10566000000E+00 0.  1.
        994    1    1    2    0    0 -0.44154448374E+01  0.45413416685E+01  0.15333463294E+01  0.17132399449E+03  0.17120000000E+03 0.  0.
        998    1    1    2    0    0 -0.24014197105E+01 -0.17551851407E+02  0.14136844988E+04  0.14138308585E+04  0.10000000000E+02 0.  1.
</event>
<event>
 5    1  0.1303633E-008  0.3762906E+03  0.7957747E-01  0.3467471E+00
         13   -1    0    0    0    0  0.00000000000E+00  0.00000000000E+00  0.14999999963E+04  0.15000000000E+04  0.10566000000E+00 0.  1.
        994   -1    0    0    0    0 -0.00000000000E+00 -0.00000000000E+00  0.11368683772E-12  0.17120000000E+03  0.17120000000E+03 0.  0.
         13    1    1    2    0    0 -0.12464986398E+02  0.31672680151E+01  0.11169393270E+02  0.17034493907E+02  0.10566000000E+00 0.  1.
        994    1    1    2    0    0  0.53137280394E+01  0.98867484547E+00  0.61163537138E+01  0.17139446597E+03  0.17120000000E+03 0.  0.
        998    1    1    2    0    0  0.71512583589E+01 -0.41559428605E+01  0.14827142493E+04  0.14827710401E+04  0.10000000000E+02 0.  1.
</event>
<event>
 5    1  0.1303633E-008  0.3832388E+03  0.7957747E-01  0.3437176E+00
         13   -1    0    0    0    0  0.00000000000E+00  0.00000000000E+00  0.14999999963E+04  0.15000000000E+04  0.10566000000E+00 0.  1.
        994   -1    0    0    0    0 -0.00000000000E+00 -0.00000000000E+00  0.11368683772E-12  0.17120000000E+03  0.17120000000E+03 0.  0.
         13    1    1    2    0    0 -0.21461077825E+02  0.64286663847E+01  0.10583555415E+03  0.10818078063E+03  0.10566000000E+00 0.  1.
        994    1    1    2    0    0  0.25803045916E+01 -0.74112658087E+01  0.27107967018E+01  0.17140120551E+03  0.17120000000E+03 0.  0.
        998    1    1    2    0    0  0.18880773234E+02  0.98259942394E+00  0.13914536454E+04  0.13916180139E+04  0.10000000000E+02 0.  1.
</event>
<event>
 5    1  0.1303633E-008  0.3686633E+03  0.7957747E-01  0.3502057E+00
         13   -1    0    0    0    0  0.00000000000E+00  0.00000000000E+00  0.14999999963E+04  0.15000000000E+04  0.10566000000E+00 0. -1.
        994   -1    0    0    0    0 -0.00000000000E+00 -0.00000000000E+00  0.11368683772E-12  0.17120000000E+03  0.17120000000E+03 0.  0.
         13    1    1    2    0    0 -0.43920590852E+02 -0.43261731309E+01  0.83613374105E+02  0.94545975949E+02  0.10566000000E+00 0. -1.
        994    1    1    2    0    0  0.54668094643E+02  0.49852798349E+01  0.20794193715E+02  0.18098423158E+03  0.17120000000E+03 0.  0.
        998    1    1    2    0    0 -0.10747503791E+02 -0.65910670400E+00  0.13955924285E+04  0.13956697925E+04  0.10000000000E+02 0. -1.
</event>
<event>
 5    1  0.1303633E-008  0.3842062E+03  0.7957747E-01  0.3433046E+00
         13   -1    0    0    0    0  0.00000000000E+00  0.00000000000E+00  0.14999999963E+04  0.15000000000E+04  0.10566000000E+00 0. -1.
        994   -1    0    0    0    0 -0.00000000000E+00 -0.00000000000E+00  0.11368683772E-12  0.17120000000E+03  0.17120000000E+03 0.  0.
         13    1    1    2    0    0 -0.87737090432E+01 -0.91146719545E+01  0.39230475943E+02  0.41220099732E+02  0.10566000000E+00 0. -1.
        994    1    1    2    0    0  0.10174989000E+02  0.84988686966E+00  0.23685553262E+01  0.17152056076E+03  0.17120000000E+03 0.  0.
        998    1    1    2    0    0 -0.14012799565E+01  0.82647850848E+01  0.14584009650E+04  0.14584593395E+04  0.10000000000E+02 0. -1.
</event>
<event>
 5    1  0.1303633E-008  0.3836961E+03  0.7957747E-01  0.3435221E+00
         13   -1    0    0    0    0  0.00000000000E+00  0.00000000000E+00  0.14999999963E+04  0.15000000000E+04  0.10566000000E+00 0. -1.
        994   -1    0    0    0    0 -0.00000000000E+00 -0.00000000000E+00  0.11368683772E-12  0.17120000000E+03  0.17120000000E+03 0.  0.
         13    1    1    2    0    0 -0.81637899543E+01  0.10476703725E+02  0.38233311380E+02  0.40474758189E+02  0.10566000000E+00 0. -1.
        994    1    1    2    0    0  0.59372569084E+01 -0.55001185569E+01  0.24952502816E+01  0.17140935971E+03  0.17120000000E+03 0.  0.
        998    1    1    2    0    0  0.22265330459E+01 -0.49765851683E+01  0.14592714346E+04  0.14593158821E+04  0.10000000000E+02 0. -1.
</event>
<event>
 5    1  0.1303633E-008  0.3848995E+03  0.7957747E-01  0.3430099E+00
         13   -1    0    0    0    0  0.00000000000E+00  0.00000000000E+00  0.14999999963E+04  0.15000000000E+04  0.10566000000E+00 0.  1.
        994   -1    0    0    0    0 -0.00000000000E+00 -0.00000000000E+00  0.11368683772E-12  0.17120000000E+03  0.17120000000E+03 0.  0.
         13    1    1    2    0    0 -0.44495555257E+01  0.18040173431E+02  0.97551995448E+02  0.99305837601E+02  0.10566000000E+00 0.  1.
        994    1    1    2    0    0  0.71890432429E+01 -0.17485965406E+02  0.28568090823E+01  0.17226445567E+03  0.17120000000E+03 0.  0.
        998    1    1    2    0    0 -0.27394877171E+01 -0.55420802511E+00  0.13995911917E+04  0.13996297067E+04  0.10000000000E+02 0. -1.
</event>
<event>
 5    1  0.1303633E-008  0.3854228E+03  0.7957747E-01  0.3427881E+00
         13   -1    0    0    0    0  0.00000000000E+00  0.00000000000E+00  0.14999999963E+04  0.15000000000E+04  0.10566000000E+00 0. -1.
        994   -1    0    0    0    0 -0.00000000000E+00 -0.00000000000E+00  0.11368683772E-12  0.17120000000E+03  0.17120000000E+03 0.  0.
         13    1    1    2    0    0 -0.10657303646E+02  0.28069991264E+01  0.44096962552E+02  0.45453389702E+02  0.10566000000E+00 0. -1.
        994    1    1    2    0    0  0.26261005229E+01  0.58683725370E+00  0.14441682425E+01  0.17122723616E+03  0.17120000000E+03 0.  0.
        998    1    1    2    0    0  0.80312031230E+01 -0.33938363801E+01  0.14544588655E+04  0.14545193741E+04  0.10000000000E+02 0. -1.
</event>
<event>
 5    1  0.1303633E-008  0.3799540E+03  0.7957747E-01  0.3451359E+00
         13   -1    0    0    0    0  0.00000000000E+00  0.00000000000E+00  0.14999999963E+04  0.15000000000E+04  0.10566000000E+00 0.  1.
        994   -1    0    0    0    0 -0.00000000000E+00 -0.00000000000E+00  0.11368683772E-12  0.17120000000E+03  0.17120000000E+03 0.  0.
         13    1    1    2    0    0  0.19273179764E+02 -0.11265610312E+02  0.62579101596E+02  0.66441888554E+02  0.10566000000E+00 0.  1.
        994    1    1    2    0    0  0.21729432064E+01 -0.65959855176E+00  0.41736337496E+01  0.17126592180E+03  0.17120000000E+03 0.  0.
        998    1    1    2    0    0 -0.21446122971E+02  0.11925208864E+02  0.14332472609E+04  0.14334921896E+04  0.10000000000E+02 0.  1.
</event>
<event>
 5    1  0.1303633E-008  0.3774399E+03  0.7957747E-01  0.3462382E+00
         13   -1    0    0    0    0  0.00000000000E+00  0.00000000000E+00  0.14999999963E+04  0.15000000000E+04  0.10566000000E+00 0. -1.
        994   -1    0    0    0    0 -0.00000000000E+00 -0.00000000000E+00  0.11368683772E-12  0.17120000000E+03  0.17120000000E+03 0.  0.
         13    1    1    2    0    0  0.62313590144E+01  0.15572226309E+02  0.26579305314E+01  0.16982338653E+02  0.10566000000E+00 0. -1.
        994    1    1    2    0    0 -0.42598105639E+01 -0.14256476594E+02  0.15723232805E+02  0.17256318600E+03  0.17120000000E+03 0.  0.
        998    1    1    2    0    0 -0.19715484505E+01 -0.13157497155E+01  0.14816188329E+04  0.14816544754E+04  0.10000000000E+02 0. -1.
</event>
<event>
 5    1  0.1303633E-008  0.3822404E+03  0.7957747E-01  0.3441461E+00
         13   -1    0    0    0    0  0.00000000000E+00  0.00000000000E+00  0.14999999963E+04  0.15000000000E+04  0.10566000000E+00 0. -1.
        994   -1    0    0    0    0 -0.00000000000E+00 -0.00000000000E+00  0.11368683772E-12  0.17120000000E+03  0.17120000000E+03 0.  0.
         13    1    1    2    0    0 -0.17950642380E+02 -0.22168352603E+01  0.56226442312E+02  0.59064066059E+02  0.10566000000E+00 0. -1.
        994    1    1    2    0    0 -0.61236153451E+00  0.91144499533E+01  0.32834222228E+01  0.17147498082E+03  0.17120000000E+03 0.  0.
        998    1    1    2    0    0  0.18563003915E+02 -0.68976146930E+01  0.14404901317E+04  0.14406609531E+04  0.10000000000E+02 0. -1.
</event>
<event>
 5    1  0.1303633E-008  0.3839658E+03  0.7957747E-01  0.3434070E+00
         13   -1    0    0    0    0  0.00000000000E+00  0.00000000000E+00  0.14999999963E+04  0.15000000000E+04  0.10566000000E+00 0. -1.
        994   -1    0    0    0    0 -0.00000000000E+00 -0.00000000000E+00  0.11368683772E-12  0.17120000000E+03  0.17120000000E+03 0.  0.
         13    1    1    2    0    0  0.12211571527E+02  0.48561001361E+01  0.40752340507E+02  0.42819021574E+02  0.10566000000E+00 0. -1.
        994    1    1    2    0    0 -0.18816521948E+01 -0.40616112074E+01  0.22106031017E+01  0.17127277678E+03  0.17120000000E+03 0.  0.
        998    1    1    2    0    0 -0.10329919332E+02 -0.79448892877E+00  0.14570370527E+04  0.14571082016E+04  0.10000000000E+02 0. -1.
</event>
<event>
 5    1  0.1303633E-008  0.3686966E+03  0.7957747E-01  0.3501903E+00
         13   -1    0    0    0    0  0.00000000000E+00  0.00000000000E+00  0.14999999963E+04  0.15000000000E+04  0.10566000000E+00 0.  1.
        994   -1    0    0    0    0 -0.00000000000E+00 -0.00000000000E+00  0.11368683772E-12  0.17120000000E+03  0.17120000000E+03 0.  0.
         13    1    1    2    0    0 -0.11670617790E+02 -0.95599988914E+01  0.68191343725E+01  0.16556227108E+02  0.10566000000E+00 0.  1.
        994    1    1    2    0    0  0.10106270685E+02  0.15313064107E+02  0.11121987052E+02  0.17253917015E+03  0.17120000000E+03 0.  0.
        998    1    1    2    0    0  0.15643471055E+01 -0.57530652156E+01  0.14820588749E+04  0.14821046027E+04  0.10000000000E+02 0.  1.
</event>
<event>
 5    1  0.1303633E-008  0.3768009E+03  0.7957747E-01  0.3465208E+00
         13   -1    0    0    0    0  0.00000000000E+00  0.00000000000E+00  0.14999999963E+04  0.15000000000E+04  0.10566000000E+00 0. -1.
        994   -1    0    0    0    0 -0.00000000000E+00 -0.00000000000E+00  0.11368683772E-12  0.17120000000E+03  0.17120000000E+03 0.  0.
         13    1    1    2    0    0  0.10052225128E+01 -0.19833064569E+02  0.31862121549E+02  0.37544198967E+02  0.10566000000E+00 0. -1.
        994    1    1    2    0    0 -0.25634770784E+01  0.13891785202E+02  0.64313527725E+01  0.17190216813E+03  0.17120000000E+03 0.  0.
        998    1    1    2    0    0  0.15582545656E+01  0.59412793665E+01  0.14617065220E+04  0.14617536329E+04  0.10000000000E+02 0. -1.
</event>
<event>
 5    1  0.1303633E-008  0.3859982E+03  0.7957747E-01  0.3425450E+00
         13   -1    0    0    0    0  0.00000000000E+00  0.00000000000E+00  0.14999999963E+04  0.15000000000E+04  0.10566000000E+00 0.  1.
        994   -1    0    0    0    0 -0.00000000000E+00 -0.00000000000E+00  0.11368683772E-12  0.17120000000E+03  0.17120000000E+03 0.  0.
         13    1    1    2    0    0 -0.35712635108E+01 -0.13335121539E+02  0.72316074856E+02  0.73622043140E+02  0.10566000000E+00 0.  1.
        994    1    1    2    0    0  0.92153910072E+00  0.30753478012E+02  0.42446117269E+01  0.17399448949E+03  0.17120000000E+03 0.  0.
        998    1    1    2    0    0  0.26497244101E+01 -0.17418356474E+02  0.14234393097E+04  0.14235834674E+04  0.10000000000E+02 0.  1.
</event>
<event>
 5    1  0.1303633E-008  0.3781372E+03  0.7957747E-01  0.3459310E+00
         13   -1    0    0    0    0  0.00000000000E+00  0.00000000000E+00  0.14999999963E+04  0.15000000000E+04  0.10566000000E+00 0.  1.
        994   -1    0    0    0    0 -0.00000000000E+00 -0.00000000000E+00  0.11368683772E-12  0.17120000000E+03  0.17120000000E+03 0.  0.
         13    1    1    2    0    0  0.28856549567E+02  0.46347486012E+02  0.26296251679E+03  0.26857044944E+03  0.10566000000E+00 0.  1.
        994    1    1    2    0    0 -0.21717799307E+02 -0.39022533080E+02  0.11814413614E+02  0.17732298572E+03  0.17120000000E+03 0.  0.
        998    1    1    2    0    0 -0.71387502602E+01 -0.73249529314E+01  0.12252230659E+04  0.12253065648E+04  0.10000000000E+02 0.  1.
</event>
<event>
 5    1  0.1303633E-008  0.3826758E+03  0.7957747E-01  0.3439590E+00
         13   -1    0    0    0    0  0.00000000000E+00  0.00000000000E+00  0.14999999963E+04  0.15000000000E+04  0.10566000000E+00 0. -1.
        994   -1    0    0    0    0 -0.00000000000E+00 -0.00000000000E+00  0.11368683772E-12  0.17120000000E+03  0.17120000000E+03 0.  0.
         13    1    1    2    0    0  0.69371814148E+01 -0.17338523716E+02  0.64346544151E+02  0.67001774594E+02  0.10566000000E+00 0. -1.
        994    1    1    2    0    0 -0.84278968273E+01  0.48869688574E+00  0.30246881224E+01  0.17143470188E+03  0.17120000000E+03 0.  0.
        998    1    1    2    0    0  0.14907154125E+01  0.16849826830E+02  0.14326287640E+04  0.14327635235E+04  0.10000000000E+02 0. -1.
</event>
<event>
 5    1  0.1303633E-008  0.3709476E+03  0.7957747E-01  0.3491547E+00
         13   -1    0    0    0    0  0.00000000000E+00  0.00000000000E+00  0.14999999963E+04  0.15000000000E+04  0.10566000000E+00 0.  1.
        994   -1    0    0    0    0 -0.00000000000E+00 -0.00000000000E+00  0.11368683772E-12  0.17120000000E+03  0.17120000000E+03 0.  0.
         13    1    1    2    0    0 -0.11262675046E+03 -0.14776188453E+02  0.53564326600E+03  0.54755533076E+03  0.10566000000E+00 0.  1.
        994    1    1    2    0    0  0.71021649349E+02  0.78680014754E+01  0.29572633643E+02  0.18785622370E+03  0.17120000000E+03 0.  0.
        998    1    1    2    0    0  0.41605101108E+02  0.69081869774E+01  0.93478409664E+03  0.93578844554E+03  0.10000000000E+02 0. -1.
</event>
<event>
 5    1  0.1303633E-008  0.3843421E+03  0.7957747E-01  0.3432467E+00
         13   -1    0    0    0    0  0.00000000000E+00  0.00000000000E+00  0.14999999963E+04  0.15000000000E+04  0.10566000000E+00 0.  1.
        994   -1    0    0    0    0 -0.00000000000E+00 -0.00000000000E+00  0.11368683772E-12  0.17120000000E+03  0.17120000000E+03 0.  0.
         13    1    1    2    0    0 -0.70127738223E+00  0.10724078798E+02  0.30926033440E+02  0.32740317109E+02  0.10566000000E+00 0.  1.
        994    1    1    2    0    0 -0.17012853984E+01  0.78260055646E+01  0.21685577924E+01  0.17140094334E+03  0.17120000000E+03 0.  0.
        998    1    1    2    0    0  0.24025627807E+01 -0.18550084362E+02  0.14669054050E+04  0.14670587396E+04  0.10000000000E+02 0.  1.
</event>
<event>
 5    1  0.1303633E-008  0.3770452E+03  0.7957747E-01  0.3464126E+00
         13   -1    0    0    0    0  0.00000000000E+00  0.00000000000E+00  0.14999999963E+04  0.15000000000E+04  0.10566000000E+00 0. -1.
        994   -1    0    0    0    0 -0.00000000000E+00 -0.00000000000E+00  0.11368683772E-12  0.17120000000E+03  0.17120000000E+03 0.  0.
         13    1    1    2    0    0 -0.47162251143E+02  0.95556714385E+01  0.24259388867E+03  0.24732042935E+03  0.10566000000E+00 0. -1.
        994    1    1    2    0    0  0.43313530671E+01  0.13725791087E+01  0.57018900891E+01  0.17135517542E+03  0.17120000000E+03 0.  0.
        998    1    1    2    0    0  0.42830898076E+02 -0.10928250547E+02  0.12517042175E+04  0.12525243952E+04  0.10000000000E+02 0. -1.
</event>
<event>
 5    1  0.1303633E-008  0.3851157E+03  0.7957747E-01  0.3429182E+00
         13   -1    0    0    0    0  0.00000000000E+00  0.00000000000E+00  0.14999999963E+04  0.15000000000E+04  0.10566000000E+00 0. -1.
        994   -1    0    0    0    0 -0.00000000000E+00 -0.00000000000E+00  0.11368683772E-12  0.17120000000E+03  0.17120000000E+03 0.  0.
         13    1    1    2    0    0  0.11688590465E+02 -0.17581227829E+01  0.44058571255E+02  0.45616696590E+02  0.10566000000E+00 0. -1.
        994    1    1    2    0    0 -0.90213071275E+01  0.26038875153E+01  0.18626119629E+01  0.17146741246E+03  0.17120000000E+03 0.  0.
        998    1    1    2    0    0 -0.26672833376E+01 -0.84576473241E+00  0.14540788131E+04  0.14541158909E+04  0.10000000000E+02 0. -1.
</event>
<event>
 5    1  0.1303633E-008  0.3846882E+03  0.7957747E-01  0.3430995E+00
         13   -1    0    0    0    0  0.00000000000E+00  0.00000000000E+00  0.14999999963E+04  0.15000000000E+04  0.10566000000E+00 0.  1.
        994   -1    0    0    0    0 -0.00000000000E+00 -0.00000000000E+00  0.11368683772E-12  0.17120000000E+03  0.17120000000E+03 0.  0.
         13    1    1    2    0    0  0.19135590706E+02  0.84765528601E+01  0.12510602015E+03  0.12684459083E+03  0.10566000000E+00 0.  1.
        994    1    1    2    0    0 -0.92495910385E+01 -0.53396973781E+01  0.21605941998E+01  0.17154642366E+03  0.17120000000E+03 0.  0.
        998    1    1    2    0    0 -0.98859996679E+01 -0.31368554820E+01  0.13727333819E+04  0.13728089855E+04  0.10000000000E+02 0.  1.
</event>
<event>
 5    1  0.1303633E-008  0.3840917E+03  0.7957747E-01  0.3433534E+00
         13   -1    0    0    0    0  0.00000000000E+00  0.00000000000E+00  0.14999999963E+04  0.15000000000E+04  0.10566000000E+00 0.  1.
        994   -1    0    0    0    0 -0.00000000000E+00 -0.00000000000E+00  0.11368683772E-12  0.17120000000E+03  0.17120000000E+03 0.  0.
         13    1    1    2    0    0 -0.10363741369E+02  0.90683916761E+01  0.47140812326E+02  0.49111202526E+02  0.10566000000E+00 0.  1.
        994    1    1    2    0    0 -0.53947116543E+01 -0.64193370432E+01  0.23137074487E+01  0.17142083900E+03  0.17120000000E+03 0.  0.
        998    1    1    2    0    0  0.15758453023E+02 -0.26490546329E+01  0.14505454765E+04  0.14506679585E+04  0.10000000000E+02 0.  1.
</event>
<event>
 5    1  0.1303633E-008  0.3830612E+03  0.7957747E-01  0.3437937E+00
         13   -1    0    0    0    0  0.00000000000E+00  0.00000000000E+00  0.14999999963E+04  0.15000000000E+04  0.10566000000E+00 0. -1.
        994   -1    0    0    0    0 -0.00000000000E+00 -0.00000000000E+00  0.11368683772E-12  0.17120000000E+03  0.17120000000E+03 0.  0.
         13    1    1    2    0    0  0.13339077143E+02 -0.45160890316E+01  0.39097054439E+02  0.41556189299E+02  0.10566000000E+00 0. -1.
        994    1    1    2    0    0 -0.67967046675E+01 -0.24005297885E+02  0.46584868894E+01  0.17307105772E+03  0.17120000000E+03 0.  0.
        998    1    1    2    0    0 -0.65423724758E+01  0.28521386916E+02  0.14562444549E+04  0.14565727530E+04  0.10000000000E+02 0. -1.
</event>
<event>
 5    1  0.1303633E-008  0.3849881E+03  0.7957747E-01  0.3429723E+00
         13   -1    0    0    0    0  0.00000000000E+00  0.00000000000E+00  0.14999999963E+04  0.15000000000E+04  0.10566000000E+00 0. -1.
        994   -1    0    0    0    0 -0.00000000000E+00 -0.00000000000E+00  0.11368683772E-12  0.17120000000E+03  0.17120000000E+03 0.  0.
         13    1    1    2    0    0 -0.18133545150E+02 -0.57671794065E+01  0.10854111560E+03  0.11019650974E+03  0.10566000000E+00 0. -1.
        994    1    1    2    0    0  0.12249812146E+02  0.94005513211E+01  0.24205746247E+01  0.17191197586E+03  0.17120000000E+03 0.  0.
        998    1    1    2    0    0  0.58837330042E+01 -0.36333719146E+01  0.13890383061E+04  0.13890915144E+04  0.10000000000E+02 0. -1.
</event>
<event>
 5    1  0.1303633E-008  0.3767761E+03  0.7957747E-01  0.3465317E+00
         13   -1    0    0    0    0  0.00000000000E+00  0.00000000000E+00  0.14999999963E+04  0.15000000000E+04  0.10566000000E+00 0. -1.
        994   -1    0    0    0    0 -0.00000000000E+00 -0.00000000000E+00  0.11368683772E-12  0.17120000000E+03  0.17120000000E+03 0.  0.
         13    1    1    2    0    0  0.12277231071E+02 -0.73194784298E+01 -0.87881130170E+00  0.14320916193E+02  0.10566000000E+00 0. -1.
        994    1    1    2    0    0 -0.51736304148E+02  0.99932889881E+02  0.61435835818E+02  0.21388555250E+03  0.17120000000E+03 0.  0.
        998    1    1    2    0    0  0.39459073077E+02 -0.92613411452E+02  0.14394429718E+04  0.14429935313E+04  0.10000000000E+02 0. -1.
</event>
<event>
 5    1  0.1303633E-008  0.3742097E+03  0.7957747E-01  0.3476765E+00
         13   -1    0    0    0    0  0.00000000000E+00  0.00000000000E+00  0.14999999963E+04  0.15000000000E+04  0.10566000000E+00 0.  1.
        994   -1    0    0    0    0 -0.00000000000E+00 -0.00000000000E+00  0.11368683772E-12  0.17120000000E+03  0.17120000000E+03 0.  0.
         13    1    1    2    0    0  0.78427157475E+01 -0.30716907343E+02  0.66924115380E+02  0.74053257663E+02  0.10566000000E+00 0.  1.
        994    1    1    2    0    0 -0.59132938210E+01  0.25358022555E+02  0.93993648056E+01  0.17342371352E+03  0.17120000000E+03 0.  0.
        998    1    1    2    0    0 -0.19294219266E+01  0.53588847886E+01  0.14236765161E+04  0.14237230288E+04  0.10000000000E+02 0.  1.
</event>
<event>
 5    1  0.1303633E-008  0.3832597E+03  0.7957747E-01  0.3437087E+00
         13   -1    0    0    0    0  0.00000000000E+00  0.00000000000E+00  0.14999999963E+04  0.15000000000E+04  0.10566000000E+00 0.  1.
        994   -1    0    0    0    0 -0.00000000000E+00 -0.00000000000E+00  0.11368683772E-12  0.17120000000E+03  0.17120000000E+03 0.  0.
         13    1    1    2    0    0  0.43506737649E+01 -0.19157559147E+02  0.80114439493E+02  0.82488029520E+02  0.10566000000E+00 0.  1.
        994    1    1    2    0    0  0.92512243408E+00  0.51639879974E+01  0.25876702005E+01  0.17129990852E+03  0.17120000000E+03 0.  0.
        998    1    1    2    0    0 -0.52757961989E+01  0.13993571149E+02  0.14172978866E+04  0.14174120620E+04  0.10000000000E+02 0.  1.
</event>
<event>
 5    1  0.1303633E-008  0.3839522E+03  0.7957747E-01  0.3434128E+00
         13   -1    0    0    0    0  0.00000000000E+00  0.00000000000E+00  0.14999999963E+04  0.15000000000E+04  0.10566000000E+00 0. -1.
        994   -1    0    0    0    0 -0.00000000000E+00 -0.00000000000E+00  0.11368683772E-12  0.17120000000E+03  0.17120000000E+03 0.  0.
         13    1    1    2    0    0  0.47812034066E+01 -0.15405949016E+02  0.63792059196E+02  0.65800008750E+02  0.10566000000E+00 0. -1.
        994    1    1    2    0    0  0.36175050933E+01  0.74510734784E+00  0.21962651806E+01  0.17125391998E+03  0.17120000000E+03 0.  0.
        998    1    1    2    0    0 -0.83987084999E+01  0.14660841668E+02  0.14340116719E+04  0.14341460713E+04  0.10000000000E+02 0. -1.
</event>
<event>
 5    1  0.1303633E-008  0.3845511E+03  0.7957747E-01  0.3431578E+00
         13   -1    0    0    0    0  0.00000000000E+00  0.00000000000E+00  0.14999999963E+04  0.15000000000E+04  0.10566000000E+00 0. -1.
        994   -1    0    0    0    0 -0.00000000000E+00 -0.00000000000E+00  0.11368683772E-12  0.17120000000E+03  0.17120000000E+03 0.  0.
         13    1    1    2    0    0  0.12044381429E+02  0.32226904198E+01  0.42448124407E+02  0.44241465700E+02  0.10566000000E+00 0. -1.
        994    1    1    2    0    0 -0.55282500061E+01  0.34051041224E+01  0.19920184726E+01  0.17133465621E+03  0.17120000000E+03 0.  0.
        998    1    1    2    0    0 -0.65161314231E+01 -0.66277945422E+01  0.14555598534E+04  0.14556238781E+04  0.10000000000E+02 0. -1.
</event>
<event>
 5    1  0.1303633E-008  0.3829361E+03  0.7957747E-01  0.3438473E+00
         13   -1    0    0    0    0  0.00000000000E+00  0.00000000000E+00  0.14999999963E+04  0.15000000000E+04  0.10566000000E+00 0.  1.
        994   -1    0    0    0    0 -0.00000000000E+00 -0.00000000000E+00  0.11368683772E-12  0.17120000000E+03  0.17120000000E+03 0.  0.
         13    1    1    2    0    0 -0.30701384463E+03  0.13443721929E+03  0.85843169151E+03  0.92153993233E+03  0.10566000000E+00 0.  1.
        994    1    1    2    0    0  0.30730788455E+03 -0.13118546148E+03  0.60893706304E+03  0.71537510996E+03  0.17120000000E+03 0.  0.
        998    1    1    2    0    0 -0.29403992083E+00 -0.32517578069E+01  0.32631241729E+02  0.34284957709E+02  0.10000000000E+02 0.  1.
</event>
<event>
 5    1  0.1303633E-008  0.3987077E+03  0.7957747E-01  0.3373538E+00
         13   -1    0    0    0    0  0.00000000000E+00  0.00000000000E+00  0.14999999963E+04  0.15000000000E+04  0.10566000000E+00 0.  1.
        994   -1    0    0    0    0 -0.00000000000E+00 -0.00000000000E+00  0.11368683772E-12  0.17120000000E+03  0.17120000000E+03 0.  0.
         13    1    1    2    0    0  0.19988357053E+02 -0.15928127393E+03  0.33108462634E+03  0.36794986017E+03  0.10566000000E+00 0.  1.
        994    1    1    2    0    0 -0.26223142377E+02  0.16390791237E+03  0.14464130521E+03  0.27889783812E+03  0.17120000000E+03 0.  0.
        998    1    1    2    0    0  0.62347853243E+01 -0.46266384359E+01  0.10242740647E+04  0.10243523017E+04  0.10000000000E+02 0.  0.
</event>
<event>
 5    1  0.1303633E-008  0.3831868E+03  0.7957747E-01  0.3437399E+00
         13   -1    0    0    0    0  0.00000000000E+00  0.00000000000E+00  0.14999999963E+04  0.15000000000E+04  0.10566000000E+00 0.  1.
        994   -1    0    0    0    0 -0.00000000000E+00 -0.00000000000E+00  0.11368683772E-12  0.17120000000E+03  0.17120000000E+03 0.  0.
         13    1    1    2    0    0  0.18031017133E+02  0.11024984974E+02  0.88652478290E+02  0.91136935123E+02  0.10566000000E+00 0.  1.
        994    1    1    2    0    0 -0.21328557000E+01 -0.18178136178E+02  0.36420181186E+01  0.17221410513E+03  0.17120000000E+03 0.  0.
        998    1    1    2    0    0 -0.15898161433E+02  0.71531512042E+01  0.14077054999E+04  0.14078489598E+04  0.10000000000E+02 0.  1.
</event>
<event>
 5    1  0.1303633E-008  0.3690529E+03  0.7957747E-01  0.3500255E+00
         13   -1    0    0    0    0  0.00000000000E+00  0.00000000000E+00  0.14999999963E+04  0.15000000000E+04  0.10566000000E+00 0. -1.
        994   -1    0    0    0    0 -0.00000000000E+00 -0.00000000000E+00  0.11368683772E-12  0.17120000000E+03  0.17120000000E+03 0.  0.
         13    1    1    2    0    0  0.24832610327E+02 -0.60992736462E+01  0.29081444463E+02  0.38724685290E+02  0.10566000000E+00 0. -1.
        994    1    1    2    0    0 -0.23064973284E+02  0.36190927225E+01  0.11658170937E+02  0.17317749211E+03  0.17120000000E+03 0.  0.
        998    1    1    2    0    0 -0.17676370433E+01  0.24801809238E+01  0.14592603809E+04  0.14592978226E+04  0.10000000000E+02 0. -1.
</event>
<event>
 5    1  0.1303633E-008  0.3720187E+03  0.7957747E-01  0.3486664E+00
         13   -1    0    0    0    0  0.00000000000E+00  0.00000000000E+00  0.14999999963E+04  0.15000000000E+04  0.10566000000E+00 0. -1.
        994   -1    0    0    0    0 -0.00000000000E+00 -0.00000000000E+00  0.11368683772E-12  0.17120000000E+03  0.17120000000E+03 0.  0.
         13    1    1    2    0    0  0.52075257645E+01 -0.32195357528E+02  0.37775340259E+02  0.49906381021E+02  0.10566000000E+00 0. -1.
        994    1    1    2    0    0 -0.11455224649E+02  0.39313833833E+02  0.17937344506E+02  0.17694063420E+03  0.17120000000E+03 0.  0.
        998    1    1    2    0    0  0.62476988843E+01 -0.71184763051E+01  0.14442873115E+04  0.14443529848E+04  0.10000000000E+02 0. -1.
</event>
<event>
 5    1  0.1303633E-008  0.3808429E+03  0.7957747E-01  0.3447497E+00
         13   -1    0    0    0    0  0.00000000000E+00  0.00000000000E+00  0.14999999963E+04  0.15000000000E+04  0.10566000000E+00 0. -1.
        994   -1    0    0    0    0 -0.00000000000E+00 -0.00000000000E+00  0.11368683772E-12  0.17120000000E+03  0.17120000000E+03 0.  0.
         13    1    1    2    0    0  0.25449472593E+02 -0.68938928171E+02  0.16549478582E+03  0.18107674276E+03  0.10566000000E+00 0. -1.
        994    1    1    2    0    0 -0.12170636281E+02  0.28131539007E+02  0.20213286678E+02  0.17509290343E+03  0.17120000000E+03 0.  0.
        998    1    1    2    0    0 -0.13278836312E+02  0.40807389164E+02  0.13142919238E+04  0.13150303538E+04  0.10000000000E+02 0. -1.
</event>
<event>
 5    1  0.1303633E-008  0.3735480E+03  0.7957747E-01  0.3479742E+00
         13   -1    0    0    0    0  0.00000000000E+00  0.00000000000E+00  0.14999999963E+04  0.15000000000E+04  0.10566000000E+00 0. -1.
        994   -1    0    0    0    0 -0.00000000000E+00 -0.00000000000E+00  0.11368683772E-12  0.17120000000E+03  0.17120000000E+03 0.  0.
         13    1    1    2    0    0 -0.30499355808E+02 -0.52964044017E+02  0.17081440802E+03  0.18141933143E+03  0.10566000000E+00 0. -1.
        994    1    1    2    0    0 -0.38802425803E+02  0.16159856765E+02  0.19107888070E+02  0.17731700597E+03  0.17120000000E+03 0.  0.
        998    1    1    2    0    0  0.69301781610E+02  0.36804187252E+02  0.13100777002E+04  0.13124636626E+04  0.10000000000E+02 0. -1.
</event>
<event>
 5    1  0.1303633E-008  0.3145902E+03  0.7957747E-01  0.3797067E+00
         13   -1    0    0    0    0  0.00000000000E+00  0.00000000000E+00  0.14999999963E+04  0.15000000000E+04  0.10566000000E+00 0. -1.
        994   -1    0    0    0    0 -0.00000000000E+00 -0.00000000000E+00  0.11368683772E-12  0.17120000000E+03  0.17120000000E+03 0.  0.
         13    1    1    2    0    0 -0.13484040464E+02 -0.22180514773E+03  0.81161755900E+03  0.84148821509E+03  0.10566000000E+00 0. -1.
        994    1    1    2    0    0 -0.36955395659E+00  0.15257665497E+03  0.12372661197E+03  0.26057146183E+03  0.17120000000E+03 0.  0.
        998    1    1    2    0    0  0.13853594420E+02  0.69228492767E+02  0.56465582531E+03  0.56914032307E+03  0.10000000000E+02 0. -1.
</event>
<event>
 5    1  0.1303633E-008  0.3829954E+03  0.7957747E-01  0.3438218E+00
         13   -1    0    0    0    0  0.00000000000E+00  0.00000000000E+00  0.14999999963E+04  0.15000000000E+04  0.10566000000E+00 0.  1.
        994   -1    0    0    0    0 -0.00000000000E+00 -0.00000000000E+00  0.11368683772E-12  0.17120000000E+03  0.17120000000E+03 0.  0.
         13    1    1    2    0    0 -0.10743157846E+02  0.28680344468E+01  0.23075439523E+02  0.25614998249E+02  0.10566000000E+00 0.  1.
        994    1    1    2    0    0  0.13844428774E+01  0.16207044554E+01  0.26436839340E+01  0.17123367785E+03  0.17120000000E+03 0.  0.
        998    1    1    2    0    0  0.93587149684E+01 -0.44887389022E+01  0.14742808728E+04  0.14743513239E+04  0.10000000000E+02 0.  1.
</event>
<event>
 5    1  0.1303633E-008  0.3710253E+03  0.7957747E-01  0.3491192E+00
         13   -1    0    0    0    0  0.00000000000E+00  0.00000000000E+00  0.14999999963E+04  0.15000000000E+04  0.10566000000E+00 0.  1.
        994   -1    0    0    0    0 -0.00000000000E+00 -0.00000000000E+00  0.11368683772E-12  0.17120000000E+03  0.17120000000E+03 0.  0.
         13    1    1    2    0    0 -0.11424342554E+03 -0.12371144948E+03  0.63978399087E+03  0.66157361582E+03  0.10566000000E+00 0.  1.
        994    1    1    2    0    0  0.12770643408E+03  0.10991901009E+03  0.11895981773E+03  0.26805223431E+03  0.17120000000E+03 0.  0.
        998    1    1    2    0    0 -0.13463008532E+02  0.13792439398E+02  0.74125618768E+03  0.74157414987E+03  0.10000000000E+02 0.  1.
</event>
<event>
 5    1  0.1303633E-008  0.3835467E+03  0.7957747E-01  0.3435859E+00
         13   -1    0    0    0    0  0.00000000000E+00  0.00000000000E+00  0.14999999963E+04  0.15000000000E+04  0.10566000000E+00 0. -1.
        994   -1    0    0    0    0 -0.00000000000E+00 -0.00000000000E+00  0.11368683772E-12  0.17120000000E+03  0.17120000000E+03 0.  0.
         13    1    1    2    0    0  0.15486699767E+02 -0.74018800791E+01  0.59595559737E+02  0.62018284423E+02  0.10566000000E+00 0. -1.
        994    1    1    2    0    0 -0.15170870506E+02  0.12192991862E+02  0.36061019606E+01  0.17234055917E+03  0.17120000000E+03 0.  0.
        998    1    1    2    0    0 -0.31582926037E+00 -0.47911117831E+01  0.14367983346E+04  0.14368411564E+04  0.10000000000E+02 0. -1.
</event>
<event>
 5    1  0.1303633E-008  0.3759962E+03  0.7957747E-01  0.3468779E+00
         13   -1    0    0    0    0  0.00000000000E+00  0.00000000000E+00  0.14999999963E+04  0.15000000000E+04  0.10566000000E+00 0. -1.
        994   -1    0    0    0    0 -0.00000000000E+00 -0.00000000000E+00  0.11368683772E-12  0.17120000000E+03  0.17120000000E+03 0.  0.
         13    1    1    2    0    0  0.50811352314E+01 -0.15183603016E+03  0.71760470095E+03  0.73350972453E+03  0.10566000000E+00 0. -1.
        994    1    1    2    0    0  0.49992309601E+01  0.16509193389E+03  0.10501997387E+03  0.26003648562E+03  0.17120000000E+03 0.  0.
        998    1    1    2    0    0 -0.10080366192E+02 -0.13255903722E+02  0.67737532147E+03  0.67765378985E+03  0.10000000000E+02 0. -1.
</event>
<event>
 5    1  0.1303633E-008  0.3851210E+03  0.7957747E-01  0.3429159E+00
         13   -1    0    0    0    0  0.00000000000E+00  0.00000000000E+00  0.14999999963E+04  0.15000000000E+04  0.10566000000E+00 0. -1.
        994   -1    0    0    0    0 -0.00000000000E+00 -0.00000000000E+00  0.11368683772E-12  0.17120000000E+03  0.17120000000E+03 0.  0.
         13    1    1    2    0    0  0.10755606367E+02  0.42897598828E+01  0.42041139307E+02  0.43606807570E+02  0.10566000000E+00 0. -1.
        994    1    1    2    0    0 -0.90138849625E+01 -0.58801455567E+01  0.19509529327E+01  0.17154903804E+03  0.17120000000E+03 0.  0.
        998    1    1    2    0    0 -0.17417214041E+01  0.15903856740E+01  0.14560079040E+04  0.14560441544E+04  0.10000000000E+02 0. -1.
</event>
<event>
 5    1  0.1303633E-008  0.3804942E+03  0.7957747E-01  0.3449009E+00
         13   -1    0    0    0    0  0.00000000000E+00  0.00000000000E+00  0.14999999963E+04  0.15000000000E+04  0.10566000000E+00 0.  1.
        994   -1    0    0    0    0 -0.00000000000E+00 -0.00000000000E+00  0.11368683772E-12  0.17120000000E+03  0.17120000000E+03 0.  0.
         13    1    1    2    0    0  0.62096612220E+01  0.18589325434E+02  0.48151022569E+02  0.51987066190E+02  0.10566000000E+00 0.  1.
        994    1    1    2    0    0 -0.38915244070E+01 -0.11465303524E+02  0.43732904549E+01  0.17168332131E+03  0.17120000000E+03 0.  0.
        998    1    1    2    0    0 -0.23181368150E+01 -0.71240219097E+01  0.14474756833E+04  0.14475296125E+04  0.10000000000E+02 0.  1.
</event>
<event>
 5    1  0.1303633E-008  0.3779496E+03  0.7957747E-01  0.3460135E+00
         13   -1    0    0    0    0  0.00000000000E+00  0.00000000000E+00  0.14999999963E+04  0.15000000000E+04  0.10566000000E+00 0. -1.
        994   -1    0    0    0    0 -0.00000000000E+00 -0.00000000000E+00  0.11368683772E-12  0.17120000000E+03  0.17120000000E+03 0.  0.
         13    1    1    2    0    0 -0.12183363145E+02 -0.16673879633E+02  0.38050803567E+02  0.43293503158E+02  0.10566000000E+00 0. -1.
        994    1    1    2    0    0  0.16759994311E+02  0.16467453932E+02  0.70321436253E+01  0.17294786929E+03  0.17120000000E+03 0.  0.
        998    1    1    2    0    0 -0.45766311660E+01  0.20642570034E+00  0.14549170491E+04  0.14549586276E+04  0.10000000000E+02 0. -1.
</event>
<event>
 5    1  0.1303633E-008  0.3691496E+03  0.7957747E-01  0.3499809E+00
         13   -1    0    0    0    0  0.00000000000E+00  0.00000000000E+00  0.14999999963E+04  0.15000000000E+04  0.10566000000E+00 0.  1.
        994   -1    0    0    0    0 -0.00000000000E+00 -0.00000000000E+00  0.11368683772E-12  0.17120000000E+03  0.17120000000E+03 0.  0.
         13    1    1    2    0    0  0.76685572656E+02  0.35920560898E+02  0.36338237600E+03  0.37311891684E+03  0.10566000000E+00 0.  1.
        994    1    1    2    0    0 -0.49974107088E+02 -0.11108298079E+02  0.18858379006E+02  0.17968273185E+03  0.17120000000E+03 0.  0.
        998    1    1    2    0    0 -0.26711465568E+02 -0.24812262818E+02  0.11177592413E+04  0.11183983513E+04  0.10000000000E+02 0.  1.
</event>
<event>
 5    1  0.1303633E-008  0.3807629E+03  0.7957747E-01  0.3447843E+00
         13   -1    0    0    0    0  0.00000000000E+00  0.00000000000E+00  0.14999999963E+04  0.15000000000E+04  0.10566000000E+00 0. -1.
        994   -1    0    0    0    0 -0.00000000000E+00 -0.00000000000E+00  0.11368683772E-12  0.17120000000E+03  0.17120000000E+03 0.  0.
         13    1    1    2    0    0  0.39826981696E+01  0.17826649937E+02  0.42840720561E+02  0.46572414957E+02  0.10566000000E+00 0. -1.
        994    1    1    2    0    0 -0.16058688730E+00 -0.14136748180E+02  0.44153059285E+01  0.17183948430E+03  0.17120000000E+03 0.  0.
        998    1    1    2    0    0 -0.38221112823E+01 -0.36899017572E+01  0.14527439698E+04  0.14527881007E+04  0.10000000000E+02 0. -1.
</event>
<event>
 5    1  0.1303633E-008  0.3744719E+03  0.7957747E-01  0.3475588E+00
         13   -1    0    0    0    0  0.00000000000E+00  0.00000000000E+00  0.14999999963E+04  0.15000000000E+04  0.10566000000E+00 0. -1.
        994   -1    0    0    0    0 -0.00000000000E+00 -0.00000000000E+00  0.11368683772E-12  0.17120000000E+03  0.17120000000E+03 0.  0.
         13    1    1    2    0    0 -0.47650244145E+02  0.18957428329E+02  0.19000366608E+03  0.19680277982E+03  0.10566000000E+00 0. -1.
        994    1    1    2    0    0  0.24866278242E+02 -0.10562610769E+02  0.94396755325E+01  0.17357548218E+03  0.17120000000E+03 0.  0.
        998    1    1    2    0    0  0.22783965903E+02 -0.83948175606E+01  0.13005566547E+04  0.13008217380E+04  0.10000000000E+02 0. -1.
</event>
<event>
 5    1  0.1698364E-008  0.3854355E+03  0.7957747E-01  0.3427827E+00
         13   -1    0    0    0    0  0.00000000000E+00  0.00000000000E+00  0.14999999963E+04  0.15000000000E+04  0.10566000000E+00 0.  1.
        994   -1    0    0    0    0 -0.00000000000E+00 -0.00000000000E+00  0.11368683772E-12  0.17120000000E+03  0.17120000000E+03 0.  0.
         13    1    1    2    0    0  0.12218636607E+02 -0.25520162355E+01  0.60281423408E+02  0.61560287845E+02  0.10566000000E+00 0.  1.
        994    1    1    2    0    0  0.36008819180E+01 -0.52918233813E+01  0.15486277755E+01  0.17132661204E+03  0.17120000000E+03 0.  0.
        998    1    1    2    0    0 -0.15819518525E+02  0.78438396168E+01  0.14381699451E+04  0.14383131001E+04  0.10000000000E+02 0.  1.
</event>
<event>
 5    1  0.1303633E-008  0.3846121E+03  0.7957747E-01  0.3431319E+00
         13   -1    0    0    0    0  0.00000000000E+00  0.00000000000E+00  0.14999999963E+04  0.15000000000E+04  0.10566000000E+00 0. -1.
        994   -1    0    0    0    0 -0.00000000000E+00 -0.00000000000E+00  0.11368683772E-12  0.17120000000E+03  0.17120000000E+03 0.  0.
         13    1    1    2    0    0 -0.20033910653E+02  0.32593633041E+01  0.12116644567E+03  0.12285479131E+03  0.10566000000E+00 0. -1.
        994    1    1    2    0    0  0.27761351674E+01 -0.99196604543E+01  0.21723021789E+01  0.17152336717E+03  0.17120000000E+03 0.  0.
        998    1    1    2    0    0  0.17257775485E+02  0.66602971502E+01  0.13766612484E+04  0.13768218415E+04  0.10000000000E+02 0. -1.
</event>
<event>
 5    1  0.1303633E-008  0.3824950E+03  0.7957747E-01  0.3440366E+00
         13   -1    0    0    0    0  0.00000000000E+00  0.00000000000E+00  0.14999999963E+04  0.15000000000E+04  0.10566000000E+00 0.  1.
        994   -1    0    0    0    0 -0.00000000000E+00 -0.00000000000E+00  0.11368683772E-12  0.17120000000E+03  0.17120000000E+03 0.  0.
         13    1    1    2    0    0  0.93240778515E+01 -0.21499261787E+02  0.96845851183E+02  0.99640788538E+02  0.10566000000E+00 0.  1.
        994    1    1    2    0    0 -0.46135394216E+01  0.93224922430E+01  0.32377827469E+01  0.17154625279E+03  0.17120000000E+03 0.  0.
        998    1    1    2    0    0 -0.47105384299E+01  0.12176769544E+02  0.13999163623E+04  0.14000129587E+04  0.10000000000E+02 0.  1.
</event>
<event>
 5    1  0.1303633E-008  0.3822364E+03  0.7957747E-01  0.3441478E+00
         13   -1    0    0    0    0  0.00000000000E+00  0.00000000000E+00  0.14999999963E+04  0.15000000000E+04  0.10566000000E+00 0. -1.
        994   -1    0    0    0    0 -0.00000000000E+00 -0.00000000000E+00  0.11368683772E-12  0.17120000000E+03  0.17120000000E+03 0.  0.
         13    1    1    2    0    0  0.25219391324E+01 -0.34591234274E+02  0.19552154316E+03  0.19857391236E+03  0.10566000000E+00 0. -1.
        994    1    1    2    0    0  0.90432142243E+01  0.23165446831E+02  0.50633167193E+01  0.17307077982E+03  0.17120000000E+03 0.  0.
        998    1    1    2    0    0 -0.11565153357E+02  0.11425787443E+02  0.12994151364E+04  0.12995553078E+04  0.10000000000E+02 0. -1.
</event>
<event>
 5    1  0.1303633E-008  0.3823302E+03  0.7957747E-01  0.3441075E+00
         13   -1    0    0    0    0  0.00000000000E+00  0.00000000000E+00  0.14999999963E+04  0.15000000000E+04  0.10566000000E+00 0. -1.
        994   -1    0    0    0    0 -0.00000000000E+00 -0.00000000000E+00  0.11368683772E-12  0.17120000000E+03  0.17120000000E+03 0.  0.
         13    1    1    2    0    0 -0.52246324748E+01  0.15230285724E+02  0.41504761056E+02  0.44518701038E+02  0.10566000000E+00 0. -1.
        994    1    1    2    0    0  0.80877002007E+01 -0.16593262530E+02  0.40926993249E+01  0.17224092848E+03  0.17120000000E+03 0.  0.
        998    1    1    2    0    0 -0.28630677259E+01  0.13629768059E+01  0.14544025359E+04  0.14544403705E+04  0.10000000000E+02 0. -1.
</event>
<event>
 5    1  0.1303633E-008  0.3838544E+03  0.7957747E-01  0.3434545E+00
         13   -1    0    0    0    0  0.00000000000E+00  0.00000000000E+00  0.14999999963E+04  0.15000000000E+04  0.10566000000E+00 0. -1.
        994   -1    0    0    0    0 -0.00000000000E+00 -0.00000000000E+00  0.11368683772E-12  0.17120000000E+03  0.17120000000E+03 0.  0.
         13    1    1    2    0    0  0.35789925518E+00 -0.11382242297E+02  0.29404198360E+02  0.31532547896E+02  0.10566000000E+00 0. -1.
        994    1    1    2    0    0 -0.58047760689E+01  0.25016427278E+01  0.23318744355E+01  0.17133251670E+03  0.17120000000E+03 0.  0.
        998    1    1    2    0    0  0.54468768137E+01  0.88805995690E+01  0.14682639235E+04  0.14683349354E+04  0.10000000000E+02 0. -1.
</event>
<event>
 5    1  0.1303633E-008  0.2838086E+03  0.7957747E-01  0.4018852E+00
         13   -1    0    0    0    0  0.00000000000E+00  0.00000000000E+00  0.14999999963E+04  0.15000000000E+04  0.10566000000E+00 0. -1.
        994   -1    0    0    0    0 -0.00000000000E+00 -0.00000000000E+00  0.11368683772E-12  0.17120000000E+03  0.17120000000E+03 0.  0.
         13    1    1    2    0    0  0.10823969060E+02 -0.14614274839E+03  0.64373210533E+03  0.66020140549E+03  0.10566000000E+00 0. -1.
        994    1    1    2    0    0 -0.41000880876E+02  0.92893362603E+02  0.53870279777E+02  0.20620789532E+03  0.17120000000E+03 0.  0.
        998    1    1    2    0    0  0.30176911816E+02  0.53249385786E+02  0.80239761117E+03  0.80479069919E+03  0.10000000000E+02 0. -1.
</event>
<event>
 5    1  0.1303633E-008  0.3808095E+03  0.7957747E-01  0.3447641E+00
         13   -1    0    0    0    0  0.00000000000E+00  0.00000000000E+00  0.14999999963E+04  0.15000000000E+04  0.10566000000E+00 0.  1.
        994   -1    0    0    0    0 -0.00000000000E+00 -0.00000000000E+00  0.11368683772E-12  0.17120000000E+03  0.17120000000E+03 0.  0.
         13    1    1    2    0    0  0.30080299586E+02 -0.23441755519E+01  0.13469109820E+03  0.13802906462E+03  0.10566000000E+00 0.  1.
        994    1    1    2    0    0 -0.10504999670E+01  0.70864977475E+00  0.37304167809E+01  0.17124532620E+03  0.17120000000E+03 0.  0.
        998    1    1    2    0    0 -0.29029799619E+02  0.16355257772E+01  0.13615784813E+04  0.13619256092E+04  0.10000000000E+02 0.  1.
</event>
<event>
 5    1  0.1303633E-008  0.3692288E+03  0.7957747E-01  0.3499443E+00
         13   -1    0    0    0    0  0.00000000000E+00  0.00000000000E+00  0.14999999963E+04  0.15000000000E+04  0.10566000000E+00 0. -1.
        994   -1    0    0    0    0 -0.00000000000E+00 -0.00000000000E+00  0.11368683772E-12  0.17120000000E+03  0.17120000000E+03 0.  0.
         13    1    1    2    0    0 -0.10378407916E+02 -0.15823096891E+03  0.76599694879E+03  0.78223787149E+03  0.10566000000E+00 0. -1.
        994    1    1    2    0    0 -0.43747197406E+01  0.14014023375E+03  0.81275088710E+02  0.23574033031E+03  0.17120000000E+03 0.  0.
        998    1    1    2    0    0  0.14753127657E+02  0.18090735156E+02  0.65272795878E+03  0.65322179820E+03  0.10000000000E+02 0. -1.
</event>
<event>
 5    1  0.1303633E-008  0.3785367E+03  0.7957747E-01  0.3457555E+00
         13   -1    0    0    0    0  0.00000000000E+00  0.00000000000E+00  0.14999999963E+04  0.15000000000E+04  0.10566000000E+00 0.  1.
        994   -1    0    0    0    0 -0.00000000000E+00 -0.00000000000E+00  0.11368683772E-12  0.17120000000E+03  0.17120000000E+03 0.  0.
         13    1    1    2    0    0 -0.28268845472E+02 -0.46690239791E+00  0.90811353611E+02  0.95110770845E+02  0.10566000000E+00 0.  1.
        994    1    1    2    0    0 -0.79809808142E+01  0.56671595560E+02  0.15956050569E+02  0.18121644889E+03  0.17120000000E+03 0.  0.
        998    1    1    2    0    0  0.36249826286E+02 -0.56204693162E+02  0.13932325921E+04  0.13948727803E+04  0.10000000000E+02 0.  1.
</event>
<event>
 5    1  0.1303633E-008  0.3839219E+03  0.7957747E-01  0.3434258E+00
         13   -1    0    0    0    0  0.00000000000E+00  0.00000000000E+00  0.14999999963E+04  0.15000000000E+04  0.10566000000E+00 0. -1.
        994   -1    0    0    0    0 -0.00000000000E+00 -0.00000000000E+00  0.11368683772E-12  0.17120000000E+03  0.17120000000E+03 0.  0.
         13    1    1    2    0    0  0.12757008894E+02  0.60730208465E+01  0.43306304851E+02  0.45552936919E+02  0.10566000000E+00 0. -1.
        994    1    1    2    0    0 -0.16466480391E+02 -0.13170001039E+02  0.36349760241E+01  0.17253187229E+03  0.17120000000E+03 0.  0.
        998    1    1    2    0    0  0.37094714973E+01  0.70969801924E+01  0.14530587154E+04  0.14531151908E+04  0.10000000000E+02 0. -1.
</event>
<event>
 5    1  0.1303633E-008  0.3710557E+03  0.7957747E-01  0.3491053E+00
         13   -1    0    0    0    0  0.00000000000E+00  0.00000000000E+00  0.14999999963E+04  0.15000000000E+04  0.10566000000E+00 0. -1.
        994   -1    0    0    0    0 -0.00000000000E+00 -0.00000000000E+00  0.11368683772E-12  0.17120000000E+03  0.17120000000E+03 0.  0.
         13    1    1    2    0    0  0.18662664886E+02 -0.13793411568E+02  0.18487578121E+02  0.29670776400E+02  0.10566000000E+00 0. -1.
        994    1    1    2    0    0 -0.15145897485E+02  0.95258958747E+01  0.12622260787E+02  0.17259461860E+03  0.17120000000E+03 0.  0.
        998    1    1    2    0    0 -0.35167674012E+01  0.42675156931E+01  0.14688901574E+04  0.14689346050E+04  0.10000000000E+02 0. -1.
</event>
<event>
 5    1  0.1303633E-008  0.3860939E+03  0.7957747E-01  0.3425046E+00
         13   -1    0    0    0    0  0.00000000000E+00  0.00000000000E+00  0.14999999963E+04  0.15000000000E+04  0.10566000000E+00 0.  1.
        994   -1    0    0    0    0 -0.00000000000E+00 -0.00000000000E+00  0.11368683772E-12  0.17120000000E+03  0.17120000000E+03 0.  0.
         13    1    1    2    0    0 -0.11261794844E+02  0.39395639949E+01  0.64819841290E+02  0.65908809551E+02  0.10566000000E+00 0.  1.
        994    1    1    2    0    0  0.89233600836E+01 -0.74955984956E+01  0.15331906379E+01  0.17160303326E+03  0.17120000000E+03 0.  0.
        998    1    1    2    0    0  0.23384347604E+01  0.35560345007E+01  0.14336469644E+04  0.14336881572E+04  0.10000000000E+02 0.  0.
</event>
<event>
 5    1  0.1303633E-008  0.3765022E+03  0.7957747E-01  0.3466532E+00
         13   -1    0    0    0    0  0.00000000000E+00  0.00000000000E+00  0.14999999963E+04  0.15000000000E+04  0.10566000000E+00 0. -1.
        994   -1    0    0    0    0 -0.00000000000E+00 -0.00000000000E+00  0.11368683772E-12  0.17120000000E+03  0.17120000000E+03 0.  0.
         13    1    1    2    0    0 -0.76008254349E+01  0.27152412984E+02  0.64774931201E+02  0.70645799269E+02  0.10566000000E+00 0. -1.
        994    1    1    2    0    0  0.17170161110E+00 -0.19842108775E+02  0.72421077862E+01  0.17249819387E+03  0.17120000000E+03 0.  0.
        998    1    1    2    0    0  0.74291238238E+01 -0.73103042092E+01  0.14279829573E+04  0.14280560069E+04  0.10000000000E+02 0. -1.
</event>
<event>
 5    1  0.1303633E-008  0.3832396E+03  0.7957747E-01  0.3437173E+00
         13   -1    0    0    0    0  0.00000000000E+00  0.00000000000E+00  0.14999999963E+04  0.15000000000E+04  0.10566000000E+00 0.  1.
        994   -1    0    0    0    0 -0.00000000000E+00 -0.00000000000E+00  0.11368683772E-12  0.17120000000E+03  0.17120000000E+03 0.  0.
         13    1    1    2    0    0  0.53803820449E+00 -0.22252971408E+02  0.93956365418E+02  0.96557205781E+02  0.10566000000E+00 0.  1.
        994    1    1    2    0    0  0.40591587307E+01  0.21073693166E+02  0.40315261110E+01  0.17258699405E+03  0.17120000000E+03 0.  0.
        998    1    1    2    0    0 -0.45971969352E+01  0.11792782428E+01  0.14020121047E+04  0.14020558002E+04  0.10000000000E+02 0.  1.
</event>
<event>
 5    1  0.1826638E-008  0.3862382E+03  0.7957747E-01  0.3424438E+00
         13   -1    0    0    0    0  0.00000000000E+00  0.00000000000E+00  0.14999999963E+04  0.15000000000E+04  0.10566000000E+00 0. -1.
        994   -1    0    0    0    0 -0.00000000000E+00 -0.00000000000E+00  0.11368683772E-12  0.17120000000E+03  0.17120000000E+03 0.  0.
         13    1    1    2    0    0  0.11599318885E+02 -0.23588932368E+00  0.67931695884E+02  0.68915356141E+02  0.10566000000E+00 0. -1.
        994    1    1    2    0    0 -0.64859632789E+01  0.69611979973E-01  0.11544655648E+01  0.17132672108E+03  0.17120000000E+03 0.  0.
        998    1    1    2    0    0 -0.51133556066E+01  0.16627734371E+00  0.14309138348E+04  0.14309579228E+04  0.10000000000E+02 0. -1.
</event>
<event>
 5    1  0.1303633E-008  0.3823969E+03  0.7957747E-01  0.3440788E+00
         13   -1    0    0    0    0  0.00000000000E+00  0.00000000000E+00  0.14999999963E+04  0.15000000000E+04  0.10566000000E+00 0.  1.
        994   -1    0    0    0    0 -0.00000000000E+00 -0.00000000000E+00  0.11368683772E-12  0.17120000000E+03  0.17120000000E+03 0.  0.
         13    1    1    2    0    0  0.18658088248E+02  0.14761870020E+02  0.10549621112E+03  0.10814572940E+03  0.10566000000E+00 0.  1.
        994    1    1    2    0    0  0.12458264648E+02 -0.15134432433E+02  0.42035444937E+01  0.17236986160E+03  0.17120000000E+03 0.  0.
        998    1    1    2    0    0 -0.31116352897E+02  0.37256241332E+00  0.13903002407E+04  0.13906844090E+04  0.10000000000E+02 0.  1.
</event>
<event>
 5    1  0.1303633E-008  0.3847718E+03  0.7957747E-01  0.3430640E+00
         13   -1    0    0    0    0  0.00000000000E+00  0.00000000000E+00  0.14999999963E+04  0.15000000000E+04  0.10566000000E+00 0.  1.
        994   -1    0    0    0    0 -0.00000000000E+00 -0.00000000000E+00  0.11368683772E-12  0.17120000000E+03  0.17120000000E+03 0.  0.
         13    1    1    2    0    0  0.95341130630E+01  0.35306926587E+01  0.30131320058E+02  0.31800514383E+02  0.10566000000E+00 0.  1.
        994    1    1    2    0    0  0.28014116839E+01 -0.93128734198E+01  0.20547821179E+01  0.17148830761E+03  0.17120000000E+03 0.  0.
        998    1    1    2    0    0 -0.12335524747E+02  0.57821807611E+01  0.14678138941E+04  0.14679111780E+04  0.10000000000E+02 0.  1.
</event>
<event>
 5    1  0.1303633E-008  0.3823599E+03  0.7957747E-01  0.3440947E+00
         13   -1    0    0    0    0  0.00000000000E+00  0.00000000000E+00  0.14999999963E+04  0.15000000000E+04  0.10566000000E+00 0. -1.
        994   -1    0    0    0    0 -0.00000000000E+00 -0.00000000000E+00  0.11368683772E-12  0.17120000000E+03  0.17120000000E+03 0.  0.
         13    1    1    2    0    0  0.19974553311E+02  0.18207827723E+02  0.13220364735E+03  0.13493822033E+03  0.10566000000E+00 0. -1.
        994    1    1    2    0    0 -0.75630324409E+01 -0.63089902654E+00  0.31376872223E+01  0.17139685696E+03  0.17120000000E+03 0.  0.
        998    1    1    2    0    0 -0.12411520870E+02 -0.17576928697E+02  0.13646586617E+04  0.13648649227E+04  0.10000000000E+02 0. -1.
</event>
<event>
 5    1  0.1303633E-008  0.3810261E+03  0.7957747E-01  0.3446703E+00
         13   -1    0    0    0    0  0.00000000000E+00  0.00000000000E+00  0.14999999963E+04  0.15000000000E+04  0.10566000000E+00 0.  1.
        994   -1    0    0    0    0 -0.00000000000E+00 -0.00000000000E+00  0.11368683772E-12  0.17120000000E+03  0.17120000000E+03 0.  0.
         13    1    1    2    0    0 -0.16152124033E+02  0.20273383281E+02  0.11751828294E+03  0.12034308941E+03  0.10566000000E+00 0.  1.
        994    1    1    2    0    0  0.79920684329E+01  0.36391038533E+02  0.82548247685E+01  0.17540171885E+03  0.17120000000E+03 0.  0.
        998    1    1    2    0    0  0.81600556004E+01 -0.56664421814E+02  0.13742268886E+04  0.13754551917E+04  0.10000000000E+02 0.  1.
</event>
<event>
 5    1  0.1303633E-008  0.3848792E+03  0.7957747E-01  0.3430185E+00
         13   -1    0    0    0    0  0.00000000000E+00  0.00000000000E+00  0.14999999963E+04  0.15000000000E+04  0.10566000000E+00 0. -1.
        994   -1    0    0    0    0 -0.00000000000E+00 -0.00000000000E+00  0.11368683772E-12  0.17120000000E+03  0.17120000000E+03 0.  0.
         13    1    1    2    0    0 -0.14410249748E+02 -0.16856977635E+01  0.62912931563E+02  0.64564270279E+02  0.10566000000E+00 0. -1.
        994    1    1    2    0    0  0.81766378192E+01 -0.30109676365E+01  0.19399688492E+01  0.17143257220E+03  0.17120000000E+03 0.  0.
        998    1    1    2    0    0  0.62336119288E+01  0.46966654000E+01  0.14351470959E+04  0.14352031575E+04  0.10000000000E+02 0. -1.
</event>
<event>
 5    1  0.1817244E-008  0.3862006E+03  0.7957747E-01  0.3424596E+00
         13   -1    0    0    0    0  0.00000000000E+00  0.00000000000E+00  0.14999999963E+04  0.15000000000E+04  0.10566000000E+00 0. -1.
        994   -1    0    0    0    0 -0.00000000000E+00 -0.00000000000E+00  0.11368683772E-12  0.17120000000E+03  0.17120000000E+03 0.  0.
         13    1    1    2    0    0 -0.19209178998E+00 -0.12783208727E+02  0.65047976635E+02  0.66292516568E+02  0.10566000000E+00 0. -1.
        994    1    1    2    0    0 -0.27496399000E+01  0.36033970306E+02  0.53253131389E+01  0.17505372460E+03  0.17120000000E+03 0.  0.
        998    1    1    2    0    0  0.29417316900E+01 -0.23250761580E+02  0.14296267065E+04  0.14298537588E+04  0.10000000000E+02 0. -1.
</event>
<event>
 5    1  0.1303633E-008  0.3811637E+03  0.7957747E-01  0.3446107E+00
         13   -1    0    0    0    0  0.00000000000E+00  0.00000000000E+00  0.14999999963E+04  0.15000000000E+04  0.10566000000E+00 0.  1.
        994   -1    0    0    0    0 -0.00000000000E+00 -0.00000000000E+00  0.11368683772E-12  0.17120000000E+03  0.17120000000E+03 0.  0.
         13    1    1    2    0    0  0.53506037532E+01 -0.18537803942E+02  0.50053537541E+02  0.53643703451E+02  0.10566000000E+00 0.  1.
        994    1    1    2    0    0 -0.12122975105E+02  0.15617904658E+02  0.48496249983E+01  0.17240604495E+03  0.17120000000E+03 0.  0.
        998    1    1    2    0    0  0.67723713521E+01  0.29198992832E+01  0.14450968337E+04  0.14451502516E+04  0.10000000000E+02 0.  1.
</event>
<event>
 5    1  0.1303633E-008  0.3844079E+03  0.7957747E-01  0.3432187E+00
         13   -1    0    0    0    0  0.00000000000E+00  0.00000000000E+00  0.14999999963E+04  0.15000000000E+04  0.10566000000E+00 0.  1.
        994   -1    0    0    0    0 -0.00000000000E+00 -0.00000000000E+00  0.11368683772E-12  0.17120000000E+03  0.17120000000E+03 0.  0.
         13    1    1    2    0    0  0.21654609359E+02  0.98187770291E+00  0.11747871548E+03  0.11946190164E+03  0.10566000000E+00 0.  1.
        994    1    1    2    0    0 -0.17785936050E+02 -0.10564764594E+02  0.33357471884E+01  0.17247759559E+03  0.17120000000E+03 0.  0.
        998    1    1    2    0    0 -0.38686733089E+01  0.95828868908E+01  0.13791855336E+04  0.13792605028E+04  0.10000000000E+02 0.  1.
</event>
<event>
 5    1  0.1853361E-008  0.3854182E+03  0.7957747E-01  0.3427900E+00
         13   -1    0    0    0    0  0.00000000000E+00  0.00000000000E+00  0.14999999963E+04  0.15000000000E+04  0.10566000000E+00 0. -1.
        994   -1    0    0    0    0 -0.00000000000E+00 -0.00000000000E+00  0.11368683772E-12  0.17120000000E+03  0.17120000000E+03 0.  0.
         13    1    1    2    0    0 -0.89510370091E+01  0.59841539987E+01  0.40958910968E+02  0.42350616457E+02  0.10566000000E+00 0. -1.
        994    1    1    2    0    0  0.43252649352E+01 -0.55535003574E+01  0.15853969613E+01  0.17135198501E+03  0.17120000000E+03 0.  0.
        998    1    1    2    0    0  0.46257720739E+01 -0.43065364133E+00  0.14574556883E+04  0.14574973985E+04  0.10000000000E+02 0. -1.
</event>
<event>
 5    1  0.1303633E-008  0.3847968E+03  0.7957747E-01  0.3430534E+00
         13   -1    0    0    0    0  0.00000000000E+00  0.00000000000E+00  0.14999999963E+04  0.15000000000E+04  0.10566000000E+00 0.  1.
        994   -1    0    0    0    0 -0.00000000000E+00 -0.00000000000E+00  0.11368683772E-12  0.17120000000E+03  0.17120000000E+03 0.  0.
         13    1    1    2    0    0  0.67328023595E+01  0.14013891067E+02  0.73608961953E+02  0.75233039379E+02  0.10566000000E+00 0.  1.
        994    1    1    2    0    0  0.15822658325E+01 -0.29818843100E+01  0.17685581987E+01  0.17124241004E+03  0.17120000000E+03 0.  0.
        998    1    1    2    0    0 -0.83150681920E+01 -0.11032006757E+02  0.14246224761E+04  0.14247245506E+04  0.10000000000E+02 0.  1.
</event>
<event>
 5    1  0.1303633E-008  0.3844952E+03  0.7957747E-01  0.3431816E+00
         13   -1    0    0    0    0  0.00000000000E+00  0.00000000000E+00  0.14999999963E+04  0.15000000000E+04  0.10566000000E+00 0.  1.
        994   -1    0    0    0    0 -0.00000000000E+00 -0.00000000000E+00  0.11368683772E-12  0.17120000000E+03  0.17120000000E+03 0.  0.
         13    1    1    2    0    0  0.33597834514E+01  0.11110631670E+02  0.36712572614E+02  0.38504005414E+02  0.10566000000E+00 0.  1.
        994    1    1    2    0    0  0.36559476985E+01 -0.12622577473E+01  0.19302292411E+01  0.17125456208E+03  0.17120000000E+03 0.  0.
        998    1    1    2    0    0 -0.70157311499E+01 -0.98483739227E+01  0.14613571944E+04  0.14614414325E+04  0.10000000000E+02 0.  1.
</event>
<event>
 5    1  0.1303633E-008  0.4202539E+03  0.7957747E-01  0.3292663E+00
         13   -1    0    0    0    0  0.00000000000E+00  0.00000000000E+00  0.14999999963E+04  0.15000000000E+04  0.10566000000E+00 0.  1.
        994   -1    0    0    0    0 -0.00000000000E+00 -0.00000000000E+00  0.11368683772E-12  0.17120000000E+03  0.17120000000E+03 0.  0.
         13    1    1    2    0    0 -0.55970544168E+02 -0.91316919109E+02  0.13826125239E+03  0.17489330063E+03  0.10566000000E+00 0.  1.
        994    1    1    2    0    0  0.11730865955E+02  0.64732275226E+02  0.59221783014E+02  0.19272918890E+03  0.17120000000E+03 0.  0.
        998    1    1    2    0    0  0.44239678213E+02  0.26584643883E+02  0.13025169609E+04  0.13035775105E+04  0.10000000000E+02 0.  1.
</event>
<event>
 5    1  0.1303633E-008  0.3896749E+03  0.7957747E-01  0.3410084E+00
         13   -1    0    0    0    0  0.00000000000E+00  0.00000000000E+00  0.14999999963E+04  0.15000000000E+04  0.10566000000E+00 0.  1.
        994   -1    0    0    0    0 -0.00000000000E+00 -0.00000000000E+00  0.11368683772E-12  0.17120000000E+03  0.17120000000E+03 0.  0.
         13    1    1    2    0    0  0.48596717120E+02 -0.60882523834E+02  0.11600619425E+03  0.13973464456E+03  0.10566000000E+00 0.  1.
        994    1    1    2    0    0 -0.66785734005E+02  0.67034675286E+02  0.56239441914E+02  0.20353451006E+03  0.17120000000E+03 0.  0.
        998    1    1    2    0    0  0.18189016885E+02 -0.61521514525E+01  0.13277543601E+04  0.13279308454E+04  0.10000000000E+02 0.  1.
</event>
<event>
 5    1  0.1303633E-008  0.3723199E+03  0.7957747E-01  0.3485297E+00
         13   -1    0    0    0    0  0.00000000000E+00  0.00000000000E+00  0.14999999963E+04  0.15000000000E+04  0.10566000000E+00 0.  1.
        994   -1    0    0    0    0 -0.00000000000E+00 -0.00000000000E+00  0.11368683772E-12  0.17120000000E+03  0.17120000000E+03 0.  0.
         13    1    1    2    0    0  0.76156804219E+02 -0.22340290009E+02  0.35887839408E+03  0.36754953447E+03  0.10566000000E+00 0.  1.
        994    1    1    2    0    0 -0.50818831463E+02  0.24847339785E+02  0.19118972973E+02  0.18131442042E+03  0.17120000000E+03 0.  0.
        998    1    1    2    0    0 -0.25337972756E+02 -0.25070497762E+01  0.11220026292E+04  0.11223360451E+04  0.10000000000E+02 0.  1.
</event>
<event>
 5    1  0.1303633E-008  0.3770121E+03  0.7957747E-01  0.3464273E+00
         13   -1    0    0    0    0  0.00000000000E+00  0.00000000000E+00  0.14999999963E+04  0.15000000000E+04  0.10566000000E+00 0.  1.
        994   -1    0    0    0    0 -0.00000000000E+00 -0.00000000000E+00  0.11368683772E-12  0.17120000000E+03  0.17120000000E+03 0.  0.
         13    1    1    2    0    0  0.39132843047E+02  0.18891626652E+02  0.20473558669E+03  0.20929630810E+03  0.10566000000E+00 0.  1.
        994    1    1    2    0    0  0.62682210310E+01  0.22211041940E+01  0.57984084610E+01  0.17142720157E+03  0.17120000000E+03 0.  0.
        998    1    1    2    0    0 -0.45401064078E+02 -0.21112730846E+02  0.12894660011E+04  0.12904764903E+04  0.10000000000E+02 0.  1.
</event>
<event>
 5    1  0.1303633E-008  0.3748951E+03  0.7957747E-01  0.3473692E+00
         13   -1    0    0    0    0  0.00000000000E+00  0.00000000000E+00  0.14999999963E+04  0.15000000000E+04  0.10566000000E+00 0.  1.
        994   -1    0    0    0    0 -0.00000000000E+00 -0.00000000000E+00  0.11368683772E-12  0.17120000000E+03  0.17120000000E+03 0.  0.
         13    1    1    2    0    0  0.47951714559E+02 -0.86282033380E+02  0.43349603005E+03  0.44459281983E+03  0.10566000000E+00 0.  1.
        994    1    1    2    0    0 -0.57693078343E+02  0.98268530249E+02  0.52255199296E+02  0.21219152005E+03  0.17120000000E+03 0.  0.
        998    1    1    2    0    0  0.97413637836E+01 -0.11986496869E+02  0.10142487669E+04  0.10144156601E+04  0.10000000000E+02 0.  1.
</event>
<event>
 5    1  0.1459537E-008  0.3863866E+03  0.7957747E-01  0.3423813E+00
         13   -1    0    0    0    0  0.00000000000E+00  0.00000000000E+00  0.14999999963E+04  0.15000000000E+04  0.10566000000E+00 0. -1.
        994   -1    0    0    0    0 -0.00000000000E+00 -0.00000000000E+00  0.11368683772E-12  0.17120000000E+03  0.17120000000E+03 0.  0.
         13    1    1    2    0    0  0.55439303487E+01  0.91902289724E+01  0.60607216401E+02  0.61550315322E+02  0.10566000000E+00 0. -1.
        994    1    1    2    0    0 -0.26405570310E+01 -0.10725590381E+02  0.13428398918E+01  0.17156122537E+03  0.17120000000E+03 0.  0.
        998    1    1    2    0    0 -0.29033733177E+01  0.15353614086E+01  0.14380499400E+04  0.14380884593E+04  0.10000000000E+02 0. -1.
</event>
<event>
 5    1  0.1303633E-008  0.4074042E+03  0.7957747E-01  0.3339877E+00
         13   -1    0    0    0    0  0.00000000000E+00  0.00000000000E+00  0.14999999963E+04  0.15000000000E+04  0.10566000000E+00 0. -1.
        994   -1    0    0    0    0 -0.00000000000E+00 -0.00000000000E+00  0.11368683772E-12  0.17120000000E+03  0.17120000000E+03 0.  0.
         13    1    1    2    0    0  0.97746761288E+02 -0.99403195567E+02  0.24232238798E+03  0.27956318697E+03  0.10566000000E+00 0. -1.
        994    1    1    2    0    0 -0.50530904023E+02  0.13837073735E+03  0.12670834289E+03  0.25896771492E+03  0.17120000000E+03 0.  0.
        998    1    1    2    0    0 -0.47215857265E+02 -0.38967541779E+02  0.11309692654E+04  0.11326690981E+04  0.10000000000E+02 0. -1.
</event>
<event>
 5    1  0.1303633E-008  0.3800939E+03  0.7957747E-01  0.3450750E+00
         13   -1    0    0    0    0  0.00000000000E+00  0.00000000000E+00  0.14999999963E+04  0.15000000000E+04  0.10566000000E+00 0. -1.
        994   -1    0    0    0    0 -0.00000000000E+00 -0.00000000000E+00  0.11368683772E-12  0.17120000000E+03  0.17120000000E+03 0.  0.
         13    1    1    2    0    0  0.12295824238E+02  0.55820235395E+00  0.16020107603E+02  0.20202818991E+02  0.10566000000E+00 0. -1.
        994    1    1    2    0    0 -0.26742315081E+02 -0.11675352521E+02  0.69364587882E+01  0.17380742140E+03  0.17120000000E+03 0.  0.
        998    1    1    2    0    0  0.14446490843E+02  0.11117150167E+02  0.14770434299E+04  0.14771897596E+04  0.10000000000E+02 0. -1.
</event>
<event>
 5    1  0.1303633E-008  0.3732756E+03  0.7957747E-01  0.3480971E+00
         13   -1    0    0    0    0  0.00000000000E+00  0.00000000000E+00  0.14999999963E+04  0.15000000000E+04  0.10566000000E+00 0.  1.
        994   -1    0    0    0    0 -0.00000000000E+00 -0.00000000000E+00  0.11368683772E-12  0.17120000000E+03  0.17120000000E+03 0.  0.
         13    1    1    2    0    0 -0.13066545141E+02  0.48234602338E+02  0.14824073601E+03  0.15643733071E+03  0.10566000000E+00 0.  1.
        994    1    1    2    0    0  0.95784194196E+01 -0.47856306477E+02  0.15755271850E+02  0.17871664942E+03  0.17120000000E+03 0.  0.
        998    1    1    2    0    0  0.34881257218E+01 -0.37829586134E+00  0.13360039884E+04  0.13360460199E+04  0.10000000000E+02 0.  1.
</event>
<event>
 5    1  0.1303633E-008  0.3748833E+03  0.7957747E-01  0.3473745E+00
         13   -1    0    0    0    0  0.00000000000E+00  0.00000000000E+00  0.14999999963E+04  0.15000000000E+04  0.10566000000E+00 0.  1.
        994   -1    0    0    0    0 -0.00000000000E+00 -0.00000000000E+00  0.11368683772E-12  0.17120000000E+03  0.17120000000E+03 0.  0.
         13    1    1    2    0    0  0.24397237956E+02 -0.55822074231E+00  0.41303716188E+02  0.47974419905E+02  0.10566000000E+00 0.  1.
        994    1    1    2    0    0 -0.18103948941E+02 -0.38665696646E+01  0.79048816427E+01  0.17237932150E+03  0.17120000000E+03 0.  0.
        998    1    1    2    0    0 -0.62932890155E+01  0.44247904069E+01  0.14507913984E+04  0.14508462586E+04  0.10000000000E+02 0.  1.
</event>
<event>
 5    1  0.1303633E-008  0.3731802E+03  0.7957747E-01  0.3481402E+00
         13   -1    0    0    0    0  0.00000000000E+00  0.00000000000E+00  0.14999999963E+04  0.15000000000E+04  0.10566000000E+00 0. -1.
        994   -1    0    0    0    0 -0.00000000000E+00 -0.00000000000E+00  0.11368683772E-12  0.17120000000E+03  0.17120000000E+03 0.  0.
         13    1    1    2    0    0 -0.77827920541E+02 -0.68393817887E+02  0.42934815722E+03  0.44167267384E+03  0.10566000000E+00 0. -1.
        994    1    1    2    0    0  0.97485253043E+02  0.67962922911E+02  0.57574165191E+02  0.21620952326E+03  0.17120000000E+03 0.  0.
        998    1    1    2    0    0 -0.19657332502E+02  0.43089497641E+00  0.10130776739E+04  0.10133178029E+04  0.10000000000E+02 0. -1.
</event>
<event>
 5    1  0.1580153E-008  0.3859369E+03  0.7957747E-01  0.3425708E+00
         13   -1    0    0    0    0  0.00000000000E+00  0.00000000000E+00  0.14999999963E+04  0.15000000000E+04  0.10566000000E+00 0.  1.
        994   -1    0    0    0    0 -0.00000000000E+00 -0.00000000000E+00  0.11368683772E-12  0.17120000000E+03  0.17120000000E+03 0.  0.
         13    1    1    2    0    0 -0.75590223935E+01 -0.10329759769E+02  0.67736374952E+02  0.68935262472E+02  0.10566000000E+00 0.  1.
        994    1    1    2    0    0  0.96574998598E+01  0.11260316120E+02  0.18875501498E+01  0.17185186897E+03  0.17120000000E+03 0.  0.
        998    1    1    2    0    0 -0.20984774662E+01 -0.93055635168E+00  0.14303760712E+04  0.14304128686E+04  0.10000000000E+02 0.  1.
</event>
<event>
 5    1  0.1325443E-008  0.3841730E+03  0.7957747E-01  0.3433187E+00
         13   -1    0    0    0    0  0.00000000000E+00  0.00000000000E+00  0.14999999963E+04  0.15000000000E+04  0.10566000000E+00 0. -1.
        994   -1    0    0    0    0 -0.00000000000E+00 -0.00000000000E+00  0.11368683772E-12  0.17120000000E+03  0.17120000000E+03 0.  0.
         13    1    1    2    0    0 -0.10242690928E+01 -0.11595016294E+02  0.34670912842E+02  0.36572898318E+02  0.10566000000E+00 0. -1.
        994    1    1    2    0    0 -0.16362153829E+01 -0.57286299472E+01  0.21583492895E+01  0.17131722877E+03  0.17120000000E+03 0.  0.
        998    1    1    2    0    0  0.26604844758E+01  0.17323646241E+02  0.14631707341E+04  0.14633098729E+04  0.10000000000E+02 0. -1.
</event>
<event>
 5    1  0.1303633E-008  0.3843078E+03  0.7957747E-01  0.3432613E+00
         13   -1    0    0    0    0  0.00000000000E+00  0.00000000000E+00  0.14999999963E+04  0.15000000000E+04  0.10566000000E+00 0.  1.
        994   -1    0    0    0    0 -0.00000000000E+00 -0.00000000000E+00  0.11368683772E-12  0.17120000000E+03  0.17120000000E+03 0.  0.
         13    1    1    2    0    0  0.78435292240E+01 -0.64345194318E+01  0.25327705003E+02  0.27284204143E+02  0.10566000000E+00 0.  1.
        994    1    1    2    0    0 -0.72149373753E+01  0.55615900635E+01  0.22477763060E+01  0.17145693075E+03  0.17120000000E+03 0.  0.
        998    1    1    2    0    0 -0.62859184876E+00  0.87292936838E+00  0.14724245150E+04  0.14724588651E+04  0.10000000000E+02 0.  1.
</event>
<event>
 5    1  0.1303633E-008  0.3821076E+03  0.7957747E-01  0.3442032E+00
         13   -1    0    0    0    0  0.00000000000E+00  0.00000000000E+00  0.14999999963E+04  0.15000000000E+04  0.10566000000E+00 0. -1.
        994   -1    0    0    0    0 -0.00000000000E+00 -0.00000000000E+00  0.11368683772E-12  0.17120000000E+03  0.17120000000E+03 0.  0.
         13    1    1    2    0    0  0.17033965453E+03 -0.71029924058E+02  0.10334724192E+04  0.10498219375E+04  0.10566000000E+00 0. -1.
        994    1    1    2    0    0 -0.17381967905E+03  0.11134775109E+03  0.16053258793E+03  0.31255680169E+03  0.17120000000E+03 0.  0.
        998    1    1    2    0    0  0.34800245156E+01 -0.40317827034E+02  0.30599498915E+03  0.30882126082E+03  0.10000000000E+02 0. -1.
</event>
<event>
 5    1  0.1303633E-008  0.3777968E+03  0.7957747E-01  0.3460808E+00
         13   -1    0    0    0    0  0.00000000000E+00  0.00000000000E+00  0.14999999963E+04  0.15000000000E+04  0.10566000000E+00 0.  1.
        994   -1    0    0    0    0 -0.00000000000E+00 -0.00000000000E+00  0.11368683772E-12  0.17120000000E+03  0.17120000000E+03 0.  0.
         13    1    1    2    0    0  0.12039873975E+02  0.87965223600E+02  0.26165876256E+03  0.27631170500E+03  0.10566000000E+00 0.  1.
        994    1    1    2    0    0 -0.37607694436E+02 -0.44897435389E+02  0.27556821673E+02  0.18302714773E+03  0.17120000000E+03 0.  0.
        998    1    1    2    0    0  0.25567820461E+02 -0.43067788212E+02  0.12107844120E+04  0.12118611473E+04  0.10000000000E+02 0.  1.
</event>
<event>
 5    1  0.1303633E-008  0.3861028E+03  0.7957747E-01  0.3425008E+00
         13   -1    0    0    0    0  0.00000000000E+00  0.00000000000E+00  0.14999999963E+04  0.15000000000E+04  0.10566000000E+00 0. -1.
        994   -1    0    0    0    0 -0.00000000000E+00 -0.00000000000E+00  0.11368683772E-12  0.17120000000E+03  0.17120000000E+03 0.  0.
         13    1    1    2    0    0  0.30443429834E+01  0.12681719293E+02  0.78240825533E+02  0.79320438555E+02  0.10566000000E+00 0. -1.
        994    1    1    2    0    0 -0.75962215057E+00 -0.10611781854E+02  0.14545765579E+01  0.17153641810E+03  0.17120000000E+03 0.  0.
        998    1    1    2    0    0 -0.22847208328E+01 -0.20699374388E+01  0.14203045942E+04  0.14203431433E+04  0.10000000000E+02 0. -1.
</event>
<event>
 5    1  0.1303633E-008  0.3838282E+03  0.7957747E-01  0.3434657E+00
         13   -1    0    0    0    0  0.00000000000E+00  0.00000000000E+00  0.14999999963E+04  0.15000000000E+04  0.10566000000E+00 0. -1.
        994   -1    0    0    0    0 -0.00000000000E+00 -0.00000000000E+00  0.11368683772E-12  0.17120000000E+03  0.17120000000E+03 0.  0.
         13    1    1    2    0    0 -0.96184753808E+01 -0.47696512811E+01  0.25992999557E+02  0.28123154731E+02  0.10566000000E+00 0. -1.
        994    1    1    2    0    0  0.10105512014E+01 -0.63797310611E+00  0.22177635094E+01  0.17121853491E+03  0.17120000000E+03 0.  0.
        998    1    1    2    0    0  0.86079241793E+01  0.54076243872E+01  0.14717892332E+04  0.14718583104E+04  0.10000000000E+02 0. -1.
</event>
<event>
 5    1  0.1303633E-008  0.3738767E+03  0.7957747E-01  0.3478262E+00
         13   -1    0    0    0    0  0.00000000000E+00  0.00000000000E+00  0.14999999963E+04  0.15000000000E+04  0.10566000000E+00 0.  1.
        994   -1    0    0    0    0 -0.00000000000E+00 -0.00000000000E+00  0.11368683772E-12  0.17120000000E+03  0.17120000000E+03 0.  0.
         13    1    1    2    0    0 -0.51974944260E+01  0.11984423204E+02  0.84340402400E+01  0.15549422711E+02  0.10566000000E+00 0.  1.
        994    1    1    2    0    0  0.67273137241E+01 -0.96927580764E+01  0.77318039185E+01  0.17178017086E+03  0.17120000000E+03 0.  0.
        998    1    1    2    0    0 -0.15298192981E+01 -0.22916651275E+01  0.14838341521E+04  0.14838704064E+04  0.10000000000E+02 0.  1.
</event>
<event>
 5    1  0.1303633E-008  0.3823586E+03  0.7957747E-01  0.3440952E+00
         13   -1    0    0    0    0  0.00000000000E+00  0.00000000000E+00  0.14999999963E+04  0.15000000000E+04  0.10566000000E+00 0. -1.
        994   -1    0    0    0    0 -0.00000000000E+00 -0.00000000000E+00  0.11368683772E-12  0.17120000000E+03  0.17120000000E+03 0.  0.
         13    1    1    2    0    0  0.35999065130E+02  0.69964938920E+01  0.21724036831E+03  0.22031403134E+03  0.10566000000E+00 0. -1.
        994    1    1    2    0    0 -0.29057952685E+02  0.97839657213E+01  0.60718360153E+01  0.17402987615E+03  0.17120000000E+03 0.  0.
        998    1    1    2    0    0 -0.69411124441E+01 -0.16780459613E+02  0.12766877920E+04  0.12768560925E+04  0.10000000000E+02 0. -1.
</event>
<event>
 5    1  0.1303633E-008  0.3852476E+03  0.7957747E-01  0.3428623E+00
         13   -1    0    0    0    0  0.00000000000E+00  0.00000000000E+00  0.14999999963E+04  0.15000000000E+04  0.10566000000E+00 0.  1.
        994   -1    0    0    0    0 -0.00000000000E+00 -0.00000000000E+00  0.11368683772E-12  0.17120000000E+03  0.17120000000E+03 0.  0.
         13    1    1    2    0    0  0.10792444461E+02 -0.10597110705E+02  0.82532375461E+02  0.83906970962E+02  0.10566000000E+00 0.  1.
        994    1    1    2    0    0 -0.14412344974E+01 -0.27727486238E+01  0.15393366180E+01  0.17123543690E+03  0.17120000000E+03 0.  0.
        998    1    1    2    0    0 -0.93512099632E+01  0.13369859329E+02  0.14159282842E+04  0.14160575921E+04  0.10000000000E+02 0.  1.
</event>
<event>
 5    1  0.1303633E-008  0.2174052E+03  0.7957747E-01  0.4748080E+00
         13   -1    0    0    0    0  0.00000000000E+00  0.00000000000E+00  0.14999999963E+04  0.15000000000E+04  0.10566000000E+00 0. -1.
        994   -1    0    0    0    0 -0.00000000000E+00 -0.00000000000E+00  0.11368683772E-12  0.17120000000E+03  0.17120000000E+03 0.  0.
         13    1    1    2    0    0  0.10441057414E+03  0.97867239660E+02  0.15232641504E+03  0.20900457525E+03  0.10566000000E+00 0. -1.
        994    1    1    2    0    0 -0.87206523023E+02 -0.71018085544E+02  0.12688995440E+03  0.24095444935E+03  0.17120000000E+03 0.  0.
        998    1    1    2    0    0 -0.17204051119E+02 -0.26849154116E+02  0.12207836268E+04  0.12212409754E+04  0.10000000000E+02 0. -1.
</event>
<event>
 5    1  0.1303633E-008  0.3719678E+03  0.7957747E-01  0.3486896E+00
         13   -1    0    0    0    0  0.00000000000E+00  0.00000000000E+00  0.14999999963E+04  0.15000000000E+04  0.10566000000E+00 0.  1.
        994   -1    0    0    0    0 -0.00000000000E+00 -0.00000000000E+00  0.11368683772E-12  0.17120000000E+03  0.17120000000E+03 0.  0.
         13    1    1    2    0    0  0.17609385427E+02  0.13147753561E+02  0.26739241000E+02  0.34611443947E+02  0.10566000000E+00 0.  1.
        994    1    1    2    0    0 -0.15219694371E+02  0.18189846972E+02  0.10178368178E+02  0.17313448186E+03  0.17120000000E+03 0.  0.
        998    1    1    2    0    0 -0.23896910563E+01 -0.31337600534E+02  0.14630823871E+04  0.14634540742E+04  0.10000000000E+02 0.  1.
</event>
<event>
 5    1  0.1303633E-008  0.3809804E+03  0.7957747E-01  0.3446901E+00
         13   -1    0    0    0    0  0.00000000000E+00  0.00000000000E+00  0.14999999963E+04  0.15000000000E+04  0.10566000000E+00 0.  1.
        994   -1    0    0    0    0 -0.00000000000E+00 -0.00000000000E+00  0.11368683772E-12  0.17120000000E+03  0.17120000000E+03 0.  0.
         13    1    1    2    0    0  0.35990883213E+01  0.14910441480E+02  0.30649390576E+02  0.34273473833E+02  0.10566000000E+00 0.  1.
        994    1    1    2    0    0 -0.11215465070E+02 -0.10856562743E+02  0.44513671161E+01  0.17196774779E+03  0.17120000000E+03 0.  0.
        998    1    1    2    0    0  0.76163767482E+01 -0.40538787372E+01  0.14648992386E+04  0.14649587784E+04  0.10000000000E+02 0.  1.
</event>
<event>
 5    1  0.1303633E-008  0.3850625E+03  0.7957747E-01  0.3429407E+00
         13   -1    0    0    0    0  0.00000000000E+00  0.00000000000E+00  0.14999999963E+04  0.15000000000E+04  0.10566000000E+00 0.  1.
        994   -1    0    0    0    0 -0.00000000000E+00 -0.00000000000E+00  0.11368683772E-12  0.17120000000E+03  0.17120000000E+03 0.  0.
         13    1    1    2    0    0 -0.11800671771E+02 -0.16396197316E+02  0.11644076221E+03  0.11818017350E+03  0.10566000000E+00 0.  1.
        994    1    1    2    0    0  0.89869752728E+01  0.22723947476E+02  0.35649556127E+01  0.17297194114E+03  0.17120000000E+03 0.  0.
        998    1    1    2    0    0  0.28136964986E+01 -0.63277501597E+01  0.13799942785E+04  0.13800478854E+04  0.10000000000E+02 0.  1.
</event>
<event>
 5    1  0.1303633E-008  0.3814300E+03  0.7957747E-01  0.3444955E+00
         13   -1    0    0    0    0  0.00000000000E+00  0.00000000000E+00  0.14999999963E+04  0.15000000000E+04  0.10566000000E+00 0. -1.
        994   -1    0    0    0    0 -0.00000000000E+00 -0.00000000000E+00  0.11368683772E-12  0.17120000000E+03  0.17120000000E+03 0.  0.
         13    1    1    2    0    0  0.11626979636E+03 -0.71230352744E+02  0.71377185646E+03  0.72667922974E+03  0.10566000000E+00 0. -1.
        994    1    1    2    0    0 -0.16091854093E+03  0.66203249629E+02  0.11174033664E+03  0.26846413151E+03  0.17120000000E+03 0.  0.
        998    1    1    2    0    0  0.44648744562E+02  0.50271031145E+01  0.67448780318E+03  0.67605663875E+03  0.10000000000E+02 0. -1.
</event>
<event>
 5    1  0.1303633E-008  0.3688271E+03  0.7957747E-01  0.3501299E+00
         13   -1    0    0    0    0  0.00000000000E+00  0.00000000000E+00  0.14999999963E+04  0.15000000000E+04  0.10566000000E+00 0. -1.
        994   -1    0    0    0    0 -0.00000000000E+00 -0.00000000000E+00  0.11368683772E-12  0.17120000000E+03  0.17120000000E+03 0.  0.
         13    1    1    2    0    0 -0.21575659526E+02 -0.13566631934E+02  0.26543288134E+02  0.36798368103E+02  0.10566000000E+00 0. -1.
        994    1    1    2    0    0  0.22132632331E+02  0.17607223716E+02  0.13109885601E+02  0.17401487535E+03  0.17120000000E+03 0.  0.
        998    1    1    2    0    0 -0.55697280482E+00 -0.40405917811E+01  0.14603468225E+04  0.14603867566E+04  0.10000000000E+02 0. -1.
</event>
<event>
 5    1  0.1303633E-008  0.3813990E+03  0.7957747E-01  0.3445089E+00
         13   -1    0    0    0    0  0.00000000000E+00  0.00000000000E+00  0.14999999963E+04  0.15000000000E+04  0.10566000000E+00 0. -1.
        994   -1    0    0    0    0 -0.00000000000E+00 -0.00000000000E+00  0.11368683772E-12  0.17120000000E+03  0.17120000000E+03 0.  0.
         13    1    1    2    0    0 -0.19167569935E+02 -0.10047426043E+02  0.64031149551E+02  0.67589539014E+02  0.10566000000E+00 0. -1.
        994    1    1    2    0    0  0.23106799173E+02  0.82706175153E+01  0.54354424572E+01  0.17303557818E+03  0.17120000000E+03 0.  0.
        998    1    1    2    0    0 -0.39392292386E+01  0.17768085273E+01  0.14305334043E+04  0.14305748828E+04  0.10000000000E+02 0. -1.
</event>
<event>
 5    1  0.1303633E-008  0.3735298E+03  0.7957747E-01  0.3479824E+00
         13   -1    0    0    0    0  0.00000000000E+00  0.00000000000E+00  0.14999999963E+04  0.15000000000E+04  0.10566000000E+00 0. -1.
        994   -1    0    0    0    0 -0.00000000000E+00 -0.00000000000E+00  0.11368683772E-12  0.17120000000E+03  0.17120000000E+03 0.  0.
         13    1    1    2    0    0 -0.31410116002E+02 -0.37008720069E+02  0.13440463087E+03  0.14290156301E+03  0.10566000000E+00 0. -1.
        994    1    1    2    0    0  0.34565014651E+02  0.50861451740E+02  0.20466323968E+02  0.18305719851E+03  0.17120000000E+03 0.  0.
        998    1    1    2    0    0 -0.31548986495E+01 -0.13852731670E+02  0.13451290414E+04  0.13452412385E+04  0.10000000000E+02 0. -1.
</event>
<event>
 5    1  0.1303633E-008  0.3822084E+03  0.7957747E-01  0.3441599E+00
         13   -1    0    0    0    0  0.00000000000E+00  0.00000000000E+00  0.14999999963E+04  0.15000000000E+04  0.10566000000E+00 0. -1.
        994   -1    0    0    0    0 -0.00000000000E+00 -0.00000000000E+00  0.11368683772E-12  0.17120000000E+03  0.17120000000E+03 0.  0.
         13    1    1    2    0    0  0.27787636778E+02 -0.15406416447E+02  0.17497755070E+03  0.17783887325E+03  0.10566000000E+00 0. -1.
        994    1    1    2    0    0 -0.74872564611E+01  0.11592689084E+02  0.36547852201E+01  0.17179419927E+03  0.17120000000E+03 0.  0.
        998    1    1    2    0    0 -0.20300380317E+02  0.38137273629E+01  0.13213676604E+04  0.13215669275E+04  0.10000000000E+02 0. -1.
</event>
<event>
 5    1  0.1303633E-008  0.3836699E+03  0.7957747E-01  0.3435333E+00
         13   -1    0    0    0    0  0.00000000000E+00  0.00000000000E+00  0.14999999963E+04  0.15000000000E+04  0.10566000000E+00 0. -1.
        994   -1    0    0    0    0 -0.00000000000E+00 -0.00000000000E+00  0.11368683772E-12  0.17120000000E+03  0.17120000000E+03 0.  0.
         13    1    1    2    0    0  0.20120634792E+02  0.88746774772E+01  0.11771542513E+03  0.11975196167E+03  0.10566000000E+00 0. -1.
        994    1    1    2    0    0  0.42769527262E+01 -0.54231346399E+01  0.24495261675E+01  0.17135677078E+03  0.17120000000E+03 0.  0.
        998    1    1    2    0    0 -0.24397587519E+02 -0.34515428373E+01  0.13798350450E+04  0.13800912676E+04  0.10000000000E+02 0. -1.
</event>
<event>
 5    1  0.1303633E-008  0.3853874E+03  0.7957747E-01  0.3428031E+00
         13   -1    0    0    0    0  0.00000000000E+00  0.00000000000E+00  0.14999999963E+04  0.15000000000E+04  0.10566000000E+00 0. -1.
        994   -1    0    0    0    0 -0.00000000000E+00 -0.00000000000E+00  0.11368683772E-12  0.17120000000E+03  0.17120000000E+03 0.  0.
         13    1    1    2    0    0 -0.90709970430E+01  0.12947434126E+02  0.80685026038E+02  0.82219241231E+02  0.10566000000E+00 0. -1.
        994    1    1    2    0    0  0.18209945618E+02 -0.12829203472E+02  0.30693612657E+01  0.17267035519E+03  0.17120000000E+03 0.  0.
        998    1    1    2    0    0 -0.91389485750E+01 -0.11823065396E+00  0.14162456090E+04  0.14163104036E+04  0.10000000000E+02 0. -1.
</event>
<event>
 5    1  0.1303633E-008  0.3772148E+03  0.7957747E-01  0.3463376E+00
         13   -1    0    0    0    0  0.00000000000E+00  0.00000000000E+00  0.14999999963E+04  0.15000000000E+04  0.10566000000E+00 0. -1.
        994   -1    0    0    0    0 -0.00000000000E+00 -0.00000000000E+00  0.11368683772E-12  0.17120000000E+03  0.17120000000E+03 0.  0.
         13    1    1    2    0    0  0.27070064570E+02 -0.12201436518E+03  0.38948335423E+03  0.40904472627E+03  0.10566000000E+00 0. -1.
        994    1    1    2    0    0 -0.30092825348E+02  0.11583671972E+03  0.68155267773E+02  0.21972324478E+03  0.17120000000E+03 0.  0.
        998    1    1    2    0    0  0.30227607784E+01  0.61776454644E+01  0.10423613743E+04  0.10424320289E+04  0.10000000000E+02 0. -1.
</event>
<event>
 5    1  0.1303633E-008  0.3827191E+03  0.7957747E-01  0.3439404E+00
         13   -1    0    0    0    0  0.00000000000E+00  0.00000000000E+00  0.14999999963E+04  0.15000000000E+04  0.10566000000E+00 0. -1.
        994   -1    0    0    0    0 -0.00000000000E+00 -0.00000000000E+00  0.11368683772E-12  0.17120000000E+03  0.17120000000E+03 0.  0.
         13    1    1    2    0    0  0.62056134064E+01 -0.97146695898E+01  0.22665242988E+02  0.25428504610E+02  0.10566000000E+00 0. -1.
        994    1    1    2    0    0 -0.53722022450E+01  0.11401655830E+02  0.32932945513E+01  0.17169491577E+03  0.17120000000E+03 0.  0.
        998    1    1    2    0    0 -0.83341116139E+00 -0.16869862407E+01  0.14740414587E+04  0.14740765796E+04  0.10000000000E+02 0. -1.
</event>
<event>
 5    1  0.1303633E-008  0.3829868E+03  0.7957747E-01  0.3438256E+00
         13   -1    0    0    0    0  0.00000000000E+00  0.00000000000E+00  0.14999999963E+04  0.15000000000E+04  0.10566000000E+00 0. -1.
        994   -1    0    0    0    0 -0.00000000000E+00 -0.00000000000E+00  0.11368683772E-12  0.17120000000E+03  0.17120000000E+03 0.  0.
         13    1    1    2    0    0  0.25569517698E-01 -0.28991897643E+02  0.14723275777E+03  0.15006007766E+03  0.10566000000E+00 0. -1.
        994    1    1    2    0    0 -0.23312165000E+01  0.27287286699E+02  0.51197148734E+01  0.17345224722E+03  0.17120000000E+03 0.  0.
        998    1    1    2    0    0  0.23056469823E+01  0.17046109445E+01  0.13476475236E+04  0.13476876751E+04  0.10000000000E+02 0. -1.
</event>
<event>
 5    1  0.1303633E-008  0.3810152E+03  0.7957747E-01  0.3446750E+00
         13   -1    0    0    0    0  0.00000000000E+00  0.00000000000E+00  0.14999999963E+04  0.15000000000E+04  0.10566000000E+00 0.  1.
        994   -1    0    0    0    0 -0.00000000000E+00 -0.00000000000E+00  0.11368683772E-12  0.17120000000E+03  0.17120000000E+03 0.  0.
         13    1    1    2    0    0  0.33062454333E+01 -0.20676808039E+02  0.58375043322E+02  0.62017082295E+02  0.10566000000E+00 0.  1.
        994    1    1    2    0    0  0.33134995978E+01  0.17779393999E+02  0.47121020808E+01  0.17221710146E+03  0.17120000000E+03 0.  0.
        998    1    1    2    0    0 -0.66197450311E+01  0.28974140406E+01  0.14369128509E+04  0.14369658162E+04  0.10000000000E+02 0.  1.
</event>
<event>
 5    1  0.1303633E-008  0.3776050E+03  0.7957747E-01  0.3461653E+00
         13   -1    0    0    0    0  0.00000000000E+00  0.00000000000E+00  0.14999999963E+04  0.15000000000E+04  0.10566000000E+00 0. -1.
        994   -1    0    0    0    0 -0.00000000000E+00 -0.00000000000E+00  0.11368683772E-12  0.17120000000E+03  0.17120000000E+03 0.  0.
         13    1    1    2    0    0 -0.67202014431E+02 -0.12528653518E+03  0.43088759432E+03  0.45373666013E+03  0.10566000000E+00 0. -1.
        994    1    1    2    0    0  0.69630875681E+02  0.13060301091E+03  0.98554042327E+02  0.24683586564E+03  0.17120000000E+03 0.  0.
        998    1    1    2    0    0 -0.24288612495E+01 -0.53164757353E+01  0.97055835963E+03  0.97062747423E+03  0.10000000000E+02 0. -1.
</event>
<event>
 5    1  0.1303633E-008  0.4359385E+03  0.7957747E-01  0.3238734E+00
         13   -1    0    0    0    0  0.00000000000E+00  0.00000000000E+00  0.14999999963E+04  0.15000000000E+04  0.10566000000E+00 0. -1.
        994   -1    0    0    0    0 -0.00000000000E+00 -0.00000000000E+00  0.11368683772E-12  0.17120000000E+03  0.17120000000E+03 0.  0.
         13    1    1    2    0    0  0.13512588063E+03 -0.13864029572E+02  0.33979745719E+03  0.36594198722E+03  0.10566000000E+00 0. -1.
        994    1    1    2    0    0  0.73709131606E+02 -0.14213143721E+02  0.77778618245E+02  0.20246975822E+03  0.17120000000E+03 0.  0.
        998    1    1    2    0    0 -0.20883501223E+03  0.28077173293E+02  0.10824239208E+04  0.11027882546E+04  0.10000000000E+02 0. -1.
</event>
<event>
 5    1  0.1303633E-008  0.3695508E+03  0.7957747E-01  0.3497958E+00
         13   -1    0    0    0    0  0.00000000000E+00  0.00000000000E+00  0.14999999963E+04  0.15000000000E+04  0.10566000000E+00 0. -1.
        994   -1    0    0    0    0 -0.00000000000E+00 -0.00000000000E+00  0.11368683772E-12  0.17120000000E+03  0.17120000000E+03 0.  0.
         13    1    1    2    0    0 -0.17613120777E+02 -0.17689246384E+02  0.28555382442E+02  0.37928254529E+02  0.10566000000E+00 0. -1.
        994    1    1    2    0    0  0.16581579536E+02  0.14354730176E+02  0.11171535874E+02  0.17296025634E+03  0.17120000000E+03 0.  0.
        998    1    1    2    0    0  0.10315412413E+01  0.33345162080E+01  0.14602730780E+04  0.14603114891E+04  0.10000000000E+02 0. -1.
</event>
<event>
 5    1  0.1303633E-008  0.3855770E+03  0.7957747E-01  0.3427229E+00
         13   -1    0    0    0    0  0.00000000000E+00  0.00000000000E+00  0.14999999963E+04  0.15000000000E+04  0.10566000000E+00 0.  1.
        994   -1    0    0    0    0 -0.00000000000E+00 -0.00000000000E+00  0.11368683772E-12  0.17120000000E+03  0.17120000000E+03 0.  0.
         13    1    1    2    0    0 -0.12775710642E+01 -0.12396073810E+02  0.54694946332E+02  0.56096730315E+02  0.10566000000E+00 0.  1.
        994    1    1    2    0    0  0.78348418566E+01  0.17253874336E+02  0.25235232979E+01  0.17226400987E+03  0.17120000000E+03 0.  0.
        998    1    1    2    0    0 -0.65572707924E+01 -0.48578005257E+01  0.14427815266E+04  0.14428392598E+04  0.10000000000E+02 0.  0.
</event>
<event>
 5    1  0.1303633E-008  0.3794127E+03  0.7957747E-01  0.3453720E+00
         13   -1    0    0    0    0  0.00000000000E+00  0.00000000000E+00  0.14999999963E+04  0.15000000000E+04  0.10566000000E+00 0. -1.
        994   -1    0    0    0    0 -0.00000000000E+00 -0.00000000000E+00  0.11368683772E-12  0.17120000000E+03  0.17120000000E+03 0.  0.
         13    1    1    2    0    0 -0.59265122064E+01 -0.12396730242E+02 -0.14466388318E+01  0.13816888057E+02  0.10566000000E+00 0. -1.
        994    1    1    2    0    0 -0.12951931986E+01  0.12225990031E+02  0.16551875841E+02  0.17243711013E+03  0.17120000000E+03 0.  0.
        998    1    1    2    0    0  0.72217054050E+01  0.17074021126E+00  0.14848947593E+04  0.14849460018E+04  0.10000000000E+02 0. -1.
</event>
<event>
 5    1  0.1303633E-008  0.3847791E+03  0.7957747E-01  0.3430610E+00
         13   -1    0    0    0    0  0.00000000000E+00  0.00000000000E+00  0.14999999963E+04  0.15000000000E+04  0.10566000000E+00 0. -1.
        994   -1    0    0    0    0 -0.00000000000E+00 -0.00000000000E+00  0.11368683772E-12  0.17120000000E+03  0.17120000000E+03 0.  0.
         13    1    1    2    0    0  0.10613822980E+02  0.72547437233E+01  0.46285994961E+02  0.48038412112E+02  0.10566000000E+00 0. -1.
        994    1    1    2    0    0 -0.12870243880E+02 -0.39945844313E+01  0.23377440467E+01  0.17174546553E+03  0.17120000000E+03 0.  0.
        998    1    1    2    0    0  0.22564209000E+01 -0.32601592919E+01  0.14513762573E+04  0.14514161224E+04  0.10000000000E+02 0. -1.
</event>
<event>
 5    1  0.1303633E-008  0.3833463E+03  0.7957747E-01  0.3436716E+00
         13   -1    0    0    0    0  0.00000000000E+00  0.00000000000E+00  0.14999999963E+04  0.15000000000E+04  0.10566000000E+00 0.  1.
        994   -1    0    0    0    0 -0.00000000000E+00 -0.00000000000E+00  0.11368683772E-12  0.17120000000E+03  0.17120000000E+03 0.  0.
         13    1    1    2    0    0  0.27081308120E+01  0.10868680436E+02  0.25245176997E+02  0.27618694983E+02  0.10566000000E+00 0.  1.
        994    1    1    2    0    0  0.21171156234E+01 -0.24603555545E+01  0.24882366130E+01  0.17124884481E+03  0.17120000000E+03 0.  0.
        998    1    1    2    0    0 -0.48252464354E+01 -0.84083248815E+01  0.14722665827E+04  0.14723324602E+04  0.10000000000E+02 0.  1.
</event>
<event>
 5    1  0.1303633E-008  0.3805514E+03  0.7957747E-01  0.3448761E+00
         13   -1    0    0    0    0  0.00000000000E+00  0.00000000000E+00  0.14999999963E+04  0.15000000000E+04  0.10566000000E+00 0.  1.
        994   -1    0    0    0    0 -0.00000000000E+00 -0.00000000000E+00  0.11368683772E-12  0.17120000000E+03  0.17120000000E+03 0.  0.
         13    1    1    2    0    0 -0.13099496297E+02 -0.10508845332E+02  0.35460022203E+02  0.39235914315E+02  0.10566000000E+00 0.  1.
        994    1    1    2    0    0  0.97460524190E+01  0.10651767150E+01  0.41758413511E+01  0.17153133180E+03  0.17120000000E+03 0.  0.
        998    1    1    2    0    0  0.33534438783E+01  0.94436686170E+01  0.14603641327E+04  0.14604327539E+04  0.10000000000E+02 0.  1.
</event>
<event>
 5    1  0.1442789E-008  0.3854349E+03  0.7957747E-01  0.3427830E+00
         13   -1    0    0    0    0  0.00000000000E+00  0.00000000000E+00  0.14999999963E+04  0.15000000000E+04  0.10566000000E+00 0. -1.
        994   -1    0    0    0    0 -0.00000000000E+00 -0.00000000000E+00  0.11368683772E-12  0.17120000000E+03  0.17120000000E+03 0.  0.
         13    1    1    2    0    0  0.94897670475E+01  0.46473927908E+01  0.39185291973E+02  0.40585123006E+02  0.10566000000E+00 0. -1.
        994    1    1    2    0    0 -0.84047142207E+01 -0.30360304043E+01  0.16766533812E+01  0.17144126653E+03  0.17120000000E+03 0.  0.
        998    1    1    2    0    0 -0.10850528269E+01 -0.16113623865E+01  0.14591380509E+04  0.14591736105E+04  0.10000000000E+02 0. -1.
</event>
<event>
 5    1  0.2274416E-008  0.3854835E+03  0.7957747E-01  0.3427624E+00
         13   -1    0    0    0    0  0.00000000000E+00  0.00000000000E+00  0.14999999963E+04  0.15000000000E+04  0.10566000000E+00 0. -1.
        994   -1    0    0    0    0 -0.00000000000E+00 -0.00000000000E+00  0.11368683772E-12  0.17120000000E+03  0.17120000000E+03 0.  0.
         13    1    1    2    0    0 -0.23990225279E+01 -0.10516185600E+02  0.42646628153E+02  0.43989675215E+02  0.10566000000E+00 0. -1.
        994    1    1    2    0    0 -0.16037973453E+01  0.49202945650E+01  0.14782209758E+01  0.17128457783E+03  0.17120000000E+03 0.  0.
        998    1    1    2    0    0  0.40028198733E+01  0.55958910345E+01  0.14558751472E+04  0.14559257470E+04  0.10000000000E+02 0. -1.
</event>
<event>
 5    1  0.1303633E-008  0.3859168E+03  0.7957747E-01  0.3425793E+00
         13   -1    0    0    0    0  0.00000000000E+00  0.00000000000E+00  0.14999999963E+04  0.15000000000E+04  0.10566000000E+00 0. -1.
        994   -1    0    0    0    0 -0.00000000000E+00 -0.00000000000E+00  0.11368683772E-12  0.17120000000E+03  0.17120000000E+03 0.  0.
         13    1    1    2    0    0 -0.87404046273E+01 -0.53031378757E+01  0.41850843463E+02  0.43081576190E+02  0.10566000000E+00 0. -1.
        994    1    1    2    0    0  0.17421355506E+02  0.75202615590E+01  0.23571326095E+01  0.17226448861E+03  0.17120000000E+03 0.  0.
        998    1    1    2    0    0 -0.86809508785E+01 -0.22171236832E+01  0.14557920202E+04  0.14558539352E+04  0.10000000000E+02 0. -1.
</event>
<event>
 5    1  0.1303633E-008  0.3782669E+03  0.7957747E-01  0.3458740E+00
         13   -1    0    0    0    0  0.00000000000E+00  0.00000000000E+00  0.14999999963E+04  0.15000000000E+04  0.10566000000E+00 0.  1.
        994   -1    0    0    0    0 -0.00000000000E+00 -0.00000000000E+00  0.11368683772E-12  0.17120000000E+03  0.17120000000E+03 0.  0.
         13    1    1    2    0    0 -0.45573219633E+02 -0.54877856399E+01  0.19900132215E+03  0.20422676495E+03  0.10566000000E+00 0.  1.
        994    1    1    2    0    0  0.32567355819E+02  0.98389262468E+01  0.89119109355E+01  0.17477499618E+03  0.17120000000E+03 0.  0.
        998    1    1    2    0    0  0.13005863814E+02 -0.43511406069E+01  0.12920867632E+04  0.12921982389E+04  0.10000000000E+02 0.  0.
</event>
<event>
 5    1  0.1303633E-008  0.3850913E+03  0.7957747E-01  0.3429285E+00
         13   -1    0    0    0    0  0.00000000000E+00  0.00000000000E+00  0.14999999963E+04  0.15000000000E+04  0.10566000000E+00 0.  1.
        994   -1    0    0    0    0 -0.00000000000E+00 -0.00000000000E+00  0.11368683772E-12  0.17120000000E+03  0.17120000000E+03 0.  0.
         13    1    1    2    0    0 -0.46106811066E+01  0.13505354098E+02  0.64168712683E+02  0.65736502957E+02  0.10566000000E+00 0.  1.
        994    1    1    2    0    0  0.70887625774E+01 -0.79349430822E+01  0.19571118331E+01  0.17154149400E+03  0.17120000000E+03 0.  0.
        998    1    1    2    0    0 -0.24780814709E+01 -0.55704110162E+01  0.14338741718E+04  0.14339220030E+04  0.10000000000E+02 0.  1.
</event>
<event>
 5    1  0.1303633E-008  0.3843750E+03  0.7957747E-01  0.3432327E+00
         13   -1    0    0    0    0  0.00000000000E+00  0.00000000000E+00  0.14999999963E+04  0.15000000000E+04  0.10566000000E+00 0. -1.
        994   -1    0    0    0    0 -0.00000000000E+00 -0.00000000000E+00  0.11368683772E-12  0.17120000000E+03  0.17120000000E+03 0.  0.
         13    1    1    2    0    0  0.17718763508E+02 -0.78221876798E+00  0.86697641672E+02  0.88493269134E+02  0.10566000000E+00 0. -1.
        994    1    1    2    0    0 -0.14587030679E+01 -0.80302937401E+01  0.21602955373E+01  0.17140805205E+03  0.17120000000E+03 0.  0.
        998    1    1    2    0    0 -0.16260060440E+02  0.88125125081E+01  0.14111420591E+04  0.14112986788E+04  0.10000000000E+02 0. -1.
</event>
<event>
 5    1  0.1303633E-008  0.3847370E+03  0.7957747E-01  0.3430789E+00
         13   -1    0    0    0    0  0.00000000000E+00  0.00000000000E+00  0.14999999963E+04  0.15000000000E+04  0.10566000000E+00 0. -1.
        994   -1    0    0    0    0 -0.00000000000E+00 -0.00000000000E+00  0.11368683772E-12  0.17120000000E+03  0.17120000000E+03 0.  0.
         13    1    1    2    0    0  0.17221578648E+02  0.65797795996E+01  0.10142757182E+03  0.10308947454E+03  0.10566000000E+00 0. -1.
        994    1    1    2    0    0 -0.18949304976E+01 -0.98414824540E+01  0.20914727375E+01  0.17150585937E+03  0.17120000000E+03 0.  0.
        998    1    1    2    0    0 -0.15326648151E+02  0.32617028544E+01  0.13964809517E+04  0.13966046661E+04  0.10000000000E+02 0. -1.
</event>
<event>
 5    1  0.1303633E-008  0.3939921E+03  0.7957747E-01  0.3392409E+00
         13   -1    0    0    0    0  0.00000000000E+00  0.00000000000E+00  0.14999999963E+04  0.15000000000E+04  0.10566000000E+00 0. -1.
        994   -1    0    0    0    0 -0.00000000000E+00 -0.00000000000E+00  0.11368683772E-12  0.17120000000E+03  0.17120000000E+03 0.  0.
         13    1    1    2    0    0  0.32902528407E+02 -0.62315274399E+02  0.91996408216E+02  0.11588408039E+03  0.10566000000E+00 0. -1.
        994    1    1    2    0    0 -0.25099505995E+02  0.54821996749E+02  0.38263432797E+02  0.18549654126E+03  0.17120000000E+03 0.  0.
        998    1    1    2    0    0 -0.78030224116E+01  0.74932776504E+01  0.13697401553E+04  0.13698193784E+04  0.10000000000E+02 0. -1.
</event>
<event>
 5    1  0.1303633E-008  0.3825167E+03  0.7957747E-01  0.3440273E+00
         13   -1    0    0    0    0  0.00000000000E+00  0.00000000000E+00  0.14999999963E+04  0.15000000000E+04  0.10566000000E+00 0.  1.
        994   -1    0    0    0    0 -0.00000000000E+00 -0.00000000000E+00  0.11368683772E-12  0.17120000000E+03  0.17120000000E+03 0.  0.
         13    1    1    2    0    0 -0.86576831680E+01  0.14618354129E+02  0.49126757764E+02  0.51981739561E+02  0.10566000000E+00 0.  1.
        994    1    1    2    0    0  0.18778789731E+01 -0.13365195587E+02  0.34722119834E+01  0.17176626892E+03  0.17120000000E+03 0.  0.
        998    1    1    2    0    0  0.67798041949E+01 -0.12531585421E+01  0.14474010265E+04  0.14474519915E+04  0.10000000000E+02 0.  1.
</event>
<event>
 5    1  0.1303633E-008  0.3802072E+03  0.7957747E-01  0.3450257E+00
         13   -1    0    0    0    0  0.00000000000E+00  0.00000000000E+00  0.14999999963E+04  0.15000000000E+04  0.10566000000E+00 0. -1.
        994   -1    0    0    0    0 -0.00000000000E+00 -0.00000000000E+00  0.11368683772E-12  0.17120000000E+03  0.17120000000E+03 0.  0.
         13    1    1    2    0    0 -0.30566654692E+02  0.12655383509E+02  0.13677070883E+03  0.14071502076E+03  0.10566000000E+00 0. -1.
        994    1    1    2    0    0  0.12768390246E+02 -0.13331448337E+02  0.51677753792E+01  0.17226986157E+03  0.17120000000E+03 0.  0.
        998    1    1    2    0    0  0.17798264446E+02  0.67606482817E+00  0.13580615121E+04  0.13582151177E+04  0.10000000000E+02 0. -1.
</event>
<event>
 5    1  0.1303633E-008  0.3802158E+03  0.7957747E-01  0.3450220E+00
         13   -1    0    0    0    0  0.00000000000E+00  0.00000000000E+00  0.14999999963E+04  0.15000000000E+04  0.10566000000E+00 0. -1.
        994   -1    0    0    0    0 -0.00000000000E+00 -0.00000000000E+00  0.11368683772E-12  0.17120000000E+03  0.17120000000E+03 0.  0.
         13    1    1    2    0    0 -0.32634642568E+02 -0.14002753094E+02  0.17582102854E+03  0.17937152012E+03  0.10566000000E+00 0. -1.
        994    1    1    2    0    0 -0.11146437188E+02  0.40679238991E+02  0.99901999579E+01  0.17660206013E+03  0.17120000000E+03 0.  0.
        998    1    1    2    0    0  0.43781079756E+02 -0.26676485897E+02  0.13141887678E+04  0.13152264197E+04  0.10000000000E+02 0. -1.
</event>
<event>
 5    1  0.1303633E-008  0.3857443E+03  0.7957747E-01  0.3426522E+00
         13   -1    0    0    0    0  0.00000000000E+00  0.00000000000E+00  0.14999999963E+04  0.15000000000E+04  0.10566000000E+00 0.  1.
        994   -1    0    0    0    0 -0.00000000000E+00 -0.00000000000E+00  0.11368683772E-12  0.17120000000E+03  0.17120000000E+03 0.  0.
         13    1    1    2    0    0  0.11416062109E+02 -0.84847839667E+01  0.78486793725E+02  0.79765318192E+02  0.10566000000E+00 0.  1.
        994    1    1    2    0    0 -0.11858554315E+02  0.60288754214E+01  0.18418925360E+01  0.17172595965E+03  0.17120000000E+03 0.  0.
        998    1    1    2    0    0  0.44249220544E+00  0.24559085453E+01  0.14196713100E+04  0.14197087222E+04  0.10000000000E+02 0.  0.
</event>
<event>
 5    1  0.1303633E-008  0.3837041E+03  0.7957747E-01  0.3435187E+00
         13   -1    0    0    0    0  0.00000000000E+00  0.00000000000E+00  0.14999999963E+04  0.15000000000E+04  0.10566000000E+00 0. -1.
        994   -1    0    0    0    0 -0.00000000000E+00 -0.00000000000E+00  0.11368683772E-12  0.17120000000E+03  0.17120000000E+03 0.  0.
         13    1    1    2    0    0  0.18732720168E+02  0.21474470799E+02  0.17084174002E+03  0.17320213335E+03  0.10566000000E+00 0. -1.
        994    1    1    2    0    0 -0.82284703936E+01 -0.21533987142E+02  0.40318731341E+01  0.17279211883E+03  0.17120000000E+03 0.  0.
        998    1    1    2    0    0 -0.10504249775E+02  0.59516343151E-01  0.13251263831E+04  0.13252057478E+04  0.10000000000E+02 0. -1.
</event>
<event>
 5    1  0.1303633E-008  0.3761796E+03  0.7957747E-01  0.3467964E+00
         13   -1    0    0    0    0  0.00000000000E+00  0.00000000000E+00  0.14999999963E+04  0.15000000000E+04  0.10566000000E+00 0.  1.
        994   -1    0    0    0    0 -0.00000000000E+00 -0.00000000000E+00  0.11368683772E-12  0.17120000000E+03  0.17120000000E+03 0.  0.
         13    1    1    2    0    0  0.25106311151E+02 -0.49047533529E+01  0.53120691039E+02  0.58959328740E+02  0.10566000000E+00 0.  1.
        994    1    1    2    0    0 -0.65667973055E+01  0.57396184953E+01  0.63317860614E+01  0.17153890976E+03  0.17120000000E+03 0.  0.
        998    1    1    2    0    0 -0.18539513845E+02 -0.83486514246E+00  0.14405475192E+04  0.14407017615E+04  0.10000000000E+02 0.  1.
</event>
<event>
 5    1  0.1303633E-008  0.3758277E+03  0.7957747E-01  0.3469529E+00
         13   -1    0    0    0    0  0.00000000000E+00  0.00000000000E+00  0.14999999963E+04  0.15000000000E+04  0.10566000000E+00 0.  1.
        994   -1    0    0    0    0 -0.00000000000E+00 -0.00000000000E+00  0.11368683772E-12  0.17120000000E+03  0.17120000000E+03 0.  0.
         13    1    1    2    0    0  0.42267980283E+02 -0.34302890022E+02  0.32611036648E+03  0.33062252299E+03  0.10566000000E+00 0.  1.
        994    1    1    2    0    0  0.70401146036E+01 -0.19720575896E+01  0.64355063005E+01  0.17147684382E+03  0.17120000000E+03 0.  0.
        998    1    1    2    0    0 -0.49308094887E+02  0.36274947612E+02  0.11674541235E+04  0.11691006332E+04  0.10000000000E+02 0.  1.
</event>
<event>
 5    1  0.1303633E-008  0.3849843E+03  0.7957747E-01  0.3429739E+00
         13   -1    0    0    0    0  0.00000000000E+00  0.00000000000E+00  0.14999999963E+04  0.15000000000E+04  0.10566000000E+00 0. -1.
        994   -1    0    0    0    0 -0.00000000000E+00 -0.00000000000E+00  0.11368683772E-12  0.17120000000E+03  0.17120000000E+03 0.  0.
         13    1    1    2    0    0  0.13258401977E+02 -0.10165556083E+02  0.84953473431E+02  0.86580757478E+02  0.10566000000E+00 0. -1.
        994    1    1    2    0    0 -0.98937081242E+01  0.56574821469E+01  0.20652318040E+01  0.17159136851E+03  0.17120000000E+03 0.  0.
        998    1    1    2    0    0 -0.33646938528E+01  0.45080739365E+01  0.14129812910E+04  0.14130278740E+04  0.10000000000E+02 0. -1.
</event>
<event>
 5    1  0.1303633E-008  0.3789883E+03  0.7957747E-01  0.3455576E+00
         13   -1    0    0    0    0  0.00000000000E+00  0.00000000000E+00  0.14999999963E+04  0.15000000000E+04  0.10566000000E+00 0. -1.
        994   -1    0    0    0    0 -0.00000000000E+00 -0.00000000000E+00  0.11368683772E-12  0.17120000000E+03  0.17120000000E+03 0.  0.
         13    1    1    2    0    0 -0.15861945807E+02 -0.96285705473E+01  0.36479475870E+02  0.40927668140E+02  0.10566000000E+00 0. -1.
        994    1    1    2    0    0 -0.66491607583E+00  0.39316114477E+01  0.46980575518E+01  0.17131086196E+03  0.17120000000E+03 0.  0.
        998    1    1    2    0    0  0.16526861883E+02  0.56969590997E+01  0.14588224629E+04  0.14589614699E+04  0.10000000000E+02 0. -1.
</event>
<event>
 5    1  0.1303633E-008  0.3830450E+03  0.7957747E-01  0.3438006E+00
         13   -1    0    0    0    0  0.00000000000E+00  0.00000000000E+00  0.14999999963E+04  0.15000000000E+04  0.10566000000E+00 0.  1.
        994   -1    0    0    0    0 -0.00000000000E+00 -0.00000000000E+00  0.11368683772E-12  0.17120000000E+03  0.17120000000E+03 0.  0.
         13    1    1    2    0    0 -0.11941553088E+02 -0.10296067559E+02  0.80954828555E+02  0.82476088218E+02  0.10566000000E+00 0.  1.
        994    1    1    2    0    0 -0.36095499944E+02 -0.72621495187E+02  0.24683983080E+02  0.19103796926E+03  0.17120000000E+03 0.  0.
        998    1    1    2    0    0  0.48037053032E+02  0.82917562745E+02  0.13943611846E+04  0.13976859425E+04  0.10000000000E+02 0.  1.
</event>
<event>
 5    1  0.1303633E-008  0.3847907E+03  0.7957747E-01  0.3430560E+00
         13   -1    0    0    0    0  0.00000000000E+00  0.00000000000E+00  0.14999999963E+04  0.15000000000E+04  0.10566000000E+00 0. -1.
        994   -1    0    0    0    0 -0.00000000000E+00 -0.00000000000E+00  0.11368683772E-12  0.17120000000E+03  0.17120000000E+03 0.  0.
         13    1    1    2    0    0  0.56155683260E+01 -0.17826377081E+02  0.94723361231E+02  0.96549679722E+02  0.10566000000E+00 0. -1.
        994    1    1    2    0    0 -0.97408070376E+01  0.18115535390E+02  0.31275675075E+01  0.17245949560E+03  0.17120000000E+03 0.  0.
        998    1    1    2    0    0  0.41252387116E+01 -0.28915830875E+00  0.14021490675E+04  0.14021908247E+04  0.10000000000E+02 0. -1.
</event>
<event>
 5    1  0.1303633E-008  0.3773242E+03  0.7957747E-01  0.3462893E+00
         13   -1    0    0    0    0  0.00000000000E+00  0.00000000000E+00  0.14999999963E+04  0.15000000000E+04  0.10566000000E+00 0. -1.
        994   -1    0    0    0    0 -0.00000000000E+00 -0.00000000000E+00  0.11368683772E-12  0.17120000000E+03  0.17120000000E+03 0.  0.
         13    1    1    2    0    0  0.34785112580E+02  0.11407683883E+02  0.11317842311E+03  0.11895169579E+03  0.10566000000E+00 0. -1.
        994    1    1    2    0    0 -0.31905986240E+02 -0.13035838464E+02  0.95070804478E+01  0.17489353796E+03  0.17120000000E+03 0.  0.
        998    1    1    2    0    0 -0.28791263398E+01  0.16281545810E+01  0.13773144927E+04  0.13773547663E+04  0.10000000000E+02 0. -1.
</event>
<event>
 5    1  0.1303633E-008  0.3751620E+03  0.7957747E-01  0.3472499E+00
         13   -1    0    0    0    0  0.00000000000E+00  0.00000000000E+00  0.14999999963E+04  0.15000000000E+04  0.10566000000E+00 0.  1.
        994   -1    0    0    0    0 -0.00000000000E+00 -0.00000000000E+00  0.11368683772E-12  0.17120000000E+03  0.17120000000E+03 0.  0.
         13    1    1    2    0    0  0.44260767789E+02  0.68335545468E+02  0.30473821436E+03  0.31542693733E+03  0.10566000000E+00 0.  1.
        994    1    1    2    0    0 -0.96228003773E+02 -0.77133501083E+02  0.60159501470E+02  0.21940376322E+03  0.17120000000E+03 0.  0.
        998    1    1    2    0    0  0.51967235984E+02  0.87979556149E+01  0.11351022804E+04  0.11363692994E+04  0.10000000000E+02 0.  1.
</event>
<event>
 5    1  0.1303633E-008  0.3832965E+03  0.7957747E-01  0.3436929E+00
         13   -1    0    0    0    0  0.00000000000E+00  0.00000000000E+00  0.14999999963E+04  0.15000000000E+04  0.10566000000E+00 0.  1.
        994   -1    0    0    0    0 -0.00000000000E+00 -0.00000000000E+00  0.11368683772E-12  0.17120000000E+03  0.17120000000E+03 0.  0.
         13    1    1    2    0    0  0.11885895516E+02  0.88292411716E+01  0.44092106219E+02  0.46511880275E+02  0.10566000000E+00 0.  1.
        994    1    1    2    0    0 -0.89936681474E+01  0.63828226640E+00  0.27471631411E+01  0.17145926740E+03  0.17120000000E+03 0.  0.
        998    1    1    2    0    0 -0.28922273686E+01 -0.94675234380E+01  0.14531607269E+04  0.14532288523E+04  0.10000000000E+02 0.  1.
</event>
<event>
 5    1  0.1303633E-008  0.3812932E+03  0.7957747E-01  0.3445547E+00
         13   -1    0    0    0    0  0.00000000000E+00  0.00000000000E+00  0.14999999963E+04  0.15000000000E+04  0.10566000000E+00 0. -1.
        994   -1    0    0    0    0 -0.00000000000E+00 -0.00000000000E+00  0.11368683772E-12  0.17120000000E+03  0.17120000000E+03 0.  0.
         13    1    1    2    0    0  0.11532314280E+02 -0.31695966902E+01  0.19210345305E+02  0.22629386792E+02  0.10566000000E+00 0. -1.
        994    1    1    2    0    0 -0.72698142267E+01 -0.90478425951E+00  0.36604185565E+01  0.17139576278E+03  0.17120000000E+03 0.  0.
        998    1    1    2    0    0 -0.42625000533E+01  0.40743809497E+01  0.14771292324E+04  0.14771748504E+04  0.10000000000E+02 0. -1.
</event>
<event>
 5    1  0.1303633E-008  0.3909815E+03  0.7957747E-01  0.3404693E+00
         13   -1    0    0    0    0  0.00000000000E+00  0.00000000000E+00  0.14999999963E+04  0.15000000000E+04  0.10566000000E+00 0.  1.
        994   -1    0    0    0    0 -0.00000000000E+00 -0.00000000000E+00  0.11368683772E-12  0.17120000000E+03  0.17120000000E+03 0.  0.
         13    1    1    2    0    0 -0.33647207473E+02  0.12365028008E+03  0.31932728570E+03  0.34408059070E+03  0.10566000000E+00 0.  1.
        994    1    1    2    0    0  0.39749048903E+02 -0.94321983359E+02  0.63252925141E+02  0.20925342523E+03  0.17120000000E+03 0.  0.
        998    1    1    2    0    0 -0.61018414308E+01 -0.29328296724E+02  0.11174197854E+04  0.11178659841E+04  0.10000000000E+02 0.  1.
</event>
<event>
 5    1  0.1303633E-008  0.3858559E+03  0.7957747E-01  0.3426050E+00
         13   -1    0    0    0    0  0.00000000000E+00  0.00000000000E+00  0.14999999963E+04  0.15000000000E+04  0.10566000000E+00 0.  1.
        994   -1    0    0    0    0 -0.00000000000E+00 -0.00000000000E+00  0.11368683772E-12  0.17120000000E+03  0.17120000000E+03 0.  0.
         13    1    1    2    0    0  0.97827680288E+01 -0.64074485483E+01  0.50864610777E+02  0.52191740158E+02  0.10566000000E+00 0.  1.
        994    1    1    2    0    0 -0.20817649664E+02  0.16525310107E+02  0.35260869198E+01  0.17328685380E+03  0.17120000000E+03 0.  0.
        998    1    1    2    0    0  0.11034881636E+02 -0.10117861558E+02  0.14456092986E+04  0.14457214060E+04  0.10000000000E+02 0.  1.
</event>
<event>
 5    1  0.1303633E-008  0.3793388E+03  0.7957747E-01  0.3454043E+00
         13   -1    0    0    0    0  0.00000000000E+00  0.00000000000E+00  0.14999999963E+04  0.15000000000E+04  0.10566000000E+00 0. -1.
        994   -1    0    0    0    0 -0.00000000000E+00 -0.00000000000E+00  0.11368683772E-12  0.17120000000E+03  0.17120000000E+03 0.  0.
         13    1    1    2    0    0 -0.52537589344E+01 -0.57188846779E+02  0.29148335563E+03  0.29708706460E+03  0.10566000000E+00 0. -1.
        994    1    1    2    0    0  0.83285299541E+01  0.59351888231E+02  0.16596873710E+02  0.18214529163E+03  0.17120000000E+03 0.  0.
        998    1    1    2    0    0 -0.30747710197E+01 -0.21630414513E+01  0.11919197669E+04  0.11919676438E+04  0.10000000000E+02 0. -1.
</event>
<event>
 5    1  0.1303633E-008  0.3829401E+03  0.7957747E-01  0.3438456E+00
         13   -1    0    0    0    0  0.00000000000E+00  0.00000000000E+00  0.14999999963E+04  0.15000000000E+04  0.10566000000E+00 0. -1.
        994   -1    0    0    0    0 -0.00000000000E+00 -0.00000000000E+00  0.11368683772E-12  0.17120000000E+03  0.17120000000E+03 0.  0.
         13    1    1    2    0    0 -0.95899498184E+01  0.17155075013E+02  0.75840152167E+02  0.78345411997E+02  0.10566000000E+00 0. -1.
        994    1    1    2    0    0  0.84424913139E+00 -0.29026772178E+01  0.26865410779E+01  0.17124776143E+03  0.17120000000E+03 0.  0.
        998    1    1    2    0    0  0.87457006870E+01 -0.14252397795E+02  0.14214733030E+04  0.14216068266E+04  0.10000000000E+02 0. -1.
</event>
<event>
 5    1  0.1303633E-008  0.3838150E+03  0.7957747E-01  0.3434713E+00
         13   -1    0    0    0    0  0.00000000000E+00  0.00000000000E+00  0.14999999963E+04  0.15000000000E+04  0.10566000000E+00 0.  1.
        994   -1    0    0    0    0 -0.00000000000E+00 -0.00000000000E+00  0.11368683772E-12  0.17120000000E+03  0.17120000000E+03 0.  0.
         13    1    1    2    0    0 -0.95615362230E+01 -0.98578829983E+01  0.36573488732E+02  0.39067020289E+02  0.10566000000E+00 0.  1.
        994    1    1    2    0    0  0.68234283625E+01  0.52156109359E+02  0.11407898494E+02  0.17946141386E+03  0.17120000000E+03 0.  0.
        998    1    1    2    0    0  0.27381078604E+01 -0.42298226360E+02  0.14520186091E+04  0.14526715658E+04  0.10000000000E+02 0.  1.
</event>
<event>
 5    1  0.1303633E-008  0.3824244E+03  0.7957747E-01  0.3440670E+00
         13   -1    0    0    0    0  0.00000000000E+00  0.00000000000E+00  0.14999999963E+04  0.15000000000E+04  0.10566000000E+00 0. -1.
        994   -1    0    0    0    0 -0.00000000000E+00 -0.00000000000E+00  0.11368683772E-12  0.17120000000E+03  0.17120000000E+03 0.  0.
         13    1    1    2    0    0  0.13725543230E+02  0.20787633947E+02  0.11169624063E+03  0.11444027961E+03  0.10566000000E+00 0. -1.
        994    1    1    2    0    0 -0.65084138722E+01 -0.34139083150E+01  0.30934753043E+01  0.17138559978E+03  0.17120000000E+03 0.  0.
        998    1    1    2    0    0 -0.72171293577E+01 -0.17373725632E+02  0.13852102803E+04  0.13853741206E+04  0.10000000000E+02 0. -1.
</event>
<event>
 5    1  0.1303633E-008  0.3821859E+03  0.7957747E-01  0.3441695E+00
         13   -1    0    0    0    0  0.00000000000E+00  0.00000000000E+00  0.14999999963E+04  0.15000000000E+04  0.10566000000E+00 0. -1.
        994   -1    0    0    0    0 -0.00000000000E+00 -0.00000000000E+00  0.11368683772E-12  0.17120000000E+03  0.17120000000E+03 0.  0.
         13    1    1    2    0    0 -0.35096294732E+02  0.14253219529E+02  0.20395472462E+03  0.20744263070E+03  0.10566000000E+00 0. -1.
        994    1    1    2    0    0  0.35497588164E+02 -0.16411735936E+02  0.81265016949E+01  0.17579790633E+03  0.17120000000E+03 0.  0.
        998    1    1    2    0    0 -0.40129343230E+00  0.21585164072E+01  0.12879187700E+04  0.12879594630E+04  0.10000000000E+02 0.  0.
</event>
<event>
 5    1  0.1303633E-008  0.3806835E+03  0.7957747E-01  0.3448188E+00
         13   -1    0    0    0    0  0.00000000000E+00  0.00000000000E+00  0.14999999963E+04  0.15000000000E+04  0.10566000000E+00 0.  1.
        994   -1    0    0    0    0 -0.00000000000E+00 -0.00000000000E+00  0.11368683772E-12  0.17120000000E+03  0.17120000000E+03 0.  0.
         13    1    1    2    0    0  0.34992359513E+02 -0.37723857146E+01  0.17138745059E+03  0.17496389771E+03  0.10566000000E+00 0.  1.
        994    1    1    2    0    0 -0.16993791847E+02 -0.27018780832E+02  0.71940870443E+01  0.17429858969E+03  0.17120000000E+03 0.  0.
        998    1    1    2    0    0 -0.17998567666E+02  0.30791166547E+02  0.13214184586E+04  0.13219375126E+04  0.10000000000E+02 0.  1.
</event>
<event>
 5    1  0.1303633E-008  0.3792771E+03  0.7957747E-01  0.3454312E+00
         13   -1    0    0    0    0  0.00000000000E+00  0.00000000000E+00  0.14999999963E+04  0.15000000000E+04  0.10566000000E+00 0. -1.
        994   -1    0    0    0    0 -0.00000000000E+00 -0.00000000000E+00  0.11368683772E-12  0.17120000000E+03  0.17120000000E+03 0.  0.
         13    1    1    2    0    0  0.26101679536E+02  0.39683966778E+02  0.22267858877E+03  0.22768811992E+03  0.10566000000E+00 0. -1.
        994    1    1    2    0    0 -0.29219809595E+02 -0.31627684315E+02  0.10736663547E+02  0.17685820205E+03  0.17120000000E+03 0.  0.
        998    1    1    2    0    0  0.31181300594E+01 -0.80562824635E+01  0.12665847440E+04  0.12666536780E+04  0.10000000000E+02 0. -1.
</event>
<event>
 5    1  0.1303633E-008  0.3859943E+03  0.7957747E-01  0.3425466E+00
         13   -1    0    0    0    0  0.00000000000E+00  0.00000000000E+00  0.14999999963E+04  0.15000000000E+04  0.10566000000E+00 0. -1.
        994   -1    0    0    0    0 -0.00000000000E+00 -0.00000000000E+00  0.11368683772E-12  0.17120000000E+03  0.17120000000E+03 0.  0.
         13    1    1    2    0    0 -0.58749200885E+01  0.21751386791E+02  0.42558089253E+01  0.22929469838E+02  0.10566000000E+00 0. -1.
        994    1    1    2    0    0  0.42954670414E+01 -0.20948345442E+02  0.21355659742E+02  0.17384702591E+03  0.17120000000E+03 0.  0.
        998    1    1    2    0    0  0.15794530471E+01 -0.80304134953E+00  0.14743885276E+04  0.14744235043E+04  0.10000000000E+02 0. -1.
</event>
<event>
 5    1  0.1303633E-008  0.3591366E+03  0.7957747E-01  0.3547357E+00
         13   -1    0    0    0    0  0.00000000000E+00  0.00000000000E+00  0.14999999963E+04  0.15000000000E+04  0.10566000000E+00 0. -1.
        994   -1    0    0    0    0 -0.00000000000E+00 -0.00000000000E+00  0.11368683772E-12  0.17120000000E+03  0.17120000000E+03 0.  0.
         13    1    1    2    0    0  0.19345132077E+03  0.10010822522E+03  0.11115774195E+04  0.11327177234E+04  0.10566000000E+00 0. -1.
        994    1    1    2    0    0 -0.17148997761E+03 -0.85945104013E+02  0.14845721292E+03  0.29689115412E+03  0.17120000000E+03 0.  0.
        998    1    1    2    0    0 -0.21961343156E+02 -0.14163121205E+02  0.23996536388E+03  0.24159112248E+03  0.10000000000E+02 0. -1.
</event>
<event>
 5    1  0.1303633E-008  0.3857234E+03  0.7957747E-01  0.3426610E+00
         13   -1    0    0    0    0  0.00000000000E+00  0.00000000000E+00  0.14999999963E+04  0.15000000000E+04  0.10566000000E+00 0.  1.
        994   -1    0    0    0    0 -0.00000000000E+00 -0.00000000000E+00  0.11368683772E-12  0.17120000000E+03  0.17120000000E+03 0.  0.
         13    1    1    2    0    0  0.46348146425E+01  0.10334444596E+02  0.49968740929E+02  0.51236398058E+02  0.10566000000E+00 0.  1.
        994    1    1    2    0    0  0.10272686271E+01 -0.11816236041E+02  0.17331220826E+01  0.17161912023E+03  0.17120000000E+03 0.  0.
        998    1    1    2    0    0 -0.56620832695E+01  0.14817914454E+01  0.14482981333E+04  0.14483444817E+04  0.10000000000E+02 0.  1.
</event>
<event>
 5    1  0.1303633E-008  0.3855714E+03  0.7957747E-01  0.3427253E+00
         13   -1    0    0    0    0  0.00000000000E+00  0.00000000000E+00  0.14999999963E+04  0.15000000000E+04  0.10566000000E+00 0. -1.
        994   -1    0    0    0    0 -0.00000000000E+00 -0.00000000000E+00  0.11368683772E-12  0.17120000000E+03  0.17120000000E+03 0.  0.
         13    1    1    2    0    0 -0.12406718159E+02 -0.63144500309E+01  0.71628277992E+02  0.72968625496E+02  0.10566000000E+00 0. -1.
        994    1    1    2    0    0  0.95477410358E+01  0.46162784611E+01  0.17160082083E+01  0.17153674262E+03  0.17120000000E+03 0.  0.
        998    1    1    2    0    0  0.28589771233E+01  0.16981715698E+01  0.14266557101E+04  0.14266946319E+04  0.10000000000E+02 0. -1.
</event>
<event>
 5    1  0.1303633E-008  0.3801124E+03  0.7957747E-01  0.3450669E+00
         13   -1    0    0    0    0  0.00000000000E+00  0.00000000000E+00  0.14999999963E+04  0.15000000000E+04  0.10566000000E+00 0. -1.
        994   -1    0    0    0    0 -0.00000000000E+00 -0.00000000000E+00  0.11368683772E-12  0.17120000000E+03  0.17120000000E+03 0.  0.
         13    1    1    2    0    0  0.30502769479E+02 -0.28099388231E+02  0.18542554368E+03  0.19000694192E+03  0.10566000000E+00 0. -1.
        994    1    1    2    0    0 -0.32746581318E+02  0.25726278161E+02  0.98933442064E+01  0.17646953912E+03  0.17120000000E+03 0.  0.
        998    1    1    2    0    0  0.22438118391E+01  0.23731100699E+01  0.13046811084E+04  0.13047235190E+04  0.10000000000E+02 0.  0.
</event>
<event>
 5    1  0.1303633E-008  0.3796098E+03  0.7957747E-01  0.3452859E+00
         13   -1    0    0    0    0  0.00000000000E+00  0.00000000000E+00  0.14999999963E+04  0.15000000000E+04  0.10566000000E+00 0.  1.
        994   -1    0    0    0    0 -0.00000000000E+00 -0.00000000000E+00  0.11368683772E-12  0.17120000000E+03  0.17120000000E+03 0.  0.
         13    1    1    2    0    0 -0.12927365987E+02 -0.13559049802E+01  0.17214524557E+02  0.21570959401E+02  0.10566000000E+00 0.  1.
        994    1    1    2    0    0  0.15265174552E+02  0.34381509300E+02  0.90815170131E+01  0.17551930859E+03  0.17120000000E+03 0.  0.
        998    1    1    2    0    0 -0.23378085650E+01 -0.33025604320E+02  0.14737039547E+04  0.14741097320E+04  0.10000000000E+02 0.  1.
</event>
<event>
 5    1  0.1303633E-008  0.3827407E+03  0.7957747E-01  0.3439311E+00
         13   -1    0    0    0    0  0.00000000000E+00  0.00000000000E+00  0.14999999963E+04  0.15000000000E+04  0.10566000000E+00 0. -1.
        994   -1    0    0    0    0 -0.00000000000E+00 -0.00000000000E+00  0.11368683772E-12  0.17120000000E+03  0.17120000000E+03 0.  0.
         13    1    1    2    0    0  0.19959900821E+02 -0.15346960338E+02  0.11384584858E+03  0.11659680628E+03  0.10566000000E+00 0. -1.
        994    1    1    2    0    0 -0.20168564374E+02  0.33974912225E-01  0.41047485642E+01  0.17243277271E+03  0.17120000000E+03 0.  0.
        998    1    1    2    0    0  0.20866355268E+00  0.15312985425E+02  0.13820493991E+04  0.13821704210E+04  0.10000000000E+02 0. -1.
</event>
<event>
 5    1  0.1303633E-008  0.3780780E+03  0.7957747E-01  0.3459570E+00
         13   -1    0    0    0    0  0.00000000000E+00  0.00000000000E+00  0.14999999963E+04  0.15000000000E+04  0.10566000000E+00 0.  1.
        994   -1    0    0    0    0 -0.00000000000E+00 -0.00000000000E+00  0.11368683772E-12  0.17120000000E+03  0.17120000000E+03 0.  0.
         13    1    1    2    0    0  0.13808875919E+02 -0.88526805175E+01  0.25994667446E+02  0.30737418664E+02  0.10566000000E+00 0.  1.
        994    1    1    2    0    0  0.15479946150E+02 -0.28877496536E+01  0.59411737978E+01  0.17202530447E+03  0.17120000000E+03 0.  0.
        998    1    1    2    0    0 -0.29288822069E+02  0.11740430171E+02  0.14680641550E+04  0.14684372769E+04  0.10000000000E+02 0.  1.
</event>
<event>
 5    1  0.1303633E-008  0.3826980E+03  0.7957747E-01  0.3439494E+00
         13   -1    0    0    0    0  0.00000000000E+00  0.00000000000E+00  0.14999999963E+04  0.15000000000E+04  0.10566000000E+00 0. -1.
        994   -1    0    0    0    0 -0.00000000000E+00 -0.00000000000E+00  0.11368683772E-12  0.17120000000E+03  0.17120000000E+03 0.  0.
         13    1    1    2    0    0  0.82394236935E+01 -0.81482628100E+02  0.23839299522E+03  0.25206851870E+03  0.10566000000E+00 0. -1.
        994    1    1    2    0    0 -0.11879728083E+02 -0.84883557279E+01  0.18597883731E+02  0.17282506011E+03  0.17120000000E+03 0.  0.
        998    1    1    2    0    0  0.36403043898E+01  0.89970983828E+02  0.12430091173E+04  0.12463064212E+04  0.10000000000E+02 0. -1.
</event>
<event>
 5    1  0.1303633E-008  0.3761409E+03  0.7957747E-01  0.3468136E+00
         13   -1    0    0    0    0  0.00000000000E+00  0.00000000000E+00  0.14999999963E+04  0.15000000000E+04  0.10566000000E+00 0. -1.
        994   -1    0    0    0    0 -0.00000000000E+00 -0.00000000000E+00  0.11368683772E-12  0.17120000000E+03  0.17120000000E+03 0.  0.
         13    1    1    2    0    0  0.19629054372E+02  0.93217511510E+01  0.36692697617E+02  0.42644578114E+02  0.10566000000E+00 0. -1.
        994    1    1    2    0    0 -0.12660449387E+02  0.13327863361E+01  0.66429752417E+01  0.17180114207E+03  0.17120000000E+03 0.  0.
        998    1    1    2    0    0 -0.69686049851E+01 -0.10654537487E+02  0.14566643234E+04  0.14567542798E+04  0.10000000000E+02 0. -1.
</event>
<event>
 5    1  0.1303633E-008  0.3848946E+03  0.7957747E-01  0.3430119E+00
         13   -1    0    0    0    0  0.00000000000E+00  0.00000000000E+00  0.14999999963E+04  0.15000000000E+04  0.10566000000E+00 0.  1.
        994   -1    0    0    0    0 -0.00000000000E+00 -0.00000000000E+00  0.11368683772E-12  0.17120000000E+03  0.17120000000E+03 0.  0.
         13    1    1    2    0    0  0.14235499971E+02 -0.39749589937E+01  0.70068540958E+02  0.71610483551E+02  0.10566000000E+00 0.  1.
        994    1    1    2    0    0  0.15386888497E+01 -0.19373153999E+01  0.17026283300E+01  0.17122634055E+03  0.17120000000E+03 0.  0.
        998    1    1    2    0    0 -0.15774188820E+02  0.59122743936E+01  0.14282288270E+04  0.14283631759E+04  0.10000000000E+02 0.  1.
</event>
<event>
 5    1  0.1303633E-008  0.3382613E+03  0.7957747E-01  0.3655813E+00
         13   -1    0    0    0    0  0.00000000000E+00  0.00000000000E+00  0.14999999963E+04  0.15000000000E+04  0.10566000000E+00 0. -1.
        994   -1    0    0    0    0 -0.00000000000E+00 -0.00000000000E+00  0.11368683772E-12  0.17120000000E+03  0.17120000000E+03 0.  0.
         13    1    1    2    0    0  0.20454902154E+03 -0.69512729966E+02  0.92168088530E+03  0.94666149565E+03  0.10566000000E+00 0. -1.
        994    1    1    2    0    0 -0.19032295112E+03  0.47660501691E+02  0.16070147227E+03  0.30598815718E+03  0.17120000000E+03 0.  0.
        998    1    1    2    0    0 -0.14226070421E+02  0.21852228276E+02  0.41761763871E+03  0.41855034717E+03  0.10000000000E+02 0. -1.
</event>
<event>
 5    1  0.1303633E-008  0.3713428E+03  0.7957747E-01  0.3489742E+00
         13   -1    0    0    0    0  0.00000000000E+00  0.00000000000E+00  0.14999999963E+04  0.15000000000E+04  0.10566000000E+00 0.  1.
        994   -1    0    0    0    0 -0.00000000000E+00 -0.00000000000E+00  0.11368683772E-12  0.17120000000E+03  0.17120000000E+03 0.  0.
         13    1    1    2    0    0  0.24382486245E+02  0.37540441708E+01  0.31194932845E+02  0.39771013092E+02  0.10566000000E+00 0.  1.
        994    1    1    2    0    0 -0.26475434226E+02 -0.55450713042E+01  0.11091282243E+02  0.17367830312E+03  0.17120000000E+03 0.  0.
        998    1    1    2    0    0  0.20929479806E+01  0.17910271334E+01  0.14577137812E+04  0.14577506838E+04  0.10000000000E+02 0.  1.
</event>
<event>
 5    1  0.1303633E-008  0.3844438E+03  0.7957747E-01  0.3432034E+00
         13   -1    0    0    0    0  0.00000000000E+00  0.00000000000E+00  0.14999999963E+04  0.15000000000E+04  0.10566000000E+00 0.  1.
        994   -1    0    0    0    0 -0.00000000000E+00 -0.00000000000E+00  0.11368683772E-12  0.17120000000E+03  0.17120000000E+03 0.  0.
         13    1    1    2    0    0 -0.39128053248E+01  0.11126712450E+02  0.36929550293E+02  0.38767468634E+02  0.10566000000E+00 0.  1.
        994    1    1    2    0    0 -0.11274960515E+01 -0.35347054315E+01  0.19518730597E+01  0.17125132174E+03  0.17120000000E+03 0.  0.
        998    1    1    2    0    0  0.50403013763E+01 -0.75920070180E+01  0.14611185729E+04  0.14611812096E+04  0.10000000000E+02 0.  1.
</event>
<event>
 5    1  0.1303633E-008  0.3814536E+03  0.7957747E-01  0.3444854E+00
         13   -1    0    0    0    0  0.00000000000E+00  0.00000000000E+00  0.14999999963E+04  0.15000000000E+04  0.10566000000E+00 0.  1.
        994   -1    0    0    0    0 -0.00000000000E+00 -0.00000000000E+00  0.11368683772E-12  0.17120000000E+03  0.17120000000E+03 0.  0.
         13    1    1    2    0    0  0.16620710081E+02  0.16694321413E+02  0.79198224715E+02  0.82627588208E+02  0.10566000000E+00 0.  1.
        994    1    1    2    0    0 -0.12957407141E+02 -0.12296320299E+02  0.44634993415E+01  0.17218727223E+03  0.17120000000E+03 0.  0.
        998    1    1    2    0    0 -0.36633029391E+01 -0.43980011138E+01  0.14163382722E+04  0.14163851396E+04  0.10000000000E+02 0.  1.
</event>
<event>
 5    1  0.1303633E-008  0.3779063E+03  0.7957747E-01  0.3460326E+00
         13   -1    0    0    0    0  0.00000000000E+00  0.00000000000E+00  0.14999999963E+04  0.15000000000E+04  0.10566000000E+00 0.  1.
        994   -1    0    0    0    0 -0.00000000000E+00 -0.00000000000E+00  0.11368683772E-12  0.17120000000E+03  0.17120000000E+03 0.  0.
         13    1    1    2    0    0  0.13316708148E+01 -0.49152083591E+02  0.27919723923E+03  0.28349393332E+03  0.10566000000E+00 0.  1.
        994    1    1    2    0    0 -0.51403379768E+01  0.53199259180E+01  0.53779958458E+01  0.17144412363E+03  0.17120000000E+03 0.  0.
        998    1    1    2    0    0  0.38086671620E+01  0.43832157673E+02  0.12154247612E+04  0.12162619431E+04  0.10000000000E+02 0.  1.
</event>
<event>
 5    1  0.1303633E-008  0.3811068E+03  0.7957747E-01  0.3446353E+00
         13   -1    0    0    0    0  0.00000000000E+00  0.00000000000E+00  0.14999999963E+04  0.15000000000E+04  0.10566000000E+00 0.  1.
        994   -1    0    0    0    0 -0.00000000000E+00 -0.00000000000E+00  0.11368683772E-12  0.17120000000E+03  0.17120000000E+03 0.  0.
         13    1    1    2    0    0  0.32222985094E+02 -0.10779541894E+02  0.18232003781E+03  0.18545923176E+03  0.10566000000E+00 0.  1.
        994    1    1    2    0    0 -0.85566667854E+00  0.72486097271E+01  0.37529510858E+01  0.17139661359E+03  0.17120000000E+03 0.  0.
        998    1    1    2    0    0 -0.31367318415E+02  0.35309321667E+01  0.13139270074E+04  0.13143441547E+04  0.10000000000E+02 0.  1.
</event>
<event>
 5    1  0.1303633E-008  0.3848192E+03  0.7957747E-01  0.3430440E+00
         13   -1    0    0    0    0  0.00000000000E+00  0.00000000000E+00  0.14999999963E+04  0.15000000000E+04  0.10566000000E+00 0.  1.
        994   -1    0    0    0    0 -0.00000000000E+00 -0.00000000000E+00  0.11368683772E-12  0.17120000000E+03  0.17120000000E+03 0.  0.
         13    1    1    2    0    0  0.59275707172E+01 -0.99683498103E+01  0.35207226572E+02  0.37068370068E+02  0.10566000000E+00 0.  1.
        994    1    1    2    0    0 -0.10252218191E+02  0.28233214135E+02  0.46944268685E+01  0.17387840580E+03  0.17120000000E+03 0.  0.
        998    1    1    2    0    0  0.43246474737E+01 -0.18264864325E+02  0.14600983428E+04  0.14602532241E+04  0.10000000000E+02 0.  1.
</event>
<event>
 5    1  0.1303633E-008  0.3820152E+03  0.7957747E-01  0.3442431E+00
         13   -1    0    0    0    0  0.00000000000E+00  0.00000000000E+00  0.14999999963E+04  0.15000000000E+04  0.10566000000E+00 0.  1.
        994   -1    0    0    0    0 -0.00000000000E+00 -0.00000000000E+00  0.11368683772E-12  0.17120000000E+03  0.17120000000E+03 0.  0.
         13    1    1    2    0    0 -0.10130688896E+02 -0.22958211170E+02  0.10927817408E+03  0.11212243670E+03  0.10566000000E+00 0.  1.
        994    1    1    2    0    0  0.60956076996E+02 -0.20689280262E+02  0.17003959041E+02  0.18369067549E+03  0.17120000000E+03 0.  0.
        998    1    1    2    0    0 -0.50825388099E+02  0.43647491433E+02  0.13737178632E+04  0.13753868878E+04  0.10000000000E+02 0.  1.
</event>
<event>
 5    1  0.1303633E-008  0.3774372E+03  0.7957747E-01  0.3462394E+00
         13   -1    0    0    0    0  0.00000000000E+00  0.00000000000E+00  0.14999999963E+04  0.15000000000E+04  0.10566000000E+00 0. -1.
        994   -1    0    0    0    0 -0.00000000000E+00 -0.00000000000E+00  0.11368683772E-12  0.17120000000E+03  0.17120000000E+03 0.  0.
         13    1    1    2    0    0 -0.38072511861E+02  0.26504054963E+01  0.12085064522E+03  0.12673369885E+03  0.10566000000E+00 0. -1.
        994    1    1    2    0    0  0.40663888796E+02 -0.27147921789E+01  0.11052781008E+02  0.17633072879E+03  0.17120000000E+03 0.  0.
        998    1    1    2    0    0 -0.25913769354E+01  0.64386682685E-01  0.13680965700E+04  0.13681355724E+04  0.10000000000E+02 0. -1.
</event>
<event>
 5    1  0.1303633E-008  0.3728134E+03  0.7957747E-01  0.3483060E+00
         13   -1    0    0    0    0  0.00000000000E+00  0.00000000000E+00  0.14999999963E+04  0.15000000000E+04  0.10566000000E+00 0.  1.
        994   -1    0    0    0    0 -0.00000000000E+00 -0.00000000000E+00  0.11368683772E-12  0.17120000000E+03  0.17120000000E+03 0.  0.
         13    1    1    2    0    0 -0.69923649608E+02 -0.41969021366E+01  0.25557387309E+03  0.26499989911E+03  0.10566000000E+00 0.  1.
        994    1    1    2    0    0  0.72404849899E+02 -0.35190563055E+01  0.26020870027E+02  0.18772685403E+03  0.17120000000E+03 0.  0.
        998    1    1    2    0    0 -0.24812002909E+01  0.77159584421E+01  0.12184052532E+04  0.12184732469E+04  0.10000000000E+02 0.  1.
</event>
<event>
 5    1  0.1303633E-008  0.3831635E+03  0.7957747E-01  0.3437499E+00
         13   -1    0    0    0    0  0.00000000000E+00  0.00000000000E+00  0.14999999963E+04  0.15000000000E+04  0.10566000000E+00 0.  1.
        994   -1    0    0    0    0 -0.00000000000E+00 -0.00000000000E+00  0.11368683772E-12  0.17120000000E+03  0.17120000000E+03 0.  0.
         13    1    1    2    0    0 -0.11184038158E+02 -0.13590077185E+02  0.60089522044E+02  0.62614173562E+02  0.10566000000E+00 0.  1.
        994    1    1    2    0    0  0.14006820748E+02  0.36277935401E+01  0.32376014155E+01  0.17184083908E+03  0.17120000000E+03 0.  0.
        998    1    1    2    0    0 -0.28227825900E+01  0.99622836448E+01  0.14366728728E+04  0.14367449874E+04  0.10000000000E+02 0.  1.
</event>
<event>
 5    1  0.1303633E-008  0.3804658E+03  0.7957747E-01  0.3449133E+00
         13   -1    0    0    0    0  0.00000000000E+00  0.00000000000E+00  0.14999999963E+04  0.15000000000E+04  0.10566000000E+00 0. -1.
        994   -1    0    0    0    0 -0.00000000000E+00 -0.00000000000E+00  0.11368683772E-12  0.17120000000E+03  0.17120000000E+03 0.  0.
         13    1    1    2    0    0  0.12684268631E+02 -0.70574288254E+01  0.25991794194E+02  0.29770497171E+02  0.10566000000E+00 0. -1.
        994    1    1    2    0    0 -0.15806260988E+01  0.35118044876E+01  0.39477269063E+01  0.17128880786E+03  0.17120000000E+03 0.  0.
        998    1    1    2    0    0 -0.11103642533E+02  0.35456243377E+01  0.14700604752E+04  0.14701406950E+04  0.10000000000E+02 0. -1.
</event>
<event>
 5    1  0.1303633E-008  0.3761334E+03  0.7957747E-01  0.3468169E+00
         13   -1    0    0    0    0  0.00000000000E+00  0.00000000000E+00  0.14999999963E+04  0.15000000000E+04  0.10566000000E+00 0.  1.
        994   -1    0    0    0    0 -0.00000000000E+00 -0.00000000000E+00  0.11368683772E-12  0.17120000000E+03  0.17120000000E+03 0.  0.
         13    1    1    2    0    0  0.78919397482E+02  0.70935557064E+02  0.58727831141E+03  0.59678802834E+03  0.10566000000E+00 0.  1.
        994    1    1    2    0    0 -0.51009759613E+02 -0.10044314878E+03  0.50360048036E+02  0.21103648061E+03  0.17120000000E+03 0.  0.
        998    1    1    2    0    0 -0.27909637869E+02  0.29507591713E+02  0.86236163683E+03  0.86337549105E+03  0.10000000000E+02 0.  1.
</event>
<event>
 5    1  0.1303633E-008  0.3697416E+03  0.7957747E-01  0.3497079E+00
         13   -1    0    0    0    0  0.00000000000E+00  0.00000000000E+00  0.14999999963E+04  0.15000000000E+04  0.10566000000E+00 0.  1.
        994   -1    0    0    0    0 -0.00000000000E+00 -0.00000000000E+00  0.11368683772E-12  0.17120000000E+03  0.17120000000E+03 0.  0.
         13    1    1    2    0    0 -0.37354972386E+02  0.67028814104E+02  0.33987575158E+03  0.34843047162E+03  0.10566000000E+00 0.  1.
        994    1    1    2    0    0  0.30597859847E+02  0.37634124829E+01  0.14128997558E+02  0.17452639019E+03  0.17120000000E+03 0.  0.
        998    1    1    2    0    0  0.67571125387E+01 -0.70792226587E+02  0.11459952471E+04  0.11482431382E+04  0.10000000000E+02 0.  1.
</event>
<event>
 5    1  0.1303633E-008  0.3860872E+03  0.7957747E-01  0.3425074E+00
         13   -1    0    0    0    0  0.00000000000E+00  0.00000000000E+00  0.14999999963E+04  0.15000000000E+04  0.10566000000E+00 0. -1.
        994   -1    0    0    0    0 -0.00000000000E+00 -0.00000000000E+00  0.11368683772E-12  0.17120000000E+03  0.17120000000E+03 0.  0.
         13    1    1    2    0    0 -0.96027946109E+01  0.45568660002E+01  0.53589473334E+02  0.54633520006E+02  0.10566000000E+00 0. -1.
        994    1    1    2    0    0  0.66941645729E+00 -0.82950369591E+01  0.13183046942E+01  0.17140721596E+03  0.17120000000E+03 0.  0.
        998    1    1    2    0    0  0.89333781536E+01  0.37381709589E+01  0.14450922183E+04  0.14451592640E+04  0.10000000000E+02 0. -1.
</event>
<event>
 5    1  0.1303633E-008  0.3854277E+03  0.7957747E-01  0.3427860E+00
         13   -1    0    0    0    0  0.00000000000E+00  0.00000000000E+00  0.14999999963E+04  0.15000000000E+04  0.10566000000E+00 0. -1.
        994   -1    0    0    0    0 -0.00000000000E+00 -0.00000000000E+00  0.11368683772E-12  0.17120000000E+03  0.17120000000E+03 0.  0.
         13    1    1    2    0    0  0.28979012108E+01 -0.14638565742E+02  0.78400861194E+02  0.79808468463E+02  0.10566000000E+00 0. -1.
        994    1    1    2    0    0 -0.75667769302E+01  0.93086405087E+01  0.18906915706E+01  0.17163018853E+03  0.17120000000E+03 0.  0.
        998    1    1    2    0    0  0.46688757195E+01  0.53299252337E+01  0.14197084435E+04  0.14197613430E+04  0.10000000000E+02 0. -1.
</event>
<event>
 5    1  0.1303633E-008  0.3813859E+03  0.7957747E-01  0.3445146E+00
         13   -1    0    0    0    0  0.00000000000E+00  0.00000000000E+00  0.14999999963E+04  0.15000000000E+04  0.10566000000E+00 0. -1.
        994   -1    0    0    0    0 -0.00000000000E+00 -0.00000000000E+00  0.11368683772E-12  0.17120000000E+03  0.17120000000E+03 0.  0.
         13    1    1    2    0    0 -0.14214622373E+02 -0.19159438011E+02  0.85830394347E+02  0.89084270845E+02  0.10566000000E+00 0. -1.
        994    1    1    2    0    0  0.13551215550E+02 -0.32058191451E+01  0.40807048240E+01  0.17181386693E+03  0.17120000000E+03 0.  0.
        998    1    1    2    0    0  0.66340682262E+00  0.22365257156E+02  0.14100888971E+04  0.14103018622E+04  0.10000000000E+02 0. -1.
</event>
<event>
 5    1  0.1303633E-008  0.3797459E+03  0.7957747E-01  0.3452266E+00
         13   -1    0    0    0    0  0.00000000000E+00  0.00000000000E+00  0.14999999963E+04  0.15000000000E+04  0.10566000000E+00 0.  1.
        994   -1    0    0    0    0 -0.00000000000E+00 -0.00000000000E+00  0.11368683772E-12  0.17120000000E+03  0.17120000000E+03 0.  0.
         13    1    1    2    0    0 -0.52258382628E+01  0.27651471403E+02  0.90608221328E+02  0.94877680160E+02  0.10566000000E+00 0.  1.
        994    1    1    2    0    0 -0.14243341254E+02 -0.22384106903E+02  0.66201725685E+01  0.17337008882E+03  0.17120000000E+03 0.  0.
        998    1    1    2    0    0  0.19469179516E+02 -0.52673644999E+01  0.14027716024E+04  0.14029522310E+04  0.10000000000E+02 0.  1.
</event>
<event>
 5    1  0.1303633E-008  0.3767453E+03  0.7957747E-01  0.3465454E+00
         13   -1    0    0    0    0  0.00000000000E+00  0.00000000000E+00  0.14999999963E+04  0.15000000000E+04  0.10566000000E+00 0. -1.
        994   -1    0    0    0    0 -0.00000000000E+00 -0.00000000000E+00  0.11368683772E-12  0.17120000000E+03  0.17120000000E+03 0.  0.
         13    1    1    2    0    0 -0.18373692549E+02 -0.12174737547E+03  0.69422803000E+03  0.70506211415E+03  0.10566000000E+00 0. -1.
        994    1    1    2    0    0  0.25500162915E+02  0.11839815424E+03  0.57080799163E+02  0.21733853517E+03  0.17120000000E+03 0.  0.
        998    1    1    2    0    0 -0.71264703668E+01  0.33492212349E+01  0.74869116711E+03  0.74879935068E+03  0.10000000000E+02 0.  0.
</event>
<event>
 5    1  0.1303633E-008  0.3831256E+03  0.7957747E-01  0.3437661E+00
         13   -1    0    0    0    0  0.00000000000E+00  0.00000000000E+00  0.14999999963E+04  0.15000000000E+04  0.10566000000E+00 0. -1.
        994   -1    0    0    0    0 -0.00000000000E+00 -0.00000000000E+00  0.11368683772E-12  0.17120000000E+03  0.17120000000E+03 0.  0.
         13    1    1    2    0    0 -0.31234852824E+02  0.10701156502E+02  0.19851161975E+03  0.20123867700E+03  0.10566000000E+00 0. -1.
        994    1    1    2    0    0  0.30821405773E+02  0.66758481545E+01  0.58612202310E+01  0.17417898813E+03  0.17120000000E+03 0.  0.
        998    1    1    2    0    0  0.41344705113E+00 -0.17377004656E+02  0.12956271563E+04  0.12957823349E+04  0.10000000000E+02 0. -1.
</event>
<event>
 5    1  0.1303633E-008  0.3798640E+03  0.7957747E-01  0.3451751E+00
         13   -1    0    0    0    0  0.00000000000E+00  0.00000000000E+00  0.14999999963E+04  0.15000000000E+04  0.10566000000E+00 0.  1.
        994   -1    0    0    0    0 -0.00000000000E+00 -0.00000000000E+00  0.11368683772E-12  0.17120000000E+03  0.17120000000E+03 0.  0.
         13    1    1    2    0    0  0.12553553026E+02 -0.23934232722E+02  0.90728768624E+02  0.94668684419E+02  0.10566000000E+00 0.  1.
        994    1    1    2    0    0  0.80818759663E+01  0.93611373494E+01  0.47134902180E+01  0.17171081679E+03  0.17120000000E+03 0.  0.
        998    1    1    2    0    0 -0.20635428992E+02  0.14573095373E+02  0.14045577374E+04  0.14048204988E+04  0.10000000000E+02 0.  1.
</event>
<event>
 5    1  0.1303633E-008  0.3827718E+03  0.7957747E-01  0.3439178E+00
         13   -1    0    0    0    0  0.00000000000E+00  0.00000000000E+00  0.14999999963E+04  0.15000000000E+04  0.10566000000E+00 0. -1.
        994   -1    0    0    0    0 -0.00000000000E+00 -0.00000000000E+00  0.11368683772E-12  0.17120000000E+03  0.17120000000E+03 0.  0.
         13    1    1    2    0    0 -0.12734620088E+02 -0.61360544473E+01  0.34106496236E+02  0.36919994075E+02  0.10566000000E+00 0. -1.
        994    1    1    2    0    0  0.17515617306E+02  0.10944741695E+02  0.41548385337E+01  0.17249141110E+03  0.17120000000E+03 0.  0.
        998    1    1    2    0    0 -0.47809972184E+01 -0.48086872481E+01  0.14617386615E+04  0.14617885948E+04  0.10000000000E+02 0. -1.
</event>
<event>
 5    1  0.1303633E-008  0.3798277E+03  0.7957747E-01  0.3451909E+00
         13   -1    0    0    0    0  0.00000000000E+00  0.00000000000E+00  0.14999999963E+04  0.15000000000E+04  0.10566000000E+00 0. -1.
        994   -1    0    0    0    0 -0.00000000000E+00 -0.00000000000E+00  0.11368683772E-12  0.17120000000E+03  0.17120000000E+03 0.  0.
         13    1    1    2    0    0 -0.51002143523E+02 -0.54253274062E+01  0.25161299864E+03  0.25678739274E+03  0.10566000000E+00 0. -1.
        994    1    1    2    0    0  0.55058753287E+02  0.47913864819E+01  0.14505158935E+02  0.18048341567E+03  0.17120000000E+03 0.  0.
        998    1    1    2    0    0 -0.40566097637E+01  0.63394092436E+00  0.12338818387E+04  0.12339291916E+04  0.10000000000E+02 0. -1.
</event>
<event>
 5    1  0.1303633E-008  0.3857785E+03  0.7957747E-01  0.3426377E+00
         13   -1    0    0    0    0  0.00000000000E+00  0.00000000000E+00  0.14999999963E+04  0.15000000000E+04  0.10566000000E+00 0.  1.
        994   -1    0    0    0    0 -0.00000000000E+00 -0.00000000000E+00  0.11368683772E-12  0.17120000000E+03  0.17120000000E+03 0.  0.
         13    1    1    2    0    0 -0.86022457043E+01  0.89089857961E+01  0.64968795729E+02  0.66138674326E+02  0.10566000000E+00 0.  1.
        994    1    1    2    0    0  0.50561349252E+01  0.18230790379E+01  0.13388826775E+01  0.17128958148E+03  0.17120000000E+03 0.  0.
        998    1    1    2    0    0  0.35461107791E+01 -0.10732064834E+02  0.14336923179E+04  0.14337717442E+04  0.10000000000E+02 0.  1.
</event>
<event>
 5    1  0.1303633E-008  0.3835893E+03  0.7957747E-01  0.3435677E+00
         13   -1    0    0    0    0  0.00000000000E+00  0.00000000000E+00  0.14999999963E+04  0.15000000000E+04  0.10566000000E+00 0. -1.
        994   -1    0    0    0    0 -0.00000000000E+00 -0.00000000000E+00  0.11368683772E-12  0.17120000000E+03  0.17120000000E+03 0.  0.
         13    1    1    2    0    0 -0.30074973987E+02 -0.56103168839E+01  0.17060566614E+03  0.17332710175E+03  0.10566000000E+00 0. -1.
        994    1    1    2    0    0  0.33773648477E+02  0.21253656724E+02  0.76108023693E+01  0.17595380521E+03  0.17120000000E+03 0.  0.
        998    1    1    2    0    0 -0.36986744897E+01 -0.15643339840E+02  0.13217835278E+04  0.13219190930E+04  0.10000000000E+02 0. -1.
</event>
<event>
 5    1  0.1303633E-008  0.3699595E+03  0.7957747E-01  0.3496077E+00
         13   -1    0    0    0    0  0.00000000000E+00  0.00000000000E+00  0.14999999963E+04  0.15000000000E+04  0.10566000000E+00 0. -1.
        994   -1    0    0    0    0 -0.00000000000E+00 -0.00000000000E+00  0.11368683772E-12  0.17120000000E+03  0.17120000000E+03 0.  0.
         13    1    1    2    0    0 -0.35052629298E+02  0.44800362797E+02  0.14709037568E+03  0.15770652843E+03  0.10566000000E+00 0. -1.
        994    1    1    2    0    0  0.57891434472E+02  0.52030300497E+01  0.22821960019E+02  0.18223274010E+03  0.17120000000E+03 0.  0.
        998    1    1    2    0    0 -0.22838805174E+02 -0.50003392846E+02  0.13300876606E+04  0.13312607315E+04  0.10000000000E+02 0. -1.
</event>
<event>
 5    1  0.1303633E-008  0.4091161E+03  0.7957747E-01  0.3333418E+00
         13   -1    0    0    0    0  0.00000000000E+00  0.00000000000E+00  0.14999999963E+04  0.15000000000E+04  0.10566000000E+00 0.  1.
        994   -1    0    0    0    0 -0.00000000000E+00 -0.00000000000E+00  0.11368683772E-12  0.17120000000E+03  0.17120000000E+03 0.  0.
         13    1    1    2    0    0 -0.77435009206E+02 -0.56446705694E+02  0.14188577778E+03  0.17121330653E+03  0.10566000000E+00 0.  1.
        994    1    1    2    0    0  0.32184504831E+02  0.18035355619E+02  0.38897874727E+02  0.17939788478E+03  0.17120000000E+03 0.  0.
        998    1    1    2    0    0  0.45250504375E+02  0.38411350074E+02  0.13192163438E+04  0.13205888087E+04  0.10000000000E+02 0.  1.
</event>
<event>
 5    1  0.1303633E-008  0.3830377E+03  0.7957747E-01  0.3438037E+00
         13   -1    0    0    0    0  0.00000000000E+00  0.00000000000E+00  0.14999999963E+04  0.15000000000E+04  0.10566000000E+00 0. -1.
        994   -1    0    0    0    0 -0.00000000000E+00 -0.00000000000E+00  0.11368683772E-12  0.17120000000E+03  0.17120000000E+03 0.  0.
         13    1    1    2    0    0 -0.61314666293E+01  0.14457720267E+02  0.46228497153E+02  0.48823208327E+02  0.10566000000E+00 0. -1.
        994    1    1    2    0    0  0.25815225568E+00 -0.12673577008E+02  0.31395196122E+01  0.17169735810E+03  0.17120000000E+03 0.  0.
        998    1    1    2    0    0  0.58733143736E+01 -0.17841432588E+01  0.14506319795E+04  0.14506794336E+04  0.10000000000E+02 0. -1.
</event>
<event>
 5    1  0.1303633E-008  0.3857488E+03  0.7957747E-01  0.3426502E+00
         13   -1    0    0    0    0  0.00000000000E+00  0.00000000000E+00  0.14999999963E+04  0.15000000000E+04  0.10566000000E+00 0.  1.
        994   -1    0    0    0    0 -0.00000000000E+00 -0.00000000000E+00  0.11368683772E-12  0.17120000000E+03  0.17120000000E+03 0.  0.
         13    1    1    2    0    0  0.56095969425E+01  0.84895874998E+01  0.44107753271E+02  0.45266386386E+02  0.10566000000E+00 0.  1.
        994    1    1    2    0    0 -0.34681860888E+01  0.66019182342E+01  0.14412809593E+01  0.17136840704E+03  0.17120000000E+03 0.  0.
        998    1    1    2    0    0 -0.21414108537E+01 -0.15091505734E+02  0.14544509620E+04  0.14545652066E+04  0.10000000000E+02 0.  1.
</event>
<event>
 5    1  0.1303633E-008  0.3702366E+03  0.7957747E-01  0.3494804E+00
         13   -1    0    0    0    0  0.00000000000E+00  0.00000000000E+00  0.14999999963E+04  0.15000000000E+04  0.10566000000E+00 0.  1.
        994   -1    0    0    0    0 -0.00000000000E+00 -0.00000000000E+00  0.11368683772E-12  0.17120000000E+03  0.17120000000E+03 0.  0.
         13    1    1    2    0    0 -0.41890810614E+02  0.55152771165E+02  0.39452086288E+03  0.40055385480E+03  0.10566000000E+00 0.  1.
        994    1    1    2    0    0 -0.95604975664E+01  0.51802416268E+01  0.95540626486E+01  0.17181082076E+03  0.17120000000E+03 0.  0.
        998    1    1    2    0    0  0.51451308181E+02 -0.60333012792E+02  0.10959250707E+04  0.10988353244E+04  0.10000000000E+02 0. -1.
</event>
<event>
 5    1  0.1303633E-008  0.3686012E+03  0.7957747E-01  0.3502344E+00
         13   -1    0    0    0    0  0.00000000000E+00  0.00000000000E+00  0.14999999963E+04  0.15000000000E+04  0.10566000000E+00 0.  1.
        994   -1    0    0    0    0 -0.00000000000E+00 -0.00000000000E+00  0.11368683772E-12  0.17120000000E+03  0.17120000000E+03 0.  0.
         13    1    1    2    0    0  0.17043250653E+02  0.89098002869E+00  0.95903728866E+01  0.19576839745E+02  0.10566000000E+00 0.  1.
        994    1    1    2    0    0 -0.18691323023E+02  0.10178314982E+01  0.11421033577E+02  0.17259861397E+03  0.17120000000E+03 0.  0.
        998    1    1    2    0    0  0.16480723691E+01 -0.19088115268E+01  0.14789885898E+04  0.14790245463E+04  0.10000000000E+02 0.  1.
</event>
<event>
 5    1  0.1303633E-008  0.3829809E+03  0.7957747E-01  0.3438281E+00
         13   -1    0    0    0    0  0.00000000000E+00  0.00000000000E+00  0.14999999963E+04  0.15000000000E+04  0.10566000000E+00 0.  1.
        994   -1    0    0    0    0 -0.00000000000E+00 -0.00000000000E+00  0.11368683772E-12  0.17120000000E+03  0.17120000000E+03 0.  0.
         13    1    1    2    0    0 -0.32198517245E+01  0.14148710974E+02  0.36502408589E+02  0.39280917303E+02  0.10566000000E+00 0.  1.
        994    1    1    2    0    0  0.70008686185E+01 -0.26414084406E+02  0.51117218473E+01  0.17344245650E+03  0.17120000000E+03 0.  0.
        998    1    1    2    0    0 -0.37810168939E+01  0.12265373431E+02  0.14583858658E+04  0.14584766262E+04  0.10000000000E+02 0.  1.
</event>
<event>
 5    1  0.1303633E-008  0.3791437E+03  0.7957747E-01  0.3454895E+00
         13   -1    0    0    0    0  0.00000000000E+00  0.00000000000E+00  0.14999999963E+04  0.15000000000E+04  0.10566000000E+00 0.  1.
        994   -1    0    0    0    0 -0.00000000000E+00 -0.00000000000E+00  0.11368683772E-12  0.17120000000E+03  0.17120000000E+03 0.  0.
         13    1    1    2    0    0 -0.83917527282E+01 -0.26100799094E+02  0.73187511370E+02  0.78154310257E+02  0.10566000000E+00 0.  1.
        994    1    1    2    0    0  0.33908451132E+02  0.31402497026E+02  0.11759953469E+02  0.17771785612E+03  0.17120000000E+03 0.  0.
        998    1    1    2    0    0 -0.25516698404E+02 -0.53016979322E+01  0.14150525314E+04  0.14153278336E+04  0.10000000000E+02 0.  1.
</event>
<event>
 5    1  0.1303633E-008  0.3824538E+03  0.7957747E-01  0.3440543E+00
         13   -1    0    0    0    0  0.00000000000E+00  0.00000000000E+00  0.14999999963E+04  0.15000000000E+04  0.10566000000E+00 0. -1.
        994   -1    0    0    0    0 -0.00000000000E+00 -0.00000000000E+00  0.11368683772E-12  0.17120000000E+03  0.17120000000E+03 0.  0.
         13    1    1    2    0    0  0.59508412163E+01 -0.10531509121E+02  0.23537569080E+02  0.26464193126E+02  0.10566000000E+00 0. -1.
        994    1    1    2    0    0 -0.78344201278E+01  0.14465385413E+02  0.37975122492E+01  0.17203048164E+03  0.17120000000E+03 0.  0.
        998    1    1    2    0    0  0.18835789115E+01 -0.39338762916E+01  0.14726649149E+04  0.14727053252E+04  0.10000000000E+02 0. -1.
</event>
<event>
 5    1  0.1303633E-008  0.3780417E+03  0.7957747E-01  0.3459730E+00
         13   -1    0    0    0    0  0.00000000000E+00  0.00000000000E+00  0.14999999963E+04  0.15000000000E+04  0.10566000000E+00 0.  1.
        994   -1    0    0    0    0 -0.00000000000E+00 -0.00000000000E+00  0.11368683772E-12  0.17120000000E+03  0.17120000000E+03 0.  0.
         13    1    1    2    0    0  0.11254264364E+02  0.36990018556E+02  0.12063220859E+03  0.12667699417E+03  0.10566000000E+00 0.  1.
        994    1    1    2    0    0 -0.10969339592E+02 -0.57400607730E+02  0.16703267451E+02  0.18166891678E+03  0.17120000000E+03 0.  0.
        998    1    1    2    0    0 -0.28492477259E+00  0.20410589174E+02  0.13626645202E+04  0.13628540891E+04  0.10000000000E+02 0.  1.
</event>
<event>
 5    1  0.1303633E-008  0.3824066E+03  0.7957747E-01  0.3440746E+00
         13   -1    0    0    0    0  0.00000000000E+00  0.00000000000E+00  0.14999999963E+04  0.15000000000E+04  0.10566000000E+00 0. -1.
        994   -1    0    0    0    0 -0.00000000000E+00 -0.00000000000E+00  0.11368683772E-12  0.17120000000E+03  0.17120000000E+03 0.  0.
         13    1    1    2    0    0  0.56015928290E+01  0.14112018860E+02  0.39749578628E+02  0.42550758909E+02  0.10566000000E+00 0. -1.
        994    1    1    2    0    0 -0.62734127730E+01  0.78855012909E+00  0.30557907635E+01  0.17134396802E+03  0.17120000000E+03 0.  0.
        998    1    1    2    0    0  0.67181994403E+00 -0.14900568989E+02  0.14571946269E+04  0.14573052731E+04  0.10000000000E+02 0. -1.
</event>
<event>
 5    1  0.1303633E-008  0.3778236E+03  0.7957747E-01  0.3460690E+00
         13   -1    0    0    0    0  0.00000000000E+00  0.00000000000E+00  0.14999999963E+04  0.15000000000E+04  0.10566000000E+00 0. -1.
        994   -1    0    0    0    0 -0.00000000000E+00 -0.00000000000E+00  0.11368683772E-12  0.17120000000E+03  0.17120000000E+03 0.  0.
         13    1    1    2    0    0 -0.15192604447E+02 -0.13534131288E+02  0.39848663368E+02  0.44742765626E+02  0.10566000000E+00 0. -1.
        994    1    1    2    0    0  0.12799783766E+02 -0.23569559800E+02  0.76618012798E+01  0.17345749281E+03  0.17120000000E+03 0.  0.
        998    1    1    2    0    0  0.23928206807E+01  0.37103691088E+02  0.14524895316E+04  0.14529997416E+04  0.10000000000E+02 0. -1.
</event>
<event>
 5    1  0.1303633E-008  0.3747760E+03  0.7957747E-01  0.3474225E+00
         13   -1    0    0    0    0  0.00000000000E+00  0.00000000000E+00  0.14999999963E+04  0.15000000000E+04  0.10566000000E+00 0. -1.
        994   -1    0    0    0    0 -0.00000000000E+00 -0.00000000000E+00  0.11368683772E-12  0.17120000000E+03  0.17120000000E+03 0.  0.
         13    1    1    2    0    0  0.18449181263E+02 -0.46076107339E+02  0.24315525230E+03  0.24816903078E+03  0.10566000000E+00 0. -1.
        994    1    1    2    0    0 -0.39119665057E+01 -0.17909260656E+02  0.79377760108E+01  0.17236151945E+03  0.17120000000E+03 0.  0.
        998    1    1    2    0    0 -0.14537214758E+02  0.63985367995E+02  0.12489069680E+04  0.12506694498E+04  0.10000000000E+02 0.  1.
</event>
<event>
 5    1  0.1303633E-008  0.3808144E+03  0.7957747E-01  0.3447620E+00
         13   -1    0    0    0    0  0.00000000000E+00  0.00000000000E+00  0.14999999963E+04  0.15000000000E+04  0.10566000000E+00 0.  1.
        994   -1    0    0    0    0 -0.00000000000E+00 -0.00000000000E+00  0.11368683772E-12  0.17120000000E+03  0.17120000000E+03 0.  0.
         13    1    1    2    0    0 -0.15421941590E+02 -0.12361598609E+02  0.49767521386E+02  0.53548695143E+02  0.10566000000E+00 0.  1.
        994    1    1    2    0    0  0.14101326820E+02  0.14024874603E+02  0.50424141682E+01  0.17242508653E+03  0.17120000000E+03 0.  0.
        998    1    1    2    0    0  0.13206147702E+01 -0.16632759942E+01  0.14451900607E+04  0.14452262183E+04  0.10000000000E+02 0.  1.
</event>
<event>
 5    1  0.1303633E-008  0.3854454E+03  0.7957747E-01  0.3427785E+00
         13   -1    0    0    0    0  0.00000000000E+00  0.00000000000E+00  0.14999999963E+04  0.15000000000E+04  0.10566000000E+00 0.  1.
        994   -1    0    0    0    0 -0.00000000000E+00 -0.00000000000E+00  0.11368683772E-12  0.17120000000E+03  0.17120000000E+03 0.  0.
         13    1    1    2    0    0  0.63713729588E+01 -0.93156033083E+01  0.46323699867E+02  0.47678833792E+02  0.10566000000E+00 0.  1.
        994    1    1    2    0    0 -0.15795030308E+01  0.36258118344E+01  0.14605150208E+01  0.17125190348E+03  0.17120000000E+03 0.  0.
        998    1    1    2    0    0 -0.47918699280E+01  0.56897914739E+01  0.14522157814E+04  0.14522692627E+04  0.10000000000E+02 0.  1.
</event>
<event>
 5    1  0.1303633E-008  0.3792802E+03  0.7957747E-01  0.3454299E+00
         13   -1    0    0    0    0  0.00000000000E+00  0.00000000000E+00  0.14999999963E+04  0.15000000000E+04  0.10566000000E+00 0. -1.
        994   -1    0    0    0    0 -0.00000000000E+00 -0.00000000000E+00  0.11368683772E-12  0.17120000000E+03  0.17120000000E+03 0.  0.
         13    1    1    2    0    0 -0.10414947500E+02 -0.20311900697E+01  0.10491798345E+02  0.14922662668E+02  0.10566000000E+00 0. -1.
        994    1    1    2    0    0  0.96417192717E+01 -0.27172103370E+01  0.48332432411E+01  0.17156091112E+03  0.17120000000E+03 0.  0.
        998    1    1    2    0    0  0.77322822866E+00  0.47484004067E+01  0.14846749547E+04  0.14847164262E+04  0.10000000000E+02 0. -1.
</event>
<event>
 5    1  0.1303633E-008  0.3749440E+03  0.7957747E-01  0.3473473E+00
         13   -1    0    0    0    0  0.00000000000E+00  0.00000000000E+00  0.14999999963E+04  0.15000000000E+04  0.10566000000E+00 0.  1.
        994   -1    0    0    0    0 -0.00000000000E+00 -0.00000000000E+00  0.11368683772E-12  0.17120000000E+03  0.17120000000E+03 0.  0.
         13    1    1    2    0    0  0.38043886804E+02 -0.87137099118E+01  0.10950859312E+03  0.11625579209E+03  0.10566000000E+00 0.  1.
        994    1    1    2    0    0 -0.27128277835E+02  0.33714789544E+01  0.92523988469E+01  0.17361554427E+03  0.17120000000E+03 0.  0.
        998    1    1    2    0    0 -0.10915608969E+02  0.53422309574E+01  0.13812390043E+04  0.13813286636E+04  0.10000000000E+02 0.  1.
</event>
<event>
 5    1  0.1303633E-008  0.3733725E+03  0.7957747E-01  0.3480534E+00
         13   -1    0    0    0    0  0.00000000000E+00  0.00000000000E+00  0.14999999963E+04  0.15000000000E+04  0.10566000000E+00 0. -1.
        994   -1    0    0    0    0 -0.00000000000E+00 -0.00000000000E+00  0.11368683772E-12  0.17120000000E+03  0.17120000000E+03 0.  0.
         13    1    1    2    0    0 -0.18713071627E+02  0.23366977169E+02  0.29532304550E+02  0.42051906589E+02  0.10566000000E+00 0. -1.
        994    1    1    2    0    0  0.15800100859E+02 -0.23809170585E+02  0.15627354135E+02  0.17427040480E+03  0.17120000000E+03 0.  0.
        998    1    1    2    0    0  0.29129707681E+01  0.44219341578E+00  0.14548403376E+04  0.14548776886E+04  0.10000000000E+02 0. -1.
</event>
<event>
 5    1  0.1303633E-008  0.3866949E+03  0.7957747E-01  0.3422516E+00
         13   -1    0    0    0    0  0.00000000000E+00  0.00000000000E+00  0.14999999963E+04  0.15000000000E+04  0.10566000000E+00 0. -1.
        994   -1    0    0    0    0 -0.00000000000E+00 -0.00000000000E+00  0.11368683772E-12  0.17120000000E+03  0.17120000000E+03 0.  0.
         13    1    1    2    0    0 -0.15614961334E+03  0.16277607152E+02  0.38602892827E+03  0.41673253637E+03  0.10566000000E+00 0. -1.
        994    1    1    2    0    0  0.16928036285E+03 -0.12319632803E+02  0.13687029611E+03  0.27721928605E+03  0.17120000000E+03 0.  0.
        998    1    1    2    0    0 -0.13130749509E+02 -0.39579743489E+01  0.97710077190E+03  0.97724817758E+03  0.10000000000E+02 0.  1.
</event>
<event>
 5    1  0.1303633E-008  0.3806388E+03  0.7957747E-01  0.3448382E+00
         13   -1    0    0    0    0  0.00000000000E+00  0.00000000000E+00  0.14999999963E+04  0.15000000000E+04  0.10566000000E+00 0.  1.
        994   -1    0    0    0    0 -0.00000000000E+00 -0.00000000000E+00  0.11368683772E-12  0.17120000000E+03  0.17120000000E+03 0.  0.
         13    1    1    2    0    0 -0.89008888774E+01 -0.55528292246E+01  0.12623857403E+02  0.16414404496E+02  0.10566000000E+00 0.  1.
        994    1    1    2    0    0  0.17941322634E+02 -0.44229408058E+01  0.49509073721E+01  0.17226550713E+03  0.17120000000E+03 0.  0.
        998    1    1    2    0    0 -0.90404337569E+01  0.99757700304E+01  0.14824252315E+04  0.14825200884E+04  0.10000000000E+02 0.  1.
</event>
<event>
 5    1  0.1303633E-008  0.3693885E+03  0.7957747E-01  0.3498706E+00
         13   -1    0    0    0    0  0.00000000000E+00  0.00000000000E+00  0.14999999963E+04  0.15000000000E+04  0.10566000000E+00 0.  1.
        994   -1    0    0    0    0 -0.00000000000E+00 -0.00000000000E+00  0.11368683772E-12  0.17120000000E+03  0.17120000000E+03 0.  0.
         13    1    1    2    0    0 -0.62838111261E+02  0.26584493270E+02  0.33698167851E+03  0.34381975848E+03  0.10566000000E+00 0.  1.
        994    1    1    2    0    0 -0.71586028052E+01  0.12774278144E+01  0.97723169607E+01  0.17163279289E+03  0.17120000000E+03 0.  0.
        998    1    1    2    0    0  0.69996714066E+02 -0.27861921085E+02  0.11532460008E+04  0.11557474486E+04  0.10000000000E+02 0.  1.
</event>
<event>
 5    1  0.1303633E-008  0.3797372E+03  0.7957747E-01  0.3452304E+00
         13   -1    0    0    0    0  0.00000000000E+00  0.00000000000E+00  0.14999999963E+04  0.15000000000E+04  0.10566000000E+00 0.  1.
        994   -1    0    0    0    0 -0.00000000000E+00 -0.00000000000E+00  0.11368683772E-12  0.17120000000E+03  0.17120000000E+03 0.  0.
         13    1    1    2    0    0  0.35086050826E+02  0.17734702764E+02  0.22049511744E+03  0.22397245059E+03  0.10566000000E+00 0.  1.
        994    1    1    2    0    0  0.41717141669E+01 -0.18274022257E+01  0.43352755115E+01  0.17131543191E+03  0.17120000000E+03 0.  0.
        998    1    1    2    0    0 -0.39257764993E+02 -0.15907300539E+02  0.12751696033E+04  0.12759121175E+04  0.10000000000E+02 0.  1.
</event>
<event>
 5    1  0.1303633E-008  0.3812106E+03  0.7957747E-01  0.3445904E+00
         13   -1    0    0    0    0  0.00000000000E+00  0.00000000000E+00  0.14999999963E+04  0.15000000000E+04  0.10566000000E+00 0.  1.
        994   -1    0    0    0    0 -0.00000000000E+00 -0.00000000000E+00  0.11368683772E-12  0.17120000000E+03  0.17120000000E+03 0.  0.
         13    1    1    2    0    0 -0.12221035666E+02 -0.55923431022E+00  0.19722839617E+02  0.23209222786E+02  0.10566000000E+00 0.  1.
        994    1    1    2    0    0  0.10030355575E+02  0.16439900321E+01  0.38673267821E+01  0.17154505808E+03  0.17120000000E+03 0.  0.
        998    1    1    2    0    0  0.21906800906E+01 -0.10847557218E+01  0.14764098299E+04  0.14764457191E+04  0.10000000000E+02 0.  1.
</event>
<event>
 5    1  0.1303633E-008  0.3782139E+03  0.7957747E-01  0.3458973E+00
         13   -1    0    0    0    0  0.00000000000E+00  0.00000000000E+00  0.14999999963E+04  0.15000000000E+04  0.10566000000E+00 0.  1.
        994   -1    0    0    0    0 -0.00000000000E+00 -0.00000000000E+00  0.11368683772E-12  0.17120000000E+03  0.17120000000E+03 0.  0.
         13    1    1    2    0    0  0.14049563038E+02 -0.15839901188E+02  0.41493144450E+02  0.46583096629E+02  0.10566000000E+00 0.  1.
        994    1    1    2    0    0 -0.14944333502E+02  0.15634213625E+02  0.66120254150E+01  0.17268734933E+03  0.17120000000E+03 0.  0.
        998    1    1    2    0    0  0.89477046314E+00  0.20568756205E+00  0.14518948264E+04  0.14519295540E+04  0.10000000000E+02 0.  1.
</event>
<event>
 5    1  0.1303633E-008  0.3834399E+03  0.7957747E-01  0.3436316E+00
         13   -1    0    0    0    0  0.00000000000E+00  0.00000000000E+00  0.14999999963E+04  0.15000000000E+04  0.10566000000E+00 0.  1.
        994   -1    0    0    0    0 -0.00000000000E+00 -0.00000000000E+00  0.11368683772E-12  0.17120000000E+03  0.17120000000E+03 0.  0.
         13    1    1    2    0    0  0.12458702462E+02  0.22221729108E+02  0.13122892451E+03  0.13367896732E+03  0.10566000000E+00 0.  1.
        994    1    1    2    0    0  0.39411141348E+01 -0.23738430039E+02  0.43229844420E+01  0.17293690652E+03  0.17120000000E+03 0.  0.
        998    1    1    2    0    0 -0.16399816597E+02  0.15167009305E+01  0.13644480873E+04  0.13645841262E+04  0.10000000000E+02 0.  1.
</event>
<event>
 5    1  0.1303633E-008  0.3748313E+03  0.7957747E-01  0.3473977E+00
         13   -1    0    0    0    0  0.00000000000E+00  0.00000000000E+00  0.14999999963E+04  0.15000000000E+04  0.10566000000E+00 0.  1.
        994   -1    0    0    0    0 -0.00000000000E+00 -0.00000000000E+00  0.11368683772E-12  0.17120000000E+03  0.17120000000E+03 0.  0.
         13    1    1    2    0    0 -0.54704772516E+02  0.13079654163E+02  0.22176420069E+03  0.22878606024E+03  0.10566000000E+00 0.  1.
        994    1    1    2    0    0  0.37241255117E+02 -0.13659095513E+02  0.12135818334E+02  0.17615391015E+03  0.17120000000E+03 0.  0.
        998    1    1    2    0    0  0.17463517399E+02  0.57944135017E+00  0.12660999773E+04  0.12662600296E+04  0.10000000000E+02 0.  1.
</event>
<event>
 5    1  0.1303633E-008  0.3796530E+03  0.7957747E-01  0.3452671E+00
         13   -1    0    0    0    0  0.00000000000E+00  0.00000000000E+00  0.14999999963E+04  0.15000000000E+04  0.10566000000E+00 0. -1.
        994   -1    0    0    0    0 -0.00000000000E+00 -0.00000000000E+00  0.11368683772E-12  0.17120000000E+03  0.17120000000E+03 0.  0.
         13    1    1    2    0    0  0.45305227281E+01  0.92935742365E+01  0.10380048786E+02  0.14651031879E+02  0.10566000000E+00 0. -1.
        994    1    1    2    0    0 -0.44524953785E+01 -0.11490149056E+02  0.48167617057E+01  0.17171048143E+03  0.17120000000E+03 0.  0.
        998    1    1    2    0    0 -0.78027349587E-01  0.21965748193E+01  0.14848031858E+04  0.14848384867E+04  0.10000000000E+02 0. -1.
</event>
<event>
 5    1  0.1303633E-008  0.3809641E+03  0.7957747E-01  0.3446971E+00
         13   -1    0    0    0    0  0.00000000000E+00  0.00000000000E+00  0.14999999963E+04  0.15000000000E+04  0.10566000000E+00 0.  1.
        994   -1    0    0    0    0 -0.00000000000E+00 -0.00000000000E+00  0.11368683772E-12  0.17120000000E+03  0.17120000000E+03 0.  0.
         13    1    1    2    0    0 -0.30030540561E+02  0.14791388501E+02  0.14123302072E+03  0.14514611895E+03  0.10566000000E+00 0.  1.
        994    1    1    2    0    0  0.30901421172E+02 -0.89941818203E+01  0.71065267084E+01  0.17434372905E+03  0.17120000000E+03 0.  0.
        998    1    1    2    0    0 -0.87088061073E+00 -0.57972066812E+01  0.13516604488E+04  0.13517101520E+04  0.10000000000E+02 0.  1.
</event>
<event>
 5    1  0.1303633E-008  0.3689084E+03  0.7957747E-01  0.3500923E+00
         13   -1    0    0    0    0  0.00000000000E+00  0.00000000000E+00  0.14999999963E+04  0.15000000000E+04  0.10566000000E+00 0.  1.
        994   -1    0    0    0    0 -0.00000000000E+00 -0.00000000000E+00  0.11368683772E-12  0.17120000000E+03  0.17120000000E+03 0.  0.
         13    1    1    2    0    0  0.30955817479E+02 -0.10839103350E+01  0.44556884133E+02  0.54265685152E+02  0.10566000000E+00 0.  1.
        994    1    1    2    0    0 -0.77592472882E+00  0.10792711369E+02  0.10770624736E+02  0.17187940841E+03  0.17120000000E+03 0.  0.
        998    1    1    2    0    0 -0.30179892750E+02 -0.97088010344E+01  0.14446724874E+04  0.14450549064E+04  0.10000000000E+02 0.  1.
</event>
<event>
 5    1  0.1303633E-008  0.3704147E+03  0.7957747E-01  0.3493987E+00
         13   -1    0    0    0    0  0.00000000000E+00  0.00000000000E+00  0.14999999963E+04  0.15000000000E+04  0.10566000000E+00 0.  1.
        994   -1    0    0    0    0 -0.00000000000E+00 -0.00000000000E+00  0.11368683772E-12  0.17120000000E+03  0.17120000000E+03 0.  0.
         13    1    1    2    0    0 -0.74609633905E+01 -0.24085928143E+02  0.30585171552E+02  0.39639144695E+02  0.10566000000E+00 0.  1.
        994    1    1    2    0    0  0.51900054883E+01  0.27687406391E+02  0.11797168911E+02  0.17390267917E+03  0.17120000000E+03 0.  0.
        998    1    1    2    0    0  0.22709579021E+01 -0.36014782482E+01  0.14576176558E+04  0.14576581761E+04  0.10000000000E+02 0.  1.
</event>
<event>
 5    1  0.1303633E-008  0.3746243E+03  0.7957747E-01  0.3474905E+00
         13   -1    0    0    0    0  0.00000000000E+00  0.00000000000E+00  0.14999999963E+04  0.15000000000E+04  0.10566000000E+00 0.  1.
        994   -1    0    0    0    0 -0.00000000000E+00 -0.00000000000E+00  0.11368683772E-12  0.17120000000E+03  0.17120000000E+03 0.  0.
         13    1    1    2    0    0 -0.20517114042E+03 -0.15604144686E+02  0.93058043023E+03  0.95305751898E+03  0.10566000000E+00 0.  1.
        994    1    1    2    0    0  0.20161270120E+03  0.15250168424E+02  0.16190215491E+03  0.31048670936E+03  0.17120000000E+03 0.  0.
        998    1    1    2    0    0  0.35584392174E+01  0.35397626210E+00  0.40751741114E+03  0.40765577167E+03  0.10000000000E+02 0.  0.
</event>
<event>
 5    1  0.1303633E-008  0.3853883E+03  0.7957747E-01  0.3428027E+00
         13   -1    0    0    0    0  0.00000000000E+00  0.00000000000E+00  0.14999999963E+04  0.15000000000E+04  0.10566000000E+00 0.  1.
        994   -1    0    0    0    0 -0.00000000000E+00 -0.00000000000E+00  0.11368683772E-12  0.17120000000E+03  0.17120000000E+03 0.  0.
         13    1    1    2    0    0  0.98142776879E+01  0.80707497942E+01  0.56423553970E+02  0.57836715462E+02  0.10566000000E+00 0.  1.
        994    1    1    2    0    0 -0.50131363695E+01 -0.69680108050E+01  0.16795421770E+01  0.17142329355E+03  0.17120000000E+03 0.  0.
        998    1    1    2    0    0 -0.48011413184E+01 -0.11027389892E+01  0.14418969001E+04  0.14419399910E+04  0.10000000000E+02 0.  1.
</event>
<event>
 5    1  0.1303633E-008  0.3765636E+03  0.7957747E-01  0.3466259E+00
         13   -1    0    0    0    0  0.00000000000E+00  0.00000000000E+00  0.14999999963E+04  0.15000000000E+04  0.10566000000E+00 0.  1.
        994   -1    0    0    0    0 -0.00000000000E+00 -0.00000000000E+00  0.11368683772E-12  0.17120000000E+03  0.17120000000E+03 0.  0.
         13    1    1    2    0    0 -0.56088649064E+02 -0.56929333348E+02  0.40350433758E+03  0.41134249374E+03  0.10566000000E+00 0.  1.
        994    1    1    2    0    0  0.54873341971E+02  0.54770495278E+02  0.26481292452E+02  0.18979354484E+03  0.17120000000E+03 0.  0.
        998    1    1    2    0    0  0.12153070928E+01  0.21588380697E+01  0.10700143662E+04  0.10700639614E+04  0.10000000000E+02 0.  0.
</event>
<event>
 5    1  0.1303633E-008  0.3685550E+03  0.7957747E-01  0.3502558E+00
         13   -1    0    0    0    0  0.00000000000E+00  0.00000000000E+00  0.14999999963E+04  0.15000000000E+04  0.10566000000E+00 0. -1.
        994   -1    0    0    0    0 -0.00000000000E+00 -0.00000000000E+00  0.11368683772E-12  0.17120000000E+03  0.17120000000E+03 0.  0.
         13    1    1    2    0    0  0.12960717370E+02 -0.11746536307E+02  0.10404537200E+02  0.20352564171E+02  0.10566000000E+00 0. -1.
        994    1    1    2    0    0 -0.19389101703E+02  0.42201730607E+01  0.11547538872E+02  0.17273254696E+03  0.17120000000E+03 0.  0.
        998    1    1    2    0    0  0.64283843333E+01  0.75263632459E+01  0.14780479202E+04  0.14781148889E+04  0.10000000000E+02 0. -1.
</event>
<event>
 5    1  0.1303633E-008  0.3742762E+03  0.7957747E-01  0.3476466E+00
         13   -1    0    0    0    0  0.00000000000E+00  0.00000000000E+00  0.14999999963E+04  0.15000000000E+04  0.10566000000E+00 0.  1.
        994   -1    0    0    0    0 -0.00000000000E+00 -0.00000000000E+00  0.11368683772E-12  0.17120000000E+03  0.17120000000E+03 0.  0.
         13    1    1    2    0    0 -0.30715721305E+01 -0.12100111986E+02  0.79067925965E+01  0.14777543728E+02  0.10566000000E+00 0.  1.
        994    1    1    2    0    0 -0.54075560376E+01  0.75197458322E+01  0.73432490888E+01  0.17160755096E+03  0.17120000000E+03 0.  0.
        998    1    1    2    0    0  0.84791281681E+01  0.45803661540E+01  0.14847499546E+04  0.14848149053E+04  0.10000000000E+02 0.  1.
</event>
<event>
 5    1  0.1303633E-008  0.3768877E+03  0.7957747E-01  0.3464823E+00
         13   -1    0    0    0    0  0.00000000000E+00  0.00000000000E+00  0.14999999963E+04  0.15000000000E+04  0.10566000000E+00 0.  1.
        994   -1    0    0    0    0 -0.00000000000E+00 -0.00000000000E+00  0.11368683772E-12  0.17120000000E+03  0.17120000000E+03 0.  0.
         13    1    1    2    0    0 -0.33248824234E+02 -0.10773550358E+02  0.33097288765E+02  0.48135178279E+02  0.10566000000E+00 0.  1.
        994    1    1    2    0    0  0.56969898601E+02  0.13185977360E+02  0.26982347434E+02  0.18291234627E+03  0.17120000000E+03 0.  0.
        998    1    1    2    0    0 -0.23721074367E+02 -0.24124270020E+01  0.14399203601E+04  0.14401524754E+04  0.10000000000E+02 0.  1.
</event>
<event>
 5    1  0.1303633E-008  0.3758578E+03  0.7957747E-01  0.3469395E+00
         13   -1    0    0    0    0  0.00000000000E+00  0.00000000000E+00  0.14999999963E+04  0.15000000000E+04  0.10566000000E+00 0.  1.
        994   -1    0    0    0    0 -0.00000000000E+00 -0.00000000000E+00  0.11368683772E-12  0.17120000000E+03  0.17120000000E+03 0.  0.
         13    1    1    2    0    0  0.95648205457E+02 -0.48025462587E+02  0.56816115234E+03  0.57815407156E+03  0.10566000000E+00 0.  1.
        994    1    1    2    0    0 -0.87758756013E+02  0.60390284989E+02  0.45729555945E+02  0.20675884036E+03  0.17120000000E+03 0.  0.
        998    1    1    2    0    0 -0.78894494434E+01 -0.12364822402E+02  0.88610928799E+03  0.88628708809E+03  0.10000000000E+02 0.  1.
</event>
<event>
 5    1  0.1303633E-008  0.3722430E+03  0.7957747E-01  0.3485645E+00
         13   -1    0    0    0    0  0.00000000000E+00  0.00000000000E+00  0.14999999963E+04  0.15000000000E+04  0.10566000000E+00 0. -1.
        994   -1    0    0    0    0 -0.00000000000E+00 -0.00000000000E+00  0.11368683772E-12  0.17120000000E+03  0.17120000000E+03 0.  0.
         13    1    1    2    0    0 -0.14216269265E+02 -0.70860587300E+02  0.29434570938E+03  0.30308865525E+03  0.10566000000E+00 0. -1.
        994    1    1    2    0    0  0.27150940783E+02  0.49677588975E+02  0.19179504030E+02  0.18133485547E+03  0.17120000000E+03 0.  0.
        998    1    1    2    0    0 -0.12934671517E+02  0.21182998325E+02  0.11864747829E+04  0.11867764893E+04  0.10000000000E+02 0. -1.
</event>
<event>
 5    1  0.1303633E-008  0.3794907E+03  0.7957747E-01  0.3453379E+00
         13   -1    0    0    0    0  0.00000000000E+00  0.00000000000E+00  0.14999999963E+04  0.15000000000E+04  0.10566000000E+00 0.  1.
        994   -1    0    0    0    0 -0.00000000000E+00 -0.00000000000E+00  0.11368683772E-12  0.17120000000E+03  0.17120000000E+03 0.  0.
         13    1    1    2    0    0 -0.42681325433E+02  0.66733722944E+00  0.49825752809E+02  0.65610652235E+02  0.10566000000E+00 0.  1.
        994    1    1    2    0    0  0.37849526391E+02  0.56500381268E+01  0.21363077668E+02  0.17672105326E+03  0.17120000000E+03 0.  0.
        998    1    1    2    0    0  0.48317990422E+01 -0.63173753562E+01  0.14288111658E+04  0.14288682945E+04  0.10000000000E+02 0.  1.
</event>
<event>
 5    1  0.1303633E-008  0.3702874E+03  0.7957747E-01  0.3494571E+00
         13   -1    0    0    0    0  0.00000000000E+00  0.00000000000E+00  0.14999999963E+04  0.15000000000E+04  0.10566000000E+00 0.  1.
        994   -1    0    0    0    0 -0.00000000000E+00 -0.00000000000E+00  0.11368683772E-12  0.17120000000E+03  0.17120000000E+03 0.  0.
         13    1    1    2    0    0 -0.46603411047E+02 -0.40188092235E+02  0.33449985827E+03  0.34011340318E+03  0.10566000000E+00 0.  1.
        994    1    1    2    0    0 -0.33091564561E+02 -0.44726491235E+01  0.12980329694E+02  0.17490850521E+03  0.17120000000E+03 0.  0.
        998    1    1    2    0    0  0.79694975608E+02  0.44660741358E+02  0.11525198083E+04  0.11561780916E+04  0.10000000000E+02 0.  1.
</event>
<event>
 5    1  0.1303633E-008  0.3842350E+03  0.7957747E-01  0.3432923E+00
         13   -1    0    0    0    0  0.00000000000E+00  0.00000000000E+00  0.14999999963E+04  0.15000000000E+04  0.10566000000E+00 0.  1.
        994   -1    0    0    0    0 -0.00000000000E+00 -0.00000000000E+00  0.11368683772E-12  0.17120000000E+03  0.17120000000E+03 0.  0.
         13    1    1    2    0    0 -0.12978213975E+02  0.40197442588E+01  0.46417992471E+02  0.48365623856E+02  0.10566000000E+00 0.  1.
        994    1    1    2    0    0  0.46990049061E+01 -0.18677393161E+01  0.20947503764E+01  0.17128746912E+03  0.17120000000E+03 0.  0.
        998    1    1    2    0    0  0.82792090685E+01 -0.21520049427E+01  0.14514872534E+04  0.14515469070E+04  0.10000000000E+02 0.  1.
</event>
<event>
 5    1  0.1303633E-008  0.3818009E+03  0.7957747E-01  0.3443354E+00
         13   -1    0    0    0    0  0.00000000000E+00  0.00000000000E+00  0.14999999963E+04  0.15000000000E+04  0.10566000000E+00 0.  1.
        994   -1    0    0    0    0 -0.00000000000E+00 -0.00000000000E+00  0.11368683772E-12  0.17120000000E+03  0.17120000000E+03 0.  0.
         13    1    1    2    0    0 -0.13923292071E+02 -0.16787738123E+02  0.69676548378E+02  0.73010401802E+02  0.10566000000E+00 0.  1.
        994    1    1    2    0    0  0.11541512153E+02  0.19685873059E+02  0.49592044604E+01  0.17278534026E+03  0.17120000000E+03 0.  0.
        998    1    1    2    0    0  0.23817799177E+01 -0.28981349364E+01  0.14253642434E+04  0.14254042579E+04  0.10000000000E+02 0.  1.
</event>
<event>
 5    1  0.1303633E-008  0.3856075E+03  0.7957747E-01  0.3427100E+00
         13   -1    0    0    0    0  0.00000000000E+00  0.00000000000E+00  0.14999999963E+04  0.15000000000E+04  0.10566000000E+00 0. -1.
        994   -1    0    0    0    0 -0.00000000000E+00 -0.00000000000E+00  0.11368683772E-12  0.17120000000E+03  0.17120000000E+03 0.  0.
         13    1    1    2    0    0  0.83268511843E+01 -0.11007525611E+02  0.73219316247E+02  0.74508935749E+02  0.10566000000E+00 0. -1.
        994    1    1    2    0    0 -0.11497361362E+02  0.33848011806E+00  0.17631926521E+01  0.17159502538E+03  0.17120000000E+03 0.  0.
        998    1    1    2    0    0  0.31705101779E+01  0.10669045492E+02  0.14250174874E+04  0.14250960389E+04  0.10000000000E+02 0. -1.
</event>
<event>
 5    1  0.1303633E-008  0.3764822E+03  0.7957747E-01  0.3466620E+00
         13   -1    0    0    0    0  0.00000000000E+00  0.00000000000E+00  0.14999999963E+04  0.15000000000E+04  0.10566000000E+00 0. -1.
        994   -1    0    0    0    0 -0.00000000000E+00 -0.00000000000E+00  0.11368683772E-12  0.17120000000E+03  0.17120000000E+03 0.  0.
         13    1    1    2    0    0 -0.75442132485E+01  0.30851489667E+02  0.28714144254E+02  0.42816384860E+02  0.10566000000E+00 0. -1.
        994    1    1    2    0    0  0.14615663273E+01 -0.30670704518E+02  0.17788433934E+02  0.17483905935E+03  0.17120000000E+03 0.  0.
        998    1    1    2    0    0  0.60826469212E+01 -0.18078514921E+00  0.14534974181E+04  0.14535445558E+04  0.10000000000E+02 0. -1.
</event>
<event>
 5    1  0.1303633E-008  0.3907458E+03  0.7957747E-01  0.3405663E+00
         13   -1    0    0    0    0  0.00000000000E+00  0.00000000000E+00  0.14999999963E+04  0.15000000000E+04  0.10566000000E+00 0.  1.
        994   -1    0    0    0    0 -0.00000000000E+00 -0.00000000000E+00  0.11368683772E-12  0.17120000000E+03  0.17120000000E+03 0.  0.
         13    1    1    2    0    0 -0.23178599153E+02 -0.32353215558E+02  0.27212793763E+02  0.48213331393E+02  0.10566000000E+00 0.  1.
        994    1    1    2    0    0  0.31250122920E+02  0.59526971375E+01  0.26187135362E+02  0.17608864485E+03  0.17120000000E+03 0.  0.
        998    1    1    2    0    0 -0.80715237674E+01  0.26400518421E+02  0.14466000672E+04  0.14468980238E+04  0.10000000000E+02 0.  1.
</event>
<event>
 5    1  0.1303633E-008  0.3839355E+03  0.7957747E-01  0.3434199E+00
         13   -1    0    0    0    0  0.00000000000E+00  0.00000000000E+00  0.14999999963E+04  0.15000000000E+04  0.10566000000E+00 0.  1.
        994   -1    0    0    0    0 -0.00000000000E+00 -0.00000000000E+00  0.11368683772E-12  0.17120000000E+03  0.17120000000E+03 0.  0.
         13    1    1    2    0    0  0.10233244177E+01  0.15987997772E+02  0.63098383959E+02  0.65100541379E+02  0.10566000000E+00 0.  1.
        994    1    1    2    0    0  0.47096412427E+01  0.14246245957E+01  0.22394542927E+01  0.17128533338E+03  0.17120000000E+03 0.  0.
        998    1    1    2    0    0 -0.57329656604E+01 -0.17412622367E+02  0.14346621580E+04  0.14348141252E+04  0.10000000000E+02 0.  1.
</event>
<event>
 5    1  0.1303633E-008  0.3844075E+03  0.7957747E-01  0.3432189E+00
         13   -1    0    0    0    0  0.00000000000E+00  0.00000000000E+00  0.14999999963E+04  0.15000000000E+04  0.10566000000E+00 0.  1.
        994   -1    0    0    0    0 -0.00000000000E+00 -0.00000000000E+00  0.11368683772E-12  0.17120000000E+03  0.17120000000E+03 0.  0.
         13    1    1    2    0    0 -0.87081751154E+01 -0.79395944495E+01  0.34272669488E+02  0.36242192425E+02  0.10566000000E+00 0.  1.
        994    1    1    2    0    0  0.18138802742E+02  0.56886154358E+01  0.31162127833E+01  0.17228037408E+03  0.17120000000E+03 0.  0.
        998    1    1    2    0    0 -0.94306276261E+01  0.22509790137E+01  0.14626111140E+04  0.14626774335E+04  0.10000000000E+02 0.  1.
</event>
<event>
 5    1  0.1303633E-008  0.3842636E+03  0.7957747E-01  0.3432801E+00
         13   -1    0    0    0    0  0.00000000000E+00  0.00000000000E+00  0.14999999963E+04  0.15000000000E+04  0.10566000000E+00 0. -1.
        994   -1    0    0    0    0 -0.00000000000E+00 -0.00000000000E+00  0.11368683772E-12  0.17120000000E+03  0.17120000000E+03 0.  0.
         13    1    1    2    0    0 -0.14968720080E+02  0.55659005965E+00  0.58710754938E+02  0.60591552899E+02  0.10566000000E+00 0. -1.
        994    1    1    2    0    0  0.74417214750E+00 -0.33754349192E+01  0.20355714649E+01  0.17124698802E+03  0.17120000000E+03 0.  0.
        998    1    1    2    0    0  0.14224547932E+02  0.28188448596E+01  0.14392536699E+04  0.14393614591E+04  0.10000000000E+02 0. -1.
</event>
<event>
 5    1  0.1303633E-008  0.3859298E+03  0.7957747E-01  0.3425738E+00
         13   -1    0    0    0    0  0.00000000000E+00  0.00000000000E+00  0.14999999963E+04  0.15000000000E+04  0.10566000000E+00 0. -1.
        994   -1    0    0    0    0 -0.00000000000E+00 -0.00000000000E+00  0.11368683772E-12  0.17120000000E+03  0.17120000000E+03 0.  0.
         13    1    1    2    0    0  0.13688962296E+02 -0.58889919156E+01  0.88423050941E+02  0.89670034104E+02  0.10566000000E+00 0. -1.
        994    1    1    2    0    0 -0.17519046248E+02  0.78353572714E+01  0.23777300891E+01  0.17228872106E+03  0.17120000000E+03 0.  0.
        998    1    1    2    0    0  0.38300839521E+01 -0.19463653558E+01  0.14091992152E+04  0.14092412448E+04  0.10000000000E+02 0. -1.
</event>
<event>
 5    1  0.1303633E-008  0.3818029E+03  0.7957747E-01  0.3443346E+00
         13   -1    0    0    0    0  0.00000000000E+00  0.00000000000E+00  0.14999999963E+04  0.15000000000E+04  0.10566000000E+00 0.  1.
        994   -1    0    0    0    0 -0.00000000000E+00 -0.00000000000E+00  0.11368683772E-12  0.17120000000E+03  0.17120000000E+03 0.  0.
         13    1    1    2    0    0  0.28739077808E+02 -0.64366646387E+00  0.14663520498E+03  0.14942638122E+03  0.10566000000E+00 0.  1.
        994    1    1    2    0    0  0.27877988253E+01  0.18418865586E+02  0.43798675031E+01  0.17226621744E+03  0.17120000000E+03 0.  0.
        998    1    1    2    0    0 -0.31526876633E+02 -0.17775199122E+02  0.13489849238E+04  0.13495074013E+04  0.10000000000E+02 0.  1.
</event>
<event>
 5    1  0.1303633E-008  0.3858850E+03  0.7957747E-01  0.3425927E+00
         13   -1    0    0    0    0  0.00000000000E+00  0.00000000000E+00  0.14999999963E+04  0.15000000000E+04  0.10566000000E+00 0. -1.
        994   -1    0    0    0    0 -0.00000000000E+00 -0.00000000000E+00  0.11368683772E-12  0.17120000000E+03  0.17120000000E+03 0.  0.
         13    1    1    2    0    0  0.10166409070E+02 -0.68650610649E+01  0.63228280093E+02  0.64407387032E+02  0.10566000000E+00 0. -1.
        994    1    1    2    0    0 -0.40635396861E+01  0.10877191087E+02  0.16336171688E+01  0.17160109075E+03  0.17120000000E+03 0.  0.
        998    1    1    2    0    0 -0.61028693836E+01 -0.40121300225E+01  0.14351380990E+04  0.14351915222E+04  0.10000000000E+02 0. -1.
</event>
<event>
 5    1  0.1303633E-008  0.3786063E+03  0.7957747E-01  0.3457249E+00
         13   -1    0    0    0    0  0.00000000000E+00  0.00000000000E+00  0.14999999963E+04  0.15000000000E+04  0.10566000000E+00 0. -1.
        994   -1    0    0    0    0 -0.00000000000E+00 -0.00000000000E+00  0.11368683772E-12  0.17120000000E+03  0.17120000000E+03 0.  0.
         13    1    1    2    0    0 -0.49825687202E+02 -0.16441171992E+02  0.26725933708E+03  0.27236092903E+03  0.10566000000E+00 0. -1.
        994    1    1    2    0    0  0.29148424936E+02  0.31929254117E+02  0.11141279444E+02  0.17692562294E+03  0.17120000000E+03 0.  0.
        998    1    1    2    0    0  0.20677262266E+02 -0.15488082124E+02  0.12215993798E+04  0.12219134480E+04  0.10000000000E+02 0. -1.
</event>
<event>
 5    1  0.1303633E-008  0.3825944E+03  0.7957747E-01  0.3439939E+00
         13   -1    0    0    0    0  0.00000000000E+00  0.00000000000E+00  0.14999999963E+04  0.15000000000E+04  0.10566000000E+00 0.  1.
        994   -1    0    0    0    0 -0.00000000000E+00 -0.00000000000E+00  0.11368683772E-12  0.17120000000E+03  0.17120000000E+03 0.  0.
         13    1    1    2    0    0 -0.22984938544E+01  0.10139127435E+02  0.17913111546E+02  0.20711728765E+02  0.10566000000E+00 0.  1.
        994    1    1    2    0    0 -0.44543856505E+01 -0.10190409256E+02  0.32392716230E+01  0.17159143007E+03  0.17120000000E+03 0.  0.
        998    1    1    2    0    0  0.67528795049E+01  0.51281820991E-01  0.14788476131E+04  0.14788968412E+04  0.10000000000E+02 0.  1.
</event>
<event>
 5    1  0.1303633E-008  0.3810686E+03  0.7957747E-01  0.3446519E+00
         13   -1    0    0    0    0  0.00000000000E+00  0.00000000000E+00  0.14999999963E+04  0.15000000000E+04  0.10566000000E+00 0.  1.
        994   -1    0    0    0    0 -0.00000000000E+00 -0.00000000000E+00  0.11368683772E-12  0.17120000000E+03  0.17120000000E+03 0.  0.
         13    1    1    2    0    0 -0.85199145804E+02 -0.83746787506E+01  0.21829506050E+03  0.23448192743E+03  0.10566000000E+00 0.  1.
        994    1    1    2    0    0  0.43279201266E+02  0.28202775239E+02  0.26687253422E+02  0.18080413515E+03  0.17120000000E+03 0.  0.
        998    1    1    2    0    0  0.41919944538E+02 -0.19828096489E+02  0.12550176824E+04  0.12559139374E+04  0.10000000000E+02 0.  1.
</event>
<event>
 5    1  0.1303633E-008  0.3794513E+03  0.7957747E-01  0.3453551E+00
         13   -1    0    0    0    0  0.00000000000E+00  0.00000000000E+00  0.14999999963E+04  0.15000000000E+04  0.10566000000E+00 0. -1.
        994   -1    0    0    0    0 -0.00000000000E+00 -0.00000000000E+00  0.11368683772E-12  0.17120000000E+03  0.17120000000E+03 0.  0.
         13    1    1    2    0    0  0.21916638212E+01 -0.42502421609E+02  0.19879368079E+03  0.20329829787E+03  0.10566000000E+00 0. -1.
        994    1    1    2    0    0  0.33450868546E+02  0.31548551720E+02  0.11523812853E+02  0.17764152100E+03  0.17120000000E+03 0.  0.
        998    1    1    2    0    0 -0.35642532367E+02  0.10953869889E+02  0.12896825026E+04  0.12902601811E+04  0.10000000000E+02 0. -1.
</event>
<event>
 5    1  0.1303633E-008  0.3735509E+03  0.7957747E-01  0.3479729E+00
         13   -1    0    0    0    0  0.00000000000E+00  0.00000000000E+00  0.14999999963E+04  0.15000000000E+04  0.10566000000E+00 0. -1.
        994   -1    0    0    0    0 -0.00000000000E+00 -0.00000000000E+00  0.11368683772E-12  0.17120000000E+03  0.17120000000E+03 0.  0.
         13    1    1    2    0    0  0.29391548959E+02  0.30079906845E+02  0.10923451853E+03  0.11705065206E+03  0.10566000000E+00 0. -1.
        994    1    1    2    0    0 -0.27117019673E+02 -0.30760401045E+02  0.13190483783E+02  0.17653601301E+03  0.17120000000E+03 0.  0.
        998    1    1    2    0    0 -0.22745292858E+01  0.68049419977E+00  0.13775749940E+04  0.13776133349E+04  0.10000000000E+02 0. -1.
</event>
<event>
 5    1  0.1303633E-008  0.3844659E+03  0.7957747E-01  0.3431941E+00
         13   -1    0    0    0    0  0.00000000000E+00  0.00000000000E+00  0.14999999963E+04  0.15000000000E+04  0.10566000000E+00 0.  1.
        994   -1    0    0    0    0 -0.00000000000E+00 -0.00000000000E+00  0.11368683772E-12  0.17120000000E+03  0.17120000000E+03 0.  0.
         13    1    1    2    0    0  0.11159519668E+02  0.16357143303E+00  0.32250405581E+02  0.34127136695E+02  0.10566000000E+00 0.  1.
        994    1    1    2    0    0 -0.91045924809E+01  0.57121137453E+01  0.22762234214E+01  0.17155215837E+03  0.17120000000E+03 0.  0.
        998    1    1    2    0    0 -0.20549271875E+01 -0.58756851783E+01  0.14654733673E+04  0.14655207049E+04  0.10000000000E+02 0.  1.
</event>
<event>
 5    1  0.1303633E-008  0.3784655E+03  0.7957747E-01  0.3457867E+00
         13   -1    0    0    0    0  0.00000000000E+00  0.00000000000E+00  0.14999999963E+04  0.15000000000E+04  0.10566000000E+00 0. -1.
        994   -1    0    0    0    0 -0.00000000000E+00 -0.00000000000E+00  0.11368683772E-12  0.17120000000E+03  0.17120000000E+03 0.  0.
         13    1    1    2    0    0  0.28212965122E+02 -0.34513764218E+02  0.21460137293E+03  0.21918241660E+03  0.10566000000E+00 0. -1.
        994    1    1    2    0    0  0.33470195545E+01  0.24448813175E+02  0.69584693787E+01  0.17310923517E+03  0.17120000000E+03 0.  0.
        998    1    1    2    0    0 -0.31559984677E+02  0.10064951043E+02  0.12784401540E+04  0.12789083482E+04  0.10000000000E+02 0. -1.
</event>
<event>
 5    1  0.1303633E-008  0.3778213E+03  0.7957747E-01  0.3460700E+00
         13   -1    0    0    0    0  0.00000000000E+00  0.00000000000E+00  0.14999999963E+04  0.15000000000E+04  0.10566000000E+00 0. -1.
        994   -1    0    0    0    0 -0.00000000000E+00 -0.00000000000E+00  0.11368683772E-12  0.17120000000E+03  0.17120000000E+03 0.  0.
         13    1    1    2    0    0 -0.91655980696E+01  0.47711596243E+02  0.20153058415E+03  0.20730410540E+03  0.10566000000E+00 0. -1.
        994    1    1    2    0    0  0.23728062332E+02 -0.40336883491E+02  0.12647100844E+02  0.17793109417E+03  0.17120000000E+03 0.  0.
        998    1    1    2    0    0 -0.14562464262E+02 -0.73747127517E+01  0.12858223113E+04  0.12859648004E+04  0.10000000000E+02 0.  1.
</event>
<event>
 5    1  0.1303633E-008  0.3794586E+03  0.7957747E-01  0.3453519E+00
         13   -1    0    0    0    0  0.00000000000E+00  0.00000000000E+00  0.14999999963E+04  0.15000000000E+04  0.10566000000E+00 0.  1.
        994   -1    0    0    0    0 -0.00000000000E+00 -0.00000000000E+00  0.11368683772E-12  0.17120000000E+03  0.17120000000E+03 0.  0.
         13    1    1    2    0    0 -0.33488489061E+02  0.59397698131E+01  0.12180512178E+03  0.12646445596E+03  0.10566000000E+00 0.  1.
        994    1    1    2    0    0  0.33103980445E+02  0.40934509991E+01  0.81417740348E+01  0.17460915883E+03  0.17120000000E+03 0.  0.
        998    1    1    2    0    0  0.38450861622E+00 -0.10033220812E+02  0.13700531005E+04  0.13701263852E+04  0.10000000000E+02 0.  1.
</event>
<event>
 5    1  0.1303633E-008  0.3855980E+03  0.7957747E-01  0.3427140E+00
         13   -1    0    0    0    0  0.00000000000E+00  0.00000000000E+00  0.14999999963E+04  0.15000000000E+04  0.10566000000E+00 0. -1.
        994   -1    0    0    0    0 -0.00000000000E+00 -0.00000000000E+00  0.11368683772E-12  0.17120000000E+03  0.17120000000E+03 0.  0.
         13    1    1    2    0    0 -0.85234971137E+02 -0.16154432666E+03  0.96375245690E+03  0.98090793611E+03  0.10566000000E+00 0. -1.
        994    1    1    2    0    0  0.96379219236E+02  0.19194716463E+03  0.17115428096E+03  0.32362925672E+03  0.17120000000E+03 0.  0.
        998    1    1    2    0    0 -0.11144248099E+02 -0.30402837971E+02  0.36509325842E+03  0.36666280717E+03  0.10000000000E+02 0. -1.
</event>
<event>
 5    1  0.1303633E-008  0.3845982E+03  0.7957747E-01  0.3431378E+00
         13   -1    0    0    0    0  0.00000000000E+00  0.00000000000E+00  0.14999999963E+04  0.15000000000E+04  0.10566000000E+00 0. -1.
        994   -1    0    0    0    0 -0.00000000000E+00 -0.00000000000E+00  0.11368683772E-12  0.17120000000E+03  0.17120000000E+03 0.  0.
         13    1    1    2    0    0 -0.78944933474E+01 -0.12159578131E+02  0.54602478965E+02  0.56494426616E+02  0.10566000000E+00 0. -1.
        994    1    1    2    0    0  0.76921836068E+01  0.16658423572E+02  0.29391866088E+01  0.17220555038E+03  0.17120000000E+03 0.  0.
        998    1    1    2    0    0  0.20230974065E+00 -0.44988454406E+01  0.14424583307E+04  0.14425000230E+04  0.10000000000E+02 0. -1.
</event>
<event>
 5    1  0.1303633E-008  0.3812388E+03  0.7957747E-01  0.3445782E+00
         13   -1    0    0    0    0  0.00000000000E+00  0.00000000000E+00  0.14999999963E+04  0.15000000000E+04  0.10566000000E+00 0.  1.
        994   -1    0    0    0    0 -0.00000000000E+00 -0.00000000000E+00  0.11368683772E-12  0.17120000000E+03  0.17120000000E+03 0.  0.
         13    1    1    2    0    0  0.16683857516E+02 -0.83503347481E+01  0.45736768154E+02  0.49395772261E+02  0.10566000000E+00 0.  1.
        994    1    1    2    0    0 -0.17001031606E+02  0.25679191613E+02  0.66732143483E+01  0.17407592524E+03  0.17120000000E+03 0.  0.
        998    1    1    2    0    0  0.31717408992E+00 -0.17328856865E+02  0.14475900138E+04  0.14477283025E+04  0.10000000000E+02 0.  1.
</event>
<event>
 5    1  0.1303633E-008  0.3790225E+03  0.7957747E-01  0.3455426E+00
         13   -1    0    0    0    0  0.00000000000E+00  0.00000000000E+00  0.14999999963E+04  0.15000000000E+04  0.10566000000E+00 0. -1.
        994   -1    0    0    0    0 -0.00000000000E+00 -0.00000000000E+00  0.11368683772E-12  0.17120000000E+03  0.17120000000E+03 0.  0.
         13    1    1    2    0    0 -0.59906461981E+02  0.47992256766E+02  0.44715958471E+03  0.45370006200E+03  0.10566000000E+00 0. -1.
        994    1    1    2    0    0  0.73676477301E+02 -0.31800382313E+02  0.26536205985E+02  0.19092694375E+03  0.17120000000E+03 0.  0.
        998    1    1    2    0    0 -0.13770015320E+02 -0.16191874453E+02  0.10263042056E+04  0.10265729942E+04  0.10000000000E+02 0. -1.
</event>
<event>
 5    1  0.1303633E-008  0.4634239E+03  0.7957747E-01  0.3152787E+00
         13   -1    0    0    0    0  0.00000000000E+00  0.00000000000E+00  0.14999999963E+04  0.15000000000E+04  0.10566000000E+00 0. -1.
        994   -1    0    0    0    0 -0.00000000000E+00 -0.00000000000E+00  0.11368683772E-12  0.17120000000E+03  0.17120000000E+03 0.  0.
         13    1    1    2    0    0 -0.11034133335E+02 -0.75913433870E+02  0.18073786438E+02  0.78811639120E+02  0.10566000000E+00 0. -1.
        994    1    1    2    0    0  0.25389482166E+01  0.68990393782E+02  0.99160809166E+02  0.20954337681E+03  0.17120000000E+03 0.  0.
        998    1    1    2    0    0  0.84951851187E+01  0.69230400881E+01  0.13827654007E+04  0.13828449841E+04  0.10000000000E+02 0. -1.
</event>
<event>
 5    1  0.1303633E-008  0.3851048E+03  0.7957747E-01  0.3429228E+00
         13   -1    0    0    0    0  0.00000000000E+00  0.00000000000E+00  0.14999999963E+04  0.15000000000E+04  0.10566000000E+00 0.  1.
        994   -1    0    0    0    0 -0.00000000000E+00 -0.00000000000E+00  0.11368683772E-12  0.17120000000E+03  0.17120000000E+03 0.  0.
         13    1    1    2    0    0 -0.12608882031E+02 -0.78725755817E+01  0.67534751570E+02  0.69151393232E+02  0.10566000000E+00 0.  1.
        994    1    1    2    0    0  0.14672088488E+02  0.57803818871E+01  0.23960752011E+01  0.17194145565E+03  0.17120000000E+03 0.  0.
        998    1    1    2    0    0 -0.20632064575E+01  0.20921936946E+01  0.14300691695E+04  0.14301071511E+04  0.10000000000E+02 0.  1.
</event>
<event>
 5    1  0.1303633E-008  0.3729009E+03  0.7957747E-01  0.3482664E+00
         13   -1    0    0    0    0  0.00000000000E+00  0.00000000000E+00  0.14999999963E+04  0.15000000000E+04  0.10566000000E+00 0.  1.
        994   -1    0    0    0    0 -0.00000000000E+00 -0.00000000000E+00  0.11368683772E-12  0.17120000000E+03  0.17120000000E+03 0.  0.
         13    1    1    2    0    0  0.50310571476E+02 -0.16901156969E+02  0.16463849259E+03  0.17298163809E+03  0.10566000000E+00 0.  1.
        994    1    1    2    0    0 -0.44609305594E+02  0.17426778019E+02  0.15654005290E+02  0.17846055760E+03  0.17120000000E+03 0.  0.
        998    1    1    2    0    0 -0.57012658816E+01 -0.52562105041E+00  0.13197074984E+04  0.13197578043E+04  0.10000000000E+02 0.  1.
</event>
<event>
 5    1  0.1303633E-008  0.3851476E+03  0.7957747E-01  0.3429047E+00
         13   -1    0    0    0    0  0.00000000000E+00  0.00000000000E+00  0.14999999963E+04  0.15000000000E+04  0.10566000000E+00 0. -1.
        994   -1    0    0    0    0 -0.00000000000E+00 -0.00000000000E+00  0.11368683772E-12  0.17120000000E+03  0.17120000000E+03 0.  0.
         13    1    1    2    0    0 -0.88354873605E+01  0.99300160099E+01  0.53152600649E+02  0.54789425756E+02  0.10566000000E+00 0. -1.
        994    1    1    2    0    0  0.10073887984E+02 -0.18201525055E+02  0.29807554523E+01  0.17248508236E+03  0.17120000000E+03 0.  0.
        998    1    1    2    0    0 -0.12384006239E+01  0.82715090451E+01  0.14438666402E+04  0.14439254919E+04  0.10000000000E+02 0. -1.
</event>
<event>
 5    1  0.1303633E-008  0.3793192E+03  0.7957747E-01  0.3454128E+00
         13   -1    0    0    0    0  0.00000000000E+00  0.00000000000E+00  0.14999999963E+04  0.15000000000E+04  0.10566000000E+00 0.  1.
        994   -1    0    0    0    0 -0.00000000000E+00 -0.00000000000E+00  0.11368683772E-12  0.17120000000E+03  0.17120000000E+03 0.  0.
         13    1    1    2    0    0 -0.50511827329E+01  0.96328043958E+01  0.11187438179E+02  0.15603695222E+02  0.10566000000E+00 0.  1.
        994    1    1    2    0    0 -0.53567644414E+01 -0.13560922381E+02  0.51897909726E+01  0.17189813109E+03  0.17120000000E+03 0.  0.
        998    1    1    2    0    0  0.10407947174E+02  0.39281179852E+01  0.14836227671E+04  0.14836981737E+04  0.10000000000E+02 0.  1.
</event>
<event>
 5    1  0.1303633E-008  0.3806125E+03  0.7957747E-01  0.3448496E+00
         13   -1    0    0    0    0  0.00000000000E+00  0.00000000000E+00  0.14999999963E+04  0.15000000000E+04  0.10566000000E+00 0. -1.
        994   -1    0    0    0    0 -0.00000000000E+00 -0.00000000000E+00  0.11368683772E-12  0.17120000000E+03  0.17120000000E+03 0.  0.
         13    1    1    2    0    0  0.15716960183E+02  0.22051559834E+02  0.93448663848E+02  0.97293155297E+02  0.10566000000E+00 0. -1.
        994    1    1    2    0    0 -0.19899341160E+02 -0.91591784002E+01  0.54268336486E+01  0.17268110739E+03  0.17120000000E+03 0.  0.
        998    1    1    2    0    0  0.41823809766E+01 -0.12892381434E+02  0.14011244988E+04  0.14012257373E+04  0.10000000000E+02 0. -1.
</event>
<event>
 5    1  0.1303633E-008  0.3827254E+03  0.7957747E-01  0.3439376E+00
         13   -1    0    0    0    0  0.00000000000E+00  0.00000000000E+00  0.14999999963E+04  0.15000000000E+04  0.10566000000E+00 0.  1.
        994   -1    0    0    0    0 -0.00000000000E+00 -0.00000000000E+00  0.11368683772E-12  0.17120000000E+03  0.17120000000E+03 0.  0.
         13    1    1    2    0    0  0.82073895448E+01 -0.24501487685E+02  0.11366235253E+03  0.11656253982E+03  0.10566000000E+00 0.  1.
        994    1    1    2    0    0 -0.13270178866E+02  0.20942595210E+02  0.48028193366E+01  0.17305258454E+03  0.17120000000E+03 0.  0.
        998    1    1    2    0    0  0.50627893212E+01  0.35588924744E+01  0.13815348244E+04  0.13815848756E+04  0.10000000000E+02 0.  1.
</event>
<event>
 5    1  0.1303633E-008  0.3794133E+03  0.7957747E-01  0.3453717E+00
         13   -1    0    0    0    0  0.00000000000E+00  0.00000000000E+00  0.14999999963E+04  0.15000000000E+04  0.10566000000E+00 0.  1.
        994   -1    0    0    0    0 -0.00000000000E+00 -0.00000000000E+00  0.11368683772E-12  0.17120000000E+03  0.17120000000E+03 0.  0.
         13    1    1    2    0    0 -0.33138319924E+01  0.16816227403E+02  0.28526527625E+02  0.33279737513E+02  0.10566000000E+00 0.  1.
        994    1    1    2    0    0  0.34471974162E+02 -0.37442277121E+02  0.13154729670E+02  0.17908860386E+03  0.17120000000E+03 0.  0.
        998    1    1    2    0    0 -0.31158142170E+02  0.20626049718E+02  0.14583187390E+04  0.14588316586E+04  0.10000000000E+02 0.  1.
</event>
<event>
 5    1  0.1303633E-008  0.3819417E+03  0.7957747E-01  0.3442747E+00
         13   -1    0    0    0    0  0.00000000000E+00  0.00000000000E+00  0.14999999963E+04  0.15000000000E+04  0.10566000000E+00 0. -1.
        994   -1    0    0    0    0 -0.00000000000E+00 -0.00000000000E+00  0.11368683772E-12  0.17120000000E+03  0.17120000000E+03 0.  0.
         13    1    1    2    0    0 -0.24902483838E+02 -0.25619977836E+02  0.16318921754E+03  0.16705462834E+03  0.10566000000E+00 0. -1.
        994    1    1    2    0    0  0.27577649059E+02  0.42985498561E+02  0.11868757568E+02  0.17904911957E+03  0.17120000000E+03 0.  0.
        998    1    1    2    0    0 -0.26751652213E+01 -0.17365520725E+02  0.13249420212E+04  0.13250962521E+04  0.10000000000E+02 0. -1.
</event>
<event>
 5    1  0.1718733E-008  0.3849919E+03  0.7957747E-01  0.3429707E+00
         13   -1    0    0    0    0  0.00000000000E+00  0.00000000000E+00  0.14999999963E+04  0.15000000000E+04  0.10566000000E+00 0.  1.
        994   -1    0    0    0    0 -0.00000000000E+00 -0.00000000000E+00  0.11368683772E-12  0.17120000000E+03  0.17120000000E+03 0.  0.
         13    1    1    2    0    0 -0.12918731521E+02 -0.28010264170E-01  0.52454580492E+02  0.54022112022E+02  0.10566000000E+00 0.  1.
        994    1    1    2    0    0  0.37931288399E+01 -0.48211362519E+01  0.17579293166E+01  0.17131888832E+03  0.17120000000E+03 0.  0.
        998    1    1    2    0    0  0.91256026816E+01  0.48491465161E+01  0.14457874865E+04  0.14458589997E+04  0.10000000000E+02 0.  1.
</event>
<event>
 5    1  0.1303633E-008  0.3796987E+03  0.7957747E-01  0.3452471E+00
         13   -1    0    0    0    0  0.00000000000E+00  0.00000000000E+00  0.14999999963E+04  0.15000000000E+04  0.10566000000E+00 0.  1.
        994   -1    0    0    0    0 -0.00000000000E+00 -0.00000000000E+00  0.11368683772E-12  0.17120000000E+03  0.17120000000E+03 0.  0.
         13    1    1    2    0    0 -0.26065308235E+01  0.21416026681E+02  0.52559935007E+02  0.56815474421E+02  0.10566000000E+00 0.  1.
        994    1    1    2    0    0  0.53111966579E+01 -0.14218133272E+02  0.50565373596E+01  0.17194584233E+03  0.17120000000E+03 0.  0.
        998    1    1    2    0    0 -0.27046658344E+01 -0.71978934089E+01  0.14423835239E+04  0.14424386833E+04  0.10000000000E+02 0.  1.
</event>
<event>
 5    1  0.1303633E-008  0.3844253E+03  0.7957747E-01  0.3432113E+00
         13   -1    0    0    0    0  0.00000000000E+00  0.00000000000E+00  0.14999999963E+04  0.15000000000E+04  0.10566000000E+00 0.  1.
        994   -1    0    0    0    0 -0.00000000000E+00 -0.00000000000E+00  0.11368683772E-12  0.17120000000E+03  0.17120000000E+03 0.  0.
         13    1    1    2    0    0  0.97407651295E+01  0.12632333980E+02  0.64498917182E+02  0.66442304662E+02  0.10566000000E+00 0.  1.
        994    1    1    2    0    0 -0.10954037956E+02 -0.10219032039E+02  0.26555215458E+01  0.17187469668E+03  0.17120000000E+03 0.  0.
        998    1    1    2    0    0  0.12132728265E+01 -0.24133019401E+01  0.14328455576E+04  0.14328829987E+04  0.10000000000E+02 0.  1.
</event>
<event>
 5    1  0.1303633E-008  0.3813200E+03  0.7957747E-01  0.3445431E+00
         13   -1    0    0    0    0  0.00000000000E+00  0.00000000000E+00  0.14999999963E+04  0.15000000000E+04  0.10566000000E+00 0.  1.
        994   -1    0    0    0    0 -0.00000000000E+00 -0.00000000000E+00  0.11368683772E-12  0.17120000000E+03  0.17120000000E+03 0.  0.
         13    1    1    2    0    0  0.12511290273E+02 -0.27820346286E+02  0.13080112365E+03  0.13431101654E+03  0.10566000000E+00 0.  1.
        994    1    1    2    0    0 -0.11378121497E+01  0.22391994441E+02  0.51432577452E+01  0.17273849927E+03  0.17120000000E+03 0.  0.
        998    1    1    2    0    0 -0.11373478123E+02  0.54283518458E+01  0.13640556149E+04  0.13641504842E+04  0.10000000000E+02 0.  1.
</event>
<event>
 5    1  0.1303633E-008  0.3720705E+03  0.7957747E-01  0.3486429E+00
         13   -1    0    0    0    0  0.00000000000E+00  0.00000000000E+00  0.14999999963E+04  0.15000000000E+04  0.10566000000E+00 0. -1.
        994   -1    0    0    0    0 -0.00000000000E+00 -0.00000000000E+00  0.11368683772E-12  0.17120000000E+03  0.17120000000E+03 0.  0.
         13    1    1    2    0    0 -0.85715160724E+01 -0.93096011298E+02  0.44929396659E+03  0.45891765904E+03  0.10566000000E+00 0. -1.
        994    1    1    2    0    0  0.84854041920E+01  0.25479404617E+02  0.14581722427E+02  0.17390591932E+03  0.17120000000E+03 0.  0.
        998    1    1    2    0    0  0.86111880385E-01  0.67616606680E+02  0.10361243073E+04  0.10383764216E+04  0.10000000000E+02 0. -1.
</event>
<event>
 5    1  0.1303633E-008  0.3857744E+03  0.7957747E-01  0.3426395E+00
         13   -1    0    0    0    0  0.00000000000E+00  0.00000000000E+00  0.14999999963E+04  0.15000000000E+04  0.10566000000E+00 0.  1.
        994   -1    0    0    0    0 -0.00000000000E+00 -0.00000000000E+00  0.11368683772E-12  0.17120000000E+03  0.17120000000E+03 0.  0.
         13    1    1    2    0    0 -0.89542290214E+01 -0.18003499563E+02  0.11798122940E+03  0.11968243759E+03  0.10566000000E+00 0.  1.
        994    1    1    2    0    0  0.33794872016E+02  0.37346084805E+02  0.96126160765E+01  0.17871392171E+03  0.17120000000E+03 0.  0.
        998    1    1    2    0    0 -0.24840642995E+02 -0.19342585242E+02  0.13724061508E+04  0.13728036407E+04  0.10000000000E+02 0.  1.
</event>
<event>
 5    1  0.1303633E-008  0.3823049E+03  0.7957747E-01  0.3441183E+00
         13   -1    0    0    0    0  0.00000000000E+00  0.00000000000E+00  0.14999999963E+04  0.15000000000E+04  0.10566000000E+00 0. -1.
        994   -1    0    0    0    0 -0.00000000000E+00 -0.00000000000E+00  0.11368683772E-12  0.17120000000E+03  0.17120000000E+03 0.  0.
         13    1    1    2    0    0 -0.67256388855E+00 -0.23311146655E+02  0.87090117684E+02  0.90158536273E+02  0.10566000000E+00 0. -1.
        994    1    1    2    0    0  0.70231593600E+00  0.21458393678E+02  0.45049326628E+01  0.17259979816E+03  0.17120000000E+03 0.  0.
        998    1    1    2    0    0 -0.29752047451E-01  0.18527529766E+01  0.14084049459E+04  0.14084416656E+04  0.10000000000E+02 0. -1.
</event>
<event>
 5    1  0.1303633E-008  0.3839299E+03  0.7957747E-01  0.3434223E+00
         13   -1    0    0    0    0  0.00000000000E+00  0.00000000000E+00  0.14999999963E+04  0.15000000000E+04  0.10566000000E+00 0. -1.
        994   -1    0    0    0    0 -0.00000000000E+00 -0.00000000000E+00  0.11368683772E-12  0.17120000000E+03  0.17120000000E+03 0.  0.
         13    1    1    2    0    0  0.89206184836E+01  0.77049878257E+01  0.32423589880E+02  0.34499921975E+02  0.10566000000E+00 0. -1.
        994    1    1    2    0    0  0.14133820525E+00 -0.19085470140E+01  0.21744339162E+01  0.17122450377E+03  0.17120000000E+03 0.  0.
        998    1    1    2    0    0 -0.90619566888E+01 -0.57964408117E+01  0.14654019725E+04  0.14654755743E+04  0.10000000000E+02 0. -1.
</event>
<event>
 5    1  0.1303633E-008  0.3790274E+03  0.7957747E-01  0.3455404E+00
         13   -1    0    0    0    0  0.00000000000E+00  0.00000000000E+00  0.14999999963E+04  0.15000000000E+04  0.10566000000E+00 0.  1.
        994   -1    0    0    0    0 -0.00000000000E+00 -0.00000000000E+00  0.11368683772E-12  0.17120000000E+03  0.17120000000E+03 0.  0.
         13    1    1    2    0    0 -0.14548325467E+02  0.12046712894E+02  0.35837825207E+02  0.40510960801E+02  0.10566000000E+00 0.  1.
        994    1    1    2    0    0  0.12310625314E+02 -0.17434690701E+02  0.61540659820E+01  0.17263496883E+03  0.17120000000E+03 0.  0.
        998    1    1    2    0    0  0.22377001531E+01  0.53879778073E+01  0.14580081051E+04  0.14580540704E+04  0.10000000000E+02 0.  1.
</event>
<event>
 5    1  0.1303633E-008  0.3747221E+03  0.7957747E-01  0.3474466E+00
         13   -1    0    0    0    0  0.00000000000E+00  0.00000000000E+00  0.14999999963E+04  0.15000000000E+04  0.10566000000E+00 0. -1.
        994   -1    0    0    0    0 -0.00000000000E+00 -0.00000000000E+00  0.11368683772E-12  0.17120000000E+03  0.17120000000E+03 0.  0.
         13    1    1    2    0    0  0.85071239719E+02 -0.11408607535E+03  0.83485280751E+03  0.84689548929E+03  0.10566000000E+00 0. -1.
        994    1    1    2    0    0 -0.64698030651E+02  0.10886878553E+03  0.63512823767E+02  0.22221963553E+03  0.17120000000E+03 0.  0.
        998    1    1    2    0    0 -0.20373209068E+02  0.52172898190E+01  0.60163436501E+03  0.60208487518E+03  0.10000000000E+02 0.  1.
</event>
<event>
 5    1  0.1303633E-008  0.3844099E+03  0.7957747E-01  0.3432179E+00
         13   -1    0    0    0    0  0.00000000000E+00  0.00000000000E+00  0.14999999963E+04  0.15000000000E+04  0.10566000000E+00 0.  1.
        994   -1    0    0    0    0 -0.00000000000E+00 -0.00000000000E+00  0.11368683772E-12  0.17120000000E+03  0.17120000000E+03 0.  0.
         13    1    1    2    0    0  0.16334119743E+02  0.96640638615E+01  0.81320751277E+02  0.83506127622E+02  0.10566000000E+00 0.  1.
        994    1    1    2    0    0 -0.27410337169E+02 -0.19972282799E+02  0.57225185432E+01  0.17462074872E+03  0.17120000000E+03 0.  0.
        998    1    1    2    0    0  0.11076217426E+02  0.10308218937E+02  0.14129567265E+04  0.14130731237E+04  0.10000000000E+02 0.  1.
</event>
<event>
 5    1  0.1303633E-008  0.3816075E+03  0.7957747E-01  0.3444189E+00
         13   -1    0    0    0    0  0.00000000000E+00  0.00000000000E+00  0.14999999963E+04  0.15000000000E+04  0.10566000000E+00 0.  1.
        994   -1    0    0    0    0 -0.00000000000E+00 -0.00000000000E+00  0.11368683772E-12  0.17120000000E+03  0.17120000000E+03 0.  0.
         13    1    1    2    0    0 -0.14730833102E+02  0.58732677235E+01  0.35411967645E+02  0.38800919244E+02  0.10566000000E+00 0.  1.
        994    1    1    2    0    0  0.19265983727E+02 -0.59459743903E+01  0.46768887940E+01  0.17244664691E+03  0.17120000000E+03 0.  0.
        998    1    1    2    0    0 -0.45351506252E+01  0.72706666894E-01  0.14599111398E+04  0.14599524338E+04  0.10000000000E+02 0.  1.
</event>
<event>
 5    1  0.1303633E-008  0.3796004E+03  0.7957747E-01  0.3452900E+00
         13   -1    0    0    0    0  0.00000000000E+00  0.00000000000E+00  0.14999999963E+04  0.15000000000E+04  0.10566000000E+00 0. -1.
        994   -1    0    0    0    0 -0.00000000000E+00 -0.00000000000E+00  0.11368683772E-12  0.17120000000E+03  0.17120000000E+03 0.  0.
         13    1    1    2    0    0 -0.50535288659E+01 -0.87743013964E+01  0.10254057187E+02  0.14411223814E+02  0.10566000000E+00 0. -1.
        994    1    1    2    0    0  0.28551623020E+01 -0.11054670657E+02  0.47714672426E+01  0.17164662710E+03  0.17120000000E+03 0.  0.
        998    1    1    2    0    0  0.21983665638E+01  0.19828972053E+02  0.14849744718E+04  0.14851421491E+04  0.10000000000E+02 0. -1.
</event>
<event>
 5    1  0.1303633E-008  0.3791910E+03  0.7957747E-01  0.3454689E+00
         13   -1    0    0    0    0  0.00000000000E+00  0.00000000000E+00  0.14999999963E+04  0.15000000000E+04  0.10566000000E+00 0.  1.
        994   -1    0    0    0    0 -0.00000000000E+00 -0.00000000000E+00  0.11368683772E-12  0.17120000000E+03  0.17120000000E+03 0.  0.
         13    1    1    2    0    0  0.13768442651E+02 -0.18176317456E+01  0.19497201637E+02  0.23937958015E+02  0.10566000000E+00 0.  1.
        994    1    1    2    0    0 -0.67839464248E+01 -0.44187898030E+01  0.47618036720E+01  0.17145746530E+03  0.17120000000E+03 0.  0.
        998    1    1    2    0    0 -0.69844962265E+01  0.62364215485E+01  0.14757409910E+04  0.14758045767E+04  0.10000000000E+02 0.  1.
</event>
<event>
 5    1  0.1303633E-008  0.3849723E+03  0.7957747E-01  0.3429790E+00
         13   -1    0    0    0    0  0.00000000000E+00  0.00000000000E+00  0.14999999963E+04  0.15000000000E+04  0.10566000000E+00 0. -1.
        994   -1    0    0    0    0 -0.00000000000E+00 -0.00000000000E+00  0.11368683772E-12  0.17120000000E+03  0.17120000000E+03 0.  0.
         13    1    1    2    0    0  0.13590477497E+02  0.10937647981E+02  0.83631248338E+02  0.85431434990E+02  0.10566000000E+00 0. -1.
        994    1    1    2    0    0 -0.23744635022E+02 -0.11681933126E+02  0.39504390182E+01  0.17327816141E+03  0.17120000000E+03 0.  0.
        998    1    1    2    0    0  0.10154157526E+02  0.74428514480E+00  0.14124183089E+04  0.14124904036E+04  0.10000000000E+02 0. -1.
</event>
<event>
 5    1  0.1303633E-008  0.3855245E+03  0.7957747E-01  0.3427451E+00
         13   -1    0    0    0    0  0.00000000000E+00  0.00000000000E+00  0.14999999963E+04  0.15000000000E+04  0.10566000000E+00 0.  1.
        994   -1    0    0    0    0 -0.00000000000E+00 -0.00000000000E+00  0.11368683772E-12  0.17120000000E+03  0.17120000000E+03 0.  0.
         13    1    1    2    0    0 -0.96377911119E+01 -0.96310345748E+01  0.69766401997E+02  0.71084498001E+02  0.10566000000E+00 0.  1.
        994    1    1    2    0    0 -0.36940824353E+01  0.11960782239E+02  0.18846187614E+01  0.17166740618E+03  0.17120000000E+03 0.  0.
        998    1    1    2    0    0  0.13331873547E+02 -0.23297476645E+01  0.14283489755E+04  0.14284480958E+04  0.10000000000E+02 0.  1.
</event>
<event>
 5    1  0.1303633E-008  0.3835088E+03  0.7957747E-01  0.3436021E+00
         13   -1    0    0    0    0  0.00000000000E+00  0.00000000000E+00  0.14999999963E+04  0.15000000000E+04  0.10566000000E+00 0.  1.
        994   -1    0    0    0    0 -0.00000000000E+00 -0.00000000000E+00  0.11368683772E-12  0.17120000000E+03  0.17120000000E+03 0.  0.
         13    1    1    2    0    0 -0.19428516466E+02  0.26064006379E+01  0.79287224835E+02  0.81674572312E+02  0.10566000000E+00 0.  1.
        994    1    1    2    0    0  0.14847529233E+02 -0.10375260929E+01  0.31046881155E+01  0.17187380450E+03  0.17120000000E+03 0.  0.
        998    1    1    2    0    0  0.45809872333E+01 -0.15688745450E+01  0.14176080833E+04  0.14176516232E+04  0.10000000000E+02 0.  1.
</event>
<event>
 5    1  0.1303633E-008  0.3825711E+03  0.7957747E-01  0.3440039E+00
         13   -1    0    0    0    0  0.00000000000E+00  0.00000000000E+00  0.14999999963E+04  0.15000000000E+04  0.10566000000E+00 0. -1.
        994   -1    0    0    0    0 -0.00000000000E+00 -0.00000000000E+00  0.11368683772E-12  0.17120000000E+03  0.17120000000E+03 0.  0.
         13    1    1    2    0    0 -0.28707196604E+02 -0.13256182378E+02  0.18666748159E+03  0.18932667364E+03  0.10566000000E+00 0. -1.
        994    1    1    2    0    0  0.25401108271E+02 -0.24027896969E+02  0.69039527160E+01  0.17487041115E+03  0.17120000000E+03 0.  0.
        998    1    1    2    0    0  0.33060883337E+01  0.37284079347E+02  0.13064285620E+04  0.13070029152E+04  0.10000000000E+02 0. -1.
</event>
<event>
 5    1  0.1303633E-008  0.3812404E+03  0.7957747E-01  0.3445775E+00
         13   -1    0    0    0    0  0.00000000000E+00  0.00000000000E+00  0.14999999963E+04  0.15000000000E+04  0.10566000000E+00 0.  1.
        994   -1    0    0    0    0 -0.00000000000E+00 -0.00000000000E+00  0.11368683772E-12  0.17120000000E+03  0.17120000000E+03 0.  0.
         13    1    1    2    0    0 -0.13614407054E+02  0.12044996297E+02  0.36814620399E+02  0.41058025456E+02  0.10566000000E+00 0.  1.
        994    1    1    2    0    0  0.88612337242E+02 -0.11039764554E+02  0.30527928505E+02  0.19548763933E+03  0.17120000000E+03 0.  0.
        998    1    1    2    0    0 -0.74997930188E+02 -0.10052317428E+01  0.14326574474E+04  0.14346543352E+04  0.10000000000E+02 0.  1.
</event>
<event>
 5    1  0.1303633E-008  0.3704034E+03  0.7957747E-01  0.3494039E+00
         13   -1    0    0    0    0  0.00000000000E+00  0.00000000000E+00  0.14999999963E+04  0.15000000000E+04  0.10566000000E+00 0.  1.
        994   -1    0    0    0    0 -0.00000000000E+00 -0.00000000000E+00  0.11368683772E-12  0.17120000000E+03  0.17120000000E+03 0.  0.
         13    1    1    2    0    0  0.18276010870E+03 -0.19558404956E+02  0.67351212598E+03  0.69814209409E+03  0.10566000000E+00 0.  1.
        994    1    1    2    0    0 -0.18599019213E+03  0.27136115946E+02  0.14746550647E+03  0.29391195273E+03  0.17120000000E+03 0.  0.
        998    1    1    2    0    0  0.32300834295E+01 -0.75777109904E+01  0.67902236383E+03  0.67914595318E+03  0.10000000000E+02 0. -1.
</event>
<event>
 5    1  0.1303633E-008  0.3811296E+03  0.7957747E-01  0.3446255E+00
         13   -1    0    0    0    0  0.00000000000E+00  0.00000000000E+00  0.14999999963E+04  0.15000000000E+04  0.10566000000E+00 0.  1.
        994   -1    0    0    0    0 -0.00000000000E+00 -0.00000000000E+00  0.11368683772E-12  0.17120000000E+03  0.17120000000E+03 0.  0.
         13    1    1    2    0    0 -0.83183938939E+01  0.31412719358E+02  0.14305163361E+03  0.14669606558E+03  0.10566000000E+00 0.  1.
        994    1    1    2    0    0  0.89473944653E+01 -0.21760981404E+02  0.54099391355E+01  0.17289390857E+03  0.17120000000E+03 0.  0.
        998    1    1    2    0    0 -0.62900057137E+00 -0.96517379544E+01  0.13515384235E+04  0.13516100258E+04  0.10000000000E+02 0.  1.
</event>
<event>
 5    1  0.1303633E-008  0.3835416E+03  0.7957747E-01  0.3435881E+00
         13   -1    0    0    0    0  0.00000000000E+00  0.00000000000E+00  0.14999999963E+04  0.15000000000E+04  0.10566000000E+00 0.  1.
        994   -1    0    0    0    0 -0.00000000000E+00 -0.00000000000E+00  0.11368683772E-12  0.17120000000E+03  0.17120000000E+03 0.  0.
         13    1    1    2    0    0 -0.29410477431E+01 -0.16455754390E+02  0.57688515207E+02  0.60061781236E+02  0.10566000000E+00 0.  1.
        994    1    1    2    0    0  0.19876669999E+01  0.14264269058E+02  0.30416234114E+01  0.17183163756E+03  0.17120000000E+03 0.  0.
        998    1    1    2    0    0  0.95338074319E+00  0.21914853320E+01  0.14392698577E+04  0.14393065812E+04  0.10000000000E+02 0.  1.
</event>
<event>
 5    1  0.1303633E-008  0.3800128E+03  0.7957747E-01  0.3451103E+00
         13   -1    0    0    0    0  0.00000000000E+00  0.00000000000E+00  0.14999999963E+04  0.15000000000E+04  0.10566000000E+00 0.  1.
        994   -1    0    0    0    0 -0.00000000000E+00 -0.00000000000E+00  0.11368683772E-12  0.17120000000E+03  0.17120000000E+03 0.  0.
         13    1    1    2    0    0 -0.26305734915E+02  0.22797002590E+02  0.14943957634E+03  0.15344019408E+03  0.10566000000E+00 0.  1.
        994    1    1    2    0    0  0.16342970916E+02 -0.59194122623E+01  0.51373128057E+01  0.17215680098E+03  0.17120000000E+03 0.  0.
        998    1    1    2    0    0  0.99627639995E+01 -0.16877590328E+02  0.13454231071E+04  0.13456030049E+04  0.10000000000E+02 0.  1.
</event>
<event>
 5    1  0.1303633E-008  0.3826475E+03  0.7957747E-01  0.3439711E+00
         13   -1    0    0    0    0  0.00000000000E+00  0.00000000000E+00  0.14999999963E+04  0.15000000000E+04  0.10566000000E+00 0. -1.
        994   -1    0    0    0    0 -0.00000000000E+00 -0.00000000000E+00  0.11368683772E-12  0.17120000000E+03  0.17120000000E+03 0.  0.
         13    1    1    2    0    0  0.22527453736E+02  0.74438395364E+01  0.10740014875E+03  0.10998954511E+03  0.10566000000E+00 0. -1.
        994    1    1    2    0    0 -0.30180049504E+01  0.10352185334E+00  0.28328492415E+01  0.17125006308E+03  0.17120000000E+03 0.  0.
        998    1    1    2    0    0 -0.19509448786E+02 -0.75473613897E+01  0.13897669983E+04  0.13899603918E+04  0.10000000000E+02 0. -1.
</event>
<event>
 5    1  0.1303633E-008  0.3730139E+03  0.7957747E-01  0.3482153E+00
         13   -1    0    0    0    0  0.00000000000E+00  0.00000000000E+00  0.14999999963E+04  0.15000000000E+04  0.10566000000E+00 0. -1.
        994   -1    0    0    0    0 -0.00000000000E+00 -0.00000000000E+00  0.11368683772E-12  0.17120000000E+03  0.17120000000E+03 0.  0.
         13    1    1    2    0    0  0.13027886506E+02 -0.90139296859E+01  0.12768326023E+02  0.20347433958E+02  0.10566000000E+00 0. -1.
        994    1    1    2    0    0 -0.13162718372E+02  0.81651143575E+01  0.85236514077E+01  0.17211048452E+03  0.17120000000E+03 0.  0.
        998    1    1    2    0    0  0.13483186545E+00  0.84881532841E+00  0.14787080188E+04  0.14787420815E+04  0.10000000000E+02 0. -1.
</event>
<event>
 5    1  0.1303633E-008  0.3696549E+03  0.7957747E-01  0.3497479E+00
         13   -1    0    0    0    0  0.00000000000E+00  0.00000000000E+00  0.14999999963E+04  0.15000000000E+04  0.10566000000E+00 0. -1.
        994   -1    0    0    0    0 -0.00000000000E+00 -0.00000000000E+00  0.11368683772E-12  0.17120000000E+03  0.17120000000E+03 0.  0.
         13    1    1    2    0    0  0.40466175076E+02  0.92720061917E+02  0.40649238459E+03  0.41889209960E+03  0.10566000000E+00 0. -1.
        994    1    1    2    0    0 -0.33256557779E+02 -0.89262584029E+02  0.41551973405E+02  0.20027434693E+03  0.17120000000E+03 0.  0.
        998    1    1    2    0    0 -0.72096172967E+01 -0.34574778874E+01  0.10519556383E+04  0.10520335535E+04  0.10000000000E+02 0. -1.
</event>
<event>
 5    1  0.1303633E-008  0.3723115E+03  0.7957747E-01  0.3485335E+00
         13   -1    0    0    0    0  0.00000000000E+00  0.00000000000E+00  0.14999999963E+04  0.15000000000E+04  0.10566000000E+00 0.  1.
        994   -1    0    0    0    0 -0.00000000000E+00 -0.00000000000E+00  0.11368683772E-12  0.17120000000E+03  0.17120000000E+03 0.  0.
         13    1    1    2    0    0 -0.21814935576E+02  0.17271662872E+02  0.45104556771E+02  0.52996546662E+02  0.10566000000E+00 0.  1.
        994    1    1    2    0    0  0.74961426599E+01 -0.17012461001E+02  0.92523140022E+01  0.17245480944E+03  0.17120000000E+03 0.  0.
        998    1    1    2    0    0  0.14318792916E+02 -0.25920187032E+00  0.14456431255E+04  0.14457486439E+04  0.10000000000E+02 0.  1.
</event>
<event>
 5    1  0.1303633E-008  0.3828952E+03  0.7957747E-01  0.3438648E+00
         13   -1    0    0    0    0  0.00000000000E+00  0.00000000000E+00  0.14999999963E+04  0.15000000000E+04  0.10566000000E+00 0. -1.
        994   -1    0    0    0    0 -0.00000000000E+00 -0.00000000000E+00  0.11368683772E-12  0.17120000000E+03  0.17120000000E+03 0.  0.
         13    1    1    2    0    0  0.22267263181E+02  0.17057556157E+01  0.92580304009E+02  0.95235836040E+02  0.10566000000E+00 0. -1.
        994    1    1    2    0    0 -0.13015916834E+02 -0.66615367899E+01  0.33869951272E+01  0.17185663182E+03  0.17120000000E+03 0.  0.
        998    1    1    2    0    0 -0.92513463472E+01  0.49557811742E+01  0.14040326971E+04  0.14041075321E+04  0.10000000000E+02 0. -1.
</event>
<event>
 5    1  0.1303633E-008  0.3839943E+03  0.7957747E-01  0.3433949E+00
         13   -1    0    0    0    0  0.00000000000E+00  0.00000000000E+00  0.14999999963E+04  0.15000000000E+04  0.10566000000E+00 0.  1.
        994   -1    0    0    0    0 -0.00000000000E+00 -0.00000000000E+00  0.11368683772E-12  0.17120000000E+03  0.17120000000E+03 0.  0.
         13    1    1    2    0    0  0.85772958045E+01 -0.11845518701E+02  0.45717912051E+02  0.48000260030E+02  0.10566000000E+00 0.  1.
        994    1    1    2    0    0 -0.23657060434E+02  0.17008936632E+02  0.49363698538E+01  0.17373188591E+03  0.17120000000E+03 0.  0.
        998    1    1    2    0    0  0.15079764629E+02 -0.51634179317E+01  0.14493457144E+04  0.14494678541E+04  0.10000000000E+02 0.  1.
</event>
<event>
 5    1  0.1303633E-008  0.3775317E+03  0.7957747E-01  0.3461977E+00
         13   -1    0    0    0    0  0.00000000000E+00  0.00000000000E+00  0.14999999963E+04  0.15000000000E+04  0.10566000000E+00 0. -1.
        994   -1    0    0    0    0 -0.00000000000E+00 -0.00000000000E+00  0.11368683772E-12  0.17120000000E+03  0.17120000000E+03 0.  0.
         13    1    1    2    0    0 -0.70586565500E+01  0.93791885089E+02  0.53174453910E+03  0.53999908182E+03  0.10566000000E+00 0. -1.
        994    1    1    2    0    0  0.31093624045E+01 -0.92529442765E+02  0.34841136489E+02  0.19772382432E+03  0.17120000000E+03 0.  0.
        998    1    1    2    0    0  0.39492941455E+01 -0.12624423241E+01  0.93341432069E+03  0.93347709386E+03  0.10000000000E+02 0. -1.
</event>
<event>
 5    1  0.1303633E-008  0.3734322E+03  0.7957747E-01  0.3480265E+00
         13   -1    0    0    0    0  0.00000000000E+00  0.00000000000E+00  0.14999999963E+04  0.15000000000E+04  0.10566000000E+00 0. -1.
        994   -1    0    0    0    0 -0.00000000000E+00 -0.00000000000E+00  0.11368683772E-12  0.17120000000E+03  0.17120000000E+03 0.  0.
         13    1    1    2    0    0 -0.48721893673E+02  0.38001162009E+02  0.36132051290E+03  0.36656573141E+03  0.10566000000E+00 0. -1.
        994    1    1    2    0    0 -0.11982415988E+02 -0.55275239271E+01  0.80813296640E+01  0.17189787579E+03  0.17120000000E+03 0.  0.
        998    1    1    2    0    0  0.60704309660E+02 -0.32473638082E+02  0.11305981537E+04  0.11327363928E+04  0.10000000000E+02 0. -1.
</event>
<event>
 5    1  0.1303633E-008  0.3861524E+03  0.7957747E-01  0.3424799E+00
         13   -1    0    0    0    0  0.00000000000E+00  0.00000000000E+00  0.14999999963E+04  0.15000000000E+04  0.10566000000E+00 0. -1.
        994   -1    0    0    0    0 -0.00000000000E+00 -0.00000000000E+00  0.11368683772E-12  0.17120000000E+03  0.17120000000E+03 0.  0.
         13    1    1    2    0    0  0.62060710230E+01 -0.89601764237E+01  0.59888698141E+02  0.60872550531E+02  0.10566000000E+00 0. -1.
        994    1    1    2    0    0  0.71868999916E+01  0.57988652717E+01  0.13385095894E+01  0.17145410458E+03  0.17120000000E+03 0.  0.
        998    1    1    2    0    0 -0.13392971015E+02  0.31613111520E+01  0.14387727885E+04  0.14388733449E+04  0.10000000000E+02 0. -1.
</event>
<event>
 5    1  0.1303633E-008  0.3838079E+03  0.7957747E-01  0.3434744E+00
         13   -1    0    0    0    0  0.00000000000E+00  0.00000000000E+00  0.14999999963E+04  0.15000000000E+04  0.10566000000E+00 0. -1.
        994   -1    0    0    0    0 -0.00000000000E+00 -0.00000000000E+00  0.11368683772E-12  0.17120000000E+03  0.17120000000E+03 0.  0.
         13    1    1    2    0    0  0.11099568137E+02  0.25555669759E+01  0.29646156982E+02  0.31759047895E+02  0.10566000000E+00 0. -1.
        994    1    1    2    0    0  0.19746299634E+01  0.15118515705E+01  0.22435524537E+01  0.17123276084E+03  0.17120000000E+03 0.  0.
        998    1    1    2    0    0 -0.13074198101E+02 -0.40674185464E+01  0.14681102868E+04  0.14682081913E+04  0.10000000000E+02 0. -1.
</event>
<event>
 5    1  0.1303633E-008  0.3761410E+03  0.7957747E-01  0.3468135E+00
         13   -1    0    0    0    0  0.00000000000E+00  0.00000000000E+00  0.14999999963E+04  0.15000000000E+04  0.10566000000E+00 0.  1.
        994   -1    0    0    0    0 -0.00000000000E+00 -0.00000000000E+00  0.11368683772E-12  0.17120000000E+03  0.17120000000E+03 0.  0.
         13    1    1    2    0    0  0.57137103377E+02 -0.68104962684E+01  0.92304873818E+02  0.10877146839E+03  0.10566000000E+00 0.  1.
        994    1    1    2    0    0 -0.93128734839E+02  0.21963474556E+02  0.47707371130E+02  0.20184347581E+03  0.17120000000E+03 0.  0.
        998    1    1    2    0    0  0.35991631461E+02 -0.15152978288E+02  0.13599877513E+04  0.13605850558E+04  0.10000000000E+02 0.  1.
</event>
<event>
 5    1  0.1303633E-008  0.3839242E+03  0.7957747E-01  0.3434248E+00
         13   -1    0    0    0    0  0.00000000000E+00  0.00000000000E+00  0.14999999963E+04  0.15000000000E+04  0.10566000000E+00 0. -1.
        994   -1    0    0    0    0 -0.00000000000E+00 -0.00000000000E+00  0.11368683772E-12  0.17120000000E+03  0.17120000000E+03 0.  0.
         13    1    1    2    0    0 -0.35313430271E+00 -0.15893949658E+02  0.57367553341E+02  0.59529737778E+02  0.10566000000E+00 0. -1.
        994    1    1    2    0    0  0.89314158952E+00  0.12163718855E+02  0.26562840144E+01  0.17165444825E+03  0.17120000000E+03 0.  0.
        998    1    1    2    0    0 -0.54000728681E+00  0.37302308028E+01  0.14399761589E+04  0.14400158140E+04  0.10000000000E+02 0. -1.
</event>
<event>
 5    1  0.1303633E-008  0.3827138E+03  0.7957747E-01  0.3439426E+00
         13   -1    0    0    0    0  0.00000000000E+00  0.00000000000E+00  0.14999999963E+04  0.15000000000E+04  0.10566000000E+00 0.  1.
        994   -1    0    0    0    0 -0.00000000000E+00 -0.00000000000E+00  0.11368683772E-12  0.17120000000E+03  0.17120000000E+03 0.  0.
         13    1    1    2    0    0 -0.53972008586E+01 -0.11628117181E+02  0.28637137783E+02  0.31375782232E+02  0.10566000000E+00 0.  1.
        994    1    1    2    0    0  0.26324144029E+01  0.90920531787E+01  0.30663714546E+01  0.17148888498E+03  0.17120000000E+03 0.  0.
        998    1    1    2    0    0  0.27647864557E+01  0.25360640018E+01  0.14682964870E+04  0.14683353328E+04  0.10000000000E+02 0.  1.
</event>
<event>
 5    1  0.1303633E-008  0.3834937E+03  0.7957747E-01  0.3436086E+00
         13   -1    0    0    0    0  0.00000000000E+00  0.00000000000E+00  0.14999999963E+04  0.15000000000E+04  0.10566000000E+00 0.  1.
        994   -1    0    0    0    0 -0.00000000000E+00 -0.00000000000E+00  0.11368683772E-12  0.17120000000E+03  0.17120000000E+03 0.  0.
         13    1    1    2    0    0 -0.98903290190E+01 -0.16654657458E+02  0.75819835170E+02  0.78255062407E+02  0.10566000000E+00 0.  1.
        994    1    1    2    0    0  0.94202599737E+01  0.15165003468E+02  0.34338427896E+01  0.17216256824E+03  0.17120000000E+03 0.  0.
        998    1    1    2    0    0  0.47006904532E+00  0.14896539901E+01  0.14207463183E+04  0.14207823693E+04  0.10000000000E+02 0.  0.
</event>
<event>
 5    1  0.1303633E-008  0.3764544E+03  0.7957747E-01  0.3466744E+00
         13   -1    0    0    0    0  0.00000000000E+00  0.00000000000E+00  0.14999999963E+04  0.15000000000E+04  0.10566000000E+00 0.  1.
        994   -1    0    0    0    0 -0.00000000000E+00 -0.00000000000E+00  0.11368683772E-12  0.17120000000E+03  0.17120000000E+03 0.  0.
         13    1    1    2    0    0  0.35219375587E+02 -0.14712644624E+01  0.96403719633E+02  0.10264627299E+03  0.10566000000E+00 0.  1.
        994    1    1    2    0    0 -0.35675558213E+02  0.61150509194E+01  0.10378257421E+02  0.17529200646E+03  0.17120000000E+03 0.  0.
        998    1    1    2    0    0  0.45618262679E+00 -0.46437864570E+01  0.13932180192E+04  0.13932617205E+04  0.10000000000E+02 0.  1.
</event>
<event>
 5    1  0.1303633E-008  0.3702417E+03  0.7957747E-01  0.3494781E+00
         13   -1    0    0    0    0  0.00000000000E+00  0.00000000000E+00  0.14999999963E+04  0.15000000000E+04  0.10566000000E+00 0. -1.
        994   -1    0    0    0    0 -0.00000000000E+00 -0.00000000000E+00  0.11368683772E-12  0.17120000000E+03  0.17120000000E+03 0.  0.
         13    1    1    2    0    0  0.20662400059E+02  0.51662993087E+02  0.17351639357E+03  0.18221950947E+03  0.10566000000E+00 0. -1.
        994    1    1    2    0    0 -0.36842304829E+02 -0.12212050850E+02  0.14365313028E+02  0.17613146178E+03  0.17120000000E+03 0.  0.
        998    1    1    2    0    0  0.16179904770E+02 -0.39450942237E+02  0.13121182897E+04  0.13128490287E+04  0.10000000000E+02 0. -1.
</event>
<event>
 5    1  0.1303633E-008  0.3844329E+03  0.7957747E-01  0.3432081E+00
         13   -1    0    0    0    0  0.00000000000E+00  0.00000000000E+00  0.14999999963E+04  0.15000000000E+04  0.10566000000E+00 0.  1.
        994   -1    0    0    0    0 -0.00000000000E+00 -0.00000000000E+00  0.11368683772E-12  0.17120000000E+03  0.17120000000E+03 0.  0.
         13    1    1    2    0    0  0.21312328101E+01 -0.13593762849E+02  0.48578367235E+02  0.50489617437E+02  0.10566000000E+00 0.  1.
        994    1    1    2    0    0 -0.29823728526E+01  0.11348597599E+02  0.23656933341E+01  0.17161795279E+03  0.17120000000E+03 0.  0.
        998    1    1    2    0    0  0.85114004251E+00  0.22451652508E+01  0.14490559357E+04  0.14490924298E+04  0.10000000000E+02 0.  1.
</event>
<event>
 5    1  0.1303633E-008  0.3837154E+03  0.7957747E-01  0.3435139E+00
         13   -1    0    0    0    0  0.00000000000E+00  0.00000000000E+00  0.14999999963E+04  0.15000000000E+04  0.10566000000E+00 0. -1.
        994   -1    0    0    0    0 -0.00000000000E+00 -0.00000000000E+00  0.11368683772E-12  0.17120000000E+03  0.17120000000E+03 0.  0.
         13    1    1    2    0    0 -0.15311592839E+02 -0.42770579727E+01  0.54612404329E+02  0.56879380893E+02  0.10566000000E+00 0. -1.
        994    1    1    2    0    0  0.11703489735E+02  0.40660627218E+01  0.27763448250E+01  0.17167018561E+03  0.17120000000E+03 0.  0.
        998    1    1    2    0    0  0.36081031045E+01  0.21099525095E+00  0.14426112471E+04  0.14426504335E+04  0.10000000000E+02 0. -1.
</event>
<event>
 5    1  0.1303633E-008  0.3762943E+03  0.7957747E-01  0.3467455E+00
         13   -1    0    0    0    0  0.00000000000E+00  0.00000000000E+00  0.14999999963E+04  0.15000000000E+04  0.10566000000E+00 0. -1.
        994   -1    0    0    0    0 -0.00000000000E+00 -0.00000000000E+00  0.11368683772E-12  0.17120000000E+03  0.17120000000E+03 0.  0.
         13    1    1    2    0    0  0.61685555262E+01 -0.53735992473E+02  0.96848977053E+02  0.11092945274E+03  0.10566000000E+00 0. -1.
        994    1    1    2    0    0 -0.13953206776E+01  0.37317673920E+02  0.19308381359E+02  0.17628615742E+03  0.17120000000E+03 0.  0.
        998    1    1    2    0    0 -0.47732348486E+01  0.16418318553E+02  0.13838426379E+04  0.13839843898E+04  0.10000000000E+02 0. -1.
</event>
<event>
 5    1  0.1303633E-008  0.3702433E+03  0.7957747E-01  0.3494773E+00
         13   -1    0    0    0    0  0.00000000000E+00  0.00000000000E+00  0.14999999963E+04  0.15000000000E+04  0.10566000000E+00 0. -1.
        994   -1    0    0    0    0 -0.00000000000E+00 -0.00000000000E+00  0.11368683772E-12  0.17120000000E+03  0.17120000000E+03 0.  0.
         13    1    1    2    0    0 -0.35873740172E+02  0.58331294780E+01  0.68085136493E+02  0.77178673276E+02  0.10566000000E+00 0. -1.
        994    1    1    2    0    0  0.27465996529E+02 -0.31313899623E-01  0.11752543422E+02  0.17378706575E+03  0.17120000000E+03 0.  0.
        998    1    1    2    0    0  0.84077436426E+01 -0.58018155784E+01  0.14201623164E+04  0.14202342610E+04  0.10000000000E+02 0. -1.
</event>
<event>
 5    1  0.1303633E-008  0.3844426E+03  0.7957747E-01  0.3432040E+00
         13   -1    0    0    0    0  0.00000000000E+00  0.00000000000E+00  0.14999999963E+04  0.15000000000E+04  0.10566000000E+00 0. -1.
        994   -1    0    0    0    0 -0.00000000000E+00 -0.00000000000E+00  0.11368683772E-12  0.17120000000E+03  0.17120000000E+03 0.  0.
         13    1    1    2    0    0  0.10662806276E+02  0.82719368932E+00  0.30305908696E+02  0.32137811888E+02  0.10566000000E+00 0. -1.
        994    1    1    2    0    0 -0.21111342835E+01  0.11471307118E+02  0.23554717219E+01  0.17161304153E+03  0.17120000000E+03 0.  0.
        998    1    1    2    0    0 -0.85516719922E+01 -0.12298500807E+02  0.14673386159E+04  0.14674491466E+04  0.10000000000E+02 0. -1.
</event>
<event>
 5    1  0.1303633E-008  0.3779332E+03  0.7957747E-01  0.3460207E+00
         13   -1    0    0    0    0  0.00000000000E+00  0.00000000000E+00  0.14999999963E+04  0.15000000000E+04  0.10566000000E+00 0. -1.
        994   -1    0    0    0    0 -0.00000000000E+00 -0.00000000000E+00  0.11368683772E-12  0.17120000000E+03  0.17120000000E+03 0.  0.
         13    1    1    2    0    0  0.21517323257E+02  0.14118897367E+02  0.61288755525E+02  0.66473010920E+02  0.10566000000E+00 0. -1.
        994    1    1    2    0    0 -0.26618243843E+02  0.49080059438E+01  0.76499497682E+01  0.17349519059E+03  0.17120000000E+03 0.  0.
        998    1    1    2    0    0  0.51009205861E+01 -0.19026903311E+02  0.14310612910E+04  0.14312317985E+04  0.10000000000E+02 0. -1.
</event>
<event>
 5    1  0.1303633E-008  0.2933707E+03  0.7957747E-01  0.3944513E+00
         13   -1    0    0    0    0  0.00000000000E+00  0.00000000000E+00  0.14999999963E+04  0.15000000000E+04  0.10566000000E+00 0.  1.
        994   -1    0    0    0    0 -0.00000000000E+00 -0.00000000000E+00  0.11368683772E-12  0.17120000000E+03  0.17120000000E+03 0.  0.
         13    1    1    2    0    0  0.21748367463E+03 -0.22901079436E+02  0.49476800021E+03  0.54094268954E+03  0.10566000000E+00 0.  1.
        994    1    1    2    0    0 -0.22258619160E+03 -0.24029518021E+02  0.25994421989E+03  0.38340900861E+03  0.17120000000E+03 0.  0.
        998    1    1    2    0    0  0.51025169760E+01  0.46930597457E+02  0.74528777618E+03  0.74684830185E+03  0.10000000000E+02 0.  1.
</event>
<event>
 5    1  0.1303633E-008  0.3836412E+03  0.7957747E-01  0.3435455E+00
         13   -1    0    0    0    0  0.00000000000E+00  0.00000000000E+00  0.14999999963E+04  0.15000000000E+04  0.10566000000E+00 0.  1.
        994   -1    0    0    0    0 -0.00000000000E+00 -0.00000000000E+00  0.11368683772E-12  0.17120000000E+03  0.17120000000E+03 0.  0.
         13    1    1    2    0    0  0.62119452726E+01  0.80797964410E+01  0.22210708759E+02  0.24437637411E+02  0.10566000000E+00 0.  1.
        994    1    1    2    0    0  0.46250276317E+01 -0.45279071297E+01  0.24446372067E+01  0.17133974750E+03  0.17120000000E+03 0.  0.
        998    1    1    2    0    0 -0.10836972904E+02 -0.35518893113E+01  0.14753446503E+04  0.14754226151E+04  0.10000000000E+02 0.  1.
</event>
<event>
 5    1  0.1303633E-008  0.3848811E+03  0.7957747E-01  0.3430177E+00
         13   -1    0    0    0    0  0.00000000000E+00  0.00000000000E+00  0.14999999963E+04  0.15000000000E+04  0.10566000000E+00 0. -1.
        994   -1    0    0    0    0 -0.00000000000E+00 -0.00000000000E+00  0.11368683772E-12  0.17120000000E+03  0.17120000000E+03 0.  0.
         13    1    1    2    0    0  0.34245277062E+01  0.10363543737E+02  0.34915053132E+02  0.36581450601E+02  0.10566000000E+00 0. -1.
        994    1    1    2    0    0 -0.60740539753E+01 -0.65733448743E+01  0.19527822104E+01  0.17144490763E+03  0.17120000000E+03 0.  0.
        998    1    1    2    0    0  0.26495262690E+01 -0.37901988632E+01  0.14631321609E+04  0.14631736418E+04  0.10000000000E+02 0. -1.
</event>
<event>
 5    1  0.1303633E-008  0.3815571E+03  0.7957747E-01  0.3444407E+00
         13   -1    0    0    0    0  0.00000000000E+00  0.00000000000E+00  0.14999999963E+04  0.15000000000E+04  0.10566000000E+00 0. -1.
        994   -1    0    0    0    0 -0.00000000000E+00 -0.00000000000E+00  0.11368683772E-12  0.17120000000E+03  0.17120000000E+03 0.  0.
         13    1    1    2    0    0 -0.71636729271E+01 -0.11821106878E+02  0.28514907780E+02  0.31688608479E+02  0.10566000000E+00 0. -1.
        994    1    1    2    0    0 -0.27103562022E+01 -0.37760751452E+01  0.34210599371E+01  0.17129725166E+03  0.17120000000E+03 0.  0.
        998    1    1    2    0    0  0.98740291293E+01  0.15597182023E+02  0.14680640286E+04  0.14682141399E+04  0.10000000000E+02 0. -1.
</event>
<event>
 5    1  0.1303633E-008  0.3745930E+03  0.7957747E-01  0.3475045E+00
         13   -1    0    0    0    0  0.00000000000E+00  0.00000000000E+00  0.14999999963E+04  0.15000000000E+04  0.10566000000E+00 0.  1.
        994   -1    0    0    0    0 -0.00000000000E+00 -0.00000000000E+00  0.11368683772E-12  0.17120000000E+03  0.17120000000E+03 0.  0.
         13    1    1    2    0    0 -0.45843552124E+02 -0.27955876456E+02  0.25114986039E+03  0.25682567208E+03  0.10566000000E+00 0.  1.
        994    1    1    2    0    0  0.60486274190E+01 -0.41435039446E+01  0.70708620630E+01  0.17150274519E+03  0.17120000000E+03 0.  0.
        998    1    1    2    0    0  0.39794924705E+02  0.32099380400E+02  0.12417792738E+04  0.12428715827E+04  0.10000000000E+02 0.  1.
</event>
<event>
 5    1  0.1303633E-008  0.3766018E+03  0.7957747E-01  0.3466090E+00
         13   -1    0    0    0    0  0.00000000000E+00  0.00000000000E+00  0.14999999963E+04  0.15000000000E+04  0.10566000000E+00 0.  1.
        994   -1    0    0    0    0 -0.00000000000E+00 -0.00000000000E+00  0.11368683772E-12  0.17120000000E+03  0.17120000000E+03 0.  0.
         13    1    1    2    0    0 -0.14720572586E+02 -0.38811971766E+02  0.13094663324E+03  0.13736846920E+03  0.10566000000E+00 0.  1.
        994    1    1    2    0    0  0.16753748128E+02  0.41789343959E+02  0.12742648773E+02  0.17747916059E+03  0.17120000000E+03 0.  0.
        998    1    1    2    0    0 -0.20331755418E+01 -0.29773721936E+01  0.13563107143E+04  0.13563523702E+04  0.10000000000E+02 0.  1.
</event>
<event>
 5    1  0.1303633E-008  0.3829720E+03  0.7957747E-01  0.3438319E+00
         13   -1    0    0    0    0  0.00000000000E+00  0.00000000000E+00  0.14999999963E+04  0.15000000000E+04  0.10566000000E+00 0.  1.
        994   -1    0    0    0    0 -0.00000000000E+00 -0.00000000000E+00  0.11368683772E-12  0.17120000000E+03  0.17120000000E+03 0.  0.
         13    1    1    2    0    0 -0.20518611004E+02  0.29569084659E+01  0.76844817194E+02  0.79592046078E+02  0.10566000000E+00 0.  1.
        994    1    1    2    0    0  0.21771165769E+02 -0.25408925504E+01  0.42324122110E+01  0.17264933567E+03  0.17120000000E+03 0.  0.
        998    1    1    2    0    0 -0.12525547646E+01 -0.41601591552E+00  0.14189227669E+04  0.14189586183E+04  0.10000000000E+02 0.  1.
</event>
<event>
 5    1  0.1303633E-008  0.3706641E+03  0.7957747E-01  0.3492845E+00
         13   -1    0    0    0    0  0.00000000000E+00  0.00000000000E+00  0.14999999963E+04  0.15000000000E+04  0.10566000000E+00 0.  1.
        994   -1    0    0    0    0 -0.00000000000E+00 -0.00000000000E+00  0.11368683772E-12  0.17120000000E+03  0.17120000000E+03 0.  0.
         13    1    1    2    0    0  0.37711206320E+02 -0.26688546450E+02  0.13003473702E+03  0.13799803473E+03  0.10566000000E+00 0.  1.
        994    1    1    2    0    0 -0.14186541981E+02 -0.14918787417E+02  0.10385830802E+02  0.17274586442E+03  0.17120000000E+03 0.  0.
        998    1    1    2    0    0 -0.23524664339E+02  0.41607333867E+02  0.13595794285E+04  0.13604561009E+04  0.10000000000E+02 0.  1.
</event>
<event>
 5    1  0.1303633E-008  0.4017508E+03  0.7957747E-01  0.3361595E+00
         13   -1    0    0    0    0  0.00000000000E+00  0.00000000000E+00  0.14999999963E+04  0.15000000000E+04  0.10566000000E+00 0. -1.
        994   -1    0    0    0    0 -0.00000000000E+00 -0.00000000000E+00  0.11368683772E-12  0.17120000000E+03  0.17120000000E+03 0.  0.
         13    1    1    2    0    0  0.44501792091E+02 -0.81157224008E+02  0.13632948253E+03  0.16478059194E+03  0.10566000000E+00 0. -1.
        994    1    1    2    0    0 -0.41262019626E+02  0.61028277890E+02  0.50561052120E+02  0.19311360635E+03  0.17120000000E+03 0.  0.
        998    1    1    2    0    0 -0.32397724649E+01  0.20128946118E+02  0.13131094616E+04  0.13133058017E+04  0.10000000000E+02 0. -1.
</event>
<event>
 5    1  0.1303633E-008  0.3789658E+03  0.7957747E-01  0.3455674E+00
         13   -1    0    0    0    0  0.00000000000E+00  0.00000000000E+00  0.14999999963E+04  0.15000000000E+04  0.10566000000E+00 0.  1.
        994   -1    0    0    0    0 -0.00000000000E+00 -0.00000000000E+00  0.11368683772E-12  0.17120000000E+03  0.17120000000E+03 0.  0.
         13    1    1    2    0    0  0.42443600668E+01  0.16412795551E+02  0.29644297059E+02  0.34149523604E+02  0.10566000000E+00 0.  1.
        994    1    1    2    0    0  0.17098923065E+02 -0.83258151437E+01  0.58703104714E+01  0.17235310532E+03  0.17120000000E+03 0.  0.
        998    1    1    2    0    0 -0.21343283132E+02 -0.80869804076E+01  0.14644853887E+04  0.14646973711E+04  0.10000000000E+02 0.  1.
</event>
<event>
 5    1  0.1303633E-008  0.3810417E+03  0.7957747E-01  0.3446635E+00
         13   -1    0    0    0    0  0.00000000000E+00  0.00000000000E+00  0.14999999963E+04  0.15000000000E+04  0.10566000000E+00 0.  1.
        994   -1    0    0    0    0 -0.00000000000E+00 -0.00000000000E+00  0.11368683772E-12  0.17120000000E+03  0.17120000000E+03 0.  0.
         13    1    1    2    0    0  0.15871793158E+02  0.35841746359E+02  0.19734745760E+03  0.20120282003E+03  0.10566000000E+00 0.  1.
        994    1    1    2    0    0 -0.13923589649E+02 -0.28574746597E+02  0.69815793628E+01  0.17426578821E+03  0.17120000000E+03 0.  0.
        998    1    1    2    0    0 -0.19482035086E+01 -0.72669997628E+01  0.12956709593E+04  0.12957313918E+04  0.10000000000E+02 0.  0.
</event>
<event>
 5    1  0.1303633E-008  0.3787609E+03  0.7957747E-01  0.3456572E+00
         13   -1    0    0    0    0  0.00000000000E+00  0.00000000000E+00  0.14999999963E+04  0.15000000000E+04  0.10566000000E+00 0.  1.
        994   -1    0    0    0    0 -0.00000000000E+00 -0.00000000000E+00  0.11368683772E-12  0.17120000000E+03  0.17120000000E+03 0.  0.
         13    1    1    2    0    0 -0.13491098703E+02  0.86628751618E+01  0.25567047310E+02  0.30178472832E+02  0.10566000000E+00 0.  1.
        994    1    1    2    0    0  0.23760003930E+01 -0.29247697235E+01  0.48076163010E+01  0.17130893973E+03  0.17120000000E+03 0.  0.
        998    1    1    2    0    0  0.11115098310E+02 -0.57381054383E+01  0.14696253327E+04  0.14697125874E+04  0.10000000000E+02 0.  1.
</event>
<event>
 5    1  0.1303633E-008  0.3840968E+03  0.7957747E-01  0.3433512E+00
         13   -1    0    0    0    0  0.00000000000E+00  0.00000000000E+00  0.14999999963E+04  0.15000000000E+04  0.10566000000E+00 0.  1.
        994   -1    0    0    0    0 -0.00000000000E+00 -0.00000000000E+00  0.11368683772E-12  0.17120000000E+03  0.17120000000E+03 0.  0.
         13    1    1    2    0    0 -0.14141853471E+02 -0.35178213348E+01  0.53037248617E+02  0.55002981660E+02  0.10566000000E+00 0.  1.
        994    1    1    2    0    0 -0.43076600922E+00  0.47830658509E+01  0.21552824123E+01  0.17128090530E+03  0.17120000000E+03 0.  0.
        998    1    1    2    0    0  0.14572619480E+02 -0.12652445161E+01  0.14448074652E+04  0.14449161130E+04  0.10000000000E+02 0.  1.
</event>
<event>
 5    1  0.1303633E-008  0.3803764E+03  0.7957747E-01  0.3449521E+00
         13   -1    0    0    0    0  0.00000000000E+00  0.00000000000E+00  0.14999999963E+04  0.15000000000E+04  0.10566000000E+00 0. -1.
        994   -1    0    0    0    0 -0.00000000000E+00 -0.00000000000E+00  0.11368683772E-12  0.17120000000E+03  0.17120000000E+03 0.  0.
         13    1    1    2    0    0 -0.78846708446E+00 -0.23950778334E+02  0.71820977858E+02  0.75713443243E+02  0.10566000000E+00 0. -1.
        994    1    1    2    0    0  0.14484095496E+02  0.13489911115E+02  0.52523549342E+01  0.17242039890E+03  0.17120000000E+03 0.  0.
        998    1    1    2    0    0 -0.13695628412E+02  0.10460867219E+02  0.14229266635E+04  0.14230661579E+04  0.10000000000E+02 0. -1.
</event>
<event>
 5    1  0.1303633E-008  0.3691404E+03  0.7957747E-01  0.3499851E+00
         13   -1    0    0    0    0  0.00000000000E+00  0.00000000000E+00  0.14999999963E+04  0.15000000000E+04  0.10566000000E+00 0. -1.
        994   -1    0    0    0    0 -0.00000000000E+00 -0.00000000000E+00  0.11368683772E-12  0.17120000000E+03  0.17120000000E+03 0.  0.
         13    1    1    2    0    0  0.35509537151E+01 -0.15792359087E+02  0.84818764651E+01  0.18274607252E+02  0.10566000000E+00 0. -1.
        994    1    1    2    0    0 -0.37932191019E+02  0.31456423247E+02  0.18188086497E+02  0.17907709002E+03  0.17120000000E+03 0.  0.
        998    1    1    2    0    0  0.34381237304E+02 -0.15664064160E+02  0.14733300333E+04  0.14738483027E+04  0.10000000000E+02 0. -1.
</event>
<event>
 5    1  0.1303633E-008  0.3718296E+03  0.7957747E-01  0.3487524E+00
         13   -1    0    0    0    0  0.00000000000E+00  0.00000000000E+00  0.14999999963E+04  0.15000000000E+04  0.10566000000E+00 0. -1.
        994   -1    0    0    0    0 -0.00000000000E+00 -0.00000000000E+00  0.11368683772E-12  0.17120000000E+03  0.17120000000E+03 0.  0.
         13    1    1    2    0    0  0.15380353887E+02  0.44480161211E+02  0.12382555876E+03  0.13246818559E+03  0.10566000000E+00 0. -1.
        994    1    1    2    0    0 -0.31751934973E+02 -0.32074971578E+02  0.15347561351E+02  0.17771318695E+03  0.17120000000E+03 0.  0.
        998    1    1    2    0    0  0.16371581086E+02 -0.12405189634E+02  0.13608268762E+04  0.13610186275E+04  0.10000000000E+02 0. -1.
</event>
<event>
 5    1  0.1303633E-008  0.3707536E+03  0.7957747E-01  0.3492435E+00
         13   -1    0    0    0    0  0.00000000000E+00  0.00000000000E+00  0.14999999963E+04  0.15000000000E+04  0.10566000000E+00 0. -1.
        994   -1    0    0    0    0 -0.00000000000E+00 -0.00000000000E+00  0.11368683772E-12  0.17120000000E+03  0.17120000000E+03 0.  0.
         13    1    1    2    0    0  0.16210029173E+03  0.22637823441E+02  0.65288536726E+03  0.67308861941E+03  0.10566000000E+00 0. -1.
        994    1    1    2    0    0 -0.17116868724E+03 -0.48941921478E+02  0.12762343614E+03  0.27801297204E+03  0.17120000000E+03 0.  0.
        998    1    1    2    0    0  0.90683955149E+01  0.26304098036E+02  0.71949119288E+03  0.72009840855E+03  0.10000000000E+02 0. -1.
</event>
<event>
 5    1  0.1303633E-008  0.3825641E+03  0.7957747E-01  0.3440069E+00
         13   -1    0    0    0    0  0.00000000000E+00  0.00000000000E+00  0.14999999963E+04  0.15000000000E+04  0.10566000000E+00 0. -1.
        994   -1    0    0    0    0 -0.00000000000E+00 -0.00000000000E+00  0.11368683772E-12  0.17120000000E+03  0.17120000000E+03 0.  0.
         13    1    1    2    0    0 -0.52061805755E+02 -0.41055556704E+02  0.13414751227E+03  0.14963808529E+03  0.10566000000E+00 0. -1.
        994    1    1    2    0    0 -0.26300243146E+01  0.14207110206E+02  0.18506983982E+02  0.17280251001E+03  0.17120000000E+03 0.  0.
        998    1    1    2    0    0  0.54691830069E+02  0.26848446498E+02  0.13473455000E+04  0.13487594047E+04  0.10000000000E+02 0. -1.
</event>
<event>
 5    1  0.1303633E-008  0.3853872E+03  0.7957747E-01  0.3428031E+00
         13   -1    0    0    0    0  0.00000000000E+00  0.00000000000E+00  0.14999999963E+04  0.15000000000E+04  0.10566000000E+00 0. -1.
        994   -1    0    0    0    0 -0.00000000000E+00 -0.00000000000E+00  0.11368683772E-12  0.17120000000E+03  0.17120000000E+03 0.  0.
         13    1    1    2    0    0 -0.78122496213E+01 -0.11410193197E+02  0.64819186929E+02  0.66277914203E+02  0.10566000000E+00 0. -1.
        994    1    1    2    0    0  0.49075021994E+01  0.13063301237E+02  0.20778663003E+01  0.17178035669E+03  0.17120000000E+03 0.  0.
        998    1    1    2    0    0  0.29047474219E+01 -0.16531080401E+01  0.14331029430E+04  0.14331417291E+04  0.10000000000E+02 0. -1.
</event>
<event>
 5    1  0.1303633E-008  0.3761807E+03  0.7957747E-01  0.3467959E+00
         13   -1    0    0    0    0  0.00000000000E+00  0.00000000000E+00  0.14999999963E+04  0.15000000000E+04  0.10566000000E+00 0.  1.
        994   -1    0    0    0    0 -0.00000000000E+00 -0.00000000000E+00  0.11368683772E-12  0.17120000000E+03  0.17120000000E+03 0.  0.
         13    1    1    2    0    0 -0.28331362541E+02  0.40589378539E+02  0.76641267916E+02  0.91236280423E+02  0.10566000000E+00 0.  1.
        994    1    1    2    0    0  0.28175659080E+02 -0.43186192343E+02  0.23808287371E+02  0.18037513554E+03  0.17120000000E+03 0.  0.
        998    1    1    2    0    0  0.15570346146E+00  0.25968138045E+01  0.13995504410E+04  0.13995885840E+04  0.10000000000E+02 0.  1.
</event>
<event>
 5    1  0.1303633E-008  0.3757316E+03  0.7957747E-01  0.3469957E+00
         13   -1    0    0    0    0  0.00000000000E+00  0.00000000000E+00  0.14999999963E+04  0.15000000000E+04  0.10566000000E+00 0.  1.
        994   -1    0    0    0    0 -0.00000000000E+00 -0.00000000000E+00  0.11368683772E-12  0.17120000000E+03  0.17120000000E+03 0.  0.
         13    1    1    2    0    0  0.84241898231E+01 -0.10199950022E+02  0.11507629120E+02  0.17534042507E+02  0.10566000000E+00 0.  1.
        994    1    1    2    0    0  0.42499592287E+01 -0.65050404441E+01  0.65082642867E+01  0.17149978195E+03  0.17120000000E+03 0.  0.
        998    1    1    2    0    0 -0.12674149052E+02  0.16704990466E+02  0.14819841029E+04  0.14821661755E+04  0.10000000000E+02 0.  1.
</event>
<event>
 5    1  0.1303633E-008  0.3846843E+03  0.7957747E-01  0.3431012E+00
         13   -1    0    0    0    0  0.00000000000E+00  0.00000000000E+00  0.14999999963E+04  0.15000000000E+04  0.10566000000E+00 0. -1.
        994   -1    0    0    0    0 -0.00000000000E+00 -0.00000000000E+00  0.11368683772E-12  0.17120000000E+03  0.17120000000E+03 0.  0.
         13    1    1    2    0    0  0.12152520270E+02 -0.12066245146E+02  0.80654046671E+02  0.82452194812E+02  0.10566000000E+00 0. -1.
        994    1    1    2    0    0 -0.13897174961E+02  0.51096556217E+01  0.25090126262E+01  0.17185742695E+03  0.17120000000E+03 0.  0.
        998    1    1    2    0    0  0.17446546907E+01  0.69565895247E+01  0.14168369370E+04  0.14168903782E+04  0.10000000000E+02 0. -1.
</event>
<event>
 5    1  0.1303633E-008  0.3835497E+03  0.7957747E-01  0.3435846E+00
         13   -1    0    0    0    0  0.00000000000E+00  0.00000000000E+00  0.14999999963E+04  0.15000000000E+04  0.10566000000E+00 0.  1.
        994   -1    0    0    0    0 -0.00000000000E+00 -0.00000000000E+00  0.11368683772E-12  0.17120000000E+03  0.17120000000E+03 0.  0.
         13    1    1    2    0    0 -0.18404720197E+02  0.11374974179E+02  0.97919888442E+02  0.10028180034E+03  0.10566000000E+00 0.  1.
        994    1    1    2    0    0  0.13157034624E+02 -0.74291275810E+01  0.31065986628E+01  0.17189354395E+03  0.17120000000E+03 0.  0.
        998    1    1    2    0    0  0.52476855734E+01 -0.39458465981E+01  0.13989735092E+04  0.13990246557E+04  0.10000000000E+02 0.  1.
</event>
<event>
 5    1  0.1303633E-008  0.3801855E+03  0.7957747E-01  0.3450351E+00
         13   -1    0    0    0    0  0.00000000000E+00  0.00000000000E+00  0.14999999963E+04  0.15000000000E+04  0.10566000000E+00 0. -1.
        994   -1    0    0    0    0 -0.00000000000E+00 -0.00000000000E+00  0.11368683772E-12  0.17120000000E+03  0.17120000000E+03 0.  0.
         13    1    1    2    0    0  0.12740826799E+02 -0.56961696654E+02  0.34802720921E+03  0.35288796106E+03  0.10566000000E+00 0. -1.
        994    1    1    2    0    0 -0.76491785108E+01  0.51598948637E+02  0.13184002979E+02  0.17945534087E+03  0.17120000000E+03 0.  0.
        998    1    1    2    0    0 -0.50916482887E+01  0.53627480169E+01  0.11387887841E+04  0.11388566981E+04  0.10000000000E+02 0. -1.
</event>
<event>
 5    1  0.1303633E-008  0.3843554E+03  0.7957747E-01  0.3432411E+00
         13   -1    0    0    0    0  0.00000000000E+00  0.00000000000E+00  0.14999999963E+04  0.15000000000E+04  0.10566000000E+00 0.  1.
        994   -1    0    0    0    0 -0.00000000000E+00 -0.00000000000E+00  0.11368683772E-12  0.17120000000E+03  0.17120000000E+03 0.  0.
         13    1    1    2    0    0  0.16706538166E+02  0.73432393450E+01  0.82762533895E+02  0.84750691810E+02  0.10566000000E+00 0.  1.
        994    1    1    2    0    0 -0.20487918027E+02  0.63484474979E+01  0.34681188909E+01  0.17257324653E+03  0.17120000000E+03 0.  0.
        998    1    1    2    0    0  0.37813798610E+01 -0.13691686843E+02  0.14137693435E+04  0.14138760617E+04  0.10000000000E+02 0.  1.
</event>
<event>
 5    1  0.1303633E-008  0.3849913E+03  0.7957747E-01  0.3429709E+00
         13   -1    0    0    0    0  0.00000000000E+00  0.00000000000E+00  0.14999999963E+04  0.15000000000E+04  0.10566000000E+00 0. -1.
        994   -1    0    0    0    0 -0.00000000000E+00 -0.00000000000E+00  0.11368683772E-12  0.17120000000E+03  0.17120000000E+03 0.  0.
         13    1    1    2    0    0 -0.15902875259E+02 -0.45130049479E-01  0.77804160977E+02  0.79412858579E+02  0.10566000000E+00 0. -1.
        994    1    1    2    0    0  0.96571138144E+01 -0.45820168813E+01  0.20103143103E+01  0.17154514301E+03  0.17120000000E+03 0.  0.
        998    1    1    2    0    0  0.62457614450E+01  0.46271469308E+01  0.14201855210E+04  0.14202419984E+04  0.10000000000E+02 0. -1.
</event>
<event>
 5    1  0.1303633E-008  0.3842582E+03  0.7957747E-01  0.3432825E+00
         13   -1    0    0    0    0  0.00000000000E+00  0.00000000000E+00  0.14999999963E+04  0.15000000000E+04  0.10566000000E+00 0. -1.
        994   -1    0    0    0    0 -0.00000000000E+00 -0.00000000000E+00  0.11368683772E-12  0.17120000000E+03  0.17120000000E+03 0.  0.
         13    1    1    2    0    0 -0.33203949203E+01 -0.94832095030E+01  0.22718519185E+02  0.24841468614E+02  0.10566000000E+00 0. -1.
        994    1    1    2    0    0  0.73566370896E+01  0.29265545274E+02  0.50065094960E+01  0.17391117672E+03  0.17120000000E+03 0.  0.
        998    1    1    2    0    0 -0.40362421693E+01 -0.19782335771E+02  0.14722749676E+04  0.14724473547E+04  0.10000000000E+02 0. -1.
</event>
<event>
 5    1  0.1303633E-008  0.3696726E+03  0.7957747E-01  0.3497397E+00
         13   -1    0    0    0    0  0.00000000000E+00  0.00000000000E+00  0.14999999963E+04  0.15000000000E+04  0.10566000000E+00 0. -1.
        994   -1    0    0    0    0 -0.00000000000E+00 -0.00000000000E+00  0.11368683772E-12  0.17120000000E+03  0.17120000000E+03 0.  0.
         13    1    1    2    0    0 -0.60822994101E+01 -0.18796884985E+02  0.16267408390E+02  0.25592127520E+02  0.10566000000E+00 0. -1.
        994    1    1    2    0    0  0.53710960573E+01  0.22000942312E+02  0.11217715979E+02  0.17305538792E+03  0.17120000000E+03 0.  0.
        998    1    1    2    0    0  0.71120335284E+00 -0.32040573271E+01  0.14725148719E+04  0.14725524846E+04  0.10000000000E+02 0. -1.
</event>
<event>
 5    1  0.1517582E-008  0.3846521E+03  0.7957747E-01  0.3431149E+00
         13   -1    0    0    0    0  0.00000000000E+00  0.00000000000E+00  0.14999999963E+04  0.15000000000E+04  0.10566000000E+00 0.  1.
        994   -1    0    0    0    0 -0.00000000000E+00 -0.00000000000E+00  0.11368683772E-12  0.17120000000E+03  0.17120000000E+03 0.  0.
         13    1    1    2    0    0  0.35489040909E+01 -0.11858640544E+02  0.40854913149E+02  0.42689075514E+02  0.10566000000E+00 0.  1.
        994    1    1    2    0    0 -0.45552103880E+01  0.14476806236E+02  0.25616446944E+01  0.17189045897E+03  0.17120000000E+03 0.  0.
        998    1    1    2    0    0  0.10063062971E+01 -0.26181656924E+01  0.14565834384E+04  0.14566204655E+04  0.10000000000E+02 0.  1.
</event>
<event>
 5    1  0.1303633E-008  0.3837290E+03  0.7957747E-01  0.3435081E+00
         13   -1    0    0    0    0  0.00000000000E+00  0.00000000000E+00  0.14999999963E+04  0.15000000000E+04  0.10566000000E+00 0. -1.
        994   -1    0    0    0    0 -0.00000000000E+00 -0.00000000000E+00  0.11368683772E-12  0.17120000000E+03  0.17120000000E+03 0.  0.
         13    1    1    2    0    0  0.95006629981E+01  0.17756811633E+02  0.87224143086E+02  0.89518876545E+02  0.10566000000E+00 0. -1.
        994    1    1    2    0    0 -0.16775575486E+01 -0.17480820693E+02  0.32815472650E+01  0.17212960769E+03  0.17120000000E+03 0.  0.
        998    1    1    2    0    0 -0.78231054495E+01 -0.27599094009E+00  0.14094943059E+04  0.14095515158E+04  0.10000000000E+02 0. -1.
</event>
<event>
 5    1  0.1303633E-008  0.3813116E+03  0.7957747E-01  0.3445467E+00
         13   -1    0    0    0    0  0.00000000000E+00  0.00000000000E+00  0.14999999963E+04  0.15000000000E+04  0.10566000000E+00 0.  1.
        994   -1    0    0    0    0 -0.00000000000E+00 -0.00000000000E+00  0.11368683772E-12  0.17120000000E+03  0.17120000000E+03 0.  0.
         13    1    1    2    0    0  0.39254011362E+01 -0.18747513102E+02  0.48521034556E+02  0.52164930557E+02  0.10566000000E+00 0.  1.
        994    1    1    2    0    0 -0.42775706374E+01  0.27748773690E+02  0.61007699419E+01  0.17359421490E+03  0.17120000000E+03 0.  0.
        998    1    1    2    0    0  0.35216950112E+00 -0.90012605880E+01  0.14453781918E+04  0.14454408545E+04  0.10000000000E+02 0.  1.
</event>
<event>
 5    1  0.1303633E-008  0.3834525E+03  0.7957747E-01  0.3436262E+00
         13   -1    0    0    0    0  0.00000000000E+00  0.00000000000E+00  0.14999999963E+04  0.15000000000E+04  0.10566000000E+00 0.  1.
        994   -1    0    0    0    0 -0.00000000000E+00 -0.00000000000E+00  0.11368683772E-12  0.17120000000E+03  0.17120000000E+03 0.  0.
         13    1    1    2    0    0 -0.79757887193E+01  0.73347755232E+01  0.23550231338E+02  0.25923670608E+02  0.10566000000E+00 0.  1.
        994    1    1    2    0    0  0.60406950303E+01 -0.62245820384E+01  0.26491066565E+01  0.17144005712E+03  0.17120000000E+03 0.  0.
        998    1    1    2    0    0  0.19350936890E+01 -0.11101934848E+01  0.14738006583E+04  0.14738362723E+04  0.10000000000E+02 0.  1.
</event>
<event>
 5    1  0.1303633E-008  0.3811676E+03  0.7957747E-01  0.3446090E+00
         13   -1    0    0    0    0  0.00000000000E+00  0.00000000000E+00  0.14999999963E+04  0.15000000000E+04  0.10566000000E+00 0.  1.
        994   -1    0    0    0    0 -0.00000000000E+00 -0.00000000000E+00  0.11368683772E-12  0.17120000000E+03  0.17120000000E+03 0.  0.
         13    1    1    2    0    0  0.93212840608E+01  0.44490603910E+01  0.12759578266E+02  0.16416408756E+02  0.10566000000E+00 0.  1.
        994    1    1    2    0    0 -0.29710680583E+02 -0.91126098277E+01  0.67676135347E+01  0.17412927609E+03  0.17120000000E+03 0.  0.
        998    1    1    2    0    0  0.20389396522E+02  0.46635494367E+01  0.14804728045E+04  0.14806543152E+04  0.10000000000E+02 0.  1.
</event>
<event>
 5    1  0.1303633E-008  0.3813299E+03  0.7957747E-01  0.3445388E+00
         13   -1    0    0    0    0  0.00000000000E+00  0.00000000000E+00  0.14999999963E+04  0.15000000000E+04  0.10566000000E+00 0. -1.
        994   -1    0    0    0    0 -0.00000000000E+00 -0.00000000000E+00  0.11368683772E-12  0.17120000000E+03  0.17120000000E+03 0.  0.
         13    1    1    2    0    0  0.75648716821E+01  0.27322301695E+02  0.11625507899E+03  0.11966198231E+03  0.10566000000E+00 0. -1.
        994    1    1    2    0    0  0.21442227962E+00 -0.15785164033E+02  0.42932322635E+01  0.17197990936E+03  0.17120000000E+03 0.  0.
        998    1    1    2    0    0 -0.77792939617E+01 -0.11537137662E+02  0.13794516850E+04  0.13795581083E+04  0.10000000000E+02 0. -1.
</event>
<event>
 5    1  0.1303633E-008  0.3835199E+03  0.7957747E-01  0.3435974E+00
         13   -1    0    0    0    0  0.00000000000E+00  0.00000000000E+00  0.14999999963E+04  0.15000000000E+04  0.10566000000E+00 0.  1.
        994   -1    0    0    0    0 -0.00000000000E+00 -0.00000000000E+00  0.11368683772E-12  0.17120000000E+03  0.17120000000E+03 0.  0.
         13    1    1    2    0    0  0.29134698063E+01  0.10739959257E+02  0.26528663728E+02  0.28768319283E+02  0.10566000000E+00 0.  1.
        994    1    1    2    0    0  0.17468325477E+02 -0.55623317016E-01  0.33757578604E+01  0.17212199520E+03  0.17120000000E+03 0.  0.
        998    1    1    2    0    0 -0.20381795284E+02 -0.10684335940E+02  0.14700955747E+04  0.14703096855E+04  0.10000000000E+02 0.  1.
</event>
<event>
 5    1  0.1303633E-008  0.3845317E+03  0.7957747E-01  0.3431661E+00
         13   -1    0    0    0    0  0.00000000000E+00  0.00000000000E+00  0.14999999963E+04  0.15000000000E+04  0.10566000000E+00 0. -1.
        994   -1    0    0    0    0 -0.00000000000E+00 -0.00000000000E+00  0.11368683772E-12  0.17120000000E+03  0.17120000000E+03 0.  0.
         13    1    1    2    0    0  0.18275476864E+02  0.29991020539E+01  0.10868608131E+03  0.11025272378E+03  0.10566000000E+00 0. -1.
        994    1    1    2    0    0  0.84874304495E+01  0.58238370895E+01  0.22118537118E+01  0.17152342654E+03  0.17120000000E+03 0.  0.
        998    1    1    2    0    0 -0.26762907313E+02 -0.88229391434E+01  0.13891020613E+04  0.13894238497E+04  0.10000000000E+02 0. -1.
</event>
<event>
 5    1  0.1303633E-008  0.3717539E+03  0.7957747E-01  0.3487869E+00
         13   -1    0    0    0    0  0.00000000000E+00  0.00000000000E+00  0.14999999963E+04  0.15000000000E+04  0.10566000000E+00 0.  1.
        994   -1    0    0    0    0 -0.00000000000E+00 -0.00000000000E+00  0.11368683772E-12  0.17120000000E+03  0.17120000000E+03 0.  0.
         13    1    1    2    0    0  0.44384189743E+02  0.38727471211E+02  0.13488297579E+03  0.14718424388E+03  0.10566000000E+00 0.  1.
        994    1    1    2    0    0 -0.35226337226E+02 -0.35801481484E+02  0.20796228003E+02  0.17962339494E+03  0.17120000000E+03 0.  0.
        998    1    1    2    0    0 -0.91578525169E+01 -0.29259897265E+01  0.13443207925E+04  0.13443923612E+04  0.10000000000E+02 0.  1.
</event>
<event>
 5    1  0.1303633E-008  0.3841806E+03  0.7957747E-01  0.3433155E+00
         13   -1    0    0    0    0  0.00000000000E+00  0.00000000000E+00  0.14999999963E+04  0.15000000000E+04  0.10566000000E+00 0.  1.
        994   -1    0    0    0    0 -0.00000000000E+00 -0.00000000000E+00  0.11368683772E-12  0.17120000000E+03  0.17120000000E+03 0.  0.
         13    1    1    2    0    0  0.16939871571E+02 -0.75296618866E+01  0.88506677838E+02  0.90427309166E+02  0.10566000000E+00 0.  1.
        994    1    1    2    0    0 -0.55457822697E+01 -0.25061738343E+01  0.21596380482E+01  0.17132174598E+03  0.17120000000E+03 0.  0.
        998    1    1    2    0    0 -0.11394089301E+02  0.10035835721E+02  0.14093336804E+04  0.14094509449E+04  0.10000000000E+02 0.  1.
</event>
<event>
 5    1  0.1303633E-008  0.3754976E+03  0.7957747E-01  0.3471000E+00
         13   -1    0    0    0    0  0.00000000000E+00  0.00000000000E+00  0.14999999963E+04  0.15000000000E+04  0.10566000000E+00 0.  1.
        994   -1    0    0    0    0 -0.00000000000E+00 -0.00000000000E+00  0.11368683772E-12  0.17120000000E+03  0.17120000000E+03 0.  0.
         13    1    1    2    0    0  0.74490776467E+02 -0.27435617099E+02  0.39954904616E+03  0.40735861390E+03  0.10566000000E+00 0.  1.
        994    1    1    2    0    0 -0.93443899930E+02 -0.34433234707E+02  0.40858911708E+02  0.20222833815E+03  0.17120000000E+03 0.  0.
        998    1    1    2    0    0  0.18953123463E+02  0.61868851807E+02  0.10595920384E+04  0.10616130479E+04  0.10000000000E+02 0. -1.
</event>
<event>
 5    1  0.1303633E-008  0.3837715E+03  0.7957747E-01  0.3434899E+00
         13   -1    0    0    0    0  0.00000000000E+00  0.00000000000E+00  0.14999999963E+04  0.15000000000E+04  0.10566000000E+00 0. -1.
        994   -1    0    0    0    0 -0.00000000000E+00 -0.00000000000E+00  0.11368683772E-12  0.17120000000E+03  0.17120000000E+03 0.  0.
         13    1    1    2    0    0  0.85551452266E+01 -0.85766535359E+01  0.31671799298E+02  0.33909637723E+02  0.10566000000E+00 0. -1.
        994    1    1    2    0    0 -0.97931533850E+01  0.65998506951E+01  0.27019037920E+01  0.17162809842E+03  0.17120000000E+03 0.  0.
        998    1    1    2    0    0  0.12380081584E+01  0.19768028408E+01  0.14656262932E+04  0.14656622639E+04  0.10000000000E+02 0. -1.
</event>
<event>
 5    1  0.1303633E-008  0.3858342E+03  0.7957747E-01  0.3426142E+00
         13   -1    0    0    0    0  0.00000000000E+00  0.00000000000E+00  0.14999999963E+04  0.15000000000E+04  0.10566000000E+00 0. -1.
        994   -1    0    0    0    0 -0.00000000000E+00 -0.00000000000E+00  0.11368683772E-12  0.17120000000E+03  0.17120000000E+03 0.  0.
         13    1    1    2    0    0 -0.12757831587E+02  0.60574292292E+00  0.63922357117E+02  0.65185950133E+02  0.10566000000E+00 0. -1.
        994    1    1    2    0    0  0.16295150424E+02 -0.39262472886E+01  0.21385245762E+01  0.17203185935E+03  0.17120000000E+03 0.  0.
        998    1    1    2    0    0 -0.35373188373E+01  0.33205043657E+01  0.14339391146E+04  0.14339821905E+04  0.10000000000E+02 0. -1.
</event>
<event>
 5    1  0.1303633E-008  0.3731123E+03  0.7957747E-01  0.3481708E+00
         13   -1    0    0    0    0  0.00000000000E+00  0.00000000000E+00  0.14999999963E+04  0.15000000000E+04  0.10566000000E+00 0. -1.
        994   -1    0    0    0    0 -0.00000000000E+00 -0.00000000000E+00  0.11368683772E-12  0.17120000000E+03  0.17120000000E+03 0.  0.
         13    1    1    2    0    0 -0.32556173042E+02  0.25997116952E+02  0.11658633934E+03  0.12380686644E+03  0.10566000000E+00 0. -1.
        994    1    1    2    0    0 -0.23742356914E+01 -0.24979327831E+02  0.98081421879E+01  0.17330679002E+03  0.17120000000E+03 0.  0.
        998    1    1    2    0    0  0.34930408733E+02 -0.10177891210E+01  0.13736055147E+04  0.13740863435E+04  0.10000000000E+02 0. -1.
</event>
<event>
 5    1  0.1303633E-008  0.3850664E+03  0.7957747E-01  0.3429391E+00
         13   -1    0    0    0    0  0.00000000000E+00  0.00000000000E+00  0.14999999963E+04  0.15000000000E+04  0.10566000000E+00 0.  1.
        994   -1    0    0    0    0 -0.00000000000E+00 -0.00000000000E+00  0.11368683772E-12  0.17120000000E+03  0.17120000000E+03 0.  0.
         13    1    1    2    0    0 -0.60702768801E+01 -0.12979652043E+02  0.59962299559E+02  0.61650694732E+02  0.10566000000E+00 0.  1.
        994    1    1    2    0    0  0.50930447040E+01  0.20851438943E+02  0.31134888232E+01  0.17256840795E+03  0.17120000000E+03 0.  0.
        998    1    1    2    0    0  0.97723217615E+00 -0.78717868999E+01  0.14369242079E+04  0.14369808973E+04  0.10000000000E+02 0.  1.
</event>
<event>
 5    1  0.1303633E-008  0.3713579E+03  0.7957747E-01  0.3489674E+00
         13   -1    0    0    0    0  0.00000000000E+00  0.00000000000E+00  0.14999999963E+04  0.15000000000E+04  0.10566000000E+00 0.  1.
        994   -1    0    0    0    0 -0.00000000000E+00 -0.00000000000E+00  0.11368683772E-12  0.17120000000E+03  0.17120000000E+03 0.  0.
         13    1    1    2    0    0  0.31244480562E+02  0.28986473746E+02  0.66674059833E+02  0.79132007712E+02  0.10566000000E+00 0.  1.
        994    1    1    2    0    0 -0.43956017832E+02 -0.42320527547E+02  0.24854171541E+02  0.18344025839E+03  0.17120000000E+03 0.  0.
        998    1    1    2    0    0  0.12711537270E+02  0.13334053802E+02  0.14084717649E+04  0.14086277339E+04  0.10000000000E+02 0.  1.
</event>
<event>
 5    1  0.1303633E-008  0.3848760E+03  0.7957747E-01  0.3430198E+00
         13   -1    0    0    0    0  0.00000000000E+00  0.00000000000E+00  0.14999999963E+04  0.15000000000E+04  0.10566000000E+00 0. -1.
        994   -1    0    0    0    0 -0.00000000000E+00 -0.00000000000E+00  0.11368683772E-12  0.17120000000E+03  0.17120000000E+03 0.  0.
         13    1    1    2    0    0  0.10462562243E+02  0.28661027265E-01  0.33105565363E+02  0.34719672409E+02  0.10566000000E+00 0. -1.
        994    1    1    2    0    0 -0.32299270529E+00  0.23071248825E+01  0.17095576165E+01  0.17122438418E+03  0.17120000000E+03 0.  0.
        998    1    1    2    0    0 -0.10139569538E+02 -0.23357859098E+01  0.14651848733E+04  0.14652559434E+04  0.10000000000E+02 0. -1.
</event>
<event>
 5    1  0.1303633E-008  0.3740795E+03  0.7957747E-01  0.3477350E+00
         13   -1    0    0    0    0  0.00000000000E+00  0.00000000000E+00  0.14999999963E+04  0.15000000000E+04  0.10566000000E+00 0. -1.
        994   -1    0    0    0    0 -0.00000000000E+00 -0.00000000000E+00  0.11368683772E-12  0.17120000000E+03  0.17120000000E+03 0.  0.
         13    1    1    2    0    0 -0.27056360360E+02  0.10606433231E+02  0.75742862799E+02  0.81126663254E+02  0.10566000000E+00 0. -1.
        994    1    1    2    0    0 -0.36171187912E+02  0.73268336312E+02  0.30271150183E+02  0.19209993877E+03  0.17120000000E+03 0.  0.
        998    1    1    2    0    0  0.63227548272E+02 -0.83874769544E+02  0.13939859833E+04  0.13979733980E+04  0.10000000000E+02 0. -1.
</event>
<event>
 5    1  0.1303633E-008  0.3826177E+03  0.7957747E-01  0.3439839E+00
         13   -1    0    0    0    0  0.00000000000E+00  0.00000000000E+00  0.14999999963E+04  0.15000000000E+04  0.10566000000E+00 0. -1.
        994   -1    0    0    0    0 -0.00000000000E+00 -0.00000000000E+00  0.11368683772E-12  0.17120000000E+03  0.17120000000E+03 0.  0.
         13    1    1    2    0    0 -0.24338819204E+02  0.18606577135E+02  0.14676620659E+03  0.14992969484E+03  0.10566000000E+00 0. -1.
        994    1    1    2    0    0  0.27988196814E+02 -0.20727650089E+02  0.68480514359E+01  0.17484081459E+03  0.17120000000E+03 0.  0.
        998    1    1    2    0    0 -0.36493776098E+01  0.21210729542E+01  0.13463857383E+04  0.13464294906E+04  0.10000000000E+02 0. -1.
</event>
<event>
 5    1  0.1303633E-008  0.3907749E+03  0.7957747E-01  0.3405543E+00
         13   -1    0    0    0    0  0.00000000000E+00  0.00000000000E+00  0.14999999963E+04  0.15000000000E+04  0.10566000000E+00 0.  1.
        994   -1    0    0    0    0 -0.00000000000E+00 -0.00000000000E+00  0.11368683772E-12  0.17120000000E+03  0.17120000000E+03 0.  0.
         13    1    1    2    0    0 -0.54684410638E+02 -0.16970192811E+02  0.63238349601E+02  0.85308101814E+02  0.10566000000E+00 0.  1.
        994    1    1    2    0    0  0.52784637772E+02  0.16052184718E+02  0.33953974234E+02  0.18304699666E+03  0.17120000000E+03 0.  0.
        998    1    1    2    0    0  0.18997728663E+01  0.91800809245E+00  0.14028076724E+04  0.14028449015E+04  0.10000000000E+02 0.  1.
</event>
<event>
 5    1  0.1303633E-008  0.3851134E+03  0.7957747E-01  0.3429192E+00
         13   -1    0    0    0    0  0.00000000000E+00  0.00000000000E+00  0.14999999963E+04  0.15000000000E+04  0.10566000000E+00 0.  1.
        994   -1    0    0    0    0 -0.00000000000E+00 -0.00000000000E+00  0.11368683772E-12  0.17120000000E+03  0.17120000000E+03 0.  0.
         13    1    1    2    0    0  0.49221883968E+01 -0.92660205927E+01  0.36142698370E+02  0.37634995493E+02  0.10566000000E+00 0.  1.
        994    1    1    2    0    0 -0.54925635180E+01 -0.32798874284E+01  0.17084261308E+01  0.17132800307E+03  0.17120000000E+03 0.  0.
        998    1    1    2    0    0  0.57037512123E+00  0.12545908021E+02  0.14621488718E+04  0.14622370014E+04  0.10000000000E+02 0.  1.
</event>
<event>
 5    1  0.1303633E-008  0.3709433E+03  0.7957747E-01  0.3491567E+00
         13   -1    0    0    0    0  0.00000000000E+00  0.00000000000E+00  0.14999999963E+04  0.15000000000E+04  0.10566000000E+00 0. -1.
        994   -1    0    0    0    0 -0.00000000000E+00 -0.00000000000E+00  0.11368683772E-12  0.17120000000E+03  0.17120000000E+03 0.  0.
         13    1    1    2    0    0 -0.19370853681E+02  0.13893624416E+02  0.27995094317E+02  0.36769542309E+02  0.10566000000E+00 0. -1.
        994    1    1    2    0    0  0.24588059358E+02 -0.12253581582E+02  0.11382316521E+02  0.17376340252E+03  0.17120000000E+03 0.  0.
        998    1    1    2    0    0 -0.52172056770E+01 -0.16400428340E+01  0.14606225854E+04  0.14606670552E+04  0.10000000000E+02 0. -1.
</event>
<event>
 5    1  0.1303633E-008  0.3780685E+03  0.7957747E-01  0.3459612E+00
         13   -1    0    0    0    0  0.00000000000E+00  0.00000000000E+00  0.14999999963E+04  0.15000000000E+04  0.10566000000E+00 0.  1.
        994   -1    0    0    0    0 -0.00000000000E+00 -0.00000000000E+00  0.11368683772E-12  0.17120000000E+03  0.17120000000E+03 0.  0.
         13    1    1    2    0    0  0.40928034579E+01  0.10309494047E+02  0.97520854287E+01  0.14769937098E+02  0.10566000000E+00 0.  1.
        994    1    1    2    0    0 -0.51879151882E+01 -0.62023502941E+01  0.53313531531E+01  0.17147375000E+03  0.17120000000E+03 0.  0.
        998    1    1    2    0    0  0.10951117304E+01 -0.41071437526E+01  0.14849165577E+04  0.14849563129E+04  0.10000000000E+02 0.  1.
</event>
<event>
 5    1  0.1303633E-008  0.3853364E+03  0.7957747E-01  0.3428247E+00
         13   -1    0    0    0    0  0.00000000000E+00  0.00000000000E+00  0.14999999963E+04  0.15000000000E+04  0.10566000000E+00 0.  1.
        994   -1    0    0    0    0 -0.00000000000E+00 -0.00000000000E+00  0.11368683772E-12  0.17120000000E+03  0.17120000000E+03 0.  0.
         13    1    1    2    0    0  0.11715137223E+02  0.79427215415E+01  0.74939746588E+02  0.76264723485E+02  0.10566000000E+00 0.  1.
        994    1    1    2    0    0 -0.39095430285E+01  0.10197176596E+02  0.18551064126E+01  0.17155800289E+03  0.17120000000E+03 0.  0.
        998    1    1    2    0    0 -0.78055941949E+01 -0.18139898138E+02  0.14232051433E+04  0.14233772736E+04  0.10000000000E+02 0.  1.
</event>
<event>
 5    1  0.1303633E-008  0.4023709E+03  0.7957747E-01  0.3359183E+00
         13   -1    0    0    0    0  0.00000000000E+00  0.00000000000E+00  0.14999999963E+04  0.15000000000E+04  0.10566000000E+00 0.  1.
        994   -1    0    0    0    0 -0.00000000000E+00 -0.00000000000E+00  0.11368683772E-12  0.17120000000E+03  0.17120000000E+03 0.  0.
         13    1    1    2    0    0 -0.21488290175E+02 -0.79646849032E+02  0.99968630625E+02  0.12961136311E+03  0.10566000000E+00 0.  1.
        994    1    1    2    0    0  0.24042109734E+02  0.80968756837E+02  0.58001398101E+02  0.19951833200E+03  0.17120000000E+03 0.  0.
        998    1    1    2    0    0 -0.25538195589E+01 -0.13219078050E+01  0.13420299676E+04  0.13420703049E+04  0.10000000000E+02 0.  1.
</event>
<event>
 5    1  0.1303633E-008  0.3821972E+03  0.7957747E-01  0.3441647E+00
         13   -1    0    0    0    0  0.00000000000E+00  0.00000000000E+00  0.14999999963E+04  0.15000000000E+04  0.10566000000E+00 0. -1.
        994   -1    0    0    0    0 -0.00000000000E+00 -0.00000000000E+00  0.11368683772E-12  0.17120000000E+03  0.17120000000E+03 0.  0.
         13    1    1    2    0    0  0.25014083382E+02  0.57509935150E+02  0.99388358462E+02  0.11752086611E+03  0.10566000000E+00 0. -1.
        994    1    1    2    0    0 -0.21614447083E+02 -0.59865949333E+02  0.32491480903E+02  0.18551617866E+03  0.17120000000E+03 0.  0.
        998    1    1    2    0    0 -0.33996362999E+01  0.23560141829E+01  0.13681201569E+04  0.13681629552E+04  0.10000000000E+02 0. -1.
</event>
<event>
 5    1  0.1303633E-008  0.3728598E+03  0.7957747E-01  0.3482850E+00
         13   -1    0    0    0    0  0.00000000000E+00  0.00000000000E+00  0.14999999963E+04  0.15000000000E+04  0.10566000000E+00 0.  1.
        994   -1    0    0    0    0 -0.00000000000E+00 -0.00000000000E+00  0.11368683772E-12  0.17120000000E+03  0.17120000000E+03 0.  0.
         13    1    1    2    0    0  0.64466994755E+02 -0.52252569188E+02  0.34257325234E+03  0.35248087719E+03  0.10566000000E+00 0.  1.
        994    1    1    2    0    0 -0.24398222837E+02 -0.81076137149E+01  0.14796764529E+02  0.17375094509E+03  0.17120000000E+03 0.  0.
        998    1    1    2    0    0 -0.40068771917E+02  0.60360182903E+02  0.11426299794E+04  0.11449681777E+04  0.10000000000E+02 0.  1.
</event>
<event>
 5    1  0.1303633E-008  0.3845103E+03  0.7957747E-01  0.3431752E+00
         13   -1    0    0    0    0  0.00000000000E+00  0.00000000000E+00  0.14999999963E+04  0.15000000000E+04  0.10566000000E+00 0. -1.
        994   -1    0    0    0    0 -0.00000000000E+00 -0.00000000000E+00  0.11368683772E-12  0.17120000000E+03  0.17120000000E+03 0.  0.
         13    1    1    2    0    0 -0.13138887290E+02  0.14199507653E+02  0.87726045624E+02  0.89833883483E+02  0.10566000000E+00 0. -1.
        994    1    1    2    0    0  0.29248897666E+02 -0.15753905052E+02  0.55173170289E+01  0.17448084229E+03  0.17120000000E+03 0.  0.
        998    1    1    2    0    0 -0.16110010376E+02  0.15543973989E+01  0.14067566336E+04  0.14068852742E+04  0.10000000000E+02 0. -1.
</event>
<event>
 5    1  0.1303633E-008  0.3731423E+03  0.7957747E-01  0.3481573E+00
         13   -1    0    0    0    0  0.00000000000E+00  0.00000000000E+00  0.14999999963E+04  0.15000000000E+04  0.10566000000E+00 0.  1.
        994   -1    0    0    0    0 -0.00000000000E+00 -0.00000000000E+00  0.11368683772E-12  0.17120000000E+03  0.17120000000E+03 0.  0.
         13    1    1    2    0    0  0.52455254532E+02  0.29185165273E+03  0.96210245723E+03  0.10067621816E+04  0.10566000000E+00 0.  1.
        994    1    1    2    0    0 -0.56506826692E+02 -0.29319689980E+03  0.40672441343E+03  0.53281481961E+03  0.17120000000E+03 0.  0.
        998    1    1    2    0    0  0.40515721596E+01  0.13452470719E+01  0.13117312562E+03  0.13162299879E+03  0.10000000000E+02 0. -1.
</event>
<event>
 5    1  0.1303633E-008  0.3833638E+03  0.7957747E-01  0.3436641E+00
         13   -1    0    0    0    0  0.00000000000E+00  0.00000000000E+00  0.14999999963E+04  0.15000000000E+04  0.10566000000E+00 0.  1.
        994   -1    0    0    0    0 -0.00000000000E+00 -0.00000000000E+00  0.11368683772E-12  0.17120000000E+03  0.17120000000E+03 0.  0.
         13    1    1    2    0    0 -0.17207967739E+02 -0.69294701460E+01  0.72379524170E+02  0.74719063119E+02  0.10566000000E+00 0.  1.
        994    1    1    2    0    0  0.17841484084E+01  0.98341306246E+01  0.27750098905E+01  0.17151394693E+03  0.17120000000E+03 0.  0.
        998    1    1    2    0    0  0.15423819331E+02 -0.29046604786E+01  0.14248454622E+04  0.14249669900E+04  0.10000000000E+02 0.  1.
</event>
<event>
 5    1  0.1303633E-008  0.3823564E+03  0.7957747E-01  0.3440962E+00
         13   -1    0    0    0    0  0.00000000000E+00  0.00000000000E+00  0.14999999963E+04  0.15000000000E+04  0.10566000000E+00 0.  1.
        994   -1    0    0    0    0 -0.00000000000E+00 -0.00000000000E+00  0.11368683772E-12  0.17120000000E+03  0.17120000000E+03 0.  0.
         13    1    1    2    0    0  0.74327539398E+01  0.11888662032E+02  0.31644068458E+02  0.34611332662E+02  0.10566000000E+00 0.  1.
        994    1    1    2    0    0 -0.96616516170E+01 -0.11927876109E+02  0.37303387998E+01  0.17192724382E+03  0.17120000000E+03 0.  0.
        998    1    1    2    0    0  0.22288976772E+01  0.39214076687E-01  0.14646255890E+04  0.14646614235E+04  0.10000000000E+02 0.  1.
</event>
<event>
 5    1  0.1303633E-008  0.3786144E+03  0.7957747E-01  0.3457214E+00
         13   -1    0    0    0    0  0.00000000000E+00  0.00000000000E+00  0.14999999963E+04  0.15000000000E+04  0.10566000000E+00 0. -1.
        994   -1    0    0    0    0 -0.00000000000E+00 -0.00000000000E+00  0.11368683772E-12  0.17120000000E+03  0.17120000000E+03 0.  0.
         13    1    1    2    0    0  0.37861363175E+02  0.47171465682E+02  0.10571754131E+03  0.12179835673E+03  0.10566000000E+00 0. -1.
        994    1    1    2    0    0 -0.32565610644E+02 -0.48364092417E+02  0.27928278432E+02  0.18300009062E+03  0.17120000000E+03 0.  0.
        998    1    1    2    0    0 -0.52957525308E+01  0.11926267349E+01  0.13663541765E+04  0.13664015526E+04  0.10000000000E+02 0. -1.
</event>
<event>
 5    1  0.1303633E-008  0.3856003E+03  0.7957747E-01  0.3427130E+00
         13   -1    0    0    0    0  0.00000000000E+00  0.00000000000E+00  0.14999999963E+04  0.15000000000E+04  0.10566000000E+00 0. -1.
        994   -1    0    0    0    0 -0.00000000000E+00 -0.00000000000E+00  0.11368683772E-12  0.17120000000E+03  0.17120000000E+03 0.  0.
         13    1    1    2    0    0  0.10079719815E+02  0.83482434937E+01  0.71231483740E+02  0.72423955711E+02  0.10566000000E+00 0. -1.
        994    1    1    2    0    0  0.99402300392E+00  0.55134654290E+01  0.14354135104E+01  0.17129765554E+03  0.17120000000E+03 0.  0.
        998    1    1    2    0    0 -0.11073742818E+02 -0.13861708923E+02  0.14273330990E+04  0.14274783887E+04  0.10000000000E+02 0. -1.
</event>
<event>
 5    1  0.1303633E-008  0.3779934E+03  0.7957747E-01  0.3459943E+00
         13   -1    0    0    0    0  0.00000000000E+00  0.00000000000E+00  0.14999999963E+04  0.15000000000E+04  0.10566000000E+00 0. -1.
        994   -1    0    0    0    0 -0.00000000000E+00 -0.00000000000E+00  0.11368683772E-12  0.17120000000E+03  0.17120000000E+03 0.  0.
         13    1    1    2    0    0  0.35166519085E+02  0.46775833085E+02  0.29727064739E+03  0.30297609079E+03  0.10566000000E+00 0. -1.
        994    1    1    2    0    0 -0.27325887466E+02 -0.37251007569E+02  0.12365971212E+02  0.17775460313E+03  0.17120000000E+03 0.  0.
        998    1    1    2    0    0 -0.78406316185E+01 -0.95248255160E+01  0.11903633777E+04  0.11904693061E+04  0.10000000000E+02 0. -1.
</event>
<event>
 5    1  0.1303633E-008  0.3810503E+03  0.7957747E-01  0.3446598E+00
         13   -1    0    0    0    0  0.00000000000E+00  0.00000000000E+00  0.14999999963E+04  0.15000000000E+04  0.10566000000E+00 0.  1.
        994   -1    0    0    0    0 -0.00000000000E+00 -0.00000000000E+00  0.11368683772E-12  0.17120000000E+03  0.17120000000E+03 0.  0.
         13    1    1    2    0    0 -0.31794323508E+02 -0.21744928469E+01  0.17341509488E+03  0.17631906795E+03  0.10566000000E+00 0.  1.
        994    1    1    2    0    0 -0.10546316972E+02  0.17736296122E+02  0.50236976292E+01  0.17251225620E+03  0.17120000000E+03 0.  0.
        998    1    1    2    0    0  0.42340640480E+02 -0.15561803275E+02  0.13215612038E+04  0.13223686758E+04  0.10000000000E+02 0.  1.
</event>
<event>
 5    1  0.1303633E-008  0.3856492E+03  0.7957747E-01  0.3426923E+00
         13   -1    0    0    0    0  0.00000000000E+00  0.00000000000E+00  0.14999999963E+04  0.15000000000E+04  0.10566000000E+00 0.  1.
        994   -1    0    0    0    0 -0.00000000000E+00 -0.00000000000E+00  0.11368683772E-12  0.17120000000E+03  0.17120000000E+03 0.  0.
         13    1    1    2    0    0  0.68689867788E+01 -0.12482493919E+02  0.71720162015E+02  0.73121737106E+02  0.10566000000E+00 0.  1.
        994    1    1    2    0    0 -0.86410348084E+01  0.19351265192E+02  0.27835016764E+01  0.17252920573E+03  0.17120000000E+03 0.  0.
        998    1    1    2    0    0  0.17720480296E+01 -0.68687712727E+01  0.14254963326E+04  0.14255490572E+04  0.10000000000E+02 0.  1.
</event>
<event>
 5    1  0.1303633E-008  0.3772217E+03  0.7957747E-01  0.3463346E+00
         13   -1    0    0    0    0  0.00000000000E+00  0.00000000000E+00  0.14999999963E+04  0.15000000000E+04  0.10566000000E+00 0.  1.
        994   -1    0    0    0    0 -0.00000000000E+00 -0.00000000000E+00  0.11368683772E-12  0.17120000000E+03  0.17120000000E+03 0.  0.
         13    1    1    2    0    0  0.29284801416E+02  0.12452146512E+02  0.82830293289E+02  0.88732881149E+02  0.10566000000E+00 0.  1.
        994    1    1    2    0    0 -0.34202739324E+02 -0.16500342179E+02  0.10423180665E+02  0.17567063319E+03  0.17120000000E+03 0.  0.
        998    1    1    2    0    0  0.49179379083E+01  0.40481956666E+01  0.14067465223E+04  0.14067964857E+04  0.10000000000E+02 0.  1.
</event>
<event>
 5    1  0.1303633E-008  0.3842521E+03  0.7957747E-01  0.3432850E+00
         13   -1    0    0    0    0  0.00000000000E+00  0.00000000000E+00  0.14999999963E+04  0.15000000000E+04  0.10566000000E+00 0. -1.
        994   -1    0    0    0    0 -0.00000000000E+00 -0.00000000000E+00  0.11368683772E-12  0.17120000000E+03  0.17120000000E+03 0.  0.
         13    1    1    2    0    0 -0.86761484981E+01 -0.20173584055E+02  0.13159966357E+03  0.13341938263E+03  0.10566000000E+00 0. -1.
        994    1    1    2    0    0  0.13572436406E+02 -0.25849097100E+01  0.26314654440E+01  0.17177676618E+03  0.17120000000E+03 0.  0.
        998    1    1    2    0    0 -0.48962879079E+01  0.22758493765E+02  0.13657688673E+04  0.13660038512E+04  0.10000000000E+02 0. -1.
</event>
<event>
 5    1  0.1303633E-008  0.3762617E+03  0.7957747E-01  0.3467599E+00
         13   -1    0    0    0    0  0.00000000000E+00  0.00000000000E+00  0.14999999963E+04  0.15000000000E+04  0.10566000000E+00 0. -1.
        994   -1    0    0    0    0 -0.00000000000E+00 -0.00000000000E+00  0.11368683772E-12  0.17120000000E+03  0.17120000000E+03 0.  0.
         13    1    1    2    0    0  0.73434788447E+02  0.39174484114E+02  0.48095255643E+03  0.48810109718E+03  0.10566000000E+00 0. -1.
        994    1    1    2    0    0 -0.77664916036E+02  0.16492474754E+01  0.26739332967E+02  0.18989205125E+03  0.17120000000E+03 0.  0.
        998    1    1    2    0    0  0.42301275889E+01 -0.40823731590E+02  0.99230810688E+03  0.99320685157E+03  0.10000000000E+02 0. -1.
</event>
<event>
 5    1  0.1303633E-008  0.3837845E+03  0.7957747E-01  0.3434844E+00
         13   -1    0    0    0    0  0.00000000000E+00  0.00000000000E+00  0.14999999963E+04  0.15000000000E+04  0.10566000000E+00 0.  1.
        994   -1    0    0    0    0 -0.00000000000E+00 -0.00000000000E+00  0.11368683772E-12  0.17120000000E+03  0.17120000000E+03 0.  0.
         13    1    1    2    0    0 -0.11704976216E+02 -0.36866659538E+01  0.32791658126E+02  0.35012883068E+02  0.10566000000E+00 0.  1.
        994    1    1    2    0    0  0.11625235404E+02 -0.23492181581E+01  0.26993593620E+01  0.17163155731E+03  0.17120000000E+03 0.  0.
        998    1    1    2    0    0  0.79740812195E-01  0.60358841119E+01  0.14645089788E+04  0.14645555596E+04  0.10000000000E+02 0.  1.
</event>
<event>
 5    1  0.1303633E-008  0.3835788E+03  0.7957747E-01  0.3435722E+00
         13   -1    0    0    0    0  0.00000000000E+00  0.00000000000E+00  0.14999999963E+04  0.15000000000E+04  0.10566000000E+00 0. -1.
        994   -1    0    0    0    0 -0.00000000000E+00 -0.00000000000E+00  0.11368683772E-12  0.17120000000E+03  0.17120000000E+03 0.  0.
         13    1    1    2    0    0 -0.13409979118E+02 -0.55323941485E+01  0.50216025546E+02  0.52269449114E+02  0.10566000000E+00 0. -1.
        994    1    1    2    0    0 -0.10928209448E+02 -0.14903170627E+02  0.34665491793E+01  0.17222946095E+03  0.17120000000E+03 0.  0.
        998    1    1    2    0    0  0.24338188565E+02  0.20435564776E+02  0.14463174216E+04  0.14467010899E+04  0.10000000000E+02 0. -1.
</event>
<event>
 5    1  0.1303633E-008  0.3837812E+03  0.7957747E-01  0.3434858E+00
         13   -1    0    0    0    0  0.00000000000E+00  0.00000000000E+00  0.14999999963E+04  0.15000000000E+04  0.10566000000E+00 0.  1.
        994   -1    0    0    0    0 -0.00000000000E+00 -0.00000000000E+00  0.11368683772E-12  0.17120000000E+03  0.17120000000E+03 0.  0.
         13    1    1    2    0    0  0.42020880927E+02  0.43879686272E+01  0.21771283451E+03  0.22177443085E+03  0.10566000000E+00 0.  1.
        994    1    1    2    0    0 -0.88653660195E+02 -0.20397412343E+02  0.30056206641E+02  0.19618445773E+03  0.17120000000E+03 0.  0.
        998    1    1    2    0    0  0.46632779267E+02  0.16009443716E+02  0.12522309551E+04  0.12532411114E+04  0.10000000000E+02 0.  1.
</event>
<event>
 5    1  0.1303633E-008  0.3821590E+03  0.7957747E-01  0.3441811E+00
         13   -1    0    0    0    0  0.00000000000E+00  0.00000000000E+00  0.14999999963E+04  0.15000000000E+04  0.10566000000E+00 0.  1.
        994   -1    0    0    0    0 -0.00000000000E+00 -0.00000000000E+00  0.11368683772E-12  0.17120000000E+03  0.17120000000E+03 0.  0.
         13    1    1    2    0    0 -0.38688506198E+02  0.71225533276E+01  0.23689406582E+03  0.24013817035E+03  0.10566000000E+00 0.  1.
        994    1    1    2    0    0  0.31057769553E+02  0.36687897882E+01  0.63003800559E+01  0.17414700645E+03  0.17120000000E+03 0.  0.
        998    1    1    2    0    0  0.76307366448E+01 -0.10791343116E+02  0.12568055504E+04  0.12569148232E+04  0.10000000000E+02 0.  1.
</event>
<event>
 5    1  0.1303633E-008  0.3839407E+03  0.7957747E-01  0.3434177E+00
         13   -1    0    0    0    0  0.00000000000E+00  0.00000000000E+00  0.14999999963E+04  0.15000000000E+04  0.10566000000E+00 0.  1.
        994   -1    0    0    0    0 -0.00000000000E+00 -0.00000000000E+00  0.11368683772E-12  0.17120000000E+03  0.17120000000E+03 0.  0.
         13    1    1    2    0    0 -0.19760551840E+02 -0.16164332420E+02  0.14301564466E+03  0.14527646346E+03  0.10566000000E+00 0.  1.
        994    1    1    2    0    0  0.94552444465E+01  0.23151669134E+02  0.42234955830E+01  0.17306842389E+03  0.17120000000E+03 0.  0.
        998    1    1    2    0    0  0.10305307394E+02 -0.69873367146E+01  0.13527608560E+04  0.13528551127E+04  0.10000000000E+02 0.  1.
</event>
<event>
 5    1  0.1303633E-008  0.3721297E+03  0.7957747E-01  0.3486160E+00
         13   -1    0    0    0    0  0.00000000000E+00  0.00000000000E+00  0.14999999963E+04  0.15000000000E+04  0.10566000000E+00 0.  1.
        994   -1    0    0    0    0 -0.00000000000E+00 -0.00000000000E+00  0.11368683772E-12  0.17120000000E+03  0.17120000000E+03 0.  0.
         13    1    1    2    0    0  0.70986012876E+02 -0.19637409667E+02  0.20876264529E+03  0.22137410670E+03  0.10566000000E+00 0.  1.
        994    1    1    2    0    0 -0.69736167836E+02 -0.37028669960E+02  0.34365399715E+02  0.19163683414E+03  0.17120000000E+03 0.  0.
        998    1    1    2    0    0 -0.12498450397E+01  0.56666079628E+02  0.12568719513E+04  0.12581890592E+04  0.10000000000E+02 0. -1.
</event>
<event>
 5    1  0.1303633E-008  0.3835608E+03  0.7957747E-01  0.3435799E+00
         13   -1    0    0    0    0  0.00000000000E+00  0.00000000000E+00  0.14999999963E+04  0.15000000000E+04  0.10566000000E+00 0.  1.
        994   -1    0    0    0    0 -0.00000000000E+00 -0.00000000000E+00  0.11368683772E-12  0.17120000000E+03  0.17120000000E+03 0.  0.
         13    1    1    2    0    0 -0.98217272657E+00 -0.16201033430E+02  0.51919479627E+02  0.54397441817E+02  0.10566000000E+00 0.  1.
        994    1    1    2    0    0  0.35302385871E+01  0.24568321370E+02  0.43845405703E+01  0.17304545413E+03  0.17120000000E+03 0.  0.
        998    1    1    2    0    0 -0.25480658605E+01 -0.83672879405E+01  0.14436959761E+04  0.14437571041E+04  0.10000000000E+02 0.  1.
</event>
<event>
 5    1  0.1303633E-008  0.3771101E+03  0.7957747E-01  0.3463839E+00
         13   -1    0    0    0    0  0.00000000000E+00  0.00000000000E+00  0.14999999963E+04  0.15000000000E+04  0.10566000000E+00 0. -1.
        994   -1    0    0    0    0 -0.00000000000E+00 -0.00000000000E+00  0.11368683772E-12  0.17120000000E+03  0.17120000000E+03 0.  0.
         13    1    1    2    0    0  0.38526144235E+01 -0.45006537251E+02  0.65561171260E+02  0.79616012047E+02  0.10566000000E+00 0. -1.
        994    1    1    2    0    0  0.42014615687E+01  0.22009254928E+02  0.16550990213E+02  0.17345153461E+03  0.17120000000E+03 0.  0.
        998    1    1    2    0    0 -0.80540759922E+01  0.22997282323E+02  0.14178878348E+04  0.14181324533E+04  0.10000000000E+02 0. -1.
</event>
<event>
 5    1  0.1303633E-008  0.3850953E+03  0.7957747E-01  0.3429268E+00
         13   -1    0    0    0    0  0.00000000000E+00  0.00000000000E+00  0.14999999963E+04  0.15000000000E+04  0.10566000000E+00 0. -1.
        994   -1    0    0    0    0 -0.00000000000E+00 -0.00000000000E+00  0.11368683772E-12  0.17120000000E+03  0.17120000000E+03 0.  0.
         13    1    1    2    0    0  0.23014411110E+01  0.17577138606E+02  0.91793105747E+02  0.93489239271E+02  0.10566000000E+00 0. -1.
        994    1    1    2    0    0 -0.16533438920E+02 -0.20280005362E+02  0.38369119114E+01  0.17323046820E+03  0.17120000000E+03 0.  0.
        998    1    1    2    0    0  0.14231997808E+02  0.27028667554E+01  0.14043699786E+04  0.14044802925E+04  0.10000000000E+02 0. -1.
</event>
<event>
 5    1  0.1303633E-008  0.3857118E+03  0.7957747E-01  0.3426659E+00
         13   -1    0    0    0    0  0.00000000000E+00  0.00000000000E+00  0.14999999963E+04  0.15000000000E+04  0.10566000000E+00 0. -1.
        994   -1    0    0    0    0 -0.00000000000E+00 -0.00000000000E+00  0.11368683772E-12  0.17120000000E+03  0.17120000000E+03 0.  0.
         13    1    1    2    0    0 -0.12794315229E+02 -0.15130318970E+02  0.11343630542E+03  0.11515393005E+03  0.10566000000E+00 0. -1.
        994    1    1    2    0    0  0.40327161386E+02  0.28262582695E+02  0.92747344442E+01  0.17838305476E+03  0.17120000000E+03 0.  0.
        998    1    1    2    0    0 -0.27532846156E+02 -0.13132263725E+02  0.13772889564E+04  0.13776630152E+04  0.10000000000E+02 0. -1.
</event>
<event>
 5    1  0.1303633E-008  0.2761780E+03  0.7957747E-01  0.4082280E+00
         13   -1    0    0    0    0  0.00000000000E+00  0.00000000000E+00  0.14999999963E+04  0.15000000000E+04  0.10566000000E+00 0. -1.
        994   -1    0    0    0    0 -0.00000000000E+00 -0.00000000000E+00  0.11368683772E-12  0.17120000000E+03  0.17120000000E+03 0.  0.
         13    1    1    2    0    0  0.10769554311E+03 -0.14478213765E+03  0.69171890030E+03  0.71486729229E+03  0.10566000000E+00 0. -1.
        994    1    1    2    0    0 -0.10279995771E+02  0.50713197100E+02  0.49605248019E+02  0.18560072011E+03  0.17120000000E+03 0.  0.
        998    1    1    2    0    0 -0.97415547341E+02  0.94068940548E+02  0.75867584796E+03  0.77073198761E+03  0.10000000000E+02 0. -1.
</event>
<event>
 5    1  0.1303633E-008  0.3856191E+03  0.7957747E-01  0.3427051E+00
         13   -1    0    0    0    0  0.00000000000E+00  0.00000000000E+00  0.14999999963E+04  0.15000000000E+04  0.10566000000E+00 0.  1.
        994   -1    0    0    0    0 -0.00000000000E+00 -0.00000000000E+00  0.11368683772E-12  0.17120000000E+03  0.17120000000E+03 0.  0.
         13    1    1    2    0    0 -0.62094125610E+01  0.17946310547E+02  0.12319915264E+01  0.19030392370E+02  0.10566000000E+00 0.  1.
        994    1    1    2    0    0 -0.63415645478E+02  0.26085462583E+02  0.37061007783E+02  0.18810888801E+03  0.17120000000E+03 0.  0.
        998    1    1    2    0    0  0.69625058039E+02 -0.44031773130E+02  0.14617069970E+04  0.14640607196E+04  0.10000000000E+02 0.  1.
</event>
<event>
 5    1  0.1303633E-008  0.3861154E+03  0.7957747E-01  0.3424955E+00
         13   -1    0    0    0    0  0.00000000000E+00  0.00000000000E+00  0.14999999963E+04  0.15000000000E+04  0.10566000000E+00 0. -1.
        994   -1    0    0    0    0 -0.00000000000E+00 -0.00000000000E+00  0.11368683772E-12  0.17120000000E+03  0.17120000000E+03 0.  0.
         13    1    1    2    0    0  0.10316720874E+02  0.17613618304E+01  0.55658571562E+02  0.56634131735E+02  0.10566000000E+00 0. -1.
        994    1    1    2    0    0  0.29281162455E+01  0.38003159011E+01  0.11527785886E+01  0.17127108677E+03  0.17120000000E+03 0.  0.
        998    1    1    2    0    0 -0.13244837119E+02 -0.55616777315E+01  0.14431886461E+04  0.14432947815E+04  0.10000000000E+02 0. -1.
</event>
<event>
 5    1  0.1303633E-008  0.3822877E+03  0.7957747E-01  0.3441257E+00
         13   -1    0    0    0    0  0.00000000000E+00  0.00000000000E+00  0.14999999963E+04  0.15000000000E+04  0.10566000000E+00 0. -1.
        994   -1    0    0    0    0 -0.00000000000E+00 -0.00000000000E+00  0.11368683772E-12  0.17120000000E+03  0.17120000000E+03 0.  0.
         13    1    1    2    0    0 -0.11428864705E+02 -0.12095842061E+02  0.44069547918E+02  0.47106948121E+02  0.10566000000E+00 0. -1.
        994    1    1    2    0    0  0.12416177639E+02  0.13702166955E+02  0.41179686314E+01  0.17224490852E+03  0.17120000000E+03 0.  0.
        998    1    1    2    0    0 -0.98731293403E+00 -0.16063248939E+01  0.14518124797E+04  0.14518481434E+04  0.10000000000E+02 0. -1.
</event>
<event>
 5    1  0.1303633E-008  0.3745991E+03  0.7957747E-01  0.3475017E+00
         13   -1    0    0    0    0  0.00000000000E+00  0.00000000000E+00  0.14999999963E+04  0.15000000000E+04  0.10566000000E+00 0. -1.
        994   -1    0    0    0    0 -0.00000000000E+00 -0.00000000000E+00  0.11368683772E-12  0.17120000000E+03  0.17120000000E+03 0.  0.
         13    1    1    2    0    0  0.50640932475E+02 -0.11831548185E+03  0.71283437350E+03  0.72435896660E+03  0.10566000000E+00 0. -1.
        994    1    1    2    0    0 -0.13544057700E+03  0.97838819924E+02  0.10877100172E+03  0.26278728165E+03  0.17120000000E+03 0.  0.
        998    1    1    2    0    0  0.84799644527E+02  0.20476661925E+02  0.67839462106E+03  0.68405375175E+03  0.10000000000E+02 0. -1.
</event>
<event>
 5    1  0.1303633E-008  0.3845386E+03  0.7957747E-01  0.3431632E+00
         13   -1    0    0    0    0  0.00000000000E+00  0.00000000000E+00  0.14999999963E+04  0.15000000000E+04  0.10566000000E+00 0. -1.
        994   -1    0    0    0    0 -0.00000000000E+00 -0.00000000000E+00  0.11368683772E-12  0.17120000000E+03  0.17120000000E+03 0.  0.
         13    1    1    2    0    0 -0.11108879548E+02 -0.62635478324E+01  0.43173442276E+02  0.45017735597E+02  0.10566000000E+00 0. -1.
        994    1    1    2    0    0  0.10173858903E+02  0.19128186011E+01  0.22124385959E+01  0.17152696920E+03  0.17120000000E+03 0.  0.
        998    1    1    2    0    0  0.93502064520E+00  0.43507292313E+01  0.14546141154E+04  0.14546552952E+04  0.10000000000E+02 0. -1.
</event>
<event>
 5    1  0.1303633E-008  0.3854970E+03  0.7957747E-01  0.3427567E+00
         13   -1    0    0    0    0  0.00000000000E+00  0.00000000000E+00  0.14999999963E+04  0.15000000000E+04  0.10566000000E+00 0.  1.
        994   -1    0    0    0    0 -0.00000000000E+00 -0.00000000000E+00  0.11368683772E-12  0.17120000000E+03  0.17120000000E+03 0.  0.
         13    1    1    2    0    0 -0.94061312784E+01  0.11565272081E+02  0.79409872834E+02  0.80797090860E+02  0.10566000000E+00 0.  1.
        994    1    1    2    0    0  0.96888452290E+01 -0.74765645140E+01  0.18754862980E+01  0.17164710946E+03  0.17120000000E+03 0.  0.
        998    1    1    2    0    0 -0.28271395055E+00 -0.40887075673E+01  0.14187146371E+04  0.14187557997E+04  0.10000000000E+02 0.  1.
</event>
<event>
 5    1  0.1303633E-008  0.3844630E+03  0.7957747E-01  0.3431953E+00
         13   -1    0    0    0    0  0.00000000000E+00  0.00000000000E+00  0.14999999963E+04  0.15000000000E+04  0.10566000000E+00 0. -1.
        994   -1    0    0    0    0 -0.00000000000E+00 -0.00000000000E+00  0.11368683772E-12  0.17120000000E+03  0.17120000000E+03 0.  0.
         13    1    1    2    0    0  0.25484812442E+02 -0.99094299839E+01  0.14816010856E+03  0.15066220960E+03  0.10566000000E+00 0. -1.
        994    1    1    2    0    0 -0.38900442545E+02  0.40077498536E+02  0.12242091082E+02  0.18049587007E+03  0.17120000000E+03 0.  0.
        998    1    1    2    0    0  0.13415630103E+02 -0.30168068552E+02  0.13395977966E+04  0.13400419203E+04  0.10000000000E+02 0. -1.
</event>
<event>
 5    1  0.1303633E-008  0.3794278E+03  0.7957747E-01  0.3453654E+00
         13   -1    0    0    0    0  0.00000000000E+00  0.00000000000E+00  0.14999999963E+04  0.15000000000E+04  0.10566000000E+00 0.  1.
        994   -1    0    0    0    0 -0.00000000000E+00 -0.00000000000E+00  0.11368683772E-12  0.17120000000E+03  0.17120000000E+03 0.  0.
         13    1    1    2    0    0  0.13939167746E+02 -0.13095337962E+02  0.40843561575E+02  0.45099844345E+02  0.10566000000E+00 0.  1.
        994    1    1    2    0    0 -0.51945959325E+01  0.16026032404E+00  0.45127458456E+01  0.17133830391E+03  0.17120000000E+03 0.  0.
        998    1    1    2    0    0 -0.87445718135E+01  0.12935077638E+02  0.14546436889E+04  0.14547618517E+04  0.10000000000E+02 0.  1.
</event>
<event>
 5    1  0.1303633E-008  0.3753514E+03  0.7957747E-01  0.3471653E+00
         13   -1    0    0    0    0  0.00000000000E+00  0.00000000000E+00  0.14999999963E+04  0.15000000000E+04  0.10566000000E+00 0. -1.
        994   -1    0    0    0    0 -0.00000000000E+00 -0.00000000000E+00  0.11368683772E-12  0.17120000000E+03  0.17120000000E+03 0.  0.
         13    1    1    2    0    0  0.20704487666E+02 -0.73448137877E+02  0.36903133032E+03  0.37683874361E+03  0.10566000000E+00 0. -1.
        994    1    1    2    0    0 -0.37095725042E+02  0.58724060135E+02  0.23059055598E+02  0.18618745420E+03  0.17120000000E+03 0.  0.
        998    1    1    2    0    0  0.16391237375E+02  0.14724077741E+02  0.11079096104E+04  0.11081738022E+04  0.10000000000E+02 0. -1.
</event>
<event>
 5    1  0.1303633E-008  0.3817122E+03  0.7957747E-01  0.3443737E+00
         13   -1    0    0    0    0  0.00000000000E+00  0.00000000000E+00  0.14999999963E+04  0.15000000000E+04  0.10566000000E+00 0. -1.
        994   -1    0    0    0    0 -0.00000000000E+00 -0.00000000000E+00  0.11368683772E-12  0.17120000000E+03  0.17120000000E+03 0.  0.
         13    1    1    2    0    0 -0.29548825066E+01 -0.12192034103E+02  0.23205625059E+02  0.26379712368E+02  0.10566000000E+00 0. -1.
        994    1    1    2    0    0 -0.27665257341E+01  0.32477307298E+01  0.33318290136E+01  0.17128555836E+03  0.17120000000E+03 0.  0.
        998    1    1    2    0    0  0.57214082407E+01  0.89443033728E+01  0.14734625422E+04  0.14735347293E+04  0.10000000000E+02 0. -1.
</event>
<event>
 5    1  0.1303633E-008  0.3822607E+03  0.7957747E-01  0.3441374E+00
         13   -1    0    0    0    0  0.00000000000E+00  0.00000000000E+00  0.14999999963E+04  0.15000000000E+04  0.10566000000E+00 0. -1.
        994   -1    0    0    0    0 -0.00000000000E+00 -0.00000000000E+00  0.11368683772E-12  0.17120000000E+03  0.17120000000E+03 0.  0.
         13    1    1    2    0    0  0.93329205224E+01  0.71630147409E+01  0.22074169276E+02  0.25013842146E+02  0.10566000000E+00 0. -1.
        994    1    1    2    0    0 -0.51980141329E+01 -0.36029441782E+01  0.31290218225E+01  0.17134535691E+03  0.17120000000E+03 0.  0.
        998    1    1    2    0    0 -0.41349063894E+01 -0.35600705627E+01  0.14747968052E+04  0.14748408009E+04  0.10000000000E+02 0. -1.
</event>
<event>
 5    1  0.1303633E-008  0.3852968E+03  0.7957747E-01  0.3428414E+00
         13   -1    0    0    0    0  0.00000000000E+00  0.00000000000E+00  0.14999999963E+04  0.15000000000E+04  0.10566000000E+00 0. -1.
        994   -1    0    0    0    0 -0.00000000000E+00 -0.00000000000E+00  0.11368683772E-12  0.17120000000E+03  0.17120000000E+03 0.  0.
         13    1    1    2    0    0  0.38390986838E+00 -0.19017896678E+02  0.11478816387E+03  0.11635360549E+03  0.10566000000E+00 0. -1.
        994    1    1    2    0    0 -0.86562089644E+00  0.19267548659E+02  0.27059464808E+01  0.17230423639E+03  0.17120000000E+03 0.  0.
        998    1    1    2    0    0  0.48171102806E+00 -0.24965198044E+00  0.13825058859E+04  0.13825421581E+04  0.10000000000E+02 0.  0.
</event>
<event>
 5    1  0.1303633E-008  0.3794823E+03  0.7957747E-01  0.3453416E+00
         13   -1    0    0    0    0  0.00000000000E+00  0.00000000000E+00  0.14999999963E+04  0.15000000000E+04  0.10566000000E+00 0. -1.
        994   -1    0    0    0    0 -0.00000000000E+00 -0.00000000000E+00  0.11368683772E-12  0.17120000000E+03  0.17120000000E+03 0.  0.
         13    1    1    2    0    0  0.32903436166E+02 -0.10513867464E+02  0.12488052482E+03  0.12956980422E+03  0.10566000000E+00 0. -1.
        994    1    1    2    0    0 -0.58258035017E+02 -0.56725774959E+02  0.26863357470E+02  0.19142333234E+03  0.17120000000E+03 0.  0.
        998    1    1    2    0    0  0.25354598851E+02  0.67239642423E+02  0.13482561140E+04  0.13502068634E+04  0.10000000000E+02 0. -1.
</event>
<event>
 5    1  0.1303633E-008  0.3716650E+03  0.7957747E-01  0.3488274E+00
         13   -1    0    0    0    0  0.00000000000E+00  0.00000000000E+00  0.14999999963E+04  0.15000000000E+04  0.10566000000E+00 0. -1.
        994   -1    0    0    0    0 -0.00000000000E+00 -0.00000000000E+00  0.11368683772E-12  0.17120000000E+03  0.17120000000E+03 0.  0.
         13    1    1    2    0    0 -0.41066265634E+02 -0.96002469987E+01  0.68126049359E+02  0.80123483953E+02  0.10566000000E+00 0. -1.
        994    1    1    2    0    0  0.40985162861E+02  0.63674128597E+01  0.17895887229E+02  0.17705939766E+03  0.17120000000E+03 0.  0.
        998    1    1    2    0    0  0.81102772354E-01  0.32328341390E+01  0.14139780597E+04  0.14140171184E+04  0.10000000000E+02 0.  0.
</event>
<event>
 5    1  0.1303633E-008  0.3849657E+03  0.7957747E-01  0.3429818E+00
         13   -1    0    0    0    0  0.00000000000E+00  0.00000000000E+00  0.14999999963E+04  0.15000000000E+04  0.10566000000E+00 0. -1.
        994   -1    0    0    0    0 -0.00000000000E+00 -0.00000000000E+00  0.11368683772E-12  0.17120000000E+03  0.17120000000E+03 0.  0.
         13    1    1    2    0    0  0.12164814946E+02  0.44871448140E+01  0.48025672140E+02  0.49745286609E+02  0.10566000000E+00 0. -1.
        994    1    1    2    0    0 -0.18832498192E+02 -0.57553265976E+01  0.29236425368E+01  0.17235363198E+03  0.17120000000E+03 0.  0.
        998    1    1    2    0    0  0.66676832466E+01  0.12681817836E+01  0.14490506816E+04  0.14491010814E+04  0.10000000000E+02 0. -1.
</event>
<event>
 5    1  0.1303633E-008  0.3844562E+03  0.7957747E-01  0.3431982E+00
         13   -1    0    0    0    0  0.00000000000E+00  0.00000000000E+00  0.14999999963E+04  0.15000000000E+04  0.10566000000E+00 0. -1.
        994   -1    0    0    0    0 -0.00000000000E+00 -0.00000000000E+00  0.11368683772E-12  0.17120000000E+03  0.17120000000E+03 0.  0.
         13    1    1    2    0    0 -0.15808707194E+02  0.34815594776E+01  0.69463674457E+02  0.71324958553E+02  0.10566000000E+00 0. -1.
        994    1    1    2    0    0  0.97114473784E+01  0.32721217696E+01  0.22464190628E+01  0.17152115144E+03  0.17120000000E+03 0.  0.
        998    1    1    2    0    0  0.60972598159E+01 -0.67536812471E+01  0.14282899028E+04  0.14283538900E+04  0.10000000000E+02 0. -1.
</event>
<event>
 5    1  0.1303633E-008  0.3788257E+03  0.7957747E-01  0.3456288E+00
         13   -1    0    0    0    0  0.00000000000E+00  0.00000000000E+00  0.14999999963E+04  0.15000000000E+04  0.10566000000E+00 0. -1.
        994   -1    0    0    0    0 -0.00000000000E+00 -0.00000000000E+00  0.11368683772E-12  0.17120000000E+03  0.17120000000E+03 0.  0.
         13    1    1    2    0    0  0.53025242930E+01  0.11366816270E+02  0.15299973603E+02  0.19784378491E+02  0.10566000000E+00 0. -1.
        994    1    1    2    0    0 -0.44962631977E+01  0.14041122443E+02  0.54569011510E+01  0.17192029337E+03  0.17120000000E+03 0.  0.
        998    1    1    2    0    0 -0.80626109528E+00 -0.25407938713E+02  0.14792431215E+04  0.14794953281E+04  0.10000000000E+02 0. -1.
</event>
<event>
 5    1  0.1303633E-008  0.3725058E+03  0.7957747E-01  0.3484453E+00
         13   -1    0    0    0    0  0.00000000000E+00  0.00000000000E+00  0.14999999963E+04  0.15000000000E+04  0.10566000000E+00 0.  1.
        994   -1    0    0    0    0 -0.00000000000E+00 -0.00000000000E+00  0.11368683772E-12  0.17120000000E+03  0.17120000000E+03 0.  0.
         13    1    1    2    0    0 -0.90499197324E+01 -0.75423294461E+01  0.49480428761E+01  0.12778187390E+02  0.10566000000E+00 0.  1.
        994    1    1    2    0    0  0.56276706751E+01  0.17924234609E+02  0.91759906454E+01  0.17247199097E+03  0.17120000000E+03 0.  0.
        998    1    1    2    0    0  0.34222490573E+01 -0.10381905163E+02  0.14858759628E+04  0.14859498216E+04  0.10000000000E+02 0.  1.
</event>
<event>
 5    1  0.1303633E-008  0.3753755E+03  0.7957747E-01  0.3471545E+00
         13   -1    0    0    0    0  0.00000000000E+00  0.00000000000E+00  0.14999999963E+04  0.15000000000E+04  0.10566000000E+00 0.  1.
        994   -1    0    0    0    0 -0.00000000000E+00 -0.00000000000E+00  0.11368683772E-12  0.17120000000E+03  0.17120000000E+03 0.  0.
         13    1    1    2    0    0  0.27622102896E+02 -0.99646354240E+01  0.63306337014E+02  0.69785227647E+02  0.10566000000E+00 0.  1.
        994    1    1    2    0    0 -0.31057672528E+02 -0.20886495232E+02  0.11256509834E+02  0.17560459481E+03  0.17120000000E+03 0.  0.
        998    1    1    2    0    0  0.34355696325E+01  0.30851130656E+02  0.14254371494E+04  0.14258101775E+04  0.10000000000E+02 0.  1.
</event>
<event>
 5    1  0.1303633E-008  0.3855514E+03  0.7957747E-01  0.3427337E+00
         13   -1    0    0    0    0  0.00000000000E+00  0.00000000000E+00  0.14999999963E+04  0.15000000000E+04  0.10566000000E+00 0.  1.
        994   -1    0    0    0    0 -0.00000000000E+00 -0.00000000000E+00  0.11368683772E-12  0.17120000000E+03  0.17120000000E+03 0.  0.
         13    1    1    2    0    0 -0.12064191596E+02  0.10476111348E+02  0.89317440313E+02  0.90735384145E+02  0.10566000000E+00 0.  1.
        994    1    1    2    0    0  0.12811049334E+02 -0.11931148749E+02  0.23633721398E+01  0.17210897950E+03  0.17120000000E+03 0.  0.
        998    1    1    2    0    0 -0.74685773793E+00  0.14550374005E+01  0.14083191838E+04  0.14083556364E+04  0.10000000000E+02 0.  1.
</event>
<event>
 5    1  0.1303633E-008  0.3840843E+03  0.7957747E-01  0.3433565E+00
         13   -1    0    0    0    0  0.00000000000E+00  0.00000000000E+00  0.14999999963E+04  0.15000000000E+04  0.10566000000E+00 0. -1.
        994   -1    0    0    0    0 -0.00000000000E+00 -0.00000000000E+00  0.11368683772E-12  0.17120000000E+03  0.17120000000E+03 0.  0.
         13    1    1    2    0    0 -0.17038056407E+02  0.14601640072E+02  0.11987905437E+03  0.12196106797E+03  0.10566000000E+00 0. -1.
        994    1    1    2    0    0  0.12201476059E+02 -0.77953472761E+01  0.27772496722E+01  0.17183363051E+03  0.17120000000E+03 0.  0.
        998    1    1    2    0    0  0.48365803482E+01 -0.68062927958E+01  0.13773436922E+04  0.13774053015E+04  0.10000000000E+02 0. -1.
</event>
<event>
 5    1  0.1303633E-008  0.3797205E+03  0.7957747E-01  0.3452376E+00
         13   -1    0    0    0    0  0.00000000000E+00  0.00000000000E+00  0.14999999963E+04  0.15000000000E+04  0.10566000000E+00 0.  1.
        994   -1    0    0    0    0 -0.00000000000E+00 -0.00000000000E+00  0.11368683772E-12  0.17120000000E+03  0.17120000000E+03 0.  0.
         13    1    1    2    0    0 -0.11546162544E+02 -0.80285821512E+01  0.21455465421E+02  0.25653852757E+02  0.10566000000E+00 0.  1.
        994    1    1    2    0    0  0.74799320499E+01  0.35977586823E+01  0.45048490271E+01  0.17146027795E+03  0.17120000000E+03 0.  0.
        998    1    1    2    0    0  0.40662304936E+01  0.44308234689E+01  0.14740396818E+04  0.14740858693E+04  0.10000000000E+02 0.  1.
</event>
<event>
 5    1  0.1303633E-008  0.3799632E+03  0.7957747E-01  0.3451319E+00
         13   -1    0    0    0    0  0.00000000000E+00  0.00000000000E+00  0.14999999963E+04  0.15000000000E+04  0.10566000000E+00 0.  1.
        994   -1    0    0    0    0 -0.00000000000E+00 -0.00000000000E+00  0.11368683772E-12  0.17120000000E+03  0.17120000000E+03 0.  0.
         13    1    1    2    0    0 -0.25974559603E+02  0.18403958615E+02  0.13504487342E+03  0.13874621595E+03  0.10566000000E+00 0.  1.
        994    1    1    2    0    0  0.17439580175E+02  0.22408024366E+02  0.68519913631E+01  0.17367397127E+03  0.17120000000E+03 0.  0.
        998    1    1    2    0    0  0.85349794280E+01 -0.40811982981E+02  0.13581031315E+04  0.13587798128E+04  0.10000000000E+02 0.  1.
</event>
<event>
 5    1  0.1303633E-008  0.3727181E+03  0.7957747E-01  0.3483492E+00
         13   -1    0    0    0    0  0.00000000000E+00  0.00000000000E+00  0.14999999963E+04  0.15000000000E+04  0.10566000000E+00 0.  1.
        994   -1    0    0    0    0 -0.00000000000E+00 -0.00000000000E+00  0.11368683772E-12  0.17120000000E+03  0.17120000000E+03 0.  0.
         13    1    1    2    0    0 -0.27267808658E+02  0.67274793040E+02  0.16514250238E+03  0.18039259526E+03  0.10566000000E+00 0.  1.
        994    1    1    2    0    0  0.37626506250E+02 -0.91417094557E+02  0.47729529920E+02  0.20337253299E+03  0.17120000000E+03 0.  0.
        998    1    1    2    0    0 -0.10358697591E+02  0.24142301517E+02  0.12871279640E+04  0.12874348717E+04  0.10000000000E+02 0.  1.
</event>
<event>
 5    1  0.1303633E-008  0.3858520E+03  0.7957747E-01  0.3426067E+00
         13   -1    0    0    0    0  0.00000000000E+00  0.00000000000E+00  0.14999999963E+04  0.15000000000E+04  0.10566000000E+00 0. -1.
        994   -1    0    0    0    0 -0.00000000000E+00 -0.00000000000E+00  0.11368683772E-12  0.17120000000E+03  0.17120000000E+03 0.  0.
         13    1    1    2    0    0  0.11122013818E+02 -0.36662907770E+01  0.64953106329E+02  0.66000439887E+02  0.10566000000E+00 0. -1.
        994    1    1    2    0    0  0.99206177258E+01  0.18928383809E+01  0.15423156176E+01  0.17150457787E+03  0.17120000000E+03 0.  0.
        998    1    1    2    0    0 -0.21042631544E+02  0.17734523961E+01  0.14335045743E+04  0.14336949822E+04  0.10000000000E+02 0. -1.
</event>
<event>
 5    1  0.1303633E-008  0.3843541E+03  0.7957747E-01  0.3432416E+00
         13   -1    0    0    0    0  0.00000000000E+00  0.00000000000E+00  0.14999999963E+04  0.15000000000E+04  0.10566000000E+00 0. -1.
        994   -1    0    0    0    0 -0.00000000000E+00 -0.00000000000E+00  0.11368683772E-12  0.17120000000E+03  0.17120000000E+03 0.  0.
         13    1    1    2    0    0 -0.33219086373E+01 -0.14703683714E+02  0.54909463189E+02  0.56941142450E+02  0.10566000000E+00 0. -1.
        994    1    1    2    0    0  0.13370812161E+02  0.17512572986E+02  0.35526958501E+01  0.17264857508E+03  0.17120000000E+03 0.  0.
        998    1    1    2    0    0 -0.10048903524E+02 -0.28088892716E+01  0.14415378372E+04  0.14416102825E+04  0.10000000000E+02 0. -1.
</event>
<event>
 5    1  0.1303633E-008  0.3801502E+03  0.7957747E-01  0.3450505E+00
         13   -1    0    0    0    0  0.00000000000E+00  0.00000000000E+00  0.14999999963E+04  0.15000000000E+04  0.10566000000E+00 0. -1.
        994   -1    0    0    0    0 -0.00000000000E+00 -0.00000000000E+00  0.11368683772E-12  0.17120000000E+03  0.17120000000E+03 0.  0.
         13    1    1    2    0    0 -0.48339797320E+02  0.99478396594E+01  0.29420042853E+03  0.29831124490E+03  0.10566000000E+00 0. -1.
        994    1    1    2    0    0  0.26094814837E+02 -0.24190128816E+02  0.82993050330E+01  0.17505547737E+03  0.17120000000E+03 0.  0.
        998    1    1    2    0    0  0.22244982483E+02  0.14242289156E+02  0.11975002627E+04  0.11978332777E+04  0.10000000000E+02 0. -1.
</event>
<event>
 5    1  0.1303633E-008  0.3777088E+03  0.7957747E-01  0.3461196E+00
         13   -1    0    0    0    0  0.00000000000E+00  0.00000000000E+00  0.14999999963E+04  0.15000000000E+04  0.10566000000E+00 0. -1.
        994   -1    0    0    0    0 -0.00000000000E+00 -0.00000000000E+00  0.11368683772E-12  0.17120000000E+03  0.17120000000E+03 0.  0.
         13    1    1    2    0    0 -0.12259618474E+02 -0.36039337015E+02  0.15867251142E+03  0.16317508726E+03  0.10566000000E+00 0. -1.
        994    1    1    2    0    0 -0.70557467926E+01 -0.23661266135E+01  0.54808195714E+01  0.17144929717E+03  0.17120000000E+03 0.  0.
        998    1    1    2    0    0  0.19315365267E+02  0.38405463629E+02  0.13358466653E+04  0.13365756156E+04  0.10000000000E+02 0. -1.
</event>
<event>
 5    1  0.1303633E-008  0.3826623E+03  0.7957747E-01  0.3439648E+00
         13   -1    0    0    0    0  0.00000000000E+00  0.00000000000E+00  0.14999999963E+04  0.15000000000E+04  0.10566000000E+00 0.  1.
        994   -1    0    0    0    0 -0.00000000000E+00 -0.00000000000E+00  0.11368683772E-12  0.17120000000E+03  0.17120000000E+03 0.  0.
         13    1    1    2    0    0 -0.93110987752E+00  0.16447860597E+02  0.42146171446E+02  0.45251629975E+02  0.10566000000E+00 0.  1.
        994    1    1    2    0    0  0.40845743907E+01 -0.41043530836E+02  0.84533676793E+01  0.17630131763E+03  0.17120000000E+03 0.  0.
        998    1    1    2    0    0 -0.31534645131E+01  0.24595670240E+02  0.14494004572E+04  0.14496470524E+04  0.10000000000E+02 0.  1.
</event>
<event>
 5    1  0.1303633E-008  0.3708457E+03  0.7957747E-01  0.3492013E+00
         13   -1    0    0    0    0  0.00000000000E+00  0.00000000000E+00  0.14999999963E+04  0.15000000000E+04  0.10566000000E+00 0.  1.
        994   -1    0    0    0    0 -0.00000000000E+00 -0.00000000000E+00  0.11368683772E-12  0.17120000000E+03  0.17120000000E+03 0.  0.
         13    1    1    2    0    0  0.38892661109E+02  0.17934728527E+02  0.75507747994E+02  0.86808552267E+02  0.10566000000E+00 0.  1.
        994    1    1    2    0    0 -0.25760103702E+02 -0.20579874071E+02  0.15208058844E+02  0.17500811185E+03  0.17120000000E+03 0.  0.
        998    1    1    2    0    0 -0.13132557407E+02  0.26451455432E+01  0.14092841894E+04  0.14093833359E+04  0.10000000000E+02 0.  1.
</event>
<event>
 5    1  0.1303633E-008  0.3125035E+03  0.7957747E-01  0.3810610E+00
         13   -1    0    0    0    0  0.00000000000E+00  0.00000000000E+00  0.14999999963E+04  0.15000000000E+04  0.10566000000E+00 0.  1.
        994   -1    0    0    0    0 -0.00000000000E+00 -0.00000000000E+00  0.11368683772E-12  0.17120000000E+03  0.17120000000E+03 0.  0.
         13    1    1    2    0    0  0.23842443797E+03  0.65048344357E+02  0.52243649567E+03  0.57794238718E+03  0.10566000000E+00 0.  1.
        994    1    1    2    0    0 -0.23596185802E+03 -0.11320387866E+03  0.37327933131E+03  0.48697024115E+03  0.17120000000E+03 0.  0.
        998    1    1    2    0    0 -0.24625799490E+01  0.48155534300E+02  0.60428416930E+03  0.60628737167E+03  0.10000000000E+02 0.  1.
</event>
<event>
 5    1  0.1303633E-008  0.3901969E+03  0.7957747E-01  0.3407926E+00
         13   -1    0    0    0    0  0.00000000000E+00  0.00000000000E+00  0.14999999963E+04  0.15000000000E+04  0.10566000000E+00 0.  1.
        994   -1    0    0    0    0 -0.00000000000E+00 -0.00000000000E+00  0.11368683772E-12  0.17120000000E+03  0.17120000000E+03 0.  0.
         13    1    1    2    0    0  0.14028560482E+02  0.25961970153E+02  0.10752797348E+02  0.31407932410E+02  0.10566000000E+00 0.  1.
        994    1    1    2    0    0 -0.20651957821E+02 -0.76053306808E+01  0.23870717288E+02  0.17425152958E+03  0.17120000000E+03 0.  0.
        998    1    1    2    0    0  0.66233973389E+01 -0.18356639472E+02  0.14653764816E+04  0.14655405380E+04  0.10000000000E+02 0.  1.
</event>
<event>
 5    1  0.1303633E-008  0.3700450E+03  0.7957747E-01  0.3495684E+00
         13   -1    0    0    0    0  0.00000000000E+00  0.00000000000E+00  0.14999999963E+04  0.15000000000E+04  0.10566000000E+00 0. -1.
        994   -1    0    0    0    0 -0.00000000000E+00 -0.00000000000E+00  0.11368683772E-12  0.17120000000E+03  0.17120000000E+03 0.  0.
         13    1    1    2    0    0 -0.18873730480E+02  0.50304848230E+01  0.12552982715E+02  0.23218785904E+02  0.10566000000E+00 0. -1.
        994    1    1    2    0    0  0.17459549327E+02  0.36968664814E+01  0.12077033104E+02  0.17255085457E+03  0.17120000000E+03 0.  0.
        998    1    1    2    0    0  0.14141811524E+01 -0.87273513045E+01  0.14753699805E+04  0.14754303595E+04  0.10000000000E+02 0. -1.
</event>
<event>
 5    1  0.1303633E-008  0.3858936E+03  0.7957747E-01  0.3425891E+00
         13   -1    0    0    0    0  0.00000000000E+00  0.00000000000E+00  0.14999999963E+04  0.15000000000E+04  0.10566000000E+00 0. -1.
        994   -1    0    0    0    0 -0.00000000000E+00 -0.00000000000E+00  0.11368683772E-12  0.17120000000E+03  0.17120000000E+03 0.  0.
         13    1    1    2    0    0 -0.12568078502E+02 -0.34097008826E+01  0.69663314440E+02  0.70870100890E+02  0.10566000000E+00 0. -1.
        994    1    1    2    0    0  0.12864981243E+02  0.31009346868E+01  0.17615794252E+01  0.17171973300E+03  0.17120000000E+03 0.  0.
        998    1    1    2    0    0 -0.29690274066E+00  0.30876619573E+00  0.14285751024E+04  0.14286101661E+04  0.10000000000E+02 0.  0.
</event>
<event>
 5    1  0.1303633E-008  0.3692539E+03  0.7957747E-01  0.3499327E+00
         13   -1    0    0    0    0  0.00000000000E+00  0.00000000000E+00  0.14999999963E+04  0.15000000000E+04  0.10566000000E+00 0.  1.
        994   -1    0    0    0    0 -0.00000000000E+00 -0.00000000000E+00  0.11368683772E-12  0.17120000000E+03  0.17120000000E+03 0.  0.
         13    1    1    2    0    0  0.15231970142E+02  0.20253578624E+02  0.28857605223E+02  0.38405636367E+02  0.10566000000E+00 0.  1.
        994    1    1    2    0    0 -0.12050938537E+02 -0.20320682174E+02  0.11596843101E+02  0.17321109091E+03  0.17120000000E+03 0.  0.
        998    1    1    2    0    0 -0.31810316058E+01  0.67103550110E-01  0.14595455480E+04  0.14595832727E+04  0.10000000000E+02 0.  1.
</event>
<event>
 5    1  0.1303633E-008  0.3745899E+03  0.7957747E-01  0.3475059E+00
         13   -1    0    0    0    0  0.00000000000E+00  0.00000000000E+00  0.14999999963E+04  0.15000000000E+04  0.10566000000E+00 0.  1.
        994   -1    0    0    0    0 -0.00000000000E+00 -0.00000000000E+00  0.11368683772E-12  0.17120000000E+03  0.17120000000E+03 0.  0.
         13    1    1    2    0    0 -0.67793300603E+02  0.54491877948E+02  0.26387916950E+03  0.27784442343E+03  0.10566000000E+00 0.  1.
        994    1    1    2    0    0  0.80123944858E+02 -0.15166380613E+01  0.36572943338E+02  0.19253354751E+03  0.17120000000E+03 0.  0.
        998    1    1    2    0    0 -0.12330644255E+02 -0.52975239887E+02  0.11995478834E+04  0.12008220291E+04  0.10000000000E+02 0.  1.
</event>
<event>
 5    1  0.1303633E-008  0.3918532E+03  0.7957747E-01  0.3401117E+00
         13   -1    0    0    0    0  0.00000000000E+00  0.00000000000E+00  0.14999999963E+04  0.15000000000E+04  0.10566000000E+00 0.  1.
        994   -1    0    0    0    0 -0.00000000000E+00 -0.00000000000E+00  0.11368683772E-12  0.17120000000E+03  0.17120000000E+03 0.  0.
         13    1    1    2    0    0  0.72475703095E+02 -0.48797195400E+02  0.21733476382E+03  0.23423984406E+03  0.10566000000E+00 0.  1.
        994    1    1    2    0    0  0.46456293731E+02  0.32222461431E+02  0.35211421844E+02  0.18370018638E+03  0.17120000000E+03 0.  0.
        998    1    1    2    0    0 -0.11893199683E+03  0.16574733970E+02  0.12474538106E+04  0.12532599696E+04  0.10000000000E+02 0.  1.
</event>
<event>
 5    1  0.1303633E-008  0.3693109E+03  0.7957747E-01  0.3499064E+00
         13   -1    0    0    0    0  0.00000000000E+00  0.00000000000E+00  0.14999999963E+04  0.15000000000E+04  0.10566000000E+00 0. -1.
        994   -1    0    0    0    0 -0.00000000000E+00 -0.00000000000E+00  0.11368683772E-12  0.17120000000E+03  0.17120000000E+03 0.  0.
         13    1    1    2    0    0 -0.68667756751E+01  0.14988707363E+02  0.86089068789E+01  0.18599419300E+02  0.10566000000E+00 0. -1.
        994    1    1    2    0    0  0.30040173032E+02 -0.53871715037E+02  0.22934075851E+02  0.18341206479E+03  0.17120000000E+03 0.  0.
        998    1    1    2    0    0 -0.23173397357E+02  0.38883007674E+02  0.14684570135E+04  0.14691885159E+04  0.10000000000E+02 0. -1.
</event>
<event>
 5    1  0.1303633E-008  0.3805299E+03  0.7957747E-01  0.3448855E+00
         13   -1    0    0    0    0  0.00000000000E+00  0.00000000000E+00  0.14999999963E+04  0.15000000000E+04  0.10566000000E+00 0.  1.
        994   -1    0    0    0    0 -0.00000000000E+00 -0.00000000000E+00  0.11368683772E-12  0.17120000000E+03  0.17120000000E+03 0.  0.
         13    1    1    2    0    0 -0.25143668235E+01 -0.13208110961E+02  0.22026993934E+02  0.25806508123E+02  0.10566000000E+00 0.  1.
        994    1    1    2    0    0 -0.20977391320E+01  0.62431068349E+01  0.40106790252E+01  0.17137357567E+03  0.17120000000E+03 0.  0.
        998    1    1    2    0    0  0.46121059555E+01  0.69650041263E+01  0.14739623233E+04  0.14740199162E+04  0.10000000000E+02 0.  1.
</event>
<event>
 5    1  0.1303633E-008  0.4590296E+03  0.7957747E-01  0.3165862E+00
         13   -1    0    0    0    0  0.00000000000E+00  0.00000000000E+00  0.14999999963E+04  0.15000000000E+04  0.10566000000E+00 0. -1.
        994   -1    0    0    0    0 -0.00000000000E+00 -0.00000000000E+00  0.11368683772E-12  0.17120000000E+03  0.17120000000E+03 0.  0.
         13    1    1    2    0    0 -0.63025195415E+02 -0.77452192548E+02  0.55859787399E+02  0.11441741301E+03  0.10566000000E+00 0. -1.
        994    1    1    2    0    0  0.50180130858E+02  0.54813759513E+02  0.98834253755E+02  0.21118769727E+03  0.17120000000E+03 0.  0.
        998    1    1    2    0    0  0.12845064557E+02  0.22638433034E+02  0.13453059551E+04  0.13455948897E+04  0.10000000000E+02 0. -1.
</event>
<event>
 5    1  0.1303633E-008  0.3849405E+03  0.7957747E-01  0.3429924E+00
         13   -1    0    0    0    0  0.00000000000E+00  0.00000000000E+00  0.14999999963E+04  0.15000000000E+04  0.10566000000E+00 0. -1.
        994   -1    0    0    0    0 -0.00000000000E+00 -0.00000000000E+00  0.11368683772E-12  0.17120000000E+03  0.17120000000E+03 0.  0.
         13    1    1    2    0    0  0.14093328681E+02 -0.16521651267E+01  0.66998012276E+02  0.68484278312E+02  0.10566000000E+00 0. -1.
        994    1    1    2    0    0  0.64599297973E+01  0.36400285172E+01  0.18405356100E+01  0.17137038272E+03  0.17120000000E+03 0.  0.
        998    1    1    2    0    0 -0.20553258478E+02 -0.19878633905E+01  0.14311614484E+04  0.14313453390E+04  0.10000000000E+02 0. -1.
</event>
<event>
 5    1  0.1303633E-008  0.3817273E+03  0.7957747E-01  0.3443672E+00
         13   -1    0    0    0    0  0.00000000000E+00  0.00000000000E+00  0.14999999963E+04  0.15000000000E+04  0.10566000000E+00 0.  1.
        994   -1    0    0    0    0 -0.00000000000E+00 -0.00000000000E+00  0.11368683772E-12  0.17120000000E+03  0.17120000000E+03 0.  0.
         13    1    1    2    0    0  0.12805911895E+02  0.55911914552E+01  0.29973770510E+02  0.33070997626E+02  0.10566000000E+00 0.  1.
        994    1    1    2    0    0  0.37705868923E+01  0.48117312401E+00  0.33117633992E+01  0.17127421473E+03  0.17120000000E+03 0.  0.
        998    1    1    2    0    0 -0.16576498787E+02 -0.60723645792E+01  0.14667144624E+04  0.14668547876E+04  0.10000000000E+02 0.  1.
</event>
<event>
 5    1  0.1303633E-008  0.3755083E+03  0.7957747E-01  0.3470953E+00
         13   -1    0    0    0    0  0.00000000000E+00  0.00000000000E+00  0.14999999963E+04  0.15000000000E+04  0.10566000000E+00 0. -1.
        994   -1    0    0    0    0 -0.00000000000E+00 -0.00000000000E+00  0.11368683772E-12  0.17120000000E+03  0.17120000000E+03 0.  0.
         13    1    1    2    0    0 -0.87112183154E+01 -0.10670633817E+03  0.44100012037E+03  0.45380970159E+03  0.10566000000E+00 0. -1.
        994    1    1    2    0    0  0.22874971560E+02  0.50834579377E+02  0.25043357356E+02  0.18178016540E+03  0.17120000000E+03 0.  0.
        998    1    1    2    0    0 -0.14163753244E+02  0.55871758788E+02  0.10339565186E+04  0.10356101330E+04  0.10000000000E+02 0. -1.
</event>
<event>
 5    1  0.1303633E-008  0.3838490E+03  0.7957747E-01  0.3434568E+00
         13   -1    0    0    0    0  0.00000000000E+00  0.00000000000E+00  0.14999999963E+04  0.15000000000E+04  0.10566000000E+00 0. -1.
        994   -1    0    0    0    0 -0.00000000000E+00 -0.00000000000E+00  0.11368683772E-12  0.17120000000E+03  0.17120000000E+03 0.  0.
         13    1    1    2    0    0 -0.17342533612E+02  0.43302940960E+01  0.74869773302E+02  0.76974080296E+02  0.10566000000E+00 0. -1.
        994    1    1    2    0    0  0.35083737114E+01 -0.69965887899E+01  0.24048968787E+01  0.17139569560E+03  0.17120000000E+03 0.  0.
        998    1    1    2    0    0  0.13834159901E+02  0.26662946939E+01  0.14227253261E+04  0.14228302241E+04  0.10000000000E+02 0. -1.
</event>
<event>
 5    1  0.1303633E-008  0.3766494E+03  0.7957747E-01  0.3465879E+00
         13   -1    0    0    0    0  0.00000000000E+00  0.00000000000E+00  0.14999999963E+04  0.15000000000E+04  0.10566000000E+00 0. -1.
        994   -1    0    0    0    0 -0.00000000000E+00 -0.00000000000E+00  0.11368683772E-12  0.17120000000E+03  0.17120000000E+03 0.  0.
         13    1    1    2    0    0 -0.17505344666E+02  0.10127823995E+02  0.33603642199E+02  0.39220222383E+02  0.10566000000E+00 0. -1.
        994    1    1    2    0    0 -0.23518461737E+01 -0.12063866625E+02  0.63450011941E+01  0.17175787347E+03  0.17120000000E+03 0.  0.
        998    1    1    2    0    0  0.19857190840E+02  0.19360426302E+01  0.14600513529E+04  0.14602219041E+04  0.10000000000E+02 0. -1.
</event>
<event>
 5    1  0.1303633E-008  0.3850485E+03  0.7957747E-01  0.3429466E+00
         13   -1    0    0    0    0  0.00000000000E+00  0.00000000000E+00  0.14999999963E+04  0.15000000000E+04  0.10566000000E+00 0.  1.
        994   -1    0    0    0    0 -0.00000000000E+00 -0.00000000000E+00  0.11368683772E-12  0.17120000000E+03  0.17120000000E+03 0.  0.
         13    1    1    2    0    0  0.12438544495E+02  0.86577432877E+01  0.71271857294E+02  0.72865373904E+02  0.10566000000E+00 0.  1.
        994    1    1    2    0    0 -0.11565177701E+02 -0.19038089736E+01  0.20579030558E+01  0.17161309038E+03  0.17120000000E+03 0.  0.
        998    1    1    2    0    0 -0.87336679454E+00 -0.67539343141E+01  0.14266702359E+04  0.14267215357E+04  0.10000000000E+02 0.  1.
</event>
<event>
 5    1  0.1303633E-008  0.4033060E+03  0.7957747E-01  0.3355560E+00
         13   -1    0    0    0    0  0.00000000000E+00  0.00000000000E+00  0.14999999963E+04  0.15000000000E+04  0.10566000000E+00 0. -1.
        994   -1    0    0    0    0 -0.00000000000E+00 -0.00000000000E+00  0.11368683772E-12  0.17120000000E+03  0.17120000000E+03 0.  0.
         13    1    1    2    0    0  0.55290299579E+02 -0.31495615183E+02  0.52208433307E+02  0.82308703524E+02  0.10566000000E+00 0. -1.
        994    1    1    2    0    0 -0.66637552432E+02  0.57519022249E+02  0.61238217809E+02  0.20201128839E+03  0.17120000000E+03 0.  0.
        998    1    1    2    0    0  0.11347252853E+02 -0.26023407066E+02  0.13865533452E+04  0.13868800081E+04  0.10000000000E+02 0. -1.
</event>
<event>
 5    1  0.1303633E-008  0.3844969E+03  0.7957747E-01  0.3431809E+00
         13   -1    0    0    0    0  0.00000000000E+00  0.00000000000E+00  0.14999999963E+04  0.15000000000E+04  0.10566000000E+00 0. -1.
        994   -1    0    0    0    0 -0.00000000000E+00 -0.00000000000E+00  0.11368683772E-12  0.17120000000E+03  0.17120000000E+03 0.  0.
         13    1    1    2    0    0  0.14681717035E+02 -0.66882404691E+01  0.73510501272E+02  0.75260151056E+02  0.10566000000E+00 0. -1.
        994    1    1    2    0    0 -0.19465142760E+01 -0.28977050834E+01  0.19202672115E+01  0.17124635190E+03  0.17120000000E+03 0.  0.
        998    1    1    2    0    0 -0.12735202759E+02  0.95859455525E+01  0.14245692278E+04  0.14246934970E+04  0.10000000000E+02 0. -1.
</event>
<event>
 5    1  0.2146568E-008  0.3863413E+03  0.7957747E-01  0.3424003E+00
         13   -1    0    0    0    0  0.00000000000E+00  0.00000000000E+00  0.14999999963E+04  0.15000000000E+04  0.10566000000E+00 0. -1.
        994   -1    0    0    0    0 -0.00000000000E+00 -0.00000000000E+00  0.11368683772E-12  0.17120000000E+03  0.17120000000E+03 0.  0.
         13    1    1    2    0    0  0.83801617118E+01  0.71384768054E+01  0.63833729472E+02  0.64776084659E+02  0.10566000000E+00 0. -1.
        994    1    1    2    0    0 -0.76353090907E+01 -0.25636270754E+01  0.11780814155E+01  0.17139340129E+03  0.17120000000E+03 0.  0.
        998    1    1    2    0    0 -0.74485262109E+00 -0.45748497300E+01  0.14349881854E+04  0.14350305141E+04  0.10000000000E+02 0. -1.
</event>
<event>
 5    1  0.1303633E-008  0.3854456E+03  0.7957747E-01  0.3427785E+00
         13   -1    0    0    0    0  0.00000000000E+00  0.00000000000E+00  0.14999999963E+04  0.15000000000E+04  0.10566000000E+00 0.  1.
        994   -1    0    0    0    0 -0.00000000000E+00 -0.00000000000E+00  0.11368683772E-12  0.17120000000E+03  0.17120000000E+03 0.  0.
         13    1    1    2    0    0  0.94980185141E+01 -0.91983300229E+01  0.60218837182E+02  0.61653395256E+02  0.10566000000E+00 0.  1.
        994    1    1    2    0    0 -0.10865664537E+02  0.89567193416E+01  0.20604880322E+01  0.17179048605E+03  0.17120000000E+03 0.  0.
        998    1    1    2    0    0  0.13676460229E+01  0.24161068130E+00  0.14377206711E+04  0.14377561187E+04  0.10000000000E+02 0.  1.
</event>
<event>
 5    1  0.1303633E-008  0.3799334E+03  0.7957747E-01  0.3451448E+00
         13   -1    0    0    0    0  0.00000000000E+00  0.00000000000E+00  0.14999999963E+04  0.15000000000E+04  0.10566000000E+00 0.  1.
        994   -1    0    0    0    0 -0.00000000000E+00 -0.00000000000E+00  0.11368683772E-12  0.17120000000E+03  0.17120000000E+03 0.  0.
         13    1    1    2    0    0  0.30587753565E+00 -0.32341974337E+02  0.99377714115E+02  0.10450855511E+03  0.10566000000E+00 0.  1.
        994    1    1    2    0    0  0.55081349887E+01  0.63967583300E+02  0.18075334974E+02  0.18373445240E+03  0.17120000000E+03 0.  0.
        998    1    1    2    0    0 -0.58140125244E+01 -0.31625608964E+02  0.13825469472E+04  0.13829569925E+04  0.10000000000E+02 0.  1.
</event>
<event>
 5    1  0.1303633E-008  0.4103495E+03  0.7957747E-01  0.3328797E+00
         13   -1    0    0    0    0  0.00000000000E+00  0.00000000000E+00  0.14999999963E+04  0.15000000000E+04  0.10566000000E+00 0. -1.
        994   -1    0    0    0    0 -0.00000000000E+00 -0.00000000000E+00  0.11368683772E-12  0.17120000000E+03  0.17120000000E+03 0.  0.
         13    1    1    2    0    0  0.21032437549E+02  0.72303669568E+02  0.69388595079E+02  0.10239615400E+03  0.10566000000E+00 0. -1.
        994    1    1    2    0    0 -0.17120342335E+02 -0.71424426435E+02  0.56527294973E+02  0.19467750227E+03  0.17120000000E+03 0.  0.
        998    1    1    2    0    0 -0.39120952140E+01 -0.87924313308E+00  0.13740841062E+04  0.13741263437E+04  0.10000000000E+02 0. -1.
</event>
<event>
 5    1  0.1303633E-008  0.3850614E+03  0.7957747E-01  0.3429412E+00
         13   -1    0    0    0    0  0.00000000000E+00  0.00000000000E+00  0.14999999963E+04  0.15000000000E+04  0.10566000000E+00 0. -1.
        994   -1    0    0    0    0 -0.00000000000E+00 -0.00000000000E+00  0.11368683772E-12  0.17120000000E+03  0.17120000000E+03 0.  0.
         13    1    1    2    0    0 -0.11787567925E+02 -0.12585982783E+02  0.97971016738E+02  0.99477057681E+02  0.10566000000E+00 0. -1.
        994    1    1    2    0    0  0.23538263979E+01  0.40454201349E+01  0.16716830112E+01  0.17127212396E+03  0.17120000000E+03 0.  0.
        998    1    1    2    0    0  0.94337415267E+01  0.85405626483E+01  0.14003572965E+04  0.14004508184E+04  0.10000000000E+02 0. -1.
</event>
<event>
 5    1  0.1303633E-008  0.3853358E+03  0.7957747E-01  0.3428249E+00
         13   -1    0    0    0    0  0.00000000000E+00  0.00000000000E+00  0.14999999963E+04  0.15000000000E+04  0.10566000000E+00 0. -1.
        994   -1    0    0    0    0 -0.00000000000E+00 -0.00000000000E+00  0.11368683772E-12  0.17120000000E+03  0.17120000000E+03 0.  0.
         13    1    1    2    0    0  0.47454015779E+01  0.11838635532E+02  0.70703880076E+02  0.71845124743E+02  0.10566000000E+00 0. -1.
        994    1    1    2    0    0  0.45773405920E+01  0.24143534569E+02  0.34497335049E+01  0.17298902558E+03  0.17120000000E+03 0.  0.
        998    1    1    2    0    0 -0.93227421699E+01 -0.35982170101E+02  0.14258463827E+04  0.14263658497E+04  0.10000000000E+02 0. -1.
</event>
<event>
 5    1  0.1303633E-008  0.3728819E+03  0.7957747E-01  0.3482750E+00
         13   -1    0    0    0    0  0.00000000000E+00  0.00000000000E+00  0.14999999963E+04  0.15000000000E+04  0.10566000000E+00 0. -1.
        994   -1    0    0    0    0 -0.00000000000E+00 -0.00000000000E+00  0.11368683772E-12  0.17120000000E+03  0.17120000000E+03 0.  0.
         13    1    1    2    0    0  0.47613731053E+01  0.54247876784E+02  0.17340248006E+03  0.18175239768E+03  0.10566000000E+00 0. -1.
        994    1    1    2    0    0 -0.26131857542E+01 -0.47890563504E+02  0.15687351106E+02  0.17848212179E+03  0.17120000000E+03 0.  0.
        998    1    1    2    0    0 -0.21481873511E+01 -0.63573132803E+01  0.13109101651E+04  0.13109654805E+04  0.10000000000E+02 0. -1.
</event>
<event>
 5    1  0.1303633E-008  0.3819116E+03  0.7957747E-01  0.3442877E+00
         13   -1    0    0    0    0  0.00000000000E+00  0.00000000000E+00  0.14999999963E+04  0.15000000000E+04  0.10566000000E+00 0. -1.
        994   -1    0    0    0    0 -0.00000000000E+00 -0.00000000000E+00  0.11368683772E-12  0.17120000000E+03  0.17120000000E+03 0.  0.
         13    1    1    2    0    0  0.15133825787E+02 -0.15241555539E+02  0.76411646324E+02  0.79373097182E+02  0.10566000000E+00 0. -1.
        994    1    1    2    0    0 -0.89500684769E+01 -0.71447270632E+01  0.36070848133E+01  0.17162051716E+03  0.17120000000E+03 0.  0.
        998    1    1    2    0    0 -0.61837573102E+01  0.22386282603E+02  0.14199812651E+04  0.14202063857E+04  0.10000000000E+02 0. -1.
</event>
<event>
 5    1  0.1303633E-008  0.3853996E+03  0.7957747E-01  0.3427979E+00
         13   -1    0    0    0    0  0.00000000000E+00  0.00000000000E+00  0.14999999963E+04  0.15000000000E+04  0.10566000000E+00 0.  1.
        994   -1    0    0    0    0 -0.00000000000E+00 -0.00000000000E+00  0.11368683772E-12  0.17120000000E+03  0.17120000000E+03 0.  0.
         13    1    1    2    0    0 -0.15590719136E+02  0.72998478012E+00  0.83730813157E+02  0.85173139175E+02  0.10566000000E+00 0.  1.
        994    1    1    2    0    0  0.12766672160E+02  0.12064972581E+00  0.19674218671E+01  0.17168667165E+03  0.17120000000E+03 0.  0.
        998    1    1    2    0    0  0.28240469754E+01 -0.85063450593E+00  0.14143017613E+04  0.14143401892E+04  0.10000000000E+02 0.  1.
</event>
<event>
 5    1  0.1490589E-008  0.3858060E+03  0.7957747E-01  0.3426261E+00
         13   -1    0    0    0    0  0.00000000000E+00  0.00000000000E+00  0.14999999963E+04  0.15000000000E+04  0.10566000000E+00 0.  1.
        994   -1    0    0    0    0 -0.00000000000E+00 -0.00000000000E+00  0.11368683772E-12  0.17120000000E+03  0.17120000000E+03 0.  0.
         13    1    1    2    0    0  0.11829191337E+01 -0.11649125215E+02  0.57908554536E+02  0.59080565912E+02  0.10566000000E+00 0.  1.
        994    1    1    2    0    0 -0.33281795438E+01  0.31804745527E+01  0.13000109045E+01  0.17126681589E+03  0.17120000000E+03 0.  0.
        998    1    1    2    0    0  0.21452604101E+01  0.84686506627E+01  0.14407914308E+04  0.14408526182E+04  0.10000000000E+02 0.  1.
</event>
<event>
 5    1  0.1303633E-008  0.3841822E+03  0.7957747E-01  0.3433148E+00
         13   -1    0    0    0    0  0.00000000000E+00  0.00000000000E+00  0.14999999963E+04  0.15000000000E+04  0.10566000000E+00 0. -1.
        994   -1    0    0    0    0 -0.00000000000E+00 -0.00000000000E+00  0.11368683772E-12  0.17120000000E+03  0.17120000000E+03 0.  0.
         13    1    1    2    0    0 -0.72672655305E+01  0.10279969992E+02  0.38669302387E+02  0.40667149427E+02  0.10566000000E+00 0. -1.
        994    1    1    2    0    0  0.23625610240E+01 -0.71450015281E+01  0.22234650523E+01  0.17137974366E+03  0.17120000000E+03 0.  0.
        998    1    1    2    0    0  0.49047045064E+01 -0.31349684642E+01  0.14591072288E+04  0.14591531069E+04  0.10000000000E+02 0. -1.
</event>
<event>
 5    1  0.1303633E-008  0.3705732E+03  0.7957747E-01  0.3493261E+00
         13   -1    0    0    0    0  0.00000000000E+00  0.00000000000E+00  0.14999999963E+04  0.15000000000E+04  0.10566000000E+00 0.  1.
        994   -1    0    0    0    0 -0.00000000000E+00 -0.00000000000E+00  0.11368683772E-12  0.17120000000E+03  0.17120000000E+03 0.  0.
         13    1    1    2    0    0  0.12845224917E+02 -0.79174540799E+01  0.49373748296E+01  0.15876861041E+02  0.10566000000E+00 0.  1.
        994    1    1    2    0    0 -0.17396497815E+02  0.35307605632E+01  0.12346775525E+02  0.17256009757E+03  0.17120000000E+03 0.  0.
        998    1    1    2    0    0  0.45512728987E+01  0.43866935167E+01  0.14827158459E+04  0.14827630414E+04  0.10000000000E+02 0.  1.
</event>
<event>
 5    1  0.1303633E-008  0.3759480E+03  0.7957747E-01  0.3468994E+00
         13   -1    0    0    0    0  0.00000000000E+00  0.00000000000E+00  0.14999999963E+04  0.15000000000E+04  0.10566000000E+00 0.  1.
        994   -1    0    0    0    0 -0.00000000000E+00 -0.00000000000E+00  0.11368683772E-12  0.17120000000E+03  0.17120000000E+03 0.  0.
         13    1    1    2    0    0  0.21921146847E+02 -0.92095045103E+01  0.41438562689E+02  0.47775697736E+02  0.10566000000E+00 0.  1.
        994    1    1    2    0    0 -0.32908380855E+02 -0.23602647439E+01  0.98899251716E+01  0.17463041831E+03  0.17120000000E+03 0.  0.
        998    1    1    2    0    0  0.10987234008E+02  0.11569769254E+02  0.14486715084E+04  0.14487938840E+04  0.10000000000E+02 0.  1.
</event>
<event>
 5    1  0.1303633E-008  0.3814657E+03  0.7957747E-01  0.3444801E+00
         13   -1    0    0    0    0  0.00000000000E+00  0.00000000000E+00  0.14999999963E+04  0.15000000000E+04  0.10566000000E+00 0. -1.
        994   -1    0    0    0    0 -0.00000000000E+00 -0.00000000000E+00  0.11368683772E-12  0.17120000000E+03  0.17120000000E+03 0.  0.
         13    1    1    2    0    0 -0.13364520302E+02 -0.43291445871E+01  0.28744380282E+02  0.31993787796E+02  0.10566000000E+00 0. -1.
        994    1    1    2    0    0 -0.51374474515E+01  0.12210384185E+02  0.39791433859E+01  0.17175785406E+03  0.17120000000E+03 0.  0.
        998    1    1    2    0    0  0.18501967753E+02 -0.78812395984E+01  0.14672764726E+04  0.14674483581E+04  0.10000000000E+02 0. -1.
</event>
<event>
 5    1  0.1303633E-008  0.3688864E+03  0.7957747E-01  0.3501025E+00
         13   -1    0    0    0    0  0.00000000000E+00  0.00000000000E+00  0.14999999963E+04  0.15000000000E+04  0.10566000000E+00 0.  1.
        994   -1    0    0    0    0 -0.00000000000E+00 -0.00000000000E+00  0.11368683772E-12  0.17120000000E+03  0.17120000000E+03 0.  0.
         13    1    1    2    0    0 -0.43151233454E+02 -0.16967742476E+02  0.10505072323E+03  0.11482856286E+03  0.10566000000E+00 0.  1.
        994    1    1    2    0    0  0.24350207975E+02  0.21849602980E+02  0.13576503233E+02  0.17482591118E+03  0.17120000000E+03 0.  0.
        998    1    1    2    0    0  0.18801025478E+02 -0.48818605044E+01  0.13813727698E+04  0.13815455260E+04  0.10000000000E+02 0.  1.
</event>
<event>
 5    1  0.1303633E-008  0.3751353E+03  0.7957747E-01  0.3472618E+00
         13   -1    0    0    0    0  0.00000000000E+00  0.00000000000E+00  0.14999999963E+04  0.15000000000E+04  0.10566000000E+00 0. -1.
        994   -1    0    0    0    0 -0.00000000000E+00 -0.00000000000E+00  0.11368683772E-12  0.17120000000E+03  0.17120000000E+03 0.  0.
         13    1    1    2    0    0 -0.95728431561E+02 -0.17869247992E+02  0.27906148323E+03  0.29556482406E+03  0.10566000000E+00 0. -1.
        994    1    1    2    0    0  0.93122426272E+02  0.22298857148E+02  0.47089363834E+02  0.20173218259E+03  0.17120000000E+03 0.  0.
        998    1    1    2    0    0  0.26060052887E+01 -0.44296091562E+01  0.11738491492E+04  0.11739029934E+04  0.10000000000E+02 0. -1.
</event>
<event>
 5    1  0.1303633E-008  0.3795476E+03  0.7957747E-01  0.3453131E+00
         13   -1    0    0    0    0  0.00000000000E+00  0.00000000000E+00  0.14999999963E+04  0.15000000000E+04  0.10566000000E+00 0. -1.
        994   -1    0    0    0    0 -0.00000000000E+00 -0.00000000000E+00  0.11368683772E-12  0.17120000000E+03  0.17120000000E+03 0.  0.
         13    1    1    2    0    0 -0.11342541756E+02  0.24204751930E+02  0.89396733410E+02  0.93307611575E+02  0.10566000000E+00 0. -1.
        994    1    1    2    0    0 -0.60353700250E+01  0.32770980066E+01  0.45196203719E+01  0.17139729295E+03  0.17120000000E+03 0.  0.
        998    1    1    2    0    0  0.17377911781E+02 -0.27481849937E+02  0.14060836425E+04  0.14064950955E+04  0.10000000000E+02 0. -1.
</event>
<event>
 5    1  0.1477422E-008  0.3852684E+03  0.7957747E-01  0.3428535E+00
         13   -1    0    0    0    0  0.00000000000E+00  0.00000000000E+00  0.14999999963E+04  0.15000000000E+04  0.10566000000E+00 0. -1.
        994   -1    0    0    0    0 -0.00000000000E+00 -0.00000000000E+00  0.11368683772E-12  0.17120000000E+03  0.17120000000E+03 0.  0.
         13    1    1    2    0    0 -0.88586052912E+01 -0.70676277495E+01  0.52402955687E+02  0.53614430692E+02  0.10566000000E+00 0. -1.
        994    1    1    2    0    0 -0.27669456212E+02 -0.46637711705E+01  0.40882772575E+01  0.17353242803E+03  0.17120000000E+03 0.  0.
        998    1    1    2    0    0  0.36528061504E+02  0.11731398920E+02  0.14435087633E+04  0.14440531413E+04  0.10000000000E+02 0. -1.
</event>
<event>
 5    1  0.1303633E-008  0.3769034E+03  0.7957747E-01  0.3464753E+00
         13   -1    0    0    0    0  0.00000000000E+00  0.00000000000E+00  0.14999999963E+04  0.15000000000E+04  0.10566000000E+00 0. -1.
        994   -1    0    0    0    0 -0.00000000000E+00 -0.00000000000E+00  0.11368683772E-12  0.17120000000E+03  0.17120000000E+03 0.  0.
         13    1    1    2    0    0 -0.99044066034E+01 -0.12358937982E+02  0.19458662467E+02  0.25089665746E+02  0.10566000000E+00 0. -1.
        994    1    1    2    0    0  0.81693853096E+01  0.10071177613E+02  0.62726991900E+01  0.17180498896E+03  0.17120000000E+03 0.  0.
        998    1    1    2    0    0  0.17350212939E+01  0.22877603689E+01  0.14742686346E+04  0.14743053453E+04  0.10000000000E+02 0. -1.
</event>
<event>
 5    1  0.1303633E-008  0.3825160E+03  0.7957747E-01  0.3440276E+00
         13   -1    0    0    0    0  0.00000000000E+00  0.00000000000E+00  0.14999999963E+04  0.15000000000E+04  0.10566000000E+00 0. -1.
        994   -1    0    0    0    0 -0.00000000000E+00 -0.00000000000E+00  0.11368683772E-12  0.17120000000E+03  0.17120000000E+03 0.  0.
         13    1    1    2    0    0 -0.30055345566E+02 -0.13996481681E+01  0.16576609565E+03  0.16847460474E+03  0.10566000000E+00 0. -1.
        994    1    1    2    0    0  0.11087723661E+02 -0.35710249931E+01  0.33184188838E+01  0.17162791655E+03  0.17120000000E+03 0.  0.
        998    1    1    2    0    0  0.18967621905E+02  0.49706731612E+01  0.13309154817E+04  0.13310974787E+04  0.10000000000E+02 0. -1.
</event>
<event>
 5    1  0.1303633E-008  0.3741375E+03  0.7957747E-01  0.3477089E+00
         13   -1    0    0    0    0  0.00000000000E+00  0.00000000000E+00  0.14999999963E+04  0.15000000000E+04  0.10566000000E+00 0. -1.
        994   -1    0    0    0    0 -0.00000000000E+00 -0.00000000000E+00  0.11368683772E-12  0.17120000000E+03  0.17120000000E+03 0.  0.
         13    1    1    2    0    0  0.76244149357E+01 -0.27116541293E+02  0.45593771145E+02  0.53593298518E+02  0.10566000000E+00 0. -1.
        994    1    1    2    0    0  0.45427476803E+01  0.70847466521E+02  0.24503606780E+02  0.18694883475E+03  0.17120000000E+03 0.  0.
        998    1    1    2    0    0 -0.12167162616E+02 -0.43730925229E+02  0.14299026184E+04  0.14306578667E+04  0.10000000000E+02 0. -1.
</event>
<event>
 5    1  0.1303633E-008  0.3822069E+03  0.7957747E-01  0.3441605E+00
         13   -1    0    0    0    0  0.00000000000E+00  0.00000000000E+00  0.14999999963E+04  0.15000000000E+04  0.10566000000E+00 0.  1.
        994   -1    0    0    0    0 -0.00000000000E+00 -0.00000000000E+00  0.11368683772E-12  0.17120000000E+03  0.17120000000E+03 0.  0.
         13    1    1    2    0    0 -0.41879158779E+02 -0.94940894266E+01  0.24670402856E+03  0.25041343922E+03  0.10566000000E+00 0.  1.
        994    1    1    2    0    0  0.50983873602E+02 -0.81062570931E+01  0.11918775430E+02  0.17921094827E+03  0.17120000000E+03 0.  0.
        998    1    1    2    0    0 -0.91047148230E+01  0.17600346520E+02  0.12413771923E+04  0.12415756125E+04  0.10000000000E+02 0.  1.
</event>
<event>
 5    1  0.1303633E-008  0.3846741E+03  0.7957747E-01  0.3431056E+00
         13   -1    0    0    0    0  0.00000000000E+00  0.00000000000E+00  0.14999999963E+04  0.15000000000E+04  0.10566000000E+00 0. -1.
        994   -1    0    0    0    0 -0.00000000000E+00 -0.00000000000E+00  0.11368683772E-12  0.17120000000E+03  0.17120000000E+03 0.  0.
         13    1    1    2    0    0  0.15761636727E+02 -0.12317460652E+02  0.10711753572E+03  0.10896938402E+03  0.10566000000E+00 0. -1.
        994    1    1    2    0    0 -0.76611332010E+01  0.19394800264E+02  0.32249363489E+01  0.17249548242E+03  0.17120000000E+03 0.  0.
        998    1    1    2    0    0 -0.81005035262E+01 -0.70773396118E+01  0.13896575242E+04  0.13897351336E+04  0.10000000000E+02 0. -1.
</event>
<event>
 5    1  0.1303633E-008  0.3854849E+03  0.7957747E-01  0.3427618E+00
         13   -1    0    0    0    0  0.00000000000E+00  0.00000000000E+00  0.14999999963E+04  0.15000000000E+04  0.10566000000E+00 0. -1.
        994   -1    0    0    0    0 -0.00000000000E+00 -0.00000000000E+00  0.11368683772E-12  0.17120000000E+03  0.17120000000E+03 0.  0.
         13    1    1    2    0    0  0.89621890184E+00 -0.14562949305E+02  0.84508856980E+02  0.85759202263E+02  0.10566000000E+00 0. -1.
        994    1    1    2    0    0 -0.29303479699E+01 -0.23900123629E+01  0.14365627681E+01  0.17124778192E+03  0.17120000000E+03 0.  0.
        998    1    1    2    0    0  0.20341290681E+01  0.16952961668E+02  0.14140545765E+04  0.14141930158E+04  0.10000000000E+02 0. -1.
</event>
<event>
 5    1  0.1303633E-008  0.3834891E+03  0.7957747E-01  0.3436106E+00
         13   -1    0    0    0    0  0.00000000000E+00  0.00000000000E+00  0.14999999963E+04  0.15000000000E+04  0.10566000000E+00 0. -1.
        994   -1    0    0    0    0 -0.00000000000E+00 -0.00000000000E+00  0.11368683772E-12  0.17120000000E+03  0.17120000000E+03 0.  0.
         13    1    1    2    0    0 -0.10476745798E+02 -0.48011586741E+00  0.22814889332E+02  0.25110218100E+02  0.10566000000E+00 0. -1.
        994    1    1    2    0    0  0.41288500556E+00 -0.60853079034E+01  0.25051137213E+01  0.17132693029E+03  0.17120000000E+03 0.  0.
        998    1    1    2    0    0  0.10063860792E+02  0.65654237708E+01  0.14746799932E+04  0.14747628516E+04  0.10000000000E+02 0. -1.
</event>
<event>
 5    1  0.1303633E-008  0.3856773E+03  0.7957747E-01  0.3426805E+00
         13   -1    0    0    0    0  0.00000000000E+00  0.00000000000E+00  0.14999999963E+04  0.15000000000E+04  0.10566000000E+00 0.  1.
        994   -1    0    0    0    0 -0.00000000000E+00 -0.00000000000E+00  0.11368683772E-12  0.17120000000E+03  0.17120000000E+03 0.  0.
         13    1    1    2    0    0  0.10840561494E+02  0.80108620786E+01  0.77425153445E+02  0.78589803631E+02  0.10566000000E+00 0.  1.
        994    1    1    2    0    0  0.38620161294E+01 -0.72765202160E+00  0.13449141827E+01  0.17125038231E+03  0.17120000000E+03 0.  0.
        998    1    1    2    0    0 -0.14702577624E+02 -0.72832100570E+01  0.14212299287E+04  0.14213598141E+04  0.10000000000E+02 0.  1.
</event>
<event>
 5    1  0.1303633E-008  0.3807675E+03  0.7957747E-01  0.3447823E+00
         13   -1    0    0    0    0  0.00000000000E+00  0.00000000000E+00  0.14999999963E+04  0.15000000000E+04  0.10566000000E+00 0. -1.
        994   -1    0    0    0    0 -0.00000000000E+00 -0.00000000000E+00  0.11368683772E-12  0.17120000000E+03  0.17120000000E+03 0.  0.
         13    1    1    2    0    0  0.34918234343E+01  0.25136395220E+02  0.10607241329E+03  0.10906603147E+03  0.10566000000E+00 0. -1.
        994    1    1    2    0    0  0.32582402271E+02  0.18512971892E+02  0.84431547836E+01  0.17545674660E+03  0.17120000000E+03 0.  0.
        998    1    1    2    0    0 -0.36074225705E+02 -0.43649367111E+02  0.13854844282E+04  0.13866772219E+04  0.10000000000E+02 0. -1.
</event>
<event>
 5    1  0.1303633E-008  0.3690208E+03  0.7957747E-01  0.3500403E+00
         13   -1    0    0    0    0  0.00000000000E+00  0.00000000000E+00  0.14999999963E+04  0.15000000000E+04  0.10566000000E+00 0.  1.
        994   -1    0    0    0    0 -0.00000000000E+00 -0.00000000000E+00  0.11368683772E-12  0.17120000000E+03  0.17120000000E+03 0.  0.
         13    1    1    2    0    0 -0.63561330546E+02 -0.14277802726E+02  0.29637705934E+03  0.30345225466E+03  0.10566000000E+00 0.  1.
        994    1    1    2    0    0 -0.22641900957E+02  0.24283457093E+01  0.12230723567E+02  0.17314035677E+03  0.17120000000E+03 0.  0.
        998    1    1    2    0    0  0.86203231503E+02  0.11849457016E+02  0.11913922134E+04  0.11946073886E+04  0.10000000000E+02 0.  1.
</event>
<event>
 5    1  0.1303633E-008  0.3828054E+03  0.7957747E-01  0.3439033E+00
         13   -1    0    0    0    0  0.00000000000E+00  0.00000000000E+00  0.14999999963E+04  0.15000000000E+04  0.10566000000E+00 0. -1.
        994   -1    0    0    0    0 -0.00000000000E+00 -0.00000000000E+00  0.11368683772E-12  0.17120000000E+03  0.17120000000E+03 0.  0.
         13    1    1    2    0    0  0.11805578321E+02  0.24944716399E+02  0.13082402338E+03  0.13370320420E+03  0.10566000000E+00 0. -1.
        994    1    1    2    0    0 -0.13112528211E+02 -0.21694454978E+02  0.48549470751E+01  0.17313462474E+03  0.17120000000E+03 0.  0.
        998    1    1    2    0    0  0.13069498909E+01 -0.32502614208E+01  0.13643210258E+04  0.13643621711E+04  0.10000000000E+02 0. -1.
</event>
<event>
 5    1  0.1303633E-008  0.3847985E+03  0.7957747E-01  0.3430527E+00
         13   -1    0    0    0    0  0.00000000000E+00  0.00000000000E+00  0.14999999963E+04  0.15000000000E+04  0.10566000000E+00 0. -1.
        994   -1    0    0    0    0 -0.00000000000E+00 -0.00000000000E+00  0.11368683772E-12  0.17120000000E+03  0.17120000000E+03 0.  0.
         13    1    1    2    0    0 -0.84279223942E+00 -0.13149283096E+02  0.48975186964E+02  0.50716802412E+02  0.10566000000E+00 0. -1.
        994    1    1    2    0    0  0.40025364073E+01  0.12516290220E+02  0.22986697629E+01  0.17171896139E+03  0.17120000000E+03 0.  0.
        998    1    1    2    0    0 -0.31597441679E+01  0.63299287604E+00  0.14487261396E+04  0.14487642362E+04  0.10000000000E+02 0. -1.
</event>
<event>
 5    1  0.1303633E-008  0.3200015E+03  0.7957747E-01  0.3762823E+00
         13   -1    0    0    0    0  0.00000000000E+00  0.00000000000E+00  0.14999999963E+04  0.15000000000E+04  0.10566000000E+00 0.  1.
        994   -1    0    0    0    0 -0.00000000000E+00 -0.00000000000E+00  0.11368683772E-12  0.17120000000E+03  0.17120000000E+03 0.  0.
         13    1    1    2    0    0 -0.12593202819E+03 -0.13530222247E+03  0.83957643177E+03  0.85968259438E+03  0.10566000000E+00 0.  1.
        994    1    1    2    0    0  0.69602928185E+02  0.15856541266E+03  0.12720230398E+03  0.27473154868E+03  0.17120000000E+03 0.  0.
        998    1    1    2    0    0  0.56329100002E+02 -0.23263190193E+02  0.53322126053E+03  0.53678585694E+03  0.10000000000E+02 0.  1.
</event>
<event>
 5    1  0.1303633E-008  0.3787781E+03  0.7957747E-01  0.3456496E+00
         13   -1    0    0    0    0  0.00000000000E+00  0.00000000000E+00  0.14999999963E+04  0.15000000000E+04  0.10566000000E+00 0. -1.
        994   -1    0    0    0    0 -0.00000000000E+00 -0.00000000000E+00  0.11368683772E-12  0.17120000000E+03  0.17120000000E+03 0.  0.
         13    1    1    2    0    0 -0.10990619616E+02 -0.19501577561E+02  0.50154480611E+02  0.54923477096E+02  0.10566000000E+00 0. -1.
        994    1    1    2    0    0  0.85717061083E+01  0.16832770453E+02  0.59497984235E+01  0.17234168506E+03  0.17120000000E+03 0.  0.
        998    1    1    2    0    0  0.24189135078E+01  0.26688071080E+01  0.14438957172E+04  0.14439348378E+04  0.10000000000E+02 0. -1.
</event>
<event>
 5    1  0.1303633E-008  0.3717540E+03  0.7957747E-01  0.3487869E+00
         13   -1    0    0    0    0  0.00000000000E+00  0.00000000000E+00  0.14999999963E+04  0.15000000000E+04  0.10566000000E+00 0. -1.
        994   -1    0    0    0    0 -0.00000000000E+00 -0.00000000000E+00  0.11368683772E-12  0.17120000000E+03  0.17120000000E+03 0.  0.
         13    1    1    2    0    0  0.42433857659E+02  0.22584136361E+01  0.71909679142E+02  0.83526916777E+02  0.10566000000E+00 0. -1.
        994    1    1    2    0    0 -0.22488590025E+02 -0.71700636234E+02  0.32006787634E+02  0.18968550913E+03  0.17120000000E+03 0.  0.
        998    1    1    2    0    0 -0.19945267634E+02  0.69442222598E+02  0.13960835295E+04  0.13979875741E+04  0.10000000000E+02 0. -1.
</event>
<event>
 5    1  0.1303633E-008  0.3830204E+03  0.7957747E-01  0.3438111E+00
         13   -1    0    0    0    0  0.00000000000E+00  0.00000000000E+00  0.14999999963E+04  0.15000000000E+04  0.10566000000E+00 0.  1.
        994   -1    0    0    0    0 -0.00000000000E+00 -0.00000000000E+00  0.11368683772E-12  0.17120000000E+03  0.17120000000E+03 0.  0.
         13    1    1    2    0    0  0.40755111778E+02  0.85254852435E+01  0.24857043786E+03  0.25203360248E+03  0.10566000000E+00 0.  1.
        994    1    1    2    0    0 -0.51166257271E+02 -0.14628493972E+02  0.12046824094E+02  0.17968456998E+03  0.17120000000E+03 0.  0.
        998    1    1    2    0    0  0.10411145493E+02  0.61030087284E+01  0.12393827343E+04  0.12394818275E+04  0.10000000000E+02 0.  1.
</event>
<event>
 5    1  0.1303633E-008  0.3789523E+03  0.7957747E-01  0.3455733E+00
         13   -1    0    0    0    0  0.00000000000E+00  0.00000000000E+00  0.14999999963E+04  0.15000000000E+04  0.10566000000E+00 0. -1.
        994   -1    0    0    0    0 -0.00000000000E+00 -0.00000000000E+00  0.11368683772E-12  0.17120000000E+03  0.17120000000E+03 0.  0.
         13    1    1    2    0    0  0.44481537759E+02 -0.28842305401E+02  0.30485740861E+03  0.30943260418E+03  0.10566000000E+00 0. -1.
        994    1    1    2    0    0 -0.23787444422E+02  0.15293820269E+02  0.73503813903E+01  0.17367559287E+03  0.17120000000E+03 0.  0.
        998    1    1    2    0    0 -0.20694093337E+02  0.13548485132E+02  0.11877922063E+04  0.11880918030E+04  0.10000000000E+02 0. -1.
</event>
<event>
 5    1  0.1303633E-008  0.3762191E+03  0.7957747E-01  0.3467789E+00
         13   -1    0    0    0    0  0.00000000000E+00  0.00000000000E+00  0.14999999963E+04  0.15000000000E+04  0.10566000000E+00 0. -1.
        994   -1    0    0    0    0 -0.00000000000E+00 -0.00000000000E+00  0.11368683772E-12  0.17120000000E+03  0.17120000000E+03 0.  0.
         13    1    1    2    0    0 -0.23220627735E+02  0.10521454125E+02  0.50664136404E+02  0.56716526965E+02  0.10566000000E+00 0. -1.
        994    1    1    2    0    0  0.15912995047E+02 -0.14929501894E+02  0.76674828282E+01  0.17275515544E+03  0.17120000000E+03 0.  0.
        998    1    1    2    0    0  0.73076326889E+01  0.44080477693E+01  0.14416683770E+04  0.14417283176E+04  0.10000000000E+02 0. -1.
</event>
<event>
 5    1  0.1303633E-008  0.3822443E+03  0.7957747E-01  0.3441444E+00
         13   -1    0    0    0    0  0.00000000000E+00  0.00000000000E+00  0.14999999963E+04  0.15000000000E+04  0.10566000000E+00 0.  1.
        994   -1    0    0    0    0 -0.00000000000E+00 -0.00000000000E+00  0.11368683772E-12  0.17120000000E+03  0.17120000000E+03 0.  0.
         13    1    1    2    0    0 -0.84684577368E+01  0.53961254565E+01  0.15568587038E+02  0.18526332955E+02  0.10566000000E+00 0.  1.
        994    1    1    2    0    0  0.70835624288E+01 -0.18555285074E+01  0.31824542675E+01  0.17138607837E+03  0.17120000000E+03 0.  0.
        998    1    1    2    0    0  0.13848953080E+01 -0.35405969490E+01  0.14812489550E+04  0.14812875887E+04  0.10000000000E+02 0.  1.
</event>
<event>
 5    1  0.1303633E-008  0.3790170E+03  0.7957747E-01  0.3455450E+00
         13   -1    0    0    0    0  0.00000000000E+00  0.00000000000E+00  0.14999999963E+04  0.15000000000E+04  0.10566000000E+00 0. -1.
        994   -1    0    0    0    0 -0.00000000000E+00 -0.00000000000E+00  0.11368683772E-12  0.17120000000E+03  0.17120000000E+03 0.  0.
         13    1    1    2    0    0  0.31400670760E+02  0.20892981995E+02  0.17494558554E+03  0.17896504654E+03  0.10566000000E+00 0. -1.
        994    1    1    2    0    0 -0.35953855196E+00 -0.12516360527E+01  0.46358655205E+01  0.17126770597E+03  0.17120000000E+03 0.  0.
        998    1    1    2    0    0 -0.31041132208E+02 -0.19641345943E+02  0.13204185452E+04  0.13209672475E+04  0.10000000000E+02 0. -1.
</event>
<event>
 5    1  0.1303633E-008  0.3860779E+03  0.7957747E-01  0.3425114E+00
         13   -1    0    0    0    0  0.00000000000E+00  0.00000000000E+00  0.14999999963E+04  0.15000000000E+04  0.10566000000E+00 0. -1.
        994   -1    0    0    0    0 -0.00000000000E+00 -0.00000000000E+00  0.11368683772E-12  0.17120000000E+03  0.17120000000E+03 0.  0.
         13    1    1    2    0    0  0.59475568418E+01  0.85407664479E+01  0.52770012720E+02  0.53786648254E+02  0.10566000000E+00 0. -1.
        994    1    1    2    0    0 -0.65699338589E+01  0.50933824189E+01  0.13224367872E+01  0.17140681263E+03  0.17120000000E+03 0.  0.
        998    1    1    2    0    0  0.62237701708E+00 -0.13634148867E+02  0.14459075468E+04  0.14460065391E+04  0.10000000000E+02 0. -1.
</event>
<event>
 5    1  0.1303633E-008  0.3815202E+03  0.7957747E-01  0.3444566E+00
         13   -1    0    0    0    0  0.00000000000E+00  0.00000000000E+00  0.14999999963E+04  0.15000000000E+04  0.10566000000E+00 0.  1.
        994   -1    0    0    0    0 -0.00000000000E+00 -0.00000000000E+00  0.11368683772E-12  0.17120000000E+03  0.17120000000E+03 0.  0.
         13    1    1    2    0    0 -0.11906299581E+02  0.16261907526E+02  0.58411997263E+02  0.61791441109E+02  0.10566000000E+00 0.  1.
        994    1    1    2    0    0  0.92561122183E+01 -0.12903923213E+02  0.42070020350E+01  0.17198641142E+03  0.17120000000E+03 0.  0.
        998    1    1    2    0    0  0.26501873630E+01 -0.33579843134E+01  0.14373809970E+04  0.14374221475E+04  0.10000000000E+02 0.  1.
</event>
<event>
 5    1  0.1303633E-008  0.3752711E+03  0.7957747E-01  0.3472011E+00
         13   -1    0    0    0    0  0.00000000000E+00  0.00000000000E+00  0.14999999963E+04  0.15000000000E+04  0.10566000000E+00 0. -1.
        994   -1    0    0    0    0 -0.00000000000E+00 -0.00000000000E+00  0.11368683772E-12  0.17120000000E+03  0.17120000000E+03 0.  0.
         13    1    1    2    0    0  0.64427227223E+01  0.17387691481E+02  0.24040826552E+02  0.30361373428E+02  0.10566000000E+00 0. -1.
        994    1    1    2    0    0 -0.44796695481E+01 -0.31241924183E+01  0.66408915645E+01  0.17141577949E+03  0.17120000000E+03 0.  0.
        998    1    1    2    0    0 -0.19630531742E+01 -0.14263499062E+02  0.14693182782E+04  0.14694228471E+04  0.10000000000E+02 0. -1.
</event>
<event>
 5    1  0.1303633E-008  0.3849705E+03  0.7957747E-01  0.3429797E+00
         13   -1    0    0    0    0  0.00000000000E+00  0.00000000000E+00  0.14999999963E+04  0.15000000000E+04  0.10566000000E+00 0.  1.
        994   -1    0    0    0    0 -0.00000000000E+00 -0.00000000000E+00  0.11368683772E-12  0.17120000000E+03  0.17120000000E+03 0.  0.
         13    1    1    2    0    0 -0.14082367312E+02  0.24281867292E+01  0.68866061208E+02  0.70333169346E+02  0.10566000000E+00 0.  1.
        994    1    1    2    0    0 -0.57598605428E+01  0.35436316246E+01  0.17951942104E+01  0.17134291944E+03  0.17120000000E+03 0.  0.
        998    1    1    2    0    0  0.19842227854E+02 -0.59718183538E+01  0.14293387409E+04  0.14295239112E+04  0.10000000000E+02 0.  1.
</event>
<event>
 5    1  0.1303633E-008  0.3843432E+03  0.7957747E-01  0.3432462E+00
         13   -1    0    0    0    0  0.00000000000E+00  0.00000000000E+00  0.14999999963E+04  0.15000000000E+04  0.10566000000E+00 0. -1.
        994   -1    0    0    0    0 -0.00000000000E+00 -0.00000000000E+00  0.11368683772E-12  0.17120000000E+03  0.17120000000E+03 0.  0.
         13    1    1    2    0    0 -0.13124007894E+02 -0.11439213680E+01  0.45907527902E+02  0.47760448296E+02  0.10566000000E+00 0. -1.
        994    1    1    2    0    0  0.51150064410E+00 -0.35664340949E+01  0.19993402132E+01  0.17124957940E+03  0.17120000000E+03 0.  0.
        998    1    1    2    0    0  0.12612507250E+02  0.47103554630E+01  0.14520931282E+04  0.14521899723E+04  0.10000000000E+02 0. -1.
</event>
<event>
 5    1  0.1303633E-008  0.2605967E+03  0.7957747E-01  0.4224858E+00
         13   -1    0    0    0    0  0.00000000000E+00  0.00000000000E+00  0.14999999963E+04  0.15000000000E+04  0.10566000000E+00 0.  1.
        994   -1    0    0    0    0 -0.00000000000E+00 -0.00000000000E+00  0.11368683772E-12  0.17120000000E+03  0.17120000000E+03 0.  0.
         13    1    1    2    0    0  0.56916366823E+02 -0.12440870433E+03  0.60022017971E+03  0.61561454971E+03  0.10566000000E+00 0.  1.
        994    1    1    2    0    0 -0.41446791024E+02 -0.15732686716E+02  0.36199006720E+02  0.18051360615E+03  0.17120000000E+03 0.  0.
        998    1    1    2    0    0 -0.15469575799E+02  0.14014139105E+03  0.86358080985E+03  0.87507184414E+03  0.10000000000E+02 0.  1.
</event>
<event>
 5    1  0.1303633E-008  0.3785134E+03  0.7957747E-01  0.3457657E+00
         13   -1    0    0    0    0  0.00000000000E+00  0.00000000000E+00  0.14999999963E+04  0.15000000000E+04  0.10566000000E+00 0.  1.
        994   -1    0    0    0    0 -0.00000000000E+00 -0.00000000000E+00  0.11368683772E-12  0.17120000000E+03  0.17120000000E+03 0.  0.
         13    1    1    2    0    0  0.42444448378E+02  0.32266670486E+02  0.25557937321E+03  0.26108139803E+03  0.10566000000E+00 0.  1.
        994    1    1    2    0    0 -0.44759010407E+02 -0.18273650174E+02  0.12777883600E+02  0.17835360835E+03  0.17120000000E+03 0.  0.
        998    1    1    2    0    0  0.23145620288E+01 -0.13993020312E+02  0.12316427395E+04  0.12317649936E+04  0.10000000000E+02 0.  1.
</event>
<event>
 5    1  0.1500932E-008  0.3848406E+03  0.7957747E-01  0.3430348E+00
         13   -1    0    0    0    0  0.00000000000E+00  0.00000000000E+00  0.14999999963E+04  0.15000000000E+04  0.10566000000E+00 0.  1.
        994   -1    0    0    0    0 -0.00000000000E+00 -0.00000000000E+00  0.11368683772E-12  0.17120000000E+03  0.17120000000E+03 0.  0.
         13    1    1    2    0    0  0.11787327475E+02  0.10592874410E+02  0.72140526786E+02  0.73860793702E+02  0.10566000000E+00 0.  1.
        994    1    1    2    0    0 -0.12765286432E+02 -0.53436544257E+01  0.23396698127E+01  0.17177433229E+03  0.17120000000E+03 0.  0.
        998    1    1    2    0    0  0.97795895716E+00 -0.52492199839E+01  0.14255197997E+04  0.14255648740E+04  0.10000000000E+02 0.  1.
</event>
<event>
 5    1  0.1303633E-008  0.3839633E+03  0.7957747E-01  0.3434081E+00
         13   -1    0    0    0    0  0.00000000000E+00  0.00000000000E+00  0.14999999963E+04  0.15000000000E+04  0.10566000000E+00 0.  1.
        994   -1    0    0    0    0 -0.00000000000E+00 -0.00000000000E+00  0.11368683772E-12  0.17120000000E+03  0.17120000000E+03 0.  0.
         13    1    1    2    0    0  0.13951124057E+02 -0.17185830407E+02  0.12317727382E+03  0.12515046376E+03  0.10566000000E+00 0.  1.
        994    1    1    2    0    0  0.12153476443E+01  0.54909499998E+01  0.22500944836E+01  0.17130712340E+03  0.17120000000E+03 0.  0.
        998    1    1    2    0    0 -0.15166471701E+02  0.11694880407E+02  0.13745726280E+04  0.13747424128E+04  0.10000000000E+02 0.  1.
</event>
<event>
 5    1  0.1303633E-008  0.3695846E+03  0.7957747E-01  0.3497802E+00
         13   -1    0    0    0    0  0.00000000000E+00  0.00000000000E+00  0.14999999963E+04  0.15000000000E+04  0.10566000000E+00 0. -1.
        994   -1    0    0    0    0 -0.00000000000E+00 -0.00000000000E+00  0.11368683772E-12  0.17120000000E+03  0.17120000000E+03 0.  0.
         13    1    1    2    0    0 -0.45905163968E+02  0.92671215949E+02  0.51004842455E+03  0.52042736755E+03  0.10566000000E+00 0. -1.
        994    1    1    2    0    0  0.61643405803E+02 -0.50219069199E+02  0.31707070355E+02  0.19140700797E+03  0.17120000000E+03 0.  0.
        998    1    1    2    0    0 -0.15738241835E+02 -0.42452146750E+02  0.95824450137E+03  0.95936562448E+03  0.10000000000E+02 0. -1.
</event>
<event>
 5    1  0.1303633E-008  0.3850878E+03  0.7957747E-01  0.3429300E+00
         13   -1    0    0    0    0  0.00000000000E+00  0.00000000000E+00  0.14999999963E+04  0.15000000000E+04  0.10566000000E+00 0. -1.
        994   -1    0    0    0    0 -0.00000000000E+00 -0.00000000000E+00  0.11368683772E-12  0.17120000000E+03  0.17120000000E+03 0.  0.
         13    1    1    2    0    0  0.15061799096E+01 -0.11033384413E+02  0.39149634986E+02  0.40702693193E+02  0.10566000000E+00 0. -1.
        994    1    1    2    0    0  0.49891082872E+00  0.67991073897E+01  0.17393558470E+01  0.17134451299E+03  0.17120000000E+03 0.  0.
        998    1    1    2    0    0 -0.20050907383E+01  0.42342770237E+01  0.14591110054E+04  0.14591527938E+04  0.10000000000E+02 0. -1.
</event>
<event>
 5    1  0.1303633E-008  0.3712649E+03  0.7957747E-01  0.3490098E+00
         13   -1    0    0    0    0  0.00000000000E+00  0.00000000000E+00  0.14999999963E+04  0.15000000000E+04  0.10566000000E+00 0. -1.
        994   -1    0    0    0    0 -0.00000000000E+00 -0.00000000000E+00  0.11368683772E-12  0.17120000000E+03  0.17120000000E+03 0.  0.
         13    1    1    2    0    0 -0.69476293397E+02 -0.48145826701E+02  0.48693235293E+03  0.49421463300E+03  0.10566000000E+00 0. -1.
        994    1    1    2    0    0 -0.17791915867E+02  0.21377766697E+02  0.14330373324E+02  0.17403551585E+03  0.17120000000E+03 0.  0.
        998    1    1    2    0    0  0.87268209264E+02  0.26768060004E+02  0.99873727002E+03  0.10029498511E+04  0.10000000000E+02 0. -1.
</event>
<event>
 5    1  0.1303633E-008  0.3696020E+03  0.7957747E-01  0.3497722E+00
         13   -1    0    0    0    0  0.00000000000E+00  0.00000000000E+00  0.14999999963E+04  0.15000000000E+04  0.10566000000E+00 0. -1.
        994   -1    0    0    0    0 -0.00000000000E+00 -0.00000000000E+00  0.11368683772E-12  0.17120000000E+03  0.17120000000E+03 0.  0.
         13    1    1    2    0    0  0.32306741509E+02  0.15033348232E+02  0.63488411997E+02  0.72804647708E+02  0.10566000000E+00 0. -1.
        994    1    1    2    0    0 -0.27357613774E+02  0.39681822220E+01  0.12127703173E+02  0.17384103855E+03  0.17120000000E+03 0.  0.
        998    1    1    2    0    0 -0.49491277351E+01 -0.19001530454E+02  0.14243838811E+04  0.14245543137E+04  0.10000000000E+02 0. -1.
</event>
<event>
 5    1  0.1303633E-008  0.3692395E+03  0.7957747E-01  0.3499393E+00
         13   -1    0    0    0    0  0.00000000000E+00  0.00000000000E+00  0.14999999963E+04  0.15000000000E+04  0.10566000000E+00 0.  1.
        994   -1    0    0    0    0 -0.00000000000E+00 -0.00000000000E+00  0.11368683772E-12  0.17120000000E+03  0.17120000000E+03 0.  0.
         13    1    1    2    0    0  0.11573525936E+02 -0.54341426639E+02  0.13180652328E+03  0.14303813440E+03  0.10566000000E+00 0.  1.
        994    1    1    2    0    0 -0.57407268865E+01  0.54188580606E+02  0.20963237678E+02  0.18088188286E+03  0.17120000000E+03 0.  0.
        998    1    1    2    0    0 -0.58327990496E+01  0.15284603281E+00  0.13472302353E+04  0.13472799827E+04  0.10000000000E+02 0.  1.
</event>
<event>
 5    1  0.1303633E-008  0.4061213E+03  0.7957747E-01  0.3344753E+00
         13   -1    0    0    0    0  0.00000000000E+00  0.00000000000E+00  0.14999999963E+04  0.15000000000E+04  0.10566000000E+00 0. -1.
        994   -1    0    0    0    0 -0.00000000000E+00 -0.00000000000E+00  0.11368683772E-12  0.17120000000E+03  0.17120000000E+03 0.  0.
         13    1    1    2    0    0 -0.30249978073E+02 -0.59829828273E+00  0.12615256138E+01  0.30282366902E+02  0.10566000000E+00 0. -1.
        994    1    1    2    0    0  0.32511026612E+02  0.73362975219E+00  0.35746500951E+02  0.17788973381E+03  0.17120000000E+03 0.  0.
        998    1    1    2    0    0 -0.22610485389E+01 -0.13533146945E+00  0.14629919697E+04  0.14630278993E+04  0.10000000000E+02 0. -1.
</event>
<event>
 5    1  0.1303633E-008  0.3837489E+03  0.7957747E-01  0.3434995E+00
         13   -1    0    0    0    0  0.00000000000E+00  0.00000000000E+00  0.14999999963E+04  0.15000000000E+04  0.10566000000E+00 0. -1.
        994   -1    0    0    0    0 -0.00000000000E+00 -0.00000000000E+00  0.11368683772E-12  0.17120000000E+03  0.17120000000E+03 0.  0.
         13    1    1    2    0    0 -0.10448176743E+02 -0.79969610195E+01  0.39522008810E+02  0.41654725149E+02  0.10566000000E+00 0. -1.
        994    1    1    2    0    0 -0.36806326661E+01  0.27535900139E+01  0.23223190930E+01  0.17127744300E+03  0.17120000000E+03 0.  0.
        998    1    1    2    0    0  0.14128809410E+02  0.52433710056E+01  0.14581556684E+04  0.14582678319E+04  0.10000000000E+02 0. -1.
</event>
<event>
 5    1  0.1303633E-008  0.3858118E+03  0.7957747E-01  0.3426237E+00
         13   -1    0    0    0    0  0.00000000000E+00  0.00000000000E+00  0.14999999963E+04  0.15000000000E+04  0.10566000000E+00 0. -1.
        994   -1    0    0    0    0 -0.00000000000E+00 -0.00000000000E+00  0.11368683772E-12  0.17120000000E+03  0.17120000000E+03 0.  0.
         13    1    1    2    0    0  0.78245288774E+01  0.69548596043E+01  0.46531950410E+02  0.47695145426E+02  0.10566000000E+00 0. -1.
        994    1    1    2    0    0  0.23181500625E+01 -0.51916569385E+01  0.13336929950E+01  0.17129957927E+03  0.17120000000E+03 0.  0.
        998    1    1    2    0    0 -0.10142678940E+02 -0.17632026658E+01  0.14521343529E+04  0.14522052753E+04  0.10000000000E+02 0. -1.
</event>
<event>
 5    1  0.1303633E-008  0.3690190E+03  0.7957747E-01  0.3500412E+00
         13   -1    0    0    0    0  0.00000000000E+00  0.00000000000E+00  0.14999999963E+04  0.15000000000E+04  0.10566000000E+00 0. -1.
        994   -1    0    0    0    0 -0.00000000000E+00 -0.00000000000E+00  0.11368683772E-12  0.17120000000E+03  0.17120000000E+03 0.  0.
         13    1    1    2    0    0  0.15611557733E+02  0.28281471289E+02  0.36216893060E+02  0.48530782603E+02  0.10566000000E+00 0. -1.
        994    1    1    2    0    0 -0.39461067213E+01 -0.11837226766E+03  0.61022884345E+02  0.21693500853E+03  0.17120000000E+03 0.  0.
        998    1    1    2    0    0 -0.11665451011E+02  0.90090796375E+02  0.14027602189E+04  0.14057342089E+04  0.10000000000E+02 0. -1.
</event>
<event>
 5    1  0.1303633E-008  0.3775643E+03  0.7957747E-01  0.3461833E+00
         13   -1    0    0    0    0  0.00000000000E+00  0.00000000000E+00  0.14999999963E+04  0.15000000000E+04  0.10566000000E+00 0. -1.
        994   -1    0    0    0    0 -0.00000000000E+00 -0.00000000000E+00  0.11368683772E-12  0.17120000000E+03  0.17120000000E+03 0.  0.
         13    1    1    2    0    0 -0.17380241627E+02 -0.86614434074E+01  0.33438502974E+02  0.38668308032E+02  0.10566000000E+00 0. -1.
        994    1    1    2    0    0  0.11038763978E+02 -0.37586163002E+01  0.58261544993E+01  0.17169556075E+03  0.17120000000E+03 0.  0.
        998    1    1    2    0    0  0.63414776487E+01  0.12420059708E+02  0.14607353388E+04  0.14608361312E+04  0.10000000000E+02 0. -1.
</event>
<event>
 5    1  0.1303633E-008  0.3824871E+03  0.7957747E-01  0.3440400E+00
         13   -1    0    0    0    0  0.00000000000E+00  0.00000000000E+00  0.14999999963E+04  0.15000000000E+04  0.10566000000E+00 0. -1.
        994   -1    0    0    0    0 -0.00000000000E+00 -0.00000000000E+00  0.11368683772E-12  0.17120000000E+03  0.17120000000E+03 0.  0.
         13    1    1    2    0    0  0.77745334619E+01 -0.89377167601E+01  0.23102342584E+02  0.25962579771E+02  0.10566000000E+00 0. -1.
        994    1    1    2    0    0 -0.58815701254E+01  0.85848150095E+01  0.32420400461E+01  0.17154661973E+03  0.17120000000E+03 0.  0.
        998    1    1    2    0    0 -0.18929633364E+01  0.35290175059E+00  0.14736556136E+04  0.14736908005E+04  0.10000000000E+02 0. -1.
</event>
<event>
 5    1  0.1303633E-008  0.3812488E+03  0.7957747E-01  0.3445739E+00
         13   -1    0    0    0    0  0.00000000000E+00  0.00000000000E+00  0.14999999963E+04  0.15000000000E+04  0.10566000000E+00 0.  1.
        994   -1    0    0    0    0 -0.00000000000E+00 -0.00000000000E+00  0.11368683772E-12  0.17120000000E+03  0.17120000000E+03 0.  0.
         13    1    1    2    0    0 -0.10046839189E+02 -0.12615535024E+02  0.36065210741E+02  0.39506977756E+02  0.10566000000E+00 0.  1.
        994    1    1    2    0    0  0.68203195091E+01  0.57871699237E+01  0.37705044772E+01  0.17147496843E+03  0.17120000000E+03 0.  0.
        998    1    1    2    0    0  0.32265196797E+01  0.68283651000E+01  0.14601642811E+04  0.14602180538E+04  0.10000000000E+02 0.  1.
</event>
<event>
 5    1  0.1303633E-008  0.3828373E+03  0.7957747E-01  0.3438896E+00
         13   -1    0    0    0    0  0.00000000000E+00  0.00000000000E+00  0.14999999963E+04  0.15000000000E+04  0.10566000000E+00 0. -1.
        994   -1    0    0    0    0 -0.00000000000E+00 -0.00000000000E+00  0.11368683772E-12  0.17120000000E+03  0.17120000000E+03 0.  0.
         13    1    1    2    0    0 -0.11614905210E+02 -0.13883978764E+02  0.58131996894E+02  0.60885229048E+02  0.10566000000E+00 0. -1.
        994    1    1    2    0    0  0.16467616552E+02  0.88566045278E+01  0.38664357052E+01  0.17226146163E+03  0.17120000000E+03 0.  0.
        998    1    1    2    0    0 -0.48527113421E+01  0.50273742361E+01  0.14380015637E+04  0.14380533093E+04  0.10000000000E+02 0. -1.
</event>
<event>
 5    1  0.1303633E-008  0.3780219E+03  0.7957747E-01  0.3459817E+00
         13   -1    0    0    0    0  0.00000000000E+00  0.00000000000E+00  0.14999999963E+04  0.15000000000E+04  0.10566000000E+00 0.  1.
        994   -1    0    0    0    0 -0.00000000000E+00 -0.00000000000E+00  0.11368683772E-12  0.17120000000E+03  0.17120000000E+03 0.  0.
         13    1    1    2    0    0 -0.24418665273E+02  0.25956686443E+02  0.12456340373E+03  0.12956108018E+03  0.10566000000E+00 0.  1.
        994    1    1    2    0    0  0.17291167443E+02 -0.73168900939E+01  0.63220984646E+01  0.17234247962E+03  0.17120000000E+03 0.  0.
        998    1    1    2    0    0  0.71274978297E+01 -0.18639796349E+02  0.13691144941E+04  0.13692964402E+04  0.10000000000E+02 0.  1.
</event>
<event>
 5    1  0.1303633E-008  0.3859054E+03  0.7957747E-01  0.3425841E+00
         13   -1    0    0    0    0  0.00000000000E+00  0.00000000000E+00  0.14999999963E+04  0.15000000000E+04  0.10566000000E+00 0. -1.
        994   -1    0    0    0    0 -0.00000000000E+00 -0.00000000000E+00  0.11368683772E-12  0.17120000000E+03  0.17120000000E+03 0.  0.
         13    1    1    2    0    0  0.42894893740E+01 -0.11552025580E+02  0.67265275614E+02  0.68384775218E+02  0.10566000000E+00 0. -1.
        994    1    1    2    0    0 -0.87986593716E+00  0.34453128237E+01  0.12227275707E+01  0.17124129002E+03  0.17120000000E+03 0.  0.
        998    1    1    2    0    0 -0.34096234368E+01  0.81067127560E+01  0.14315119931E+04  0.14315739348E+04  0.10000000000E+02 0. -1.
</event>
<event>
 5    1  0.1303633E-008  0.3779636E+03  0.7957747E-01  0.3460074E+00
         13   -1    0    0    0    0  0.00000000000E+00  0.00000000000E+00  0.14999999963E+04  0.15000000000E+04  0.10566000000E+00 0.  1.
        994   -1    0    0    0    0 -0.00000000000E+00 -0.00000000000E+00  0.11368683772E-12  0.17120000000E+03  0.17120000000E+03 0.  0.
         13    1    1    2    0    0 -0.28016421717E+02  0.16769410639E+02  0.10653599675E+03  0.11142738795E+03  0.10566000000E+00 0.  1.
        994    1    1    2    0    0  0.10312854267E+02 -0.15039567752E+01  0.55303143213E+01  0.17160606407E+03  0.17120000000E+03 0.  0.
        998    1    1    2    0    0  0.17703567450E+02 -0.15265453864E+02  0.13879336852E+04  0.13881665480E+04  0.10000000000E+02 0.  1.
</event>
<event>
 5    1  0.1303633E-008  0.3833390E+03  0.7957747E-01  0.3436747E+00
         13   -1    0    0    0    0  0.00000000000E+00  0.00000000000E+00  0.14999999963E+04  0.15000000000E+04  0.10566000000E+00 0.  1.
        994   -1    0    0    0    0 -0.00000000000E+00 -0.00000000000E+00  0.11368683772E-12  0.17120000000E+03  0.17120000000E+03 0.  0.
         13    1    1    2    0    0 -0.11335525931E+02 -0.47650873957E+01  0.30511563797E+02  0.32896305193E+02  0.10566000000E+00 0.  1.
        994    1    1    2    0    0  0.28504594343E+01  0.27592596382E+01  0.25090701100E+01  0.17126433974E+03  0.17120000000E+03 0.  0.
        998    1    1    2    0    0  0.84850664963E+01  0.20058277575E+01  0.14669793624E+04  0.14670393551E+04  0.10000000000E+02 0.  1.
</event>
<event>
 5    1  0.1303633E-008  0.4332960E+03  0.7957747E-01  0.3247553E+00
         13   -1    0    0    0    0  0.00000000000E+00  0.00000000000E+00  0.14999999963E+04  0.15000000000E+04  0.10566000000E+00 0.  1.
        994   -1    0    0    0    0 -0.00000000000E+00 -0.00000000000E+00  0.11368683772E-12  0.17120000000E+03  0.17120000000E+03 0.  0.
         13    1    1    2    0    0  0.67398215954E+02  0.12575554215E+03  0.17670138189E+03  0.22711311151E+03  0.10566000000E+00 0.  1.
        994    1    1    2    0    0 -0.59722456996E+02 -0.11273779819E+03  0.12859169570E+03  0.24924254696E+03  0.17120000000E+03 0.  0.
        998    1    1    2    0    0 -0.76757589579E+01 -0.13017743960E+02  0.11947069187E+04  0.11948443415E+04  0.10000000000E+02 0.  1.
</event>
<event>
 5    1  0.1303633E-008  0.3774294E+03  0.7957747E-01  0.3462428E+00
         13   -1    0    0    0    0  0.00000000000E+00  0.00000000000E+00  0.14999999963E+04  0.15000000000E+04  0.10566000000E+00 0. -1.
        994   -1    0    0    0    0 -0.00000000000E+00 -0.00000000000E+00  0.11368683772E-12  0.17120000000E+03  0.17120000000E+03 0.  0.
         13    1    1    2    0    0 -0.23425533360E+02  0.11040786502E+02  0.60660501557E+02  0.65957275512E+02  0.10566000000E+00 0. -1.
        994    1    1    2    0    0  0.10684508628E+02 -0.53645606564E+01  0.59184844159E+01  0.17171897302E+03  0.17120000000E+03 0.  0.
        998    1    1    2    0    0  0.12741024732E+02 -0.56762258451E+01  0.14334210103E+04  0.14335237515E+04  0.10000000000E+02 0. -1.
</event>
<event>
 5    1  0.1303633E-008  0.3841023E+03  0.7957747E-01  0.3433488E+00
         13   -1    0    0    0    0  0.00000000000E+00  0.00000000000E+00  0.14999999963E+04  0.15000000000E+04  0.10566000000E+00 0. -1.
        994   -1    0    0    0    0 -0.00000000000E+00 -0.00000000000E+00  0.11368683772E-12  0.17120000000E+03  0.17120000000E+03 0.  0.
         13    1    1    2    0    0  0.30843040444E+01 -0.20217340664E+02  0.95632613114E+02  0.97794998083E+02  0.10566000000E+00 0. -1.
        994    1    1    2    0    0 -0.59724282625E+01  0.19258026423E+02  0.34185090620E+01  0.17241713281E+03  0.17120000000E+03 0.  0.
        998    1    1    2    0    0  0.28881242181E+01  0.95931424170E+00  0.14009488741E+04  0.14009878691E+04  0.10000000000E+02 0. -1.
</event>
<event>
 5    1  0.1303633E-008  0.3845851E+03  0.7957747E-01  0.3431434E+00
         13   -1    0    0    0    0  0.00000000000E+00  0.00000000000E+00  0.14999999963E+04  0.15000000000E+04  0.10566000000E+00 0.  1.
        994   -1    0    0    0    0 -0.00000000000E+00 -0.00000000000E+00  0.11368683772E-12  0.17120000000E+03  0.17120000000E+03 0.  0.
         13    1    1    2    0    0  0.78071898546E+01  0.17054191650E+02  0.10304123665E+03  0.10473445126E+03  0.10566000000E+00 0.  1.
        994    1    1    2    0    0 -0.10523446755E+02  0.22683017665E+01  0.22180026556E+01  0.17155246329E+03  0.17120000000E+03 0.  0.
        998    1    1    2    0    0  0.27162569008E+01 -0.19322493417E+02  0.13947407570E+04  0.13949130855E+04  0.10000000000E+02 0.  1.
</event>
<event>
 5    1  0.1303633E-008  0.3836911E+03  0.7957747E-01  0.3435242E+00
         13   -1    0    0    0    0  0.00000000000E+00  0.00000000000E+00  0.14999999963E+04  0.15000000000E+04  0.10566000000E+00 0.  1.
        994   -1    0    0    0    0 -0.00000000000E+00 -0.00000000000E+00  0.11368683772E-12  0.17120000000E+03  0.17120000000E+03 0.  0.
         13    1    1    2    0    0  0.26160064639E+01 -0.14600875139E+02  0.50490901220E+02  0.52624816529E+02  0.10566000000E+00 0.  1.
        994    1    1    2    0    0  0.10757451401E+01 -0.19536783493E+01  0.22977911413E+01  0.17122994461E+03  0.17120000000E+03 0.  0.
        998    1    1    2    0    0 -0.36917516039E+01  0.16554553488E+02  0.14472113039E+04  0.14473452389E+04  0.10000000000E+02 0.  1.
</event>
<event>
 5    1  0.1303633E-008  0.3820281E+03  0.7957747E-01  0.3442375E+00
         13   -1    0    0    0    0  0.00000000000E+00  0.00000000000E+00  0.14999999963E+04  0.15000000000E+04  0.10566000000E+00 0.  1.
        994   -1    0    0    0    0 -0.00000000000E+00 -0.00000000000E+00  0.11368683772E-12  0.17120000000E+03  0.17120000000E+03 0.  0.
         13    1    1    2    0    0 -0.17294601917E+02  0.19014506171E-01  0.50350578020E+02  0.53238101844E+02  0.10566000000E+00 0.  1.
        994    1    1    2    0    0 -0.49148733357E+01 -0.72949266231E+01  0.33698425643E+01  0.17145893903E+03  0.17120000000E+03 0.  0.
        998    1    1    2    0    0  0.22209475253E+02  0.72759121169E+01  0.14462795757E+04  0.14465029591E+04  0.10000000000E+02 0.  1.
</event>
<event>
 5    1  0.1303633E-008  0.3845082E+03  0.7957747E-01  0.3431760E+00
         13   -1    0    0    0    0  0.00000000000E+00  0.00000000000E+00  0.14999999963E+04  0.15000000000E+04  0.10566000000E+00 0. -1.
        994   -1    0    0    0    0 -0.00000000000E+00 -0.00000000000E+00  0.11368683772E-12  0.17120000000E+03  0.17120000000E+03 0.  0.
         13    1    1    2    0    0  0.10407339605E+02 -0.21829236598E+01  0.29800583765E+02  0.31641173021E+02  0.10566000000E+00 0. -1.
        994    1    1    2    0    0 -0.58591559208E+01  0.51006721896E+01  0.20732821277E+01  0.17138869585E+03  0.17120000000E+03 0.  0.
        998    1    1    2    0    0 -0.45481836838E+01 -0.29177485298E+01  0.14681261304E+04  0.14681701311E+04  0.10000000000E+02 0. -1.
</event>
<event>
 5    1  0.1303633E-008  0.3975641E+03  0.7957747E-01  0.3378074E+00
         13   -1    0    0    0    0  0.00000000000E+00  0.00000000000E+00  0.14999999963E+04  0.15000000000E+04  0.10566000000E+00 0.  1.
        994   -1    0    0    0    0 -0.00000000000E+00 -0.00000000000E+00  0.11368683772E-12  0.17120000000E+03  0.17120000000E+03 0.  0.
         13    1    1    2    0    0  0.49561748691E+02  0.39529408258E+02  0.61255101839E+02  0.88154068062E+02  0.10566000000E+00 0.  1.
        994    1    1    2    0    0 -0.64298828236E+02 -0.51447607362E+02  0.53129374838E+02  0.19726471070E+03  0.17120000000E+03 0.  0.
        998    1    1    2    0    0  0.14737079546E+02  0.11918199104E+02  0.13856155196E+04  0.13857812212E+04  0.10000000000E+02 0.  1.
</event>
<event>
 5    1  0.1303633E-008  0.3814225E+03  0.7957747E-01  0.3444988E+00
         13   -1    0    0    0    0  0.00000000000E+00  0.00000000000E+00  0.14999999963E+04  0.15000000000E+04  0.10566000000E+00 0.  1.
        994   -1    0    0    0    0 -0.00000000000E+00 -0.00000000000E+00  0.11368683772E-12  0.17120000000E+03  0.17120000000E+03 0.  0.
         13    1    1    2    0    0  0.25363392846E+02  0.25947494736E+02  0.17504741231E+03  0.17876851485E+03  0.10566000000E+00 0.  1.
        994    1    1    2    0    0 -0.13685036610E+02 -0.33624086794E+02  0.78141338592E+01  0.17518093540E+03  0.17120000000E+03 0.  0.
        998    1    1    2    0    0 -0.11678356237E+02  0.76765920580E+01  0.13171384501E+04  0.13172505498E+04  0.10000000000E+02 0.  1.
</event>
<event>
 5    1  0.1303633E-008  0.3746082E+03  0.7957747E-01  0.3474977E+00
         13   -1    0    0    0    0  0.00000000000E+00  0.00000000000E+00  0.14999999963E+04  0.15000000000E+04  0.10566000000E+00 0. -1.
        994   -1    0    0    0    0 -0.00000000000E+00 -0.00000000000E+00  0.11368683772E-12  0.17120000000E+03  0.17120000000E+03 0.  0.
         13    1    1    2    0    0 -0.31779723908E+01  0.47156286093E+02  0.13390927717E+03  0.14200535378E+03  0.10566000000E+00 0. -1.
        994    1    1    2    0    0  0.11046514223E+02 -0.65062121206E+02  0.21851127817E+02  0.18477558518E+03  0.17120000000E+03 0.  0.
        998    1    1    2    0    0 -0.78685418325E+01  0.17905835113E+02  0.13442395913E+04  0.13444190610E+04  0.10000000000E+02 0. -1.
</event>
<event>
 5    1  0.1303633E-008  0.3846892E+03  0.7957747E-01  0.3430992E+00
         13   -1    0    0    0    0  0.00000000000E+00  0.00000000000E+00  0.14999999963E+04  0.15000000000E+04  0.10566000000E+00 0. -1.
        994   -1    0    0    0    0 -0.00000000000E+00 -0.00000000000E+00  0.11368683772E-12  0.17120000000E+03  0.17120000000E+03 0.  0.
         13    1    1    2    0    0  0.94413393625E+01  0.14974506409E+02  0.99902957932E+02  0.10145928690E+03  0.10566000000E+00 0. -1.
        994    1    1    2    0    0  0.74340593509E+00  0.60995734735E+01  0.19088513480E+01  0.17132087194E+03  0.17120000000E+03 0.  0.
        998    1    1    2    0    0 -0.10184745298E+02 -0.21074079882E+02  0.13981881870E+04  0.13984198412E+04  0.10000000000E+02 0. -1.
</event>
<event>
 5    1  0.1303633E-008  0.3852092E+03  0.7957747E-01  0.3428786E+00
         13   -1    0    0    0    0  0.00000000000E+00  0.00000000000E+00  0.14999999963E+04  0.15000000000E+04  0.10566000000E+00 0. -1.
        994   -1    0    0    0    0 -0.00000000000E+00 -0.00000000000E+00  0.11368683772E-12  0.17120000000E+03  0.17120000000E+03 0.  0.
         13    1    1    2    0    0  0.12181207659E+02  0.49583652929E+01  0.59132569306E+02  0.60577546361E+02  0.10566000000E+00 0. -1.
        994    1    1    2    0    0 -0.21512890593E+01 -0.61593040701E+00  0.15427816183E+01  0.17122157455E+03  0.17120000000E+03 0.  0.
        998    1    1    2    0    0 -0.10029918600E+02 -0.43424348859E+01  0.14393246454E+04  0.14394008791E+04  0.10000000000E+02 0. -1.
</event>
<event>
 5    1  0.1303633E-008  0.3853056E+03  0.7957747E-01  0.3428377E+00
         13   -1    0    0    0    0  0.00000000000E+00  0.00000000000E+00  0.14999999963E+04  0.15000000000E+04  0.10566000000E+00 0. -1.
        994   -1    0    0    0    0 -0.00000000000E+00 -0.00000000000E+00  0.11368683772E-12  0.17120000000E+03  0.17120000000E+03 0.  0.
         13    1    1    2    0    0  0.33210508863E+01 -0.11638302471E+02  0.48502103503E+02  0.49989445603E+02  0.10566000000E+00 0. -1.
        994    1    1    2    0    0  0.16637981896E+01  0.13142669285E+02  0.20552734528E+01  0.17172408721E+03  0.17120000000E+03 0.  0.
        998    1    1    2    0    0 -0.49848490760E+01 -0.15043668134E+01  0.14494426193E+04  0.14494864672E+04  0.10000000000E+02 0. -1.
</event>
<event>
 5    1  0.1303633E-008  0.3813519E+03  0.7957747E-01  0.3445293E+00
         13   -1    0    0    0    0  0.00000000000E+00  0.00000000000E+00  0.14999999963E+04  0.15000000000E+04  0.10566000000E+00 0.  1.
        994   -1    0    0    0    0 -0.00000000000E+00 -0.00000000000E+00  0.11368683772E-12  0.17120000000E+03  0.17120000000E+03 0.  0.
         13    1    1    2    0    0 -0.11952484759E+02  0.16972028914E+02  0.60669821270E+02  0.64122929084E+02  0.10566000000E+00 0.  1.
        994    1    1    2    0    0  0.42933278163E+01 -0.15796106182E+02  0.43445173634E+01  0.17203564882E+03  0.17120000000E+03 0.  0.
        998    1    1    2    0    0  0.76591569427E+01 -0.11759227325E+01  0.14349856576E+04  0.14350414221E+04  0.10000000000E+02 0.  1.
</event>
<event>
 5    1  0.1303633E-008  0.3726380E+03  0.7957747E-01  0.3483854E+00
         13   -1    0    0    0    0  0.00000000000E+00  0.00000000000E+00  0.14999999963E+04  0.15000000000E+04  0.10566000000E+00 0. -1.
        994   -1    0    0    0    0 -0.00000000000E+00 -0.00000000000E+00  0.11368683772E-12  0.17120000000E+03  0.17120000000E+03 0.  0.
         13    1    1    2    0    0 -0.11930668673E+03  0.83460648504E+02  0.58450524048E+03  0.60236712449E+03  0.10566000000E+00 0. -1.
        994    1    1    2    0    0  0.13643491289E+03 -0.35750406311E+02  0.86271819644E+02  0.23800177283E+03  0.17120000000E+03 0.  0.
        998    1    1    2    0    0 -0.17128226153E+02 -0.47710242193E+02  0.82922293615E+03  0.83083110268E+03  0.10000000000E+02 0. -1.
</event>
<event>
 5    1  0.1303633E-008  0.3859194E+03  0.7957747E-01  0.3425782E+00
         13   -1    0    0    0    0  0.00000000000E+00  0.00000000000E+00  0.14999999963E+04  0.15000000000E+04  0.10566000000E+00 0.  1.
        994   -1    0    0    0    0 -0.00000000000E+00 -0.00000000000E+00  0.11368683772E-12  0.17120000000E+03  0.17120000000E+03 0.  0.
         13    1    1    2    0    0 -0.10084683964E+02  0.70970482720E+01  0.64106188972E+02  0.65281571468E+02  0.10566000000E+00 0.  1.
        994    1    1    2    0    0  0.83953416494E+01 -0.71628820480E+01  0.15737752249E+01  0.17156254081E+03  0.17120000000E+03 0.  0.
        998    1    1    2    0    0  0.16893423142E+01  0.65833776006E-01  0.14343200321E+04  0.14343558877E+04  0.10000000000E+02 0.  1.
</event>
<event>
 5    1  0.1303633E-008  0.3830585E+03  0.7957747E-01  0.3437948E+00
         13   -1    0    0    0    0  0.00000000000E+00  0.00000000000E+00  0.14999999963E+04  0.15000000000E+04  0.10566000000E+00 0.  1.
        994   -1    0    0    0    0 -0.00000000000E+00 -0.00000000000E+00  0.11368683772E-12  0.17120000000E+03  0.17120000000E+03 0.  0.
         13    1    1    2    0    0 -0.18310511298E+02  0.27085967511E+02  0.19405605229E+03  0.19679097300E+03  0.10566000000E+00 0.  1.
        994    1    1    2    0    0  0.13299570121E+02 -0.21531007603E+02  0.47195917135E+01  0.17312474520E+03  0.17120000000E+03 0.  0.
        998    1    1    2    0    0  0.50109411772E+01 -0.55549599083E+01  0.13012243523E+04  0.13012842818E+04  0.10000000000E+02 0.  1.
</event>
<event>
 5    1  0.1303633E-008  0.3853498E+03  0.7957747E-01  0.3428190E+00
         13   -1    0    0    0    0  0.00000000000E+00  0.00000000000E+00  0.14999999963E+04  0.15000000000E+04  0.10566000000E+00 0.  1.
        994   -1    0    0    0    0 -0.00000000000E+00 -0.00000000000E+00  0.11368683772E-12  0.17120000000E+03  0.17120000000E+03 0.  0.
         13    1    1    2    0    0  0.12817045381E+01  0.12539257408E+02  0.51500334659E+02  0.53020480730E+02  0.10566000000E+00 0.  1.
        994    1    1    2    0    0 -0.11955741579E+02 -0.17616533539E+02  0.29469811056E+01  0.17254392689E+03  0.17120000000E+03 0.  0.
        998    1    1    2    0    0  0.10674037041E+02  0.50772761308E+01  0.14455526805E+04  0.14456355924E+04  0.10000000000E+02 0.  1.
</event>
<event>
 5    1  0.1303633E-008  0.3856462E+03  0.7957747E-01  0.3426936E+00
         13   -1    0    0    0    0  0.00000000000E+00  0.00000000000E+00  0.14999999963E+04  0.15000000000E+04  0.10566000000E+00 0. -1.
        994   -1    0    0    0    0 -0.00000000000E+00 -0.00000000000E+00  0.11368683772E-12  0.17120000000E+03  0.17120000000E+03 0.  0.
         13    1    1    2    0    0  0.11420049146E+02  0.85940846900E+01  0.76996353768E+02  0.78311719888E+02  0.10566000000E+00 0. -1.
        994    1    1    2    0    0 -0.60144422158E+01 -0.11945215490E+02  0.18968352701E+01  0.17173205779E+03  0.17120000000E+03 0.  0.
        998    1    1    2    0    0 -0.54056069304E+01  0.33511308001E+01  0.14211068072E+04  0.14211562223E+04  0.10000000000E+02 0. -1.
</event>
<event>
 5    1  0.1303633E-008  0.3802790E+03  0.7957747E-01  0.3449945E+00
         13   -1    0    0    0    0  0.00000000000E+00  0.00000000000E+00  0.14999999963E+04  0.15000000000E+04  0.10566000000E+00 0. -1.
        994   -1    0    0    0    0 -0.00000000000E+00 -0.00000000000E+00  0.11368683772E-12  0.17120000000E+03  0.17120000000E+03 0.  0.
         13    1    1    2    0    0  0.77276456158E+01 -0.95549472211E+02  0.50860276246E+03  0.51755791878E+03  0.10566000000E+00 0. -1.
        994    1    1    2    0    0 -0.65703015461E+01  0.12453385381E+03  0.57812289995E+02  0.21955306985E+03  0.17120000000E+03 0.  0.
        998    1    1    2    0    0 -0.11573440697E+01 -0.28984381598E+02  0.93358494383E+03  0.93408901137E+03  0.10000000000E+02 0. -1.
</event>
<event>
 5    1  0.1303633E-008  0.3836358E+03  0.7957747E-01  0.3435479E+00
         13   -1    0    0    0    0  0.00000000000E+00  0.00000000000E+00  0.14999999963E+04  0.15000000000E+04  0.10566000000E+00 0. -1.
        994   -1    0    0    0    0 -0.00000000000E+00 -0.00000000000E+00  0.11368683772E-12  0.17120000000E+03  0.17120000000E+03 0.  0.
         13    1    1    2    0    0 -0.62685948132E+02 -0.95575328453E+01  0.10059052211E+03  0.11890895185E+03  0.10566000000E+00 0. -1.
        994    1    1    2    0    0  0.51981017841E+02  0.66073192430E+01  0.28492257834E+02  0.18129239267E+03  0.17120000000E+03 0.  0.
        998    1    1    2    0    0  0.10704930291E+02  0.29502136023E+01  0.13709172163E+04  0.13709986555E+04  0.10000000000E+02 0. -1.
</event>
<event>
 5    1  0.1303633E-008  0.3847586E+03  0.7957747E-01  0.3430696E+00
         13   -1    0    0    0    0  0.00000000000E+00  0.00000000000E+00  0.14999999963E+04  0.15000000000E+04  0.10566000000E+00 0. -1.
        994   -1    0    0    0    0 -0.00000000000E+00 -0.00000000000E+00  0.11368683772E-12  0.17120000000E+03  0.17120000000E+03 0.  0.
         13    1    1    2    0    0  0.12574146198E+01 -0.15427379497E+02  0.72268347196E+02  0.73907444146E+02  0.10566000000E+00 0. -1.
        994    1    1    2    0    0 -0.17745009253E+01  0.14416198291E+01  0.17672183511E+01  0.17122438548E+03  0.17120000000E+03 0.  0.
        998    1    1    2    0    0  0.51708630557E+00  0.13985759668E+02  0.14259644307E+04  0.14260681704E+04  0.10000000000E+02 0. -1.
</event>
<event>
 5    1  0.1303633E-008  0.3776723E+03  0.7957747E-01  0.3461357E+00
         13   -1    0    0    0    0  0.00000000000E+00  0.00000000000E+00  0.14999999963E+04  0.15000000000E+04  0.10566000000E+00 0.  1.
        994   -1    0    0    0    0 -0.00000000000E+00 -0.00000000000E+00  0.11368683772E-12  0.17120000000E+03  0.17120000000E+03 0.  0.
         13    1    1    2    0    0 -0.19124264242E+02  0.20071189386E+02  0.83095553907E+02  0.87598358257E+02  0.10566000000E+00 0.  1.
        994    1    1    2    0    0 -0.47302689591E+01  0.24569727209E+02  0.74247339556E+01  0.17317798247E+03  0.17120000000E+03 0.  0.
        998    1    1    2    0    0  0.23854533201E+02 -0.44640916595E+02  0.14094797084E+04  0.14104236593E+04  0.10000000000E+02 0.  1.
</event>
<event>
 5    1  0.1303633E-008  0.3808193E+03  0.7957747E-01  0.3447599E+00
         13   -1    0    0    0    0  0.00000000000E+00  0.00000000000E+00  0.14999999963E+04  0.15000000000E+04  0.10566000000E+00 0. -1.
        994   -1    0    0    0    0 -0.00000000000E+00 -0.00000000000E+00  0.11368683772E-12  0.17120000000E+03  0.17120000000E+03 0.  0.
         13    1    1    2    0    0 -0.14995496031E+02 -0.16039930571E+02  0.60974454450E+02  0.64807711990E+02  0.10566000000E+00 0. -1.
        994    1    1    2    0    0  0.11808852961E+02  0.21186466073E+02  0.56839909335E+01  0.17300307253E+03  0.17120000000E+03 0.  0.
        998    1    1    2    0    0  0.31866430706E+01 -0.51465355026E+01  0.14333415509E+04  0.14333892155E+04  0.10000000000E+02 0. -1.
</event>
<event>
 5    1  0.1303633E-008  0.3844735E+03  0.7957747E-01  0.3431908E+00
         13   -1    0    0    0    0  0.00000000000E+00  0.00000000000E+00  0.14999999963E+04  0.15000000000E+04  0.10566000000E+00 0.  1.
        994   -1    0    0    0    0 -0.00000000000E+00 -0.00000000000E+00  0.11368683772E-12  0.17120000000E+03  0.17120000000E+03 0.  0.
         13    1    1    2    0    0  0.13632538022E+02 -0.18383300738E+02  0.12581172588E+03  0.12787647700E+03  0.10566000000E+00 0.  1.
        994    1    1    2    0    0 -0.20720335367E+02  0.16694194117E+02  0.42276938662E+01  0.17330707375E+03  0.17120000000E+03 0.  0.
        998    1    1    2    0    0  0.70877973453E+01  0.16891066215E+01  0.13699605765E+04  0.13700164492E+04  0.10000000000E+02 0.  1.
</event>
<event>
 5    1  0.1303633E-008  0.3719923E+03  0.7957747E-01  0.3486784E+00
         13   -1    0    0    0    0  0.00000000000E+00  0.00000000000E+00  0.14999999963E+04  0.15000000000E+04  0.10566000000E+00 0. -1.
        994   -1    0    0    0    0 -0.00000000000E+00 -0.00000000000E+00  0.11368683772E-12  0.17120000000E+03  0.17120000000E+03 0.  0.
         13    1    1    2    0    0  0.19759364203E+01  0.42444550086E+02  0.10999745563E+03  0.11791902122E+03  0.10566000000E+00 0. -1.
        994    1    1    2    0    0 -0.30632375387E+01 -0.18776274911E+02  0.94752871779E+01  0.17251421098E+03  0.17120000000E+03 0.  0.
        998    1    1    2    0    0  0.10873011184E+01 -0.23668275175E+02  0.13805272535E+04  0.13807667678E+04  0.10000000000E+02 0. -1.
</event>
<event>
 5    1  0.1303633E-008  0.3798189E+03  0.7957747E-01  0.3451947E+00
         13   -1    0    0    0    0  0.00000000000E+00  0.00000000000E+00  0.14999999963E+04  0.15000000000E+04  0.10566000000E+00 0. -1.
        994   -1    0    0    0    0 -0.00000000000E+00 -0.00000000000E+00  0.11368683772E-12  0.17120000000E+03  0.17120000000E+03 0.  0.
         13    1    1    2    0    0 -0.14856041327E+02 -0.20733986904E+02  0.12901947721E+02  0.28584464240E+02  0.10566000000E+00 0. -1.
        994    1    1    2    0    0  0.16977168666E+02  0.20125311664E+02  0.18742097304E+02  0.17422387505E+03  0.17120000000E+03 0.  0.
        998    1    1    2    0    0 -0.21211273392E+01  0.60867523960E+00  0.14683559513E+04  0.14683916607E+04  0.10000000000E+02 0. -1.
</event>
<event>
 5    1  0.1303633E-008  0.3853172E+03  0.7957747E-01  0.3428328E+00
         13   -1    0    0    0    0  0.00000000000E+00  0.00000000000E+00  0.14999999963E+04  0.15000000000E+04  0.10566000000E+00 0.  1.
        994   -1    0    0    0    0 -0.00000000000E+00 -0.00000000000E+00  0.11368683772E-12  0.17120000000E+03  0.17120000000E+03 0.  0.
         13    1    1    2    0    0 -0.13749743802E+02  0.64736067090E+01  0.82973177124E+02  0.84353555494E+02  0.10566000000E+00 0.  1.
        994    1    1    2    0    0  0.19025988844E+01 -0.27533058844E+01  0.15095231029E+01  0.17123936240E+03  0.17120000000E+03 0.  0.
        998    1    1    2    0    0  0.11847144918E+02 -0.37203008246E+01  0.14155172961E+04  0.14156070821E+04  0.10000000000E+02 0.  1.
</event>
<event>
 5    1  0.1303633E-008  0.3845060E+03  0.7957747E-01  0.3431770E+00
         13   -1    0    0    0    0  0.00000000000E+00  0.00000000000E+00  0.14999999963E+04  0.15000000000E+04  0.10566000000E+00 0.  1.
        994   -1    0    0    0    0 -0.00000000000E+00 -0.00000000000E+00  0.11368683772E-12  0.17120000000E+03  0.17120000000E+03 0.  0.
         13    1    1    2    0    0  0.20608655859E+02 -0.75638635638E+01  0.13025215898E+03  0.13208923049E+03  0.10566000000E+00 0.  1.
        994    1    1    2    0    0 -0.11202393466E+02  0.35354842464E+01  0.23302827287E+01  0.17161836582E+03  0.17120000000E+03 0.  0.
        998    1    1    2    0    0 -0.94062623925E+01  0.40283793173E+01  0.13674175546E+04  0.13674924037E+04  0.10000000000E+02 0.  1.
</event>
<event>
 5    1  0.1303633E-008  0.3840635E+03  0.7957747E-01  0.3433654E+00
         13   -1    0    0    0    0  0.00000000000E+00  0.00000000000E+00  0.14999999963E+04  0.15000000000E+04  0.10566000000E+00 0.  1.
        994   -1    0    0    0    0 -0.00000000000E+00 -0.00000000000E+00  0.11368683772E-12  0.17120000000E+03  0.17120000000E+03 0.  0.
         13    1    1    2    0    0 -0.73208826950E+01  0.36062454175E+02  0.22099142868E+03  0.22403419078E+03  0.10566000000E+00 0.  1.
        994    1    1    2    0    0  0.20894468922E+02 -0.56563684626E+02  0.14183425499E+02  0.18206218391E+03  0.17120000000E+03 0.  0.
        998    1    1    2    0    0 -0.13573586227E+02  0.20501230451E+02  0.12648251421E+04  0.12651036253E+04  0.10000000000E+02 0.  1.
</event>
<event>
 5    1  0.2769130E-008  0.3860921E+03  0.7957747E-01  0.3425054E+00
         13   -1    0    0    0    0  0.00000000000E+00  0.00000000000E+00  0.14999999963E+04  0.15000000000E+04  0.10566000000E+00 0. -1.
        994   -1    0    0    0    0 -0.00000000000E+00 -0.00000000000E+00  0.11368683772E-12  0.17120000000E+03  0.17120000000E+03 0.  0.
         13    1    1    2    0    0  0.70311792221E+00  0.10249555287E+02  0.49102382555E+02  0.50165754206E+02  0.10566000000E+00 0. -1.
        994    1    1    2    0    0 -0.20736692168E+01 -0.68314421419E+01  0.12559316265E+01  0.17135339527E+03  0.17120000000E+03 0.  0.
        998    1    1    2    0    0  0.13705512946E+01 -0.34181131454E+01  0.14496416821E+04  0.14496808505E+04  0.10000000000E+02 0. -1.
</event>
<event>
 5    1  0.1303633E-008  0.3782761E+03  0.7957747E-01  0.3458699E+00
         13   -1    0    0    0    0  0.00000000000E+00  0.00000000000E+00  0.14999999963E+04  0.15000000000E+04  0.10566000000E+00 0.  1.
        994   -1    0    0    0    0 -0.00000000000E+00 -0.00000000000E+00  0.11368683772E-12  0.17120000000E+03  0.17120000000E+03 0.  0.
         13    1    1    2    0    0  0.17773908710E+02 -0.99320882935E+01  0.38992616919E+02  0.43988561547E+02  0.10566000000E+00 0.  1.
        994    1    1    2    0    0 -0.13512348996E+02  0.10939553756E+02  0.60227564831E+01  0.17218586181E+03  0.17120000000E+03 0.  0.
        998    1    1    2    0    0 -0.42615597142E+01 -0.10074654627E+01  0.14549846229E+04  0.14550255766E+04  0.10000000000E+02 0.  1.
</event>
<event>
 5    1  0.1303633E-008  0.3779811E+03  0.7957747E-01  0.3459997E+00
         13   -1    0    0    0    0  0.00000000000E+00  0.00000000000E+00  0.14999999963E+04  0.15000000000E+04  0.10566000000E+00 0. -1.
        994   -1    0    0    0    0 -0.00000000000E+00 -0.00000000000E+00  0.11368683772E-12  0.17120000000E+03  0.17120000000E+03 0.  0.
         13    1    1    2    0    0 -0.38242852629E+01  0.32893038170E+02  0.11775107126E+03  0.12231885817E+03  0.10566000000E+00 0. -1.
        994    1    1    2    0    0 -0.17692841163E+01  0.29661555594E+01  0.51959007851E+01  0.17131364753E+03  0.17120000000E+03 0.  0.
        998    1    1    2    0    0  0.55935693793E+01 -0.35859193729E+02  0.13770530242E+04  0.13775674943E+04  0.10000000000E+02 0. -1.
</event>
<event>
 5    1  0.1303633E-008  0.3817000E+03  0.7957747E-01  0.3443790E+00
         13   -1    0    0    0    0  0.00000000000E+00  0.00000000000E+00  0.14999999963E+04  0.15000000000E+04  0.10566000000E+00 0. -1.
        994   -1    0    0    0    0 -0.00000000000E+00 -0.00000000000E+00  0.11368683772E-12  0.17120000000E+03  0.17120000000E+03 0.  0.
         13    1    1    2    0    0  0.29918254994E+02  0.31877861870E+02  0.25674244305E+03  0.26043807956E+03  0.10566000000E+00 0. -1.
        994    1    1    2    0    0 -0.18513147276E+02 -0.35511848092E+02  0.86273881799E+01  0.17603323494E+03  0.17120000000E+03 0.  0.
        998    1    1    2    0    0 -0.11405107719E+02  0.36339862220E+01  0.12346301651E+04  0.12347286855E+04  0.10000000000E+02 0. -1.
</event>
<event>
 5    1  0.1303633E-008  0.3841813E+03  0.7957747E-01  0.3433152E+00
         13   -1    0    0    0    0  0.00000000000E+00  0.00000000000E+00  0.14999999963E+04  0.15000000000E+04  0.10566000000E+00 0. -1.
        994   -1    0    0    0    0 -0.00000000000E+00 -0.00000000000E+00  0.11368683772E-12  0.17120000000E+03  0.17120000000E+03 0.  0.
         13    1    1    2    0    0  0.26711821554E+01  0.16943356275E+02  0.75312461088E+02  0.77241119199E+02  0.10566000000E+00 0. -1.
        994    1    1    2    0    0 -0.13552954548E+01 -0.33421081066E+01  0.20800402892E+01  0.17125061483E+03  0.17120000000E+03 0.  0.
        998    1    1    2    0    0 -0.13158867005E+01 -0.13601248168E+02  0.14226074949E+04  0.14227082660E+04  0.10000000000E+02 0. -1.
</event>
<event>
 5    1  0.1303633E-008  0.3790737E+03  0.7957747E-01  0.3455202E+00
         13   -1    0    0    0    0  0.00000000000E+00  0.00000000000E+00  0.14999999963E+04  0.15000000000E+04  0.10566000000E+00 0. -1.
        994   -1    0    0    0    0 -0.00000000000E+00 -0.00000000000E+00  0.11368683772E-12  0.17120000000E+03  0.17120000000E+03 0.  0.
         13    1    1    2    0    0 -0.43037224460E+02 -0.74563766791E+01  0.17456500106E+03  0.17994652261E+03  0.10566000000E+00 0. -1.
        994    1    1    2    0    0  0.48713012463E+02  0.18611641279E+02  0.13774556477E+02  0.17949520657E+03  0.17120000000E+03 0.  0.
        998    1    1    2    0    0 -0.56757880037E+01 -0.11155264600E+02  0.13116604387E+04  0.13117582708E+04  0.10000000000E+02 0. -1.
</event>
<event>
 5    1  0.1303633E-008  0.3854257E+03  0.7957747E-01  0.3427869E+00
         13   -1    0    0    0    0  0.00000000000E+00  0.00000000000E+00  0.14999999963E+04  0.15000000000E+04  0.10566000000E+00 0. -1.
        994   -1    0    0    0    0 -0.00000000000E+00 -0.00000000000E+00  0.11368683772E-12  0.17120000000E+03  0.17120000000E+03 0.  0.
         13    1    1    2    0    0 -0.13417606139E+02  0.69852982748E+01  0.82958027225E+02  0.84325986455E+02  0.10566000000E+00 0. -1.
        994    1    1    2    0    0  0.57457529261E+01 -0.35203171942E+01  0.15680456133E+01  0.17133973584E+03  0.17120000000E+03 0.  0.
        998    1    1    2    0    0  0.76718532125E+01 -0.34649810806E+01  0.14154739234E+04  0.14155342777E+04  0.10000000000E+02 0. -1.
</event>
<event>
 5    1  0.1303633E-008  0.3502916E+03  0.7957747E-01  0.3591678E+00
         13   -1    0    0    0    0  0.00000000000E+00  0.00000000000E+00  0.14999999963E+04  0.15000000000E+04  0.10566000000E+00 0. -1.
        994   -1    0    0    0    0 -0.00000000000E+00 -0.00000000000E+00  0.11368683772E-12  0.17120000000E+03  0.17120000000E+03 0.  0.
         13    1    1    2    0    0  0.25755717697E+03 -0.11453036915E+03  0.78097141662E+03  0.83028264441E+03  0.10566000000E+00 0. -1.
        994    1    1    2    0    0 -0.26819097755E+03  0.97988016069E+02  0.39693208870E+03  0.51806618763E+03  0.17120000000E+03 0.  0.
        998    1    1    2    0    0  0.10633800587E+02  0.16542353076E+02  0.32209649096E+03  0.32285116795E+03  0.10000000000E+02 0.  1.
</event>
<event>
 5    1  0.1303633E-008  0.3859866E+03  0.7957747E-01  0.3425498E+00
         13   -1    0    0    0    0  0.00000000000E+00  0.00000000000E+00  0.14999999963E+04  0.15000000000E+04  0.10566000000E+00 0.  1.
        994   -1    0    0    0    0 -0.00000000000E+00 -0.00000000000E+00  0.11368683772E-12  0.17120000000E+03  0.17120000000E+03 0.  0.
         13    1    1    2    0    0 -0.10430592605E+02 -0.22418323573E+01  0.50380920661E+02  0.51498266040E+02  0.10566000000E+00 0.  1.
        994    1    1    2    0    0  0.63913653046E+01  0.55068729443E+01  0.13744346583E+01  0.17141325582E+03  0.17120000000E+03 0.  0.
        998    1    1    2    0    0  0.40392273006E+01 -0.32650405870E+01  0.14482446410E+04  0.14482884781E+04  0.10000000000E+02 0.  1.
</event>
<event>
 5    1  0.1303633E-008  0.3847806E+03  0.7957747E-01  0.3430603E+00
         13   -1    0    0    0    0  0.00000000000E+00  0.00000000000E+00  0.14999999963E+04  0.15000000000E+04  0.10566000000E+00 0.  1.
        994   -1    0    0    0    0 -0.00000000000E+00 -0.00000000000E+00  0.11368683772E-12  0.17120000000E+03  0.17120000000E+03 0.  0.
         13    1    1    2    0    0 -0.10799743485E+02 -0.11620865063E+02  0.69459391570E+02  0.71248138259E+02  0.10566000000E+00 0.  1.
        994    1    1    2    0    0  0.82683244630E+01  0.15097714757E+02  0.27148583921E+01  0.17208462057E+03  0.17120000000E+03 0.  0.
        998    1    1    2    0    0  0.25314190217E+01 -0.34768496945E+01  0.14278257463E+04  0.14278672412E+04  0.10000000000E+02 0.  1.
</event>
<event>
 5    1  0.1303633E-008  0.3851458E+03  0.7957747E-01  0.3429054E+00
         13   -1    0    0    0    0  0.00000000000E+00  0.00000000000E+00  0.14999999963E+04  0.15000000000E+04  0.10566000000E+00 0. -1.
        994   -1    0    0    0    0 -0.00000000000E+00 -0.00000000000E+00  0.11368683772E-12  0.17120000000E+03  0.17120000000E+03 0.  0.
         13    1    1    2    0    0 -0.12881824004E+02 -0.45876676170E+01  0.60849642006E+02  0.62367284534E+02  0.10566000000E+00 0. -1.
        994    1    1    2    0    0  0.48103408807E+01  0.77021980235E+01  0.18288866628E+01  0.17145042450E+03  0.17120000000E+03 0.  0.
        998    1    1    2    0    0  0.80714831232E+01 -0.31145304065E+01  0.14373214676E+04  0.14373822910E+04  0.10000000000E+02 0. -1.
</event>
<event>
 5    1  0.1303633E-008  0.3623688E+03  0.7957747E-01  0.3531715E+00
         13   -1    0    0    0    0  0.00000000000E+00  0.00000000000E+00  0.14999999963E+04  0.15000000000E+04  0.10566000000E+00 0. -1.
        994   -1    0    0    0    0 -0.00000000000E+00 -0.00000000000E+00  0.11368683772E-12  0.17120000000E+03  0.17120000000E+03 0.  0.
         13    1    1    2    0    0  0.75524276176E+02  0.23594515509E+03  0.10688863487E+04  0.10972201557E+04  0.10566000000E+00 0. -1.
        994    1    1    2    0    0 -0.68042451810E+02 -0.21658145693E+03  0.21456573302E+03  0.35620948404E+03  0.17120000000E+03 0.  0.
        998    1    1    2    0    0 -0.74818243665E+01 -0.19363698162E+02  0.21654791453E+03  0.21777036022E+03  0.10000000000E+02 0.  0.
</event>
<event>
 5    1  0.1303633E-008  0.3856764E+03  0.7957747E-01  0.3426808E+00
         13   -1    0    0    0    0  0.00000000000E+00  0.00000000000E+00  0.14999999963E+04  0.15000000000E+04  0.10566000000E+00 0. -1.
        994   -1    0    0    0    0 -0.00000000000E+00 -0.00000000000E+00  0.11368683772E-12  0.17120000000E+03  0.17120000000E+03 0.  0.
         13    1    1    2    0    0  0.27905782112E+01 -0.12544463800E+02  0.61328853255E+02  0.62660915286E+02  0.10566000000E+00 0. -1.
        994    1    1    2    0    0 -0.55085602987E+01  0.14507995947E+02  0.20853322533E+01  0.17191455667E+03  0.17120000000E+03 0.  0.
        998    1    1    2    0    0  0.27179820875E+01 -0.19635321465E+01  0.14365858108E+04  0.14366245280E+04  0.10000000000E+02 0. -1.
</event>
<event>
 5    1  0.1303633E-008  0.3856680E+03  0.7957747E-01  0.3426844E+00
         13   -1    0    0    0    0  0.00000000000E+00  0.00000000000E+00  0.14999999963E+04  0.15000000000E+04  0.10566000000E+00 0. -1.
        994   -1    0    0    0    0 -0.00000000000E+00 -0.00000000000E+00  0.11368683772E-12  0.17120000000E+03  0.17120000000E+03 0.  0.
         13    1    1    2    0    0 -0.74972251221E+01 -0.11813315850E+02  0.77420402035E+02  0.78674599657E+02  0.10566000000E+00 0. -1.
        994    1    1    2    0    0  0.58072116912E+01  0.41485928322E+01  0.14660151609E+01  0.17135496413E+03  0.17120000000E+03 0.  0.
        998    1    1    2    0    0  0.16900134309E+01  0.76647230173E+01  0.14211135791E+04  0.14211704362E+04  0.10000000000E+02 0. -1.
</event>
<event>
 5    1  0.1514031E-008  0.3855160E+03  0.7957747E-01  0.3427487E+00
         13   -1    0    0    0    0  0.00000000000E+00  0.00000000000E+00  0.14999999963E+04  0.15000000000E+04  0.10566000000E+00 0.  1.
        994   -1    0    0    0    0 -0.00000000000E+00 -0.00000000000E+00  0.11368683772E-12  0.17120000000E+03  0.17120000000E+03 0.  0.
         13    1    1    2    0    0 -0.27439008806E+01  0.99118452655E+01  0.38450210653E+02  0.39802054368E+02  0.10566000000E+00 0.  1.
        994    1    1    2    0    0  0.43513930765E+01 -0.67580752925E+01  0.15863016158E+01  0.17139592339E+03  0.17120000000E+03 0.  0.
        998    1    1    2    0    0 -0.16074921958E+01 -0.31537699730E+01  0.14599634840E+04  0.14600020222E+04  0.10000000000E+02 0.  1.
</event>
<event>
 5    1  0.1303633E-008  0.3847629E+03  0.7957747E-01  0.3430678E+00
         13   -1    0    0    0    0  0.00000000000E+00  0.00000000000E+00  0.14999999963E+04  0.15000000000E+04  0.10566000000E+00 0.  1.
        994   -1    0    0    0    0 -0.00000000000E+00 -0.00000000000E+00  0.11368683772E-12  0.17120000000E+03  0.17120000000E+03 0.  0.
         13    1    1    2    0    0 -0.15002699721E+02 -0.10237954373E+02  0.90934441277E+02  0.92730687925E+02  0.10566000000E+00 0.  1.
        994    1    1    2    0    0  0.10200068309E+02  0.14714597980E+02  0.28036253398E+01  0.17215650177E+03  0.17120000000E+03 0.  0.
        998    1    1    2    0    0  0.48026314127E+01 -0.44766436077E+01  0.14062619297E+04  0.14063128103E+04  0.10000000000E+02 0.  1.
</event>
<event>
 5    1  0.1303633E-008  0.3846672E+03  0.7957747E-01  0.3431085E+00
         13   -1    0    0    0    0  0.00000000000E+00  0.00000000000E+00  0.14999999963E+04  0.15000000000E+04  0.10566000000E+00 0.  1.
        994   -1    0    0    0    0 -0.00000000000E+00 -0.00000000000E+00  0.11368683772E-12  0.17120000000E+03  0.17120000000E+03 0.  0.
         13    1    1    2    0    0 -0.24541837731E+01  0.10241429476E+02  0.30978406845E+02  0.32719760855E+02  0.10566000000E+00 0.  1.
        994    1    1    2    0    0 -0.69395988476E+01 -0.56009640565E+01  0.20573044785E+01  0.17144445553E+03  0.17120000000E+03 0.  0.
        998    1    1    2    0    0  0.93937826207E+01 -0.46404654195E+01  0.14669642850E+04  0.14670357836E+04  0.10000000000E+02 0.  1.
</event>
<event>
 5    1  0.1303633E-008  0.3804674E+03  0.7957747E-01  0.3449126E+00
         13   -1    0    0    0    0  0.00000000000E+00  0.00000000000E+00  0.14999999963E+04  0.15000000000E+04  0.10566000000E+00 0.  1.
        994   -1    0    0    0    0 -0.00000000000E+00 -0.00000000000E+00  0.11368683772E-12  0.17120000000E+03  0.17120000000E+03 0.  0.
         13    1    1    2    0    0 -0.76748153798E+01  0.91669813669E+01  0.17136499038E+02  0.20895145412E+02  0.10566000000E+00 0.  1.
        994    1    1    2    0    0 -0.62475672973E+01 -0.32177043357E+01  0.40622751341E+01  0.17139232129E+03  0.17120000000E+03 0.  0.
        998    1    1    2    0    0  0.13922382677E+02 -0.59492770313E+01  0.14788012221E+04  0.14789125333E+04  0.10000000000E+02 0.  1.
</event>
<event>
 5    1  0.1303633E-008  0.3840477E+03  0.7957747E-01  0.3433721E+00
         13   -1    0    0    0    0  0.00000000000E+00  0.00000000000E+00  0.14999999963E+04  0.15000000000E+04  0.10566000000E+00 0. -1.
        994   -1    0    0    0    0 -0.00000000000E+00 -0.00000000000E+00  0.11368683772E-12  0.17120000000E+03  0.17120000000E+03 0.  0.
         13    1    1    2    0    0  0.41364436904E+01 -0.15546768888E+02  0.64032811903E+02  0.66022907794E+02  0.10566000000E+00 0. -1.
        994    1    1    2    0    0  0.58269260788E+01  0.38543794855E+01  0.22647173139E+01  0.17135745754E+03  0.17120000000E+03 0.  0.
        998    1    1    2    0    0 -0.99633697693E+01  0.11692389403E+02  0.14337024671E+04  0.14338196347E+04  0.10000000000E+02 0. -1.
</event>
<event>
 5    1  0.1303633E-008  0.3757986E+03  0.7957747E-01  0.3469659E+00
         13   -1    0    0    0    0  0.00000000000E+00  0.00000000000E+00  0.14999999963E+04  0.15000000000E+04  0.10566000000E+00 0.  1.
        994   -1    0    0    0    0 -0.00000000000E+00 -0.00000000000E+00  0.11368683772E-12  0.17120000000E+03  0.17120000000E+03 0.  0.
         13    1    1    2    0    0  0.57961681820E+02  0.78660747388E+02  0.50078796136E+03  0.51023098999E+03  0.10566000000E+00 0.  1.
        994    1    1    2    0    0 -0.61429491407E+02 -0.75317787642E+02  0.38997469917E+02  0.20069029426E+03  0.17120000000E+03 0.  0.
        998    1    1    2    0    0  0.34678095874E+01 -0.33429597465E+01  0.96021456500E+03  0.96027871575E+03  0.10000000000E+02 0.  1.
</event>
<event>
 5    1  0.1303633E-008  0.3854859E+03  0.7957747E-01  0.3427614E+00
         13   -1    0    0    0    0  0.00000000000E+00  0.00000000000E+00  0.14999999963E+04  0.15000000000E+04  0.10566000000E+00 0. -1.
        994   -1    0    0    0    0 -0.00000000000E+00 -0.00000000000E+00  0.11368683772E-12  0.17120000000E+03  0.17120000000E+03 0.  0.
         13    1    1    2    0    0  0.79046522316E+01 -0.11712208420E+02  0.68575706294E+02  0.70016412439E+02  0.10566000000E+00 0. -1.
        994    1    1    2    0    0 -0.10367703696E+02  0.13237508368E+02  0.23179634514E+01  0.17203933812E+03  0.17120000000E+03 0.  0.
        998    1    1    2    0    0  0.24630514644E+01 -0.15252999480E+01  0.14291063265E+04  0.14291442494E+04  0.10000000000E+02 0. -1.
</event>
<event>
 5    1  0.1303633E-008  0.3736261E+03  0.7957747E-01  0.3479390E+00
         13   -1    0    0    0    0  0.00000000000E+00  0.00000000000E+00  0.14999999963E+04  0.15000000000E+04  0.10566000000E+00 0. -1.
        994   -1    0    0    0    0 -0.00000000000E+00 -0.00000000000E+00  0.11368683772E-12  0.17120000000E+03  0.17120000000E+03 0.  0.
         13    1    1    2    0    0 -0.57754835390E+02 -0.45082630763E+02  0.18216088648E+03  0.19634323093E+03  0.10566000000E+00 0. -1.
        994    1    1    2    0    0  0.48109244835E+02  0.53405543891E+02  0.31397591383E+02  0.18831330357E+03  0.17120000000E+03 0.  0.
        998    1    1    2    0    0  0.96455905550E+01 -0.83229131275E+01  0.12864415184E+04  0.12865434655E+04  0.10000000000E+02 0. -1.
</event>
<event>
 5    1  0.1303633E-008  0.3832553E+03  0.7957747E-01  0.3437105E+00
         13   -1    0    0    0    0  0.00000000000E+00  0.00000000000E+00  0.14999999963E+04  0.15000000000E+04  0.10566000000E+00 0.  1.
        994   -1    0    0    0    0 -0.00000000000E+00 -0.00000000000E+00  0.11368683772E-12  0.17120000000E+03  0.17120000000E+03 0.  0.
         13    1    1    2    0    0  0.40322644840E+01 -0.20916497522E+02  0.10041706680E+03  0.10265163172E+03  0.10566000000E+00 0.  1.
        994    1    1    2    0    0 -0.58806464272E+01 -0.42615857085E+01  0.26732807847E+01  0.17137482180E+03  0.17120000000E+03 0.  0.
        998    1    1    2    0    0  0.18483819432E+01  0.25178083230E+02  0.13969096487E+04  0.13971735465E+04  0.10000000000E+02 0.  1.
</event>
<event>
 5    1  0.1303633E-008  0.3837279E+03  0.7957747E-01  0.3435085E+00
         13   -1    0    0    0    0  0.00000000000E+00  0.00000000000E+00  0.14999999963E+04  0.15000000000E+04  0.10566000000E+00 0.  1.
        994   -1    0    0    0    0 -0.00000000000E+00 -0.00000000000E+00  0.11368683772E-12  0.17120000000E+03  0.17120000000E+03 0.  0.
         13    1    1    2    0    0 -0.98899918653E+01 -0.27057892776E+01  0.23005704101E+02  0.25187433770E+02  0.10566000000E+00 0.  1.
        994    1    1    2    0    0  0.18877647771E+01 -0.51413334386E+01  0.23620936914E+01  0.17130387168E+03  0.17120000000E+03 0.  0.
        998    1    1    2    0    0  0.80022270883E+01  0.78471227162E+01  0.14746321985E+04  0.14747086946E+04  0.10000000000E+02 0.  1.
</event>
<event>
 5    1  0.1303633E-008  0.3860900E+03  0.7957747E-01  0.3425063E+00
         13   -1    0    0    0    0  0.00000000000E+00  0.00000000000E+00  0.14999999963E+04  0.15000000000E+04  0.10566000000E+00 0.  1.
        994   -1    0    0    0    0 -0.00000000000E+00 -0.00000000000E+00  0.11368683772E-12  0.17120000000E+03  0.17120000000E+03 0.  0.
         13    1    1    2    0    0  0.90976467296E+01  0.71840441732E+01  0.59188993971E+02  0.60313562637E+02  0.10566000000E+00 0.  1.
        994    1    1    2    0    0 -0.14380669678E+02 -0.63036736412E+01  0.18982874650E+01  0.17192900703E+03  0.17120000000E+03 0.  0.
        998    1    1    2    0    0  0.52830229481E+01 -0.88037053202E+00  0.14389127148E+04  0.14389574303E+04  0.10000000000E+02 0.  1.
</event>
<event>
 5    1  0.1303633E-008  0.3849637E+03  0.7957747E-01  0.3429826E+00
         13   -1    0    0    0    0  0.00000000000E+00  0.00000000000E+00  0.14999999963E+04  0.15000000000E+04  0.10566000000E+00 0.  1.
        994   -1    0    0    0    0 -0.00000000000E+00 -0.00000000000E+00  0.11368683772E-12  0.17120000000E+03  0.17120000000E+03 0.  0.
         13    1    1    2    0    0 -0.64912103135E+01 -0.15031434103E+02  0.82208401383E+02  0.83823100900E+02  0.10566000000E+00 0.  1.
        994    1    1    2    0    0  0.63299567497E+01  0.72449913080E+01  0.19526561857E+01  0.17148122672E+03  0.17120000000E+03 0.  0.
        998    1    1    2    0    0  0.16125356381E+00  0.77864427952E+01  0.14158389387E+04  0.14158956724E+04  0.10000000000E+02 0.  1.
</event>
<event>
 5    1  0.1303633E-008  0.3832017E+03  0.7957747E-01  0.3437335E+00
         13   -1    0    0    0    0  0.00000000000E+00  0.00000000000E+00  0.14999999963E+04  0.15000000000E+04  0.10566000000E+00 0. -1.
        994   -1    0    0    0    0 -0.00000000000E+00 -0.00000000000E+00  0.11368683772E-12  0.17120000000E+03  0.17120000000E+03 0.  0.
         13    1    1    2    0    0  0.18444286760E+02  0.30797092832E+01  0.70417528238E+02  0.72858189454E+02  0.10566000000E+00 0. -1.
        994    1    1    2    0    0 -0.59240666953E+01 -0.72645283417E+01  0.28163301919E+01  0.17147956046E+03  0.17120000000E+03 0.  0.
        998    1    1    2    0    0 -0.12520220065E+02  0.41848190585E+01  0.14267661378E+04  0.14268622501E+04  0.10000000000E+02 0. -1.
</event>
<event>
 5    1  0.1303633E-008  0.3845384E+03  0.7957747E-01  0.3431632E+00
         13   -1    0    0    0    0  0.00000000000E+00  0.00000000000E+00  0.14999999963E+04  0.15000000000E+04  0.10566000000E+00 0.  1.
        994   -1    0    0    0    0 -0.00000000000E+00 -0.00000000000E+00  0.11368683772E-12  0.17120000000E+03  0.17120000000E+03 0.  0.
         13    1    1    2    0    0  0.44982689255E+02  0.21260240987E+03  0.12115525383E+04  0.12308869937E+04  0.10566000000E+00 0.  1.
        994    1    1    2    0    0 -0.48657237308E+02 -0.21206928360E+03  0.17753900180E+03  0.32889275600E+03  0.17120000000E+03 0.  0.
        998    1    1    2    0    0  0.36745480535E+01 -0.53312626459E+00  0.11090845617E+03  0.11142025030E+03  0.10000000000E+02 0.  0.
</event>
<event>
 5    1  0.1303633E-008  0.3824522E+03  0.7957747E-01  0.3440550E+00
         13   -1    0    0    0    0  0.00000000000E+00  0.00000000000E+00  0.14999999963E+04  0.15000000000E+04  0.10566000000E+00 0.  1.
        994   -1    0    0    0    0 -0.00000000000E+00 -0.00000000000E+00  0.11368683772E-12  0.17120000000E+03  0.17120000000E+03 0.  0.
         13    1    1    2    0    0  0.17302704834E+02 -0.11497566684E+02  0.78403046214E+02  0.81108732291E+02  0.10566000000E+00 0.  1.
        994    1    1    2    0    0 -0.26035030044E+01 -0.17816493062E+01  0.29334061683E+01  0.17125418936E+03  0.17120000000E+03 0.  0.
        998    1    1    2    0    0 -0.14699201830E+02  0.13279215991E+02  0.14186635439E+04  0.14188370783E+04  0.10000000000E+02 0.  1.
</event>
<event>
 5    1  0.1303633E-008  0.3770080E+03  0.7957747E-01  0.3464291E+00
         13   -1    0    0    0    0  0.00000000000E+00  0.00000000000E+00  0.14999999963E+04  0.15000000000E+04  0.10566000000E+00 0.  1.
        994   -1    0    0    0    0 -0.00000000000E+00 -0.00000000000E+00  0.11368683772E-12  0.17120000000E+03  0.17120000000E+03 0.  0.
         13    1    1    2    0    0 -0.68010947393E+01 -0.10013861407E+02  0.10346375441E+02  0.15924539514E+02  0.10566000000E+00 0.  1.
        994    1    1    2    0    0  0.53019469682E+01  0.11494810816E+02  0.61923671052E+01  0.17177900549E+03  0.17120000000E+03 0.  0.
        998    1    1    2    0    0  0.14991477710E+01 -0.14809494086E+01  0.14834612537E+04  0.14834964550E+04  0.10000000000E+02 0.  1.
</event>
<event>
 5    1  0.1303633E-008  0.3701173E+03  0.7957747E-01  0.3495352E+00
         13   -1    0    0    0    0  0.00000000000E+00  0.00000000000E+00  0.14999999963E+04  0.15000000000E+04  0.10566000000E+00 0.  1.
        994   -1    0    0    0    0 -0.00000000000E+00 -0.00000000000E+00  0.11368683772E-12  0.17120000000E+03  0.17120000000E+03 0.  0.
         13    1    1    2    0    0  0.57238282451E+02  0.85693163316E+01  0.14047845640E+03  0.15193374226E+03  0.10566000000E+00 0.  1.
        994    1    1    2    0    0 -0.52145743663E+02  0.15020338811E+02  0.21372046869E+02  0.18086180787E+03  0.17120000000E+03 0.  0.
        998    1    1    2    0    0 -0.50925387876E+01 -0.23589655143E+02  0.13381494930E+04  0.13384044499E+04  0.10000000000E+02 0.  1.
</event>
<event>
 5    1  0.1303633E-008  0.3821400E+03  0.7957747E-01  0.3441893E+00
         13   -1    0    0    0    0  0.00000000000E+00  0.00000000000E+00  0.14999999963E+04  0.15000000000E+04  0.10566000000E+00 0.  1.
        994   -1    0    0    0    0 -0.00000000000E+00 -0.00000000000E+00  0.11368683772E-12  0.17120000000E+03  0.17120000000E+03 0.  0.
         13    1    1    2    0    0  0.19045669392E+01  0.40225743999E+02  0.22215903569E+03  0.22577950784E+03  0.10566000000E+00 0.  1.
        994    1    1    2    0    0  0.12195096771E+02 -0.44086530779E+02  0.10033487533E+02  0.17748930518E+03  0.17120000000E+03 0.  0.
        998    1    1    2    0    0 -0.14099663710E+02  0.38607867803E+01  0.12678074731E+04  0.12679311870E+04  0.10000000000E+02 0.  1.
</event>
<event>
 5    1  0.1303633E-008  0.3758900E+03  0.7957747E-01  0.3469252E+00
         13   -1    0    0    0    0  0.00000000000E+00  0.00000000000E+00  0.14999999963E+04  0.15000000000E+04  0.10566000000E+00 0.  1.
        994   -1    0    0    0    0 -0.00000000000E+00 -0.00000000000E+00  0.11368683772E-12  0.17120000000E+03  0.17120000000E+03 0.  0.
         13    1    1    2    0    0 -0.38322171177E+02  0.19253751751E+02  0.13681358814E+03  0.14337804862E+03  0.10566000000E+00 0.  1.
        994    1    1    2    0    0  0.42766764696E+02  0.65793320313E-01  0.12446197020E+02  0.17689926035E+03  0.17120000000E+03 0.  0.
        998    1    1    2    0    0 -0.44445935182E+01 -0.19319545072E+02  0.13507402111E+04  0.13509226910E+04  0.10000000000E+02 0.  1.
</event>
<event>
 5    1  0.1303633E-008  0.3845228E+03  0.7957747E-01  0.3431699E+00
         13   -1    0    0    0    0  0.00000000000E+00  0.00000000000E+00  0.14999999963E+04  0.15000000000E+04  0.10566000000E+00 0.  1.
        994   -1    0    0    0    0 -0.00000000000E+00 -0.00000000000E+00  0.11368683772E-12  0.17120000000E+03  0.17120000000E+03 0.  0.
         13    1    1    2    0    0  0.93636091206E+01  0.61347913886E+01  0.32767128000E+02  0.34626704761E+02  0.10566000000E+00 0.  1.
        994    1    1    2    0    0 -0.82282784854E+01 -0.65057470940E+01  0.22297277226E+01  0.17153553859E+03  0.17120000000E+03 0.  0.
        998    1    1    2    0    0 -0.11353306353E+01  0.37095570538E+00  0.14650031406E+04  0.14650377567E+04  0.10000000000E+02 0.  1.
</event>
<event>
 5    1  0.1303633E-008  0.3859403E+03  0.7957747E-01  0.3425694E+00
         13   -1    0    0    0    0  0.00000000000E+00  0.00000000000E+00  0.14999999963E+04  0.15000000000E+04  0.10566000000E+00 0.  1.
        994   -1    0    0    0    0 -0.00000000000E+00 -0.00000000000E+00  0.11368683772E-12  0.17120000000E+03  0.17120000000E+03 0.  0.
         13    1    1    2    0    0 -0.11609397333E+02 -0.20036128558E+01  0.63147858733E+02  0.64237495262E+02  0.10566000000E+00 0.  1.
        994    1    1    2    0    0  0.55511374059E+01 -0.19393132738E+02  0.24992843531E+01  0.17240242210E+03  0.17120000000E+03 0.  0.
        998    1    1    2    0    0  0.60582599275E+01  0.21396745593E+02  0.14343528532E+04  0.14345600826E+04  0.10000000000E+02 0.  1.
</event>
<event>
 5    1  0.1303633E-008  0.4103689E+03  0.7957747E-01  0.3328725E+00
         13   -1    0    0    0    0  0.00000000000E+00  0.00000000000E+00  0.14999999963E+04  0.15000000000E+04  0.10566000000E+00 0. -1.
        994   -1    0    0    0    0 -0.00000000000E+00 -0.00000000000E+00  0.11368683772E-12  0.17120000000E+03  0.17120000000E+03 0.  0.
         13    1    1    2    0    0 -0.34882009817E+02  0.88667677024E+00  0.38506912947E+01  0.35105267298E+02  0.10566000000E+00 0. -1.
        994    1    1    2    0    0  0.35389400876E+02  0.12572185582E+01  0.39271038571E+02  0.17918048098E+03  0.17120000000E+03 0.  0.
        998    1    1    2    0    0 -0.50739105861E+00 -0.21438953285E+01  0.14568782664E+04  0.14569142517E+04  0.10000000000E+02 0. -1.
</event>
<event>
 5    1  0.1303633E-008  0.3692335E+03  0.7957747E-01  0.3499421E+00
         13   -1    0    0    0    0  0.00000000000E+00  0.00000000000E+00  0.14999999963E+04  0.15000000000E+04  0.10566000000E+00 0.  1.
        994   -1    0    0    0    0 -0.00000000000E+00 -0.00000000000E+00  0.11368683772E-12  0.17120000000E+03  0.17120000000E+03 0.  0.
         13    1    1    2    0    0  0.50825605622E+02 -0.19769065792E+02  0.16386519832E+03  0.17270168654E+03  0.10566000000E+00 0.  1.
        994    1    1    2    0    0  0.31970049966E+01 -0.61269522429E+01  0.10700639588E+02  0.17167324798E+03  0.17120000000E+03 0.  0.
        998    1    1    2    0    0 -0.54022610618E+02  0.25896018035E+02  0.13254341584E+04  0.13268250655E+04  0.10000000000E+02 0.  1.
</event>
<event>
 5    1  0.1303633E-008  0.3997073E+03  0.7957747E-01  0.3369595E+00
         13   -1    0    0    0    0  0.00000000000E+00  0.00000000000E+00  0.14999999963E+04  0.15000000000E+04  0.10566000000E+00 0.  1.
        994   -1    0    0    0    0 -0.00000000000E+00 -0.00000000000E+00  0.11368683772E-12  0.17120000000E+03  0.17120000000E+03 0.  0.
         13    1    1    2    0    0  0.10726782840E+03 -0.14730759018E+02  0.19807792546E+03  0.22573935853E+03  0.10566000000E+00 0.  1.
        994    1    1    2    0    0 -0.84991532187E+02 -0.31855121169E+02  0.60603736234E+02  0.20302847616E+03  0.17120000000E+03 0.  0.
        998    1    1    2    0    0 -0.22276296216E+02  0.46585880186E+02  0.12413183346E+04  0.12424321653E+04  0.10000000000E+02 0.  1.
</event>
<event>
 5    1  0.1303633E-008  0.3816236E+03  0.7957747E-01  0.3444119E+00
         13   -1    0    0    0    0  0.00000000000E+00  0.00000000000E+00  0.14999999963E+04  0.15000000000E+04  0.10566000000E+00 0.  1.
        994   -1    0    0    0    0 -0.00000000000E+00 -0.00000000000E+00  0.11368683772E-12  0.17120000000E+03  0.17120000000E+03 0.  0.
         13    1    1    2    0    0  0.14773118608E+02  0.45438747840E+01  0.34472504410E+02  0.37779049164E+02  0.10566000000E+00 0.  1.
        994    1    1    2    0    0 -0.13349663270E+02 -0.13151100331E+01  0.39143456685E+01  0.17176933698E+03  0.17120000000E+03 0.  0.
        998    1    1    2    0    0 -0.14234553372E+01 -0.32287647508E+01  0.14616131462E+04  0.14616516139E+04  0.10000000000E+02 0.  1.
</event>
<event>
 5    1  0.1303633E-008  0.3760767E+03  0.7957747E-01  0.3468421E+00
         13   -1    0    0    0    0  0.00000000000E+00  0.00000000000E+00  0.14999999963E+04  0.15000000000E+04  0.10566000000E+00 0.  1.
        994   -1    0    0    0    0 -0.00000000000E+00 -0.00000000000E+00  0.11368683772E-12  0.17120000000E+03  0.17120000000E+03 0.  0.
         13    1    1    2    0    0 -0.37598515000E+02  0.12834862673E+02  0.12394565281E+03  0.13015728195E+03  0.10566000000E+00 0.  1.
        994    1    1    2    0    0  0.26669610336E+02 -0.95103565936E+01  0.88469554745E+01  0.17375103919E+03  0.17120000000E+03 0.  0.
        998    1    1    2    0    0  0.10928904665E+02 -0.33245060793E+01  0.13672073880E+04  0.13672916789E+04  0.10000000000E+02 0.  1.
</event>
<event>
 5    1  0.1303633E-008  0.3790977E+03  0.7957747E-01  0.3455097E+00
         13   -1    0    0    0    0  0.00000000000E+00  0.00000000000E+00  0.14999999963E+04  0.15000000000E+04  0.10566000000E+00 0.  1.
        994   -1    0    0    0    0 -0.00000000000E+00 -0.00000000000E+00  0.11368683772E-12  0.17120000000E+03  0.17120000000E+03 0.  0.
         13    1    1    2    0    0  0.15605628787E+02 -0.18300286393E+02  0.62250537437E+02  0.66735123489E+02  0.10566000000E+00 0.  1.
        994    1    1    2    0    0  0.15938799212E+02  0.29219237636E+02  0.83126645052E+01  0.17460340649E+03  0.17120000000E+03 0.  0.
        998    1    1    2    0    0 -0.31544427999E+02 -0.10918951244E+02  0.14294367943E+04  0.14298614700E+04  0.10000000000E+02 0.  1.
</event>
<event>
 5    1  0.1303633E-008  0.3818062E+03  0.7957747E-01  0.3443332E+00
         13   -1    0    0    0    0  0.00000000000E+00  0.00000000000E+00  0.14999999963E+04  0.15000000000E+04  0.10566000000E+00 0.  1.
        994   -1    0    0    0    0 -0.00000000000E+00 -0.00000000000E+00  0.11368683772E-12  0.17120000000E+03  0.17120000000E+03 0.  0.
         13    1    1    2    0    0 -0.10073731075E+02  0.13145444911E+02  0.40928384762E+02  0.44152311638E+02  0.10566000000E+00 0.  1.
        994    1    1    2    0    0  0.81226846280E+01 -0.11409170013E+02  0.38762614943E+01  0.17181563540E+03  0.17120000000E+03 0.  0.
        998    1    1    2    0    0  0.19510464468E+01 -0.17362748975E+01  0.14551953500E+04  0.14552320530E+04  0.10000000000E+02 0.  1.
</event>
<event>
 5    1  0.1303633E-008  0.3830649E+03  0.7957747E-01  0.3437921E+00
         13   -1    0    0    0    0  0.00000000000E+00  0.00000000000E+00  0.14999999963E+04  0.15000000000E+04  0.10566000000E+00 0.  1.
        994   -1    0    0    0    0 -0.00000000000E+00 -0.00000000000E+00  0.11368683772E-12  0.17120000000E+03  0.17120000000E+03 0.  0.
         13    1    1    2    0    0 -0.33483393531E+02 -0.10027682107E+02  0.26162454427E+02  0.43659789698E+02  0.10566000000E+00 0.  1.
        994    1    1    2    0    0  0.35558416179E+02  0.23381060196E+01  0.22688805524E+02  0.17633516268E+03  0.17120000000E+03 0.  0.
        998    1    1    2    0    0 -0.20750226477E+01  0.76895760870E+01  0.14511487363E+04  0.14512050476E+04  0.10000000000E+02 0.  1.
</event>
<event>
 5    1  0.1303633E-008  0.3707720E+03  0.7957747E-01  0.3492351E+00
         13   -1    0    0    0    0  0.00000000000E+00  0.00000000000E+00  0.14999999963E+04  0.15000000000E+04  0.10566000000E+00 0. -1.
        994   -1    0    0    0    0 -0.00000000000E+00 -0.00000000000E+00  0.11368683772E-12  0.17120000000E+03  0.17120000000E+03 0.  0.
         13    1    1    2    0    0  0.21685159218E+02  0.57424382815E+02  0.14407673403E+03  0.15660754236E+03  0.10566000000E+00 0. -1.
        994    1    1    2    0    0 -0.31072306804E+02 -0.59396084857E+02  0.27269861690E+02  0.18586680312E+03  0.17120000000E+03 0.  0.
        998    1    1    2    0    0  0.93871475862E+01  0.19717020415E+01  0.13286534006E+04  0.13287256545E+04  0.10000000000E+02 0. -1.
</event>
<event>
 5    1  0.1303633E-008  0.3821047E+03  0.7957747E-01  0.3442045E+00
         13   -1    0    0    0    0  0.00000000000E+00  0.00000000000E+00  0.14999999963E+04  0.15000000000E+04  0.10566000000E+00 0. -1.
        994   -1    0    0    0    0 -0.00000000000E+00 -0.00000000000E+00  0.11368683772E-12  0.17120000000E+03  0.17120000000E+03 0.  0.
         13    1    1    2    0    0  0.33326533232E+02 -0.39549132106E+01  0.17767014590E+03  0.18081203241E+03  0.10566000000E+00 0. -1.
        994    1    1    2    0    0 -0.21393178571E+02  0.15480762477E+02  0.53928718297E+01  0.17330852594E+03  0.17120000000E+03 0.  0.
        998    1    1    2    0    0 -0.11933354661E+02 -0.11525849266E+02  0.13169369786E+04  0.13170794417E+04  0.10000000000E+02 0. -1.
</event>
<event>
 5    1  0.1303633E-008  0.3781711E+03  0.7957747E-01  0.3459161E+00
         13   -1    0    0    0    0  0.00000000000E+00  0.00000000000E+00  0.14999999963E+04  0.15000000000E+04  0.10566000000E+00 0.  1.
        994   -1    0    0    0    0 -0.00000000000E+00 -0.00000000000E+00  0.11368683772E-12  0.17120000000E+03  0.17120000000E+03 0.  0.
         13    1    1    2    0    0  0.18983363280E+02 -0.19163053241E+02  0.76127086097E+02  0.80764689640E+02  0.10566000000E+00 0.  1.
        994    1    1    2    0    0  0.18262216339E+02  0.14342731746E+02  0.68748663628E+01  0.17290438481E+03  0.17120000000E+03 0.  0.
        998    1    1    2    0    0 -0.37245579619E+02  0.48203214959E+01  0.14169980438E+04  0.14175309255E+04  0.10000000000E+02 0.  1.
</event>
<event>
 5    1  0.1303633E-008  0.3781974E+03  0.7957747E-01  0.3459045E+00
         13   -1    0    0    0    0  0.00000000000E+00  0.00000000000E+00  0.14999999963E+04  0.15000000000E+04  0.10566000000E+00 0. -1.
        994   -1    0    0    0    0 -0.00000000000E+00 -0.00000000000E+00  0.11368683772E-12  0.17120000000E+03  0.17120000000E+03 0.  0.
         13    1    1    2    0    0  0.27521180222E+02 -0.23762615757E+01  0.73312844727E+02  0.78344408517E+02  0.10566000000E+00 0. -1.
        994    1    1    2    0    0 -0.17703622268E+02  0.14720487693E+02  0.68306533675E+01  0.17287628185E+03  0.17120000000E+03 0.  0.
        998    1    1    2    0    0 -0.98175579533E+01 -0.12344226118E+02  0.14198564982E+04  0.14199793096E+04  0.10000000000E+02 0. -1.
</event>
<event>
 5    1  0.1303633E-008  0.3820797E+03  0.7957747E-01  0.3442153E+00
         13   -1    0    0    0    0  0.00000000000E+00  0.00000000000E+00  0.14999999963E+04  0.15000000000E+04  0.10566000000E+00 0. -1.
        994   -1    0    0    0    0 -0.00000000000E+00 -0.00000000000E+00  0.11368683772E-12  0.17120000000E+03  0.17120000000E+03 0.  0.
         13    1    1    2    0    0 -0.18210843480E+02 -0.16616178215E+02  0.93073789828E+02  0.96283299256E+02  0.10566000000E+00 0. -1.
        994    1    1    2    0    0  0.94532913431E+01  0.24557829966E+02  0.53894057961E+01  0.17329436640E+03  0.17120000000E+03 0.  0.
        998    1    1    2    0    0  0.87575521365E+01 -0.79416517505E+01  0.14015368007E+04  0.14016223343E+04  0.10000000000E+02 0. -1.
</event>
<event>
 5    1  0.1303633E-008  0.3743995E+03  0.7957747E-01  0.3475913E+00
         13   -1    0    0    0    0  0.00000000000E+00  0.00000000000E+00  0.14999999963E+04  0.15000000000E+04  0.10566000000E+00 0.  1.
        994   -1    0    0    0    0 -0.00000000000E+00 -0.00000000000E+00  0.11368683772E-12  0.17120000000E+03  0.17120000000E+03 0.  0.
         13    1    1    2    0    0  0.86323905641E+02  0.94496240037E+02  0.40670404102E+03  0.42636785082E+03  0.10566000000E+00 0.  1.
        994    1    1    2    0    0 -0.10265887374E+03 -0.89549772733E+02  0.82471281517E+02  0.23381393977E+03  0.17120000000E+03 0.  0.
        998    1    1    2    0    0  0.16334968098E+02 -0.49464673042E+01  0.10108246737E+04  0.10110182094E+04  0.10000000000E+02 0.  1.
</event>
<event>
 5    1  0.1303633E-008  0.3780815E+03  0.7957747E-01  0.3459555E+00
         13   -1    0    0    0    0  0.00000000000E+00  0.00000000000E+00  0.14999999963E+04  0.15000000000E+04  0.10566000000E+00 0. -1.
        994   -1    0    0    0    0 -0.00000000000E+00 -0.00000000000E+00  0.11368683772E-12  0.17120000000E+03  0.17120000000E+03 0.  0.
         13    1    1    2    0    0 -0.27664651069E+02  0.10268427852E+01  0.77754997600E+02  0.82536283783E+02  0.10566000000E+00 0. -1.
        994    1    1    2    0    0  0.33256419350E+01  0.82066894642E+01  0.53685675764E+01  0.17151288921E+03  0.17120000000E+03 0.  0.
        998    1    1    2    0    0  0.24339009134E+02 -0.92335322494E+01  0.14168764311E+04  0.14171508270E+04  0.10000000000E+02 0. -1.
</event>
<event>
 5    1  0.1303633E-008  0.4145698E+03  0.7957747E-01  0.3313193E+00
         13   -1    0    0    0    0  0.00000000000E+00  0.00000000000E+00  0.14999999963E+04  0.15000000000E+04  0.10566000000E+00 0. -1.
        994   -1    0    0    0    0 -0.00000000000E+00 -0.00000000000E+00  0.11368683772E-12  0.17120000000E+03  0.17120000000E+03 0.  0.
         13    1    1    2    0    0 -0.64534528408E+02  0.64851817637E+02  0.99157461076E+02  0.13491729637E+03  0.10566000000E+00 0. -1.
        994    1    1    2    0    0  0.48264528648E+02 -0.67645551632E+02  0.66180655238E+02  0.20148127583E+03  0.17120000000E+03 0.  0.
        998    1    1    2    0    0  0.16269999761E+02  0.27937339950E+01  0.13346618800E+04  0.13348014278E+04  0.10000000000E+02 0. -1.
</event>
<event>
 5    1  0.1303633E-008  0.3812059E+03  0.7957747E-01  0.3445925E+00
         13   -1    0    0    0    0  0.00000000000E+00  0.00000000000E+00  0.14999999963E+04  0.15000000000E+04  0.10566000000E+00 0.  1.
        994   -1    0    0    0    0 -0.00000000000E+00 -0.00000000000E+00  0.11368683772E-12  0.17120000000E+03  0.17120000000E+03 0.  0.
         13    1    1    2    0    0 -0.14203301310E+02  0.10622204506E+01  0.28127417358E+02  0.31528159662E+02  0.10566000000E+00 0.  1.
        994    1    1    2    0    0  0.10045134660E+01 -0.65878198425E+01  0.36735419531E+01  0.17136902675E+03  0.17120000000E+03 0.  0.
        998    1    1    2    0    0  0.13198787844E+02  0.55255993919E+01  0.14681990370E+04  0.14683028136E+04  0.10000000000E+02 0.  1.
</event>
<event>
 5    1  0.1303633E-008  0.3838353E+03  0.7957747E-01  0.3434627E+00
         13   -1    0    0    0    0  0.00000000000E+00  0.00000000000E+00  0.14999999963E+04  0.15000000000E+04  0.10566000000E+00 0. -1.
        994   -1    0    0    0    0 -0.00000000000E+00 -0.00000000000E+00  0.11368683772E-12  0.17120000000E+03  0.17120000000E+03 0.  0.
         13    1    1    2    0    0 -0.34190868104E+01 -0.23012693213E+02  0.11699645732E+03  0.11928728512E+03  0.10566000000E+00 0. -1.
        994    1    1    2    0    0 -0.10343035041E+02  0.22051040100E+02  0.41702511409E+01  0.17297415338E+03  0.17120000000E+03 0.  0.
        998    1    1    2    0    0  0.13762121851E+02  0.96165311307E+00  0.13788332878E+04  0.13789385615E+04  0.10000000000E+02 0. -1.
</event>
<event>
 5    1  0.1303633E-008  0.3716810E+03  0.7957747E-01  0.3488201E+00
         13   -1    0    0    0    0  0.00000000000E+00  0.00000000000E+00  0.14999999963E+04  0.15000000000E+04  0.10566000000E+00 0.  1.
        994   -1    0    0    0    0 -0.00000000000E+00 -0.00000000000E+00  0.11368683772E-12  0.17120000000E+03  0.17120000000E+03 0.  0.
         13    1    1    2    0    0  0.12521202237E+02  0.22857184975E+02  0.36433490329E+02  0.44795555494E+02  0.10566000000E+00 0.  1.
        994    1    1    2    0    0 -0.12910739346E+02 -0.20749999366E+02  0.10448937120E+02  0.17325088730E+03  0.17120000000E+03 0.  0.
        998    1    1    2    0    0  0.38953710886E+00 -0.21071856092E+01  0.14531175688E+04  0.14531535572E+04  0.10000000000E+02 0.  1.
</event>
<event>
 5    1  0.1303633E-008  0.3695627E+03  0.7957747E-01  0.3497903E+00
         13   -1    0    0    0    0  0.00000000000E+00  0.00000000000E+00  0.14999999963E+04  0.15000000000E+04  0.10566000000E+00 0.  1.
        994   -1    0    0    0    0 -0.00000000000E+00 -0.00000000000E+00  0.11368683772E-12  0.17120000000E+03  0.17120000000E+03 0.  0.
         13    1    1    2    0    0  0.24394673943E+02 -0.83988444725E+01  0.26308796216E+02  0.36848400611E+02  0.10566000000E+00 0.  1.
        994    1    1    2    0    0 -0.20135012567E+02  0.14349079784E+02  0.12844562177E+02  0.17345240730E+03  0.17120000000E+03 0.  0.
        998    1    1    2    0    0 -0.42596613760E+01 -0.59502353118E+01  0.14608466379E+04  0.14608991921E+04  0.10000000000E+02 0.  1.
</event>
<event>
 5    1  0.1303633E-008  0.3799855E+03  0.7957747E-01  0.3451222E+00
         13   -1    0    0    0    0  0.00000000000E+00  0.00000000000E+00  0.14999999963E+04  0.15000000000E+04  0.10566000000E+00 0. -1.
        994   -1    0    0    0    0 -0.00000000000E+00 -0.00000000000E+00  0.11368683772E-12  0.17120000000E+03  0.17120000000E+03 0.  0.
         13    1    1    2    0    0  0.13754964642E+02 -0.99682247914E+01  0.35170221482E+02  0.39057908302E+02  0.10566000000E+00 0. -1.
        994    1    1    2    0    0  0.72851881803E+01 -0.16253196191E+00  0.43179980324E+01  0.17140940899E+03  0.17120000000E+03 0.  0.
        998    1    1    2    0    0 -0.21040152822E+02  0.10130756753E+02  0.14605117768E+04  0.14607326827E+04  0.10000000000E+02 0. -1.
</event>
<event>
 5    1  0.1303633E-008  0.3844325E+03  0.7957747E-01  0.3432083E+00
         13   -1    0    0    0    0  0.00000000000E+00  0.00000000000E+00  0.14999999963E+04  0.15000000000E+04  0.10566000000E+00 0.  1.
        994   -1    0    0    0    0 -0.00000000000E+00 -0.00000000000E+00  0.11368683772E-12  0.17120000000E+03  0.17120000000E+03 0.  0.
         13    1    1    2    0    0  0.14725852755E+02  0.10797761038E+00  0.60955483887E+02  0.62709206489E+02  0.10566000000E+00 0.  1.
        994    1    1    2    0    0  0.36580412950E+01 -0.15853093813E+01  0.19645337891E+01  0.17125768265E+03  0.17120000000E+03 0.  0.
        998    1    1    2    0    0 -0.18383894050E+02  0.14773317709E+01  0.14370799786E+04  0.14372331109E+04  0.10000000000E+02 0.  1.
</event>
<event>
 5    1  0.1380458E-008  0.3854954E+03  0.7957747E-01  0.3427574E+00
         13   -1    0    0    0    0  0.00000000000E+00  0.00000000000E+00  0.14999999963E+04  0.15000000000E+04  0.10566000000E+00 0. -1.
        994   -1    0    0    0    0 -0.00000000000E+00 -0.00000000000E+00  0.11368683772E-12  0.17120000000E+03  0.17120000000E+03 0.  0.
         13    1    1    2    0    0  0.44510819280E+01 -0.14762474926E+02  0.72338419922E+02  0.73963510984E+02  0.10566000000E+00 0. -1.
        994    1    1    2    0    0 -0.12209068394E+02  0.33214155019E+02  0.55068017744E+01  0.17490570691E+03  0.17120000000E+03 0.  0.
        998    1    1    2    0    0  0.77579864663E+01 -0.18451680093E+02  0.14221547746E+04  0.14223307821E+04  0.10000000000E+02 0. -1.
</event>
<event>
 5    1  0.1303633E-008  0.3756066E+03  0.7957747E-01  0.3470514E+00
         13   -1    0    0    0    0  0.00000000000E+00  0.00000000000E+00  0.14999999963E+04  0.15000000000E+04  0.10566000000E+00 0.  1.
        994   -1    0    0    0    0 -0.00000000000E+00 -0.00000000000E+00  0.11368683772E-12  0.17120000000E+03  0.17120000000E+03 0.  0.
         13    1    1    2    0    0  0.17390227988E+02 -0.14671836426E+02  0.38288975606E+02  0.44539192074E+02  0.10566000000E+00 0.  1.
        994    1    1    2    0    0 -0.85874414852E+01  0.10897572583E+02  0.70208350622E+01  0.17190472176E+03  0.17120000000E+03 0.  0.
        998    1    1    2    0    0 -0.88027865030E+01  0.37742638424E+01  0.14546901856E+04  0.14547560862E+04  0.10000000000E+02 0.  1.
</event>
<event>
 5    1  0.1303633E-008  0.3789682E+03  0.7957747E-01  0.3455663E+00
         13   -1    0    0    0    0  0.00000000000E+00  0.00000000000E+00  0.14999999963E+04  0.15000000000E+04  0.10566000000E+00 0. -1.
        994   -1    0    0    0    0 -0.00000000000E+00 -0.00000000000E+00  0.11368683772E-12  0.17120000000E+03  0.17120000000E+03 0.  0.
         13    1    1    2    0    0  0.32588079619E+02 -0.34937048016E+01  0.10935487226E+03  0.11416079956E+03  0.10566000000E+00 0. -1.
        994    1    1    2    0    0 -0.29889830478E+02 -0.17739254887E+02  0.87178915278E+01  0.17491004763E+03  0.17120000000E+03 0.  0.
        998    1    1    2    0    0 -0.26982491411E+01  0.21232959689E+02  0.13819272325E+04  0.13821291528E+04  0.10000000000E+02 0. -1.
</event>
<event>
 5    1  0.1303633E-008  0.3854525E+03  0.7957747E-01  0.3427755E+00
         13   -1    0    0    0    0  0.00000000000E+00  0.00000000000E+00  0.14999999963E+04  0.15000000000E+04  0.10566000000E+00 0.  1.
        994   -1    0    0    0    0 -0.00000000000E+00 -0.00000000000E+00  0.11368683772E-12  0.17120000000E+03  0.17120000000E+03 0.  0.
         13    1    1    2    0    0  0.11140571001E+02  0.66614358673E+01  0.64505139619E+02  0.65798261766E+02  0.10566000000E+00 0.  1.
        994    1    1    2    0    0  0.11107652258E+00  0.26249500975E+01  0.14283033625E+01  0.17122611586E+03  0.17120000000E+03 0.  0.
        998    1    1    2    0    0 -0.11251647524E+02 -0.92863859649E+01  0.14340665533E+04  0.14341756224E+04  0.10000000000E+02 0.  1.
</event>
<event>
 5    1  0.1303633E-008  0.3845501E+03  0.7957747E-01  0.3431583E+00
         13   -1    0    0    0    0  0.00000000000E+00  0.00000000000E+00  0.14999999963E+04  0.15000000000E+04  0.10566000000E+00 0. -1.
        994   -1    0    0    0    0 -0.00000000000E+00 -0.00000000000E+00  0.11368683772E-12  0.17120000000E+03  0.17120000000E+03 0.  0.
         13    1    1    2    0    0  0.59721274813E+01 -0.10212170460E+02  0.37032828579E+02  0.38876680526E+02  0.10566000000E+00 0. -1.
        994    1    1    2    0    0 -0.13200374689E+02  0.41892180816E+01  0.24856212899E+01  0.17177723293E+03  0.17120000000E+03 0.  0.
        998    1    1    2    0    0  0.72282472077E+01  0.60229523780E+01  0.14604815464E+04  0.14605460865E+04  0.10000000000E+02 0. -1.
</event>
<event>
 5    1  0.1303633E-008  0.3694191E+03  0.7957747E-01  0.3498565E+00
         13   -1    0    0    0    0  0.00000000000E+00  0.00000000000E+00  0.14999999963E+04  0.15000000000E+04  0.10566000000E+00 0. -1.
        994   -1    0    0    0    0 -0.00000000000E+00 -0.00000000000E+00  0.11368683772E-12  0.17120000000E+03  0.17120000000E+03 0.  0.
         13    1    1    2    0    0 -0.46738845255E+02  0.17375553807E+01  0.10295167106E+03  0.11307783378E+03  0.10566000000E+00 0. -1.
        994    1    1    2    0    0  0.49159801829E+02  0.19857295986E+01  0.18006747742E+02  0.17903718106E+03  0.17120000000E+03 0.  0.
        998    1    1    2    0    0 -0.24209565745E+01 -0.37232849793E+01  0.13790415775E+04  0.13790849852E+04  0.10000000000E+02 0. -1.
</event>
<event>
 5    1  0.1303633E-008  0.3743097E+03  0.7957747E-01  0.3476316E+00
         13   -1    0    0    0    0  0.00000000000E+00  0.00000000000E+00  0.14999999963E+04  0.15000000000E+04  0.10566000000E+00 0. -1.
        994   -1    0    0    0    0 -0.00000000000E+00 -0.00000000000E+00  0.11368683772E-12  0.17120000000E+03  0.17120000000E+03 0.  0.
         13    1    1    2    0    0  0.30064016298E+02 -0.26649522159E+01  0.27832704048E+02  0.41056273880E+02  0.10566000000E+00 0. -1.
        994    1    1    2    0    0 -0.39619910126E+02 -0.35692111288E+01  0.18874227638E+02  0.17677147116E+03  0.17120000000E+03 0.  0.
        998    1    1    2    0    0  0.95558938276E+01  0.62341633447E+01  0.14532930646E+04  0.14533722550E+04  0.10000000000E+02 0. -1.
</event>
<event>
 5    1  0.1303633E-008  0.3803171E+03  0.7957747E-01  0.3449779E+00
         13   -1    0    0    0    0  0.00000000000E+00  0.00000000000E+00  0.14999999963E+04  0.15000000000E+04  0.10566000000E+00 0. -1.
        994   -1    0    0    0    0 -0.00000000000E+00 -0.00000000000E+00  0.11368683772E-12  0.17120000000E+03  0.17120000000E+03 0.  0.
         13    1    1    2    0    0  0.29097542007E+02 -0.13082671896E+02  0.11579477295E+03  0.12010938290E+03  0.10566000000E+00 0. -1.
        994    1    1    2    0    0 -0.29606727545E+02  0.20396269785E+02  0.83016370586E+01  0.17513116032E+03  0.17120000000E+03 0.  0.
        998    1    1    2    0    0  0.50918553761E+00 -0.73135978887E+01  0.13759035863E+04  0.13759594568E+04  0.10000000000E+02 0. -1.
</event>
<event>
 5    1  0.1303633E-008  0.3805473E+03  0.7957747E-01  0.3448779E+00
         13   -1    0    0    0    0  0.00000000000E+00  0.00000000000E+00  0.14999999963E+04  0.15000000000E+04  0.10566000000E+00 0.  1.
        994   -1    0    0    0    0 -0.00000000000E+00 -0.00000000000E+00  0.11368683772E-12  0.17120000000E+03  0.17120000000E+03 0.  0.
         13    1    1    2    0    0  0.13221124704E+02 -0.12786580215E+02  0.41685651352E+02  0.45563137125E+02  0.10566000000E+00 0.  1.
        994    1    1    2    0    0 -0.12239215857E+02  0.11799381551E+02  0.48221559637E+01  0.17210960751E+03  0.17120000000E+03 0.  0.
        998    1    1    2    0    0 -0.98190884633E+00  0.98719866406E+00  0.14534921890E+04  0.14535272554E+04  0.10000000000E+02 0.  1.
</event>
<event>
 5    1  0.1303633E-008  0.3786665E+03  0.7957747E-01  0.3456985E+00
         13   -1    0    0    0    0  0.00000000000E+00  0.00000000000E+00  0.14999999963E+04  0.15000000000E+04  0.10566000000E+00 0.  1.
        994   -1    0    0    0    0 -0.00000000000E+00 -0.00000000000E+00  0.11368683772E-12  0.17120000000E+03  0.17120000000E+03 0.  0.
         13    1    1    2    0    0 -0.17597971637E+02 -0.20417789525E+02  0.72010519194E+02  0.76890186457E+02  0.10566000000E+00 0.  1.
        994    1    1    2    0    0  0.23568814328E+02  0.99642370451E+01  0.70094507853E+01  0.17324360718E+03  0.17120000000E+03 0.  0.
        998    1    1    2    0    0 -0.59708426904E+01  0.10453552480E+02  0.14209800263E+04  0.14210662064E+04  0.10000000000E+02 0.  1.
</event>
<event>
 5    1  0.1303633E-008  0.3813018E+03  0.7957747E-01  0.3445510E+00
         13   -1    0    0    0    0  0.00000000000E+00  0.00000000000E+00  0.14999999963E+04  0.15000000000E+04  0.10566000000E+00 0.  1.
        994   -1    0    0    0    0 -0.00000000000E+00 -0.00000000000E+00  0.11368683772E-12  0.17120000000E+03  0.17120000000E+03 0.  0.
         13    1    1    2    0    0 -0.21828152147E+02  0.69421964442E+01  0.83119552498E+02  0.86217941805E+02  0.10566000000E+00 0.  1.
        994    1    1    2    0    0 -0.73149799324E+01  0.18512090187E+01  0.36670040714E+01  0.17140543406E+03  0.17120000000E+03 0.  0.
        998    1    1    2    0    0  0.29143132079E+02 -0.87934054629E+01  0.14132134397E+04  0.14135766241E+04  0.10000000000E+02 0.  1.
</event>
<event>
 5    1  0.1303633E-008  0.3787033E+03  0.7957747E-01  0.3456824E+00
         13   -1    0    0    0    0  0.00000000000E+00  0.00000000000E+00  0.14999999963E+04  0.15000000000E+04  0.10566000000E+00 0.  1.
        994   -1    0    0    0    0 -0.00000000000E+00 -0.00000000000E+00  0.11368683772E-12  0.17120000000E+03  0.17120000000E+03 0.  0.
         13    1    1    2    0    0  0.17618097198E+02 -0.33107588294E+02  0.15835296764E+03  0.16273347313E+03  0.10566000000E+00 0.  1.
        994    1    1    2    0    0 -0.48465866555E+02 -0.13659935373E+02  0.13349302748E+02  0.17895021078E+03  0.17120000000E+03 0.  0.
        998    1    1    2    0    0  0.30847769357E+02  0.46767523667E+02  0.13282977259E+04  0.13295163161E+04  0.10000000000E+02 0.  1.
</event>
<event>
 5    1  0.1303633E-008  0.4275309E+03  0.7957747E-01  0.3267162E+00
         13   -1    0    0    0    0  0.00000000000E+00  0.00000000000E+00  0.14999999963E+04  0.15000000000E+04  0.10566000000E+00 0. -1.
        994   -1    0    0    0    0 -0.00000000000E+00 -0.00000000000E+00  0.11368683772E-12  0.17120000000E+03  0.17120000000E+03 0.  0.
         13    1    1    2    0    0 -0.67833974005E+02  0.24043183891E+02  0.40716273491E+02  0.82688262843E+02  0.10566000000E+00 0. -1.
        994    1    1    2    0    0  0.61311275009E+02 -0.46019558352E+02  0.71876991155E+02  0.20087960088E+03  0.17120000000E+03 0.  0.
        998    1    1    2    0    0  0.65226989958E+01  0.21976374462E+02  0.13874067316E+04  0.13876321363E+04  0.10000000000E+02 0. -1.
</event>
<event>
 5    1  0.1303633E-008  0.3830927E+03  0.7957747E-01  0.3437802E+00
         13   -1    0    0    0    0  0.00000000000E+00  0.00000000000E+00  0.14999999963E+04  0.15000000000E+04  0.10566000000E+00 0.  1.
        994   -1    0    0    0    0 -0.00000000000E+00 -0.00000000000E+00  0.11368683772E-12  0.17120000000E+03  0.17120000000E+03 0.  0.
         13    1    1    2    0    0 -0.90229457050E+01  0.13877156164E+02  0.51174233321E+02  0.53784777888E+02  0.10566000000E+00 0.  1.
        994    1    1    2    0    0  0.57245750942E+01 -0.15137205245E+02  0.34472046338E+01  0.17199775860E+03  0.17120000000E+03 0.  0.
        998    1    1    2    0    0  0.32983706108E+01  0.12600490805E+01  0.14453785583E+04  0.14454174635E+04  0.10000000000E+02 0.  1.
</event>
<event>
 5    1  0.1303633E-008  0.3851812E+03  0.7957747E-01  0.3428904E+00
         13   -1    0    0    0    0  0.00000000000E+00  0.00000000000E+00  0.14999999963E+04  0.15000000000E+04  0.10566000000E+00 0.  1.
        994   -1    0    0    0    0 -0.00000000000E+00 -0.00000000000E+00  0.11368683772E-12  0.17120000000E+03  0.17120000000E+03 0.  0.
         13    1    1    2    0    0  0.13040068163E+02  0.44790824670E+01  0.62944845262E+02  0.64437335967E+02  0.10566000000E+00 0.  1.
        994    1    1    2    0    0 -0.49463951540E+01 -0.51081665864E+01  0.17063745825E+01  0.17135609678E+03  0.17120000000E+03 0.  0.
        998    1    1    2    0    0 -0.80936730091E+01  0.62908411935E+00  0.14353487764E+04  0.14354065672E+04  0.10000000000E+02 0.  1.
</event>
<event>
 5    1  0.1303633E-008  0.3753039E+03  0.7957747E-01  0.3471865E+00
         13   -1    0    0    0    0  0.00000000000E+00  0.00000000000E+00  0.14999999963E+04  0.15000000000E+04  0.10566000000E+00 0. -1.
        994   -1    0    0    0    0 -0.00000000000E+00 -0.00000000000E+00  0.11368683772E-12  0.17120000000E+03  0.17120000000E+03 0.  0.
         13    1    1    2    0    0 -0.17565825811E+02 -0.56579680096E+01  0.23141618682E+02  0.29599265492E+02  0.10566000000E+00 0. -1.
        994    1    1    2    0    0  0.14047027180E+02  0.10065789858E+02  0.75374898537E+01  0.17223499311E+03  0.17120000000E+03 0.  0.
        998    1    1    2    0    0  0.35187986318E+01 -0.44078218480E+01  0.14693208877E+04  0.14693657414E+04  0.10000000000E+02 0. -1.
</event>
<event>
 5    1  0.1303633E-008  0.3842011E+03  0.7957747E-01  0.3433067E+00
         13   -1    0    0    0    0  0.00000000000E+00  0.00000000000E+00  0.14999999963E+04  0.15000000000E+04  0.10566000000E+00 0. -1.
        994   -1    0    0    0    0 -0.00000000000E+00 -0.00000000000E+00  0.11368683772E-12  0.17120000000E+03  0.17120000000E+03 0.  0.
         13    1    1    2    0    0  0.15578341476E+02 -0.14990243557E+01  0.56572013296E+02  0.58696981605E+02  0.10566000000E+00 0. -1.
        994    1    1    2    0    0 -0.21322008830E+02  0.28808235865E+01  0.35551391549E+01  0.17258333123E+03  0.17120000000E+03 0.  0.
        998    1    1    2    0    0  0.57436673542E+01 -0.13817992308E+01  0.14398728438E+04  0.14399196872E+04  0.10000000000E+02 0. -1.
</event>
<event>
 5    1  0.1303633E-008  0.3796529E+03  0.7957747E-01  0.3452671E+00
         13   -1    0    0    0    0  0.00000000000E+00  0.00000000000E+00  0.14999999963E+04  0.15000000000E+04  0.10566000000E+00 0. -1.
        994   -1    0    0    0    0 -0.00000000000E+00 -0.00000000000E+00  0.11368683772E-12  0.17120000000E+03  0.17120000000E+03 0.  0.
         13    1    1    2    0    0  0.30901913965E+02  0.99311260856E+01  0.13102482033E+03  0.13498544462E+03  0.10566000000E+00 0. -1.
        994    1    1    2    0    0 -0.15666712317E+02  0.27657245359E+02  0.76973013208E+01  0.17429589078E+03  0.17120000000E+03 0.  0.
        998    1    1    2    0    0 -0.15235201648E+02 -0.37588371445E+02  0.13612778746E+04  0.13619186646E+04  0.10000000000E+02 0. -1.
</event>
