<event>
 4    1  0.2437479E+000  0.5105819E+02  0.7957747E-01  0.1439716E+00
         13   -1    0    0    0    0  0.00000000000E+00  0.00000000000E+00  0.99999944175E+02  0.99999999996E+02  0.10566000000E+00 0. -1.
         22   -1    0    0    0    0 -0.00000000000E+00 -0.00000000000E+00 -0.41415957806E+02  0.41415957806E+02  0.00000000000E+00 0.  1.
         13    1    1    2    0    0 -0.94020503958E+01 -0.43058230139E+01 -0.34080991955E+02  0.35615499998E+02  0.10566000000E+00 0.  1.
        996    1    1    2    0    0  0.94020503958E+01  0.43058230139E+01  0.92664978324E+02  0.10580045780E+03  0.50000000000E+02 0.  0.
<mgrwt>
<rscale>  0 0.51058189E+02</rscale>
<asrwt>0</asrwt>
<pdfrwt beam="1">  1       13 0.10000000E+01 0.51058189E+02</pdfrwt>
<pdfrwt beam="2">  1       22 0.41415974E+00 0.51058189E+02</pdfrwt>
<totfact> 0.11550287E-01</totfact>
</mgrwt>
</event>
<event>
 4    1  0.2437479E+000  0.5612745E+02  0.7957747E-01  0.1414841E+00
         13   -1    0    0    0    0  0.00000000000E+00  0.00000000000E+00  0.99999944172E+02  0.99999999992E+02  0.10566000000E+00 0. -1.
         22   -1    0    0    0    0 -0.00000000000E+00 -0.00000000000E+00 -0.16967046855E+02  0.16967046855E+02  0.00000000000E+00 0.  1.
         13    1    1    2    0    0 -0.94117070340E+01  0.23700431647E+02  0.33550872667E+02  0.42142174959E+02  0.10566000000E+00 0.  1.
        996    1    1    2    0    0  0.94117070340E+01 -0.23700431647E+02  0.49482024650E+02  0.74824871887E+02  0.50000000000E+02 0.  0.
<mgrwt>
<rscale>  0 0.56127450E+02</rscale>
<asrwt>0</asrwt>
<pdfrwt beam="1">  1       13 0.10000000E+01 0.56127450E+02</pdfrwt>
<pdfrwt beam="2">  1       22 0.16967070E+00 0.56127450E+02</pdfrwt>
<totfact> 0.61475537E-01</totfact>
</mgrwt>
</event>
<event>
 4    1  0.2437479E+000  0.5372984E+02  0.7957747E-01  0.1426203E+00
         13   -1    0    0    0    0  0.00000000000E+00  0.00000000000E+00  0.99999944185E+02  0.10000000000E+03  0.10566000000E+00 0.  1.
         22   -1    0    0    0    0 -0.00000000000E+00 -0.00000000000E+00 -0.35371901576E+02  0.35371901576E+02  0.00000000000E+00 0. -1.
         13    1    1    2    0    0 -0.30458997557E+01  0.19432387208E+02 -0.24427975821E+02  0.31362913524E+02  0.10566000000E+00 0. -1.
        996    1    1    2    0    0  0.30458997557E+01 -0.19432387208E+02  0.89056018430E+02  0.10400898806E+03  0.50000000000E+02 0.  0.
<mgrwt>
<rscale>  0 0.53729835E+02</rscale>
<asrwt>0</asrwt>
<pdfrwt beam="1">  1       13 0.10000000E+01 0.53729835E+02</pdfrwt>
<pdfrwt beam="2">  1       22 0.35371920E+00 0.53729835E+02</pdfrwt>
<totfact> 0.15454212E-01</totfact>
</mgrwt>
</event>
<event>
 4    1  0.2437479E+000  0.6294115E+02  0.7957747E-01  0.1385888E+00
         13   -1    0    0    0    0  0.00000000000E+00  0.00000000000E+00  0.99999944186E+02  0.10000000001E+03  0.10566000000E+00 0.  1.
         22   -1    0    0    0    0 -0.00000000000E+00 -0.00000000000E+00 -0.38595527274E+02  0.38595527274E+02  0.00000000000E+00 0. -1.
         13    1    1    2    0    0  0.30666800230E+02 -0.22828395871E+02 -0.13693613730E+02  0.40609290999E+02  0.10566000000E+00 0. -1.
        996    1    1    2    0    0 -0.30666800230E+02  0.22828395871E+02  0.75098030641E+02  0.97986236281E+02  0.50000000000E+02 0.  0.
<mgrwt>
<rscale>  0 0.62941149E+02</rscale>
<asrwt>0</asrwt>
<pdfrwt beam="1">  1       13 0.10000000E+01 0.62941149E+02</pdfrwt>
<pdfrwt beam="2">  1       22 0.38595544E+00 0.62941149E+02</pdfrwt>
<totfact> 0.13328964E-01</totfact>
</mgrwt>
</event>
<event>
 4    1  0.2437479E+000  0.5344819E+02  0.7957747E-01  0.1427583E+00
         13   -1    0    0    0    0  0.00000000000E+00  0.00000000000E+00  0.99999944180E+02  0.10000000000E+03  0.10566000000E+00 0.  1.
         22   -1    0    0    0    0 -0.00000000000E+00 -0.00000000000E+00 -0.14869132311E+02  0.14869132311E+02  0.00000000000E+00 0. -1.
         13    1    1    2    0    0  0.14094119993E+02 -0.12572380742E+02  0.68682219663E+01  0.20097079711E+02  0.10566000000E+00 0. -1.
        996    1    1    2    0    0 -0.14094119993E+02  0.12572380742E+02  0.78262589903E+02  0.94772052601E+02  0.50000000000E+02 0.  0.
<mgrwt>
<rscale>  0 0.53448190E+02</rscale>
<asrwt>0</asrwt>
<pdfrwt beam="1">  1       13 0.10000000E+01 0.53448190E+02</pdfrwt>
<pdfrwt beam="2">  1       22 0.14869156E+00 0.53448190E+02</pdfrwt>
<totfact> 0.76621043E-01</totfact>
</mgrwt>
</event>
<event>
 4    1  0.2437479E+000  0.5772235E+02  0.7957747E-01  0.1407646E+00
         13   -1    0    0    0    0  0.00000000000E+00  0.00000000000E+00  0.99999944174E+02  0.99999999995E+02  0.10566000000E+00 0.  1.
         22   -1    0    0    0    0 -0.00000000000E+00 -0.00000000000E+00 -0.21887017146E+02  0.21887017146E+02  0.00000000000E+00 0.  1.
         13    1    1    2    0    0  0.30888229865E+01  0.28676278268E+02  0.59005068110E+01  0.29439716497E+02  0.10566000000E+00 0. -1.
        996    1    1    2    0    0 -0.30888229865E+01 -0.28676278268E+02  0.72212420217E+02  0.92447300644E+02  0.50000000000E+02 0.  0.
<mgrwt>
<rscale>  0 0.57722351E+02</rscale>
<asrwt>0</asrwt>
<pdfrwt beam="1">  1       13 0.10000000E+01 0.57722351E+02</pdfrwt>
<pdfrwt beam="2">  1       22 0.21887039E+00 0.57722351E+02</pdfrwt>
<totfact> 0.38551978E-01</totfact>
</mgrwt>
</event>
<event>
 4    1  0.2437479E+000  0.6784342E+02  0.7957747E-01  0.1367584E+00
         13   -1    0    0    0    0  0.00000000000E+00  0.00000000000E+00  0.99999944177E+02  0.99999999997E+02  0.10566000000E+00 0.  1.
         22   -1    0    0    0    0 -0.00000000000E+00 -0.00000000000E+00 -0.32388001596E+02  0.32388001596E+02  0.00000000000E+00 0. -1.
         13    1    1    2    0    0 -0.54721418034E+01 -0.45527850869E+02  0.24277612295E+02  0.51885866702E+02  0.10566000000E+00 0. -1.
        996    1    1    2    0    0  0.54721418034E+01  0.45527850869E+02  0.43334330286E+02  0.80502134891E+02  0.50000000000E+02 0.  0.
<mgrwt>
<rscale>  0 0.67843419E+02</rscale>
<asrwt>0</asrwt>
<pdfrwt beam="1">  1       13 0.10000000E+01 0.67843419E+02</pdfrwt>
<pdfrwt beam="2">  1       22 0.32388020E+00 0.67843419E+02</pdfrwt>
<totfact> 0.18301614E-01</totfact>
</mgrwt>
</event>
<event>
 4    1  0.2437479E+000  0.5105755E+02  0.7957747E-01  0.1439719E+00
         13   -1    0    0    0    0  0.00000000000E+00  0.00000000000E+00  0.99999944182E+02  0.10000000000E+03  0.10566000000E+00 0. -1.
         22   -1    0    0    0    0 -0.00000000000E+00 -0.00000000000E+00 -0.15118731855E+02  0.15118731855E+02  0.00000000000E+00 0.  1.
         13    1    1    2    0    0 -0.10269038648E+02  0.11918617527E+01 -0.52011158013E+01  0.11573092016E+02  0.10566000000E+00 0.  1.
        996    1    1    2    0    0  0.10269038648E+02 -0.11918617527E+01  0.90082328128E+02  0.10354563984E+03  0.50000000000E+02 0.  0.
<mgrwt>
<rscale>  0 0.51057553E+02</rscale>
<asrwt>0</asrwt>
<pdfrwt beam="1">  1       13 0.10000000E+01 0.51057553E+02</pdfrwt>
<pdfrwt beam="2">  1       22 0.15118756E+00 0.51057553E+02</pdfrwt>
<totfact> 0.74165061E-01</totfact>
</mgrwt>
</event>
<event>
 4    1  0.2437479E+000  0.5220210E+02  0.7957747E-01  0.1433813E+00
         13   -1    0    0    0    0  0.00000000000E+00  0.00000000000E+00  0.99999944181E+02  0.10000000000E+03  0.10566000000E+00 0. -1.
         22   -1    0    0    0    0 -0.00000000000E+00 -0.00000000000E+00 -0.33253391529E+02  0.33253391529E+02  0.00000000000E+00 0.  1.
         13    1    1    2    0    0 -0.12064040019E+02 -0.89172687436E+01 -0.24151667136E+02  0.28431899917E+02  0.10566000000E+00 0.  1.
        996    1    1    2    0    0  0.12064040019E+02  0.89172687436E+01  0.90898219788E+02  0.10482149161E+03  0.50000000000E+02 0.  0.
<mgrwt>
<rscale>  0 0.52202095E+02</rscale>
<asrwt>0</asrwt>
<pdfrwt beam="1">  1       13 0.10000000E+01 0.52202095E+02</pdfrwt>
<pdfrwt beam="2">  1       22 0.33253410E+00 0.52202095E+02</pdfrwt>
<totfact> 0.17189583E-01</totfact>
</mgrwt>
</event>
<event>
 4    1  0.2437479E+000  0.5629324E+02  0.7957747E-01  0.1414080E+00
         13   -1    0    0    0    0  0.00000000000E+00  0.00000000000E+00  0.99999944176E+02  0.99999999996E+02  0.10566000000E+00 0. -1.
         22   -1    0    0    0    0 -0.00000000000E+00 -0.00000000000E+00 -0.19978405484E+02  0.19978405484E+02  0.00000000000E+00 0. -1.
         13    1    1    2    0    0  0.24051030403E+02  0.95119051014E+01  0.52604208432E+01  0.26393400569E+02  0.10566000000E+00 0.  1.
        996    1    1    2    0    0 -0.24051030403E+02 -0.95119051014E+01  0.74761117849E+02  0.93585004911E+02  0.50000000000E+02 0.  0.
<mgrwt>
<rscale>  0 0.56293236E+02</rscale>
<asrwt>0</asrwt>
<pdfrwt beam="1">  1       13 0.10000000E+01 0.56293236E+02</pdfrwt>
<pdfrwt beam="2">  1       22 0.19978428E+00 0.56293236E+02</pdfrwt>
<totfact> 0.45735902E-01</totfact>
</mgrwt>
</event>
<event>
 4    1  0.2437479E+000  0.5181178E+02  0.7957747E-01  0.1435807E+00
         13   -1    0    0    0    0  0.00000000000E+00  0.00000000000E+00  0.99999944182E+02  0.10000000000E+03  0.10566000000E+00 0. -1.
         22   -1    0    0    0    0 -0.00000000000E+00 -0.00000000000E+00 -0.12442188302E+02  0.12442188302E+02  0.00000000000E+00 0.  1.
         13    1    1    2    0    0 -0.69361839516E+00  0.13563884141E+02  0.40605668097E+01  0.14176015884E+02  0.10566000000E+00 0.  1.
        996    1    1    2    0    0  0.69361839516E+00 -0.13563884141E+02  0.83497189070E+02  0.98266172420E+02  0.50000000000E+02 0.  0.
<mgrwt>
<rscale>  0 0.51811775E+02</rscale>
<asrwt>0</asrwt>
<pdfrwt beam="1">  1       13 0.10000000E+01 0.51811775E+02</pdfrwt>
<pdfrwt beam="2">  1       22 0.12442213E+00 0.51811775E+02</pdfrwt>
<totfact> 0.10162014E+00</totfact>
</mgrwt>
</event>
<event>
 4    1  0.2437479E+000  0.5202986E+02  0.7957747E-01  0.1434691E+00
         13   -1    0    0    0    0  0.00000000000E+00  0.00000000000E+00  0.99999944174E+02  0.99999999994E+02  0.10566000000E+00 0. -1.
         22   -1    0    0    0    0 -0.00000000000E+00 -0.00000000000E+00 -0.18014960076E+02  0.18014960076E+02  0.00000000000E+00 0.  1.
         13    1    1    2    0    0  0.64630188968E+01  0.12858275030E+02 -0.61639889762E+01  0.15656045929E+02  0.10566000000E+00 0.  1.
        996    1    1    2    0    0 -0.64630188968E+01 -0.12858275030E+02  0.88148973075E+02  0.10235891414E+03  0.50000000000E+02 0.  0.
<mgrwt>
<rscale>  0 0.52029855E+02</rscale>
<asrwt>0</asrwt>
<pdfrwt beam="1">  1       13 0.10000000E+01 0.52029855E+02</pdfrwt>
<pdfrwt beam="2">  1       22 0.18014983E+00 0.52029855E+02</pdfrwt>
<totfact> 0.54861693E-01</totfact>
</mgrwt>
</event>
<event>
 4    1  0.2437479E+000  0.5105934E+02  0.7957747E-01  0.1439710E+00
         13   -1    0    0    0    0  0.00000000000E+00  0.00000000000E+00  0.99999944184E+02  0.10000000000E+03  0.10566000000E+00 0.  1.
         22   -1    0    0    0    0 -0.00000000000E+00 -0.00000000000E+00 -0.96826494231E+01  0.96826494231E+01  0.00000000000E+00 0.  1.
         13    1    1    2    0    0 -0.73089455673E+01  0.73236170454E+01  0.22750537964E+02  0.24993082915E+02  0.10566000000E+00 0. -1.
        996    1    1    2    0    0  0.73089455673E+01 -0.73236170454E+01  0.67566756798E+02  0.84689566513E+02  0.50000000000E+02 0.  0.
<mgrwt>
<rscale>  0 0.51059339E+02</rscale>
<asrwt>0</asrwt>
<pdfrwt beam="1">  1       13 0.10000000E+01 0.51059339E+02</pdfrwt>
<pdfrwt beam="2">  1       22 0.96826746E-01 0.51059339E+02</pdfrwt>
<totfact> 0.14735233E+00</totfact>
</mgrwt>
</event>
<event>
 4    1  0.2437479E+000  0.7967147E+02  0.7957747E-01  0.1329986E+00
         13   -1    0    0    0    0  0.00000000000E+00  0.00000000000E+00  0.99999944176E+02  0.99999999996E+02  0.10566000000E+00 0.  1.
         22   -1    0    0    0    0 -0.00000000000E+00 -0.00000000000E+00 -0.62359313929E+02  0.62359313929E+02  0.00000000000E+00 0. -1.
         13    1    1    2    0    0 -0.58528213814E+02  0.20542428651E+02 -0.18692389195E+02  0.64783946816E+02  0.10566000000E+00 0. -1.
        996    1    1    2    0    0  0.58528213814E+02 -0.20542428651E+02  0.56333019442E+02  0.97575367110E+02  0.50000000000E+02 0.  0.
<mgrwt>
<rscale>  0 0.79671470E+02</rscale>
<asrwt>0</asrwt>
<pdfrwt beam="1">  1       13 0.10000000E+01 0.79671470E+02</pdfrwt>
<pdfrwt beam="2">  1       22 0.62359324E+00 0.79671470E+02</pdfrwt>
<totfact> 0.75132498E-02</totfact>
</mgrwt>
</event>
<event>
 4    1  0.2437479E+000  0.5113123E+02  0.7957747E-01  0.1439334E+00
         13   -1    0    0    0    0  0.00000000000E+00  0.00000000000E+00  0.99999944169E+02  0.99999999989E+02  0.10566000000E+00 0. -1.
         22   -1    0    0    0    0 -0.00000000000E+00 -0.00000000000E+00 -0.30036214882E+02  0.30036214882E+02  0.00000000000E+00 0.  1.
         13    1    1    2    0    0  0.92415247543E+01 -0.53848617445E+01 -0.22198065006E+02  0.24640774538E+02  0.10566000000E+00 0.  1.
        996    1    1    2    0    0 -0.92415247543E+01  0.53848617445E+01  0.92161794293E+02  0.10539544033E+03  0.50000000000E+02 0.  0.
<mgrwt>
<rscale>  0 0.51131228E+02</rscale>
<asrwt>0</asrwt>
<pdfrwt beam="1">  1       13 0.10000000E+01 0.51131228E+02</pdfrwt>
<pdfrwt beam="2">  1       22 0.30036234E+00 0.51131228E+02</pdfrwt>
<totfact> 0.20632644E-01</totfact>
</mgrwt>
</event>
<event>
 4    1  0.2437479E+000  0.5706077E+02  0.7957747E-01  0.1410597E+00
         13   -1    0    0    0    0  0.00000000000E+00  0.00000000000E+00  0.99999944181E+02  0.10000000000E+03  0.10566000000E+00 0. -1.
         22   -1    0    0    0    0 -0.00000000000E+00 -0.00000000000E+00 -0.18995795658E+02  0.18995795658E+02  0.00000000000E+00 0. -1.
         13    1    1    2    0    0 -0.10776093415E+02  0.25294416852E+02  0.13574123108E+02  0.30662675933E+02  0.10566000000E+00 0.  1.
        996    1    1    2    0    0  0.10776093415E+02 -0.25294416852E+02  0.67430025415E+02  0.88333119727E+02  0.50000000000E+02 0.  0.
<mgrwt>
<rscale>  0 0.57060772E+02</rscale>
<asrwt>0</asrwt>
<pdfrwt beam="1">  1       13 0.10000000E+01 0.57060772E+02</pdfrwt>
<pdfrwt beam="2">  1       22 0.18995818E+00 0.57060772E+02</pdfrwt>
<totfact> 0.50276995E-01</totfact>
</mgrwt>
</event>
<event>
 4    1  0.2437479E+000  0.7187476E+02  0.7957747E-01  0.1353831E+00
         13   -1    0    0    0    0  0.00000000000E+00  0.00000000000E+00  0.99999944181E+02  0.10000000000E+03  0.10566000000E+00 0.  1.
         22   -1    0    0    0    0 -0.00000000000E+00 -0.00000000000E+00 -0.38940613531E+02  0.38940613531E+02  0.00000000000E+00 0.  1.
         13    1    1    2    0    0  0.18690643936E+02  0.48131501475E+02  0.15773162043E+02  0.53988752623E+02  0.10566000000E+00 0. -1.
        996    1    1    2    0    0 -0.18690643936E+02 -0.48131501475E+02  0.45286168607E+02  0.84951860910E+02  0.50000000000E+02 0.  0.
<mgrwt>
<rscale>  0 0.71874763E+02</rscale>
<asrwt>0</asrwt>
<pdfrwt beam="1">  1       13 0.10000000E+01 0.71874763E+02</pdfrwt>
<pdfrwt beam="2">  1       22 0.38940631E+00 0.71874763E+02</pdfrwt>
<totfact> 0.13186524E-01</totfact>
</mgrwt>
</event>
<event>
 4    1  0.2437479E+000  0.5512551E+02  0.7957747E-01  0.1419506E+00
         13   -1    0    0    0    0  0.00000000000E+00  0.00000000000E+00  0.99999944185E+02  0.10000000000E+03  0.10566000000E+00 0. -1.
         22   -1    0    0    0    0 -0.00000000000E+00 -0.00000000000E+00 -0.17158242204E+02  0.17158242204E+02  0.00000000000E+00 0.  1.
         13    1    1    2    0    0 -0.19617062152E+02 -0.12409369329E+02  0.87461431352E+01  0.24805800902E+02  0.10566000000E+00 0.  1.
        996    1    1    2    0    0  0.19617062152E+02  0.12409369329E+02  0.74095558846E+02  0.92352441306E+02  0.50000000000E+02 0.  0.
<mgrwt>
<rscale>  0 0.55125507E+02</rscale>
<asrwt>0</asrwt>
<pdfrwt beam="1">  1       13 0.10000000E+01 0.55125507E+02</pdfrwt>
<pdfrwt beam="2">  1       22 0.17158265E+00 0.55125507E+02</pdfrwt>
<totfact> 0.60168085E-01</totfact>
</mgrwt>
</event>
<event>
 4    1  0.2437479E+000  0.5610777E+02  0.7957747E-01  0.1414932E+00
         13   -1    0    0    0    0  0.00000000000E+00  0.00000000000E+00  0.99999944172E+02  0.99999999992E+02  0.10566000000E+00 0.  1.
         22   -1    0    0    0    0 -0.00000000000E+00 -0.00000000000E+00 -0.73992145369E+02  0.73992145369E+02  0.00000000000E+00 0. -1.
         13    1    1    2    0    0  0.13918469803E+02 -0.21315669015E+02 -0.63465924984E+02  0.68381403505E+02  0.10566000000E+00 0. -1.
        996    1    1    2    0    0 -0.13918469803E+02  0.21315669015E+02  0.89473723787E+02  0.10561074186E+03  0.50000000000E+02 0.  0.
<mgrwt>
<rscale>  0 0.56107767E+02</rscale>
<asrwt>0</asrwt>
<pdfrwt beam="1">  1       13 0.10000000E+01 0.56107767E+02</pdfrwt>
<pdfrwt beam="2">  1       22 0.73992153E+00 0.56107767E+02</pdfrwt>
<totfact> 0.53765751E-02</totfact>
</mgrwt>
</event>
<event>
 4    1  0.2437479E+000  0.5131458E+02  0.7957747E-01  0.1438377E+00
         13   -1    0    0    0    0  0.00000000000E+00  0.00000000000E+00  0.99999944181E+02  0.10000000000E+03  0.10566000000E+00 0.  1.
         22   -1    0    0    0    0 -0.00000000000E+00 -0.00000000000E+00 -0.11123347514E+02  0.11123347514E+02  0.00000000000E+00 0. -1.
         13    1    1    2    0    0  0.10174358587E+02 -0.54469105842E+01  0.45393780878E+01  0.12401754917E+02  0.10566000000E+00 0. -1.
        996    1    1    2    0    0 -0.10174358587E+02  0.54469105842E+01  0.84337218579E+02  0.98721592599E+02  0.50000000000E+02 0.  0.
<mgrwt>
<rscale>  0 0.51314583E+02</rscale>
<asrwt>0</asrwt>
<pdfrwt beam="1">  1       13 0.10000000E+01 0.51314583E+02</pdfrwt>
<pdfrwt beam="2">  1       22 0.11123372E+00 0.51314583E+02</pdfrwt>
<totfact> 0.12036083E+00</totfact>
</mgrwt>
</event>
<event>
 4    1  0.2437479E+000  0.5121446E+02  0.7957747E-01  0.1438899E+00
         13   -1    0    0    0    0  0.00000000000E+00  0.00000000000E+00  0.99999944168E+02  0.99999999988E+02  0.10566000000E+00 0. -1.
         22   -1    0    0    0    0 -0.00000000000E+00 -0.00000000000E+00 -0.16957511389E+02  0.16957511389E+02  0.00000000000E+00 0.  1.
         13    1    1    2    0    0 -0.22898952963E+01  0.10847923943E+02 -0.71823547362E+01  0.13210543439E+02  0.10566000000E+00 0.  1.
        996    1    1    2    0    0  0.22898952963E+01 -0.10847923943E+02  0.90224787515E+02  0.10374696794E+03  0.50000000000E+02 0.  0.
<mgrwt>
<rscale>  0 0.51214462E+02</rscale>
<asrwt>0</asrwt>
<pdfrwt beam="1">  1       13 0.10000000E+01 0.51214462E+02</pdfrwt>
<pdfrwt beam="2">  1       22 0.16957535E+00 0.51214462E+02</pdfrwt>
<totfact> 0.60971790E-01</totfact>
</mgrwt>
</event>
<event>
 4    1  0.2437479E+000  0.5509686E+02  0.7957747E-01  0.1419641E+00
         13   -1    0    0    0    0  0.00000000000E+00  0.00000000000E+00  0.99999944180E+02  0.10000000000E+03  0.10566000000E+00 0. -1.
         22   -1    0    0    0    0 -0.00000000000E+00 -0.00000000000E+00 -0.15439917442E+02  0.15439917442E+02  0.00000000000E+00 0.  1.
         13    1    1    2    0    0 -0.85423415711E+01  0.21510276872E+02  0.20223312290E+02  0.30735275087E+02  0.10566000000E+00 0.  1.
        996    1    1    2    0    0  0.85423415711E+01 -0.21510276872E+02  0.64336714448E+02  0.84704642355E+02  0.50000000000E+02 0.  0.
<mgrwt>
<rscale>  0 0.55096857E+02</rscale>
<asrwt>0</asrwt>
<pdfrwt beam="1">  1       13 0.10000000E+01 0.55096857E+02</pdfrwt>
<pdfrwt beam="2">  1       22 0.15439941E+00 0.55096857E+02</pdfrwt>
<totfact> 0.72170251E-01</totfact>
</mgrwt>
</event>
<event>
 4    1  0.2437479E+000  0.5190134E+02  0.7957747E-01  0.1435348E+00
         13   -1    0    0    0    0  0.00000000000E+00  0.00000000000E+00  0.99999944177E+02  0.99999999997E+02  0.10566000000E+00 0. -1.
         22   -1    0    0    0    0 -0.00000000000E+00 -0.00000000000E+00 -0.16727859666E+02  0.16727859666E+02  0.00000000000E+00 0.  1.
         13    1    1    2    0    0 -0.13603272115E+01 -0.13852751257E+02 -0.46106819275E+01  0.14663517974E+02  0.10566000000E+00 0.  1.
        996    1    1    2    0    0  0.13603272115E+01  0.13852751257E+02  0.87882766439E+02  0.10206434169E+03  0.50000000000E+02 0.  0.
<mgrwt>
<rscale>  0 0.51901341E+02</rscale>
<asrwt>0</asrwt>
<pdfrwt beam="1">  1       13 0.10000000E+01 0.51901341E+02</pdfrwt>
<pdfrwt beam="2">  1       22 0.16727883E+00 0.51901341E+02</pdfrwt>
<totfact> 0.62524337E-01</totfact>
</mgrwt>
</event>
<event>
 4    1  0.2437479E+000  0.5484831E+02  0.7957747E-01  0.1420818E+00
         13   -1    0    0    0    0  0.00000000000E+00  0.00000000000E+00  0.99999944181E+02  0.10000000000E+03  0.10566000000E+00 0. -1.
         22   -1    0    0    0    0 -0.00000000000E+00 -0.00000000000E+00 -0.57705328115E+02  0.57705328115E+02  0.00000000000E+00 0.  1.
         13    1    1    2    0    0  0.90719736973E+01 -0.20640638359E+02 -0.47445986425E+02  0.52530652485E+02  0.10566000000E+00 0.  1.
        996    1    1    2    0    0 -0.90719736973E+01  0.20640638359E+02  0.89740602491E+02  0.10517467563E+03  0.50000000000E+02 0.  0.
<mgrwt>
<rscale>  0 0.54848306E+02</rscale>
<asrwt>0</asrwt>
<pdfrwt beam="1">  1       13 0.10000000E+01 0.54848306E+02</pdfrwt>
<pdfrwt beam="2">  1       22 0.57705340E+00 0.54848306E+02</pdfrwt>
<totfact> 0.57981425E-02</totfact>
</mgrwt>
</event>
<event>
 4    1  0.2437479E+000  0.5222486E+02  0.7957747E-01  0.1433698E+00
         13   -1    0    0    0    0  0.00000000000E+00  0.00000000000E+00  0.99999944186E+02  0.10000000001E+03  0.10566000000E+00 0. -1.
         22   -1    0    0    0    0 -0.00000000000E+00 -0.00000000000E+00 -0.38774646178E+02  0.38774646178E+02  0.00000000000E+00 0.  1.
         13    1    1    2    0    0 -0.27810488090E+01 -0.14822324831E+02 -0.30045765638E+02  0.33618369126E+02  0.10566000000E+00 0.  1.
        996    1    1    2    0    0  0.27810488090E+01  0.14822324831E+02  0.91271063646E+02  0.10515627706E+03  0.50000000000E+02 0.  0.
<mgrwt>
<rscale>  0 0.52224856E+02</rscale>
<asrwt>0</asrwt>
<pdfrwt beam="1">  1       13 0.10000000E+01 0.52224856E+02</pdfrwt>
<pdfrwt beam="2">  1       22 0.38774663E+00 0.52224856E+02</pdfrwt>
<totfact> 0.13108189E-01</totfact>
</mgrwt>
</event>
<event>
 4    1  0.2437479E+000  0.5156904E+02  0.7957747E-01  0.1437058E+00
         13   -1    0    0    0    0  0.00000000000E+00  0.00000000000E+00  0.99999944184E+02  0.10000000000E+03  0.10566000000E+00 0. -1.
         22   -1    0    0    0    0 -0.00000000000E+00 -0.00000000000E+00 -0.16430204402E+02  0.16430204402E+02  0.00000000000E+00 0. -1.
         13    1    1    2    0    0  0.32976336966E+01  0.12185689547E+02 -0.52921262620E+01  0.13688797688E+02  0.10566000000E+00 0.  1.
        996    1    1    2    0    0 -0.32976336966E+01 -0.12185689547E+02  0.88861866044E+02  0.10274140672E+03  0.50000000000E+02 0.  0.
<mgrwt>
<rscale>  0 0.51569035E+02</rscale>
<asrwt>0</asrwt>
<pdfrwt beam="1">  1       13 0.10000000E+01 0.51569035E+02</pdfrwt>
<pdfrwt beam="2">  1       22 0.16430228E+00 0.51569035E+02</pdfrwt>
<totfact> 0.64459555E-01</totfact>
</mgrwt>
</event>
<event>
 4    1  0.2437479E+000  0.5220021E+02  0.7957747E-01  0.1433823E+00
         13   -1    0    0    0    0  0.00000000000E+00  0.00000000000E+00  0.99999944181E+02  0.10000000000E+03  0.10566000000E+00 0. -1.
         22   -1    0    0    0    0 -0.00000000000E+00 -0.00000000000E+00 -0.29528136202E+02  0.29528136202E+02  0.00000000000E+00 0.  1.
         13    1    1    2    0    0  0.10850035984E+02  0.10350756984E+02 -0.20047816459E+02  0.25035725669E+02  0.10566000000E+00 0.  1.
        996    1    1    2    0    0 -0.10850035984E+02 -0.10350756984E+02  0.90519624438E+02  0.10449241053E+03  0.50000000000E+02 0.  0.
<mgrwt>
<rscale>  0 0.52200205E+02</rscale>
<asrwt>0</asrwt>
<pdfrwt beam="1">  1       13 0.10000000E+01 0.52200205E+02</pdfrwt>
<pdfrwt beam="2">  1       22 0.29528156E+00 0.52200205E+02</pdfrwt>
<totfact> 0.21334829E-01</totfact>
</mgrwt>
</event>
<event>
 4    1  0.2437479E+000  0.5113498E+02  0.7957747E-01  0.1439314E+00
         13   -1    0    0    0    0  0.00000000000E+00  0.00000000000E+00  0.99999944179E+02  0.99999999999E+02  0.10566000000E+00 0. -1.
         22   -1    0    0    0    0 -0.00000000000E+00 -0.00000000000E+00 -0.95819875255E+01  0.95819875255E+01  0.00000000000E+00 0. -1.
         13    1    1    2    0    0  0.92700211024E+01 -0.53714581895E+01  0.17552779731E+02  0.20564461934E+02  0.10566000000E+00 0.  1.
        996    1    1    2    0    0 -0.92700211024E+01  0.53714581895E+01  0.72865176923E+02  0.89017525591E+02  0.50000000000E+02 0.  0.
<mgrwt>
<rscale>  0 0.51134977E+02</rscale>
<asrwt>0</asrwt>
<pdfrwt beam="1">  1       13 0.10000000E+01 0.51134977E+02</pdfrwt>
<pdfrwt beam="2">  1       22 0.95820128E-01 0.51134977E+02</pdfrwt>
<totfact> 0.14960484E+00</totfact>
</mgrwt>
</event>
<event>
 4    1  0.2437479E+000  0.5398685E+02  0.7957747E-01  0.1424952E+00
         13   -1    0    0    0    0  0.00000000000E+00  0.00000000000E+00  0.99999944178E+02  0.99999999998E+02  0.10566000000E+00 0. -1.
         22   -1    0    0    0    0 -0.00000000000E+00 -0.00000000000E+00 -0.14297873192E+02  0.14297873192E+02  0.00000000000E+00 0. -1.
         13    1    1    2    0    0 -0.11544894602E+02 -0.16771860397E+02  0.14753351129E+02  0.25144630165E+02  0.10566000000E+00 0.  1.
        996    1    1    2    0    0  0.11544894602E+02  0.16771860397E+02  0.70948719857E+02  0.89153243025E+02  0.50000000000E+02 0.  0.
<mgrwt>
<rscale>  0 0.53986849E+02</rscale>
<asrwt>0</asrwt>
<pdfrwt beam="1">  1       13 0.10000000E+01 0.53986849E+02</pdfrwt>
<pdfrwt beam="2">  1       22 0.14297897E+00 0.53986849E+02</pdfrwt>
<totfact> 0.81818835E-01</totfact>
</mgrwt>
</event>
<event>
 4    1  0.2437479E+000  0.5116609E+02  0.7957747E-01  0.1439152E+00
         13   -1    0    0    0    0  0.00000000000E+00  0.00000000000E+00  0.99999944183E+02  0.10000000000E+03  0.10566000000E+00 0. -1.
         22   -1    0    0    0    0 -0.00000000000E+00 -0.00000000000E+00 -0.97309161619E+01  0.97309161619E+01  0.00000000000E+00 0. -1.
         13    1    1    2    0    0 -0.70512187535E+00 -0.10838450467E+02  0.11647185021E+02  0.15925994108E+02  0.10566000000E+00 0.  1.
        996    1    1    2    0    0  0.70512187535E+00  0.10838450467E+02  0.78621843000E+02  0.93804922057E+02  0.50000000000E+02 0.  0.
<mgrwt>
<rscale>  0 0.51166094E+02</rscale>
<asrwt>0</asrwt>
<pdfrwt beam="1">  1       13 0.10000000E+01 0.51166094E+02</pdfrwt>
<pdfrwt beam="2">  1       22 0.97309414E-01 0.51166094E+02</pdfrwt>
<totfact> 0.14634196E+00</totfact>
</mgrwt>
</event>
<event>
 4    1  0.2437479E+000  0.5100481E+02  0.7957747E-01  0.1439996E+00
         13   -1    0    0    0    0  0.00000000000E+00  0.00000000000E+00  0.99999944187E+02  0.10000000001E+03  0.10566000000E+00 0.  1.
         22   -1    0    0    0    0 -0.00000000000E+00 -0.00000000000E+00 -0.24655778018E+02  0.24655778018E+02  0.00000000000E+00 0.  1.
         13    1    1    2    0    0 -0.96240102586E+01 -0.29780875284E+01 -0.16654280445E+02  0.19464501020E+02  0.10566000000E+00 0. -1.
        996    1    1    2    0    0  0.96240102586E+01  0.29780875284E+01  0.91998446613E+02  0.10519127701E+03  0.50000000000E+02 0.  0.
<mgrwt>
<rscale>  0 0.51004809E+02</rscale>
<asrwt>0</asrwt>
<pdfrwt beam="1">  1       13 0.10000000E+01 0.51004809E+02</pdfrwt>
<pdfrwt beam="2">  1       22 0.24655799E+00 0.51004809E+02</pdfrwt>
<totfact> 0.30245781E-01</totfact>
</mgrwt>
</event>
<event>
 4    1  0.2437479E+000  0.5114219E+02  0.7957747E-01  0.1439276E+00
         13   -1    0    0    0    0  0.00000000000E+00  0.00000000000E+00  0.99999944179E+02  0.99999999999E+02  0.10566000000E+00 0. -1.
         22   -1    0    0    0    0 -0.00000000000E+00 -0.00000000000E+00 -0.96643647672E+01  0.96643647672E+01  0.00000000000E+00 0. -1.
         13    1    1    2    0    0  0.84072466844E+01  0.66964196575E+01  0.11976080741E+02  0.16092280975E+02  0.10566000000E+00 0.  1.
        996    1    1    2    0    0 -0.84072466844E+01 -0.66964196575E+01  0.78359498671E+02  0.93572083792E+02  0.50000000000E+02 0.  0.
<mgrwt>
<rscale>  0 0.51142192E+02</rscale>
<asrwt>0</asrwt>
<pdfrwt beam="1">  1       13 0.10000000E+01 0.51142192E+02</pdfrwt>
<pdfrwt beam="2">  1       22 0.96643900E-01 0.51142192E+02</pdfrwt>
<totfact> 0.14778290E+00</totfact>
</mgrwt>
</event>
<event>
 4    1  0.2437479E+000  0.6820384E+02  0.7957747E-01  0.1366310E+00
         13   -1    0    0    0    0  0.00000000000E+00  0.00000000000E+00  0.99999944169E+02  0.99999999989E+02  0.10566000000E+00 0. -1.
         22   -1    0    0    0    0 -0.00000000000E+00 -0.00000000000E+00 -0.40098420135E+02  0.40098420135E+02  0.00000000000E+00 0.  1.
         13    1    1    2    0    0  0.36121042724E+02 -0.29103851488E+02 -0.40997755883E+01  0.46568049377E+02  0.10566000000E+00 0.  1.
        996    1    1    2    0    0 -0.36121042724E+02  0.29103851488E+02  0.64001299622E+02  0.93530370747E+02  0.50000000000E+02 0.  0.
<mgrwt>
<rscale>  0 0.68203841E+02</rscale>
<asrwt>0</asrwt>
<pdfrwt beam="1">  1       13 0.10000000E+01 0.68203841E+02</pdfrwt>
<pdfrwt beam="2">  1       22 0.40098437E+00 0.68203841E+02</pdfrwt>
<totfact> 0.12446062E-01</totfact>
</mgrwt>
</event>
<event>
 4    1  0.2437479E+000  0.5163263E+02  0.7957747E-01  0.1436729E+00
         13   -1    0    0    0    0  0.00000000000E+00  0.00000000000E+00  0.99999944167E+02  0.99999999988E+02  0.10566000000E+00 0. -1.
         22   -1    0    0    0    0 -0.00000000000E+00 -0.00000000000E+00 -0.49467199806E+02  0.49467199806E+02  0.00000000000E+00 0.  1.
         13    1    1    2    0    0 -0.53976055876E+01  0.11695921740E+02 -0.41766372014E+02  0.43707776501E+02  0.10566000000E+00 0.  1.
        996    1    1    2    0    0  0.53976055876E+01 -0.11695921740E+02  0.92299116375E+02  0.10575942329E+03  0.50000000000E+02 0.  0.
<mgrwt>
<rscale>  0 0.51632632E+02</rscale>
<asrwt>0</asrwt>
<pdfrwt beam="1">  1       13 0.10000000E+01 0.51632632E+02</pdfrwt>
<pdfrwt beam="2">  1       22 0.49467214E+00 0.51632632E+02</pdfrwt>
<totfact> 0.75803691E-02</totfact>
</mgrwt>
</event>
<event>
 4    1  0.2437479E+000  0.5215715E+02  0.7957747E-01  0.1434042E+00
         13   -1    0    0    0    0  0.00000000000E+00  0.00000000000E+00  0.99999944177E+02  0.99999999997E+02  0.10566000000E+00 0. -1.
         22   -1    0    0    0    0 -0.00000000000E+00 -0.00000000000E+00 -0.11316872968E+02  0.11316872968E+02  0.00000000000E+00 0.  1.
         13    1    1    2    0    0 -0.71881240248E+01 -0.12988436642E+02  0.15640696924E+02  0.21564117828E+02  0.10566000000E+00 0.  1.
        996    1    1    2    0    0  0.71881240248E+01  0.12988436642E+02  0.73042374285E+02  0.89752755137E+02  0.50000000000E+02 0.  0.
<mgrwt>
<rscale>  0 0.52157153E+02</rscale>
<asrwt>0</asrwt>
<pdfrwt beam="1">  1       13 0.10000000E+01 0.52157153E+02</pdfrwt>
<pdfrwt beam="2">  1       22 0.11316898E+00 0.52157153E+02</pdfrwt>
<totfact> 0.11752154E+00</totfact>
</mgrwt>
</event>
<event>
 4    1  0.2437479E+000  0.5275169E+02  0.7957747E-01  0.1431041E+00
         13   -1    0    0    0    0  0.00000000000E+00  0.00000000000E+00  0.99999944180E+02  0.10000000000E+03  0.10566000000E+00 0. -1.
         22   -1    0    0    0    0 -0.00000000000E+00 -0.00000000000E+00 -0.12477723711E+02  0.12477723711E+02  0.00000000000E+00 0.  1.
         13    1    1    2    0    0  0.16010561225E+02 -0.51383696714E+01  0.13404620194E+02  0.21504323291E+02  0.10566000000E+00 0.  1.
        996    1    1    2    0    0 -0.16010561225E+02  0.51383696714E+01  0.74117600274E+02  0.90973400420E+02  0.50000000000E+02 0.  0.
<mgrwt>
<rscale>  0 0.52751691E+02</rscale>
<asrwt>0</asrwt>
<pdfrwt beam="1">  1       13 0.10000000E+01 0.52751691E+02</pdfrwt>
<pdfrwt beam="2">  1       22 0.12477748E+00 0.52751691E+02</pdfrwt>
<totfact> 0.10137978E+00</totfact>
</mgrwt>
</event>
<event>
 4    1  0.2437479E+000  0.5174802E+02  0.7957747E-01  0.1436135E+00
         13   -1    0    0    0    0  0.00000000000E+00  0.00000000000E+00  0.99999944178E+02  0.99999999998E+02  0.10566000000E+00 0. -1.
         22   -1    0    0    0    0 -0.00000000000E+00 -0.00000000000E+00 -0.13004719085E+02  0.13004719085E+02  0.00000000000E+00 0.  1.
         13    1    1    2    0    0  0.13254724237E+02  0.14730595246E+01  0.19860959144E+01  0.13483818450E+02  0.10566000000E+00 0.  1.
        996    1    1    2    0    0 -0.13254724237E+02 -0.14730595246E+01  0.85009129179E+02  0.99520900633E+02  0.50000000000E+02 0.  0.
<mgrwt>
<rscale>  0 0.51748020E+02</rscale>
<asrwt>0</asrwt>
<pdfrwt beam="1">  1       13 0.10000000E+01 0.51748020E+02</pdfrwt>
<pdfrwt beam="2">  1       22 0.13004743E+00 0.51748020E+02</pdfrwt>
<totfact> 0.94820292E-01</totfact>
</mgrwt>
</event>
<event>
 4    1  0.2437479E+000  0.5150171E+02  0.7957747E-01  0.1437406E+00
         13   -1    0    0    0    0  0.00000000000E+00  0.00000000000E+00  0.99999944183E+02  0.10000000000E+03  0.10566000000E+00 0.  1.
         22   -1    0    0    0    0 -0.00000000000E+00 -0.00000000000E+00 -0.17261204924E+02  0.17261204924E+02  0.00000000000E+00 0. -1.
         13    1    1    2    0    0 -0.12242887501E+02  0.15931945756E+01 -0.67050024555E+01  0.14049725452E+02  0.10566000000E+00 0. -1.
        996    1    1    2    0    0  0.12242887501E+02 -0.15931945756E+01  0.89443741715E+02  0.10321147947E+03  0.50000000000E+02 0.  0.
<mgrwt>
<rscale>  0 0.51501714E+02</rscale>
<asrwt>0</asrwt>
<pdfrwt beam="1">  1       13 0.10000000E+01 0.51501714E+02</pdfrwt>
<pdfrwt beam="2">  1       22 0.17261228E+00 0.51501714E+02</pdfrwt>
<totfact> 0.59133667E-01</totfact>
</mgrwt>
</event>
<event>
 4    1  0.2437479E+000  0.5133126E+02  0.7957747E-01  0.1438291E+00
         13   -1    0    0    0    0  0.00000000000E+00  0.00000000000E+00  0.99999944183E+02  0.10000000000E+03  0.10566000000E+00 0. -1.
         22   -1    0    0    0    0 -0.00000000000E+00 -0.00000000000E+00 -0.18372158395E+02  0.18372158395E+02  0.00000000000E+00 0.  1.
         13    1    1    2    0    0  0.79397169958E+01  0.84769704044E+01 -0.86767825905E+01  0.14498132755E+02  0.10566000000E+00 0.  1.
        996    1    1    2    0    0 -0.79397169958E+01 -0.84769704044E+01  0.90304568379E+02  0.10387402564E+03  0.50000000000E+02 0.  0.
<mgrwt>
<rscale>  0 0.51331259E+02</rscale>
<asrwt>0</asrwt>
<pdfrwt beam="1">  1       13 0.10000000E+01 0.51331259E+02</pdfrwt>
<pdfrwt beam="2">  1       22 0.18372181E+00 0.51331259E+02</pdfrwt>
<totfact> 0.52886630E-01</totfact>
</mgrwt>
</event>
<event>
 4    1  0.2437479E+000  0.5158945E+02  0.7957747E-01  0.1436952E+00
         13   -1    0    0    0    0  0.00000000000E+00  0.00000000000E+00  0.99999944178E+02  0.99999999998E+02  0.10566000000E+00 0. -1.
         22   -1    0    0    0    0 -0.00000000000E+00 -0.00000000000E+00 -0.16089337947E+02  0.16089337947E+02  0.00000000000E+00 0. -1.
         13    1    1    2    0    0 -0.52714194154E+01  0.11562173991E+02 -0.47049461173E+01  0.13550624046E+02  0.10566000000E+00 0.  1.
        996    1    1    2    0    0  0.52714194154E+01 -0.11562173991E+02  0.88615552348E+02  0.10253871390E+03  0.50000000000E+02 0.  0.
<mgrwt>
<rscale>  0 0.51589454E+02</rscale>
<asrwt>0</asrwt>
<pdfrwt beam="1">  1       13 0.10000000E+01 0.51589454E+02</pdfrwt>
<pdfrwt beam="2">  1       22 0.16089361E+00 0.51589454E+02</pdfrwt>
<totfact> 0.66829620E-01</totfact>
</mgrwt>
</event>
<event>
 4    1  0.2437479E+000  0.5103091E+02  0.7957747E-01  0.1439859E+00
         13   -1    0    0    0    0  0.00000000000E+00  0.00000000000E+00  0.99999944179E+02  0.99999999999E+02  0.10566000000E+00 0. -1.
         22   -1    0    0    0    0 -0.00000000000E+00 -0.00000000000E+00 -0.94381638719E+01  0.94381638719E+01  0.00000000000E+00 0. -1.
         13    1    1    2    0    0  0.70021382133E+01 -0.74245461098E+01  0.11948076451E+02  0.15713736647E+02  0.10566000000E+00 0.  1.
        996    1    1    2    0    0 -0.70021382133E+01  0.74245461098E+01  0.78613703856E+02  0.93724427224E+02  0.50000000000E+02 0.  0.
<mgrwt>
<rscale>  0 0.51030910E+02</rscale>
<asrwt>0</asrwt>
<pdfrwt beam="1">  1       13 0.10000000E+01 0.51030910E+02</pdfrwt>
<pdfrwt beam="2">  1       22 0.94381892E-01 0.51030910E+02</pdfrwt>
<totfact> 0.15283381E+00</totfact>
</mgrwt>
</event>
<event>
 4    1  0.2437479E+000  0.5773674E+02  0.7957747E-01  0.1407583E+00
         13   -1    0    0    0    0  0.00000000000E+00  0.00000000000E+00  0.99999944172E+02  0.99999999992E+02  0.10566000000E+00 0. -1.
         22   -1    0    0    0    0 -0.00000000000E+00 -0.00000000000E+00 -0.18752713592E+02  0.18752713592E+02  0.00000000000E+00 0. -1.
         13    1    1    2    0    0  0.25289933169E+02  0.13926623767E+02  0.27350142549E+02  0.39768995848E+02  0.10566000000E+00 0.  1.
        996    1    1    2    0    0 -0.25289933169E+02 -0.13926623767E+02  0.53897088030E+02  0.78983717736E+02  0.50000000000E+02 0.  0.
<mgrwt>
<rscale>  0 0.57736744E+02</rscale>
<asrwt>0</asrwt>
<pdfrwt beam="1">  1       13 0.10000000E+01 0.57736744E+02</pdfrwt>
<pdfrwt beam="2">  1       22 0.18752736E+00 0.57736744E+02</pdfrwt>
<totfact> 0.51534237E-01</totfact>
</mgrwt>
</event>
<event>
 4    1  0.2437479E+000  0.5104234E+02  0.7957747E-01  0.1439799E+00
         13   -1    0    0    0    0  0.00000000000E+00  0.00000000000E+00  0.99999944169E+02  0.99999999989E+02  0.10566000000E+00 0.  1.
         22   -1    0    0    0    0 -0.00000000000E+00 -0.00000000000E+00 -0.29943103969E+02  0.29943103969E+02  0.00000000000E+00 0. -1.
         13    1    1    2    0    0 -0.83786829497E+01 -0.59260377773E+01 -0.22228078929E+02  0.24483033076E+02  0.10566000000E+00 0. -1.
        996    1    1    2    0    0  0.83786829497E+01  0.59260377773E+01  0.92284919129E+02  0.10546007088E+03  0.50000000000E+02 0.  0.
<mgrwt>
<rscale>  0 0.51042338E+02</rscale>
<asrwt>0</asrwt>
<pdfrwt beam="1">  1       13 0.10000000E+01 0.51042338E+02</pdfrwt>
<pdfrwt beam="2">  1       22 0.29943124E+00 0.51042338E+02</pdfrwt>
<totfact> 0.20750248E-01</totfact>
</mgrwt>
</event>
<event>
 4    1  0.2437479E+000  0.5106680E+02  0.7957747E-01  0.1439671E+00
         13   -1    0    0    0    0  0.00000000000E+00  0.00000000000E+00  0.99999944182E+02  0.10000000000E+03  0.10566000000E+00 0. -1.
         22   -1    0    0    0    0 -0.00000000000E+00 -0.00000000000E+00 -0.13509759350E+02  0.13509759350E+02  0.00000000000E+00 0.  1.
         13    1    1    2    0    0  0.19235998362E+01  0.10203809293E+02 -0.27047961216E+01  0.10730565992E+02  0.10566000000E+00 0.  1.
        996    1    1    2    0    0 -0.19235998362E+01 -0.10203809293E+02  0.89194980954E+02  0.10277919336E+03  0.50000000000E+02 0.  0.
<mgrwt>
<rscale>  0 0.51066799E+02</rscale>
<asrwt>0</asrwt>
<pdfrwt beam="1">  1       13 0.10000000E+01 0.51066799E+02</pdfrwt>
<pdfrwt beam="2">  1       22 0.13509783E+00 0.51066799E+02</pdfrwt>
<totfact> 0.89127309E-01</totfact>
</mgrwt>
</event>
<event>
 4    1  0.2437479E+000  0.5276128E+02  0.7957747E-01  0.1430993E+00
         13   -1    0    0    0    0  0.00000000000E+00  0.00000000000E+00  0.99999944180E+02  0.10000000000E+03  0.10566000000E+00 0. -1.
         22   -1    0    0    0    0 -0.00000000000E+00 -0.00000000000E+00 -0.22639957722E+02  0.22639957722E+02  0.00000000000E+00 0.  1.
         13    1    1    2    0    0  0.68085774664E+01 -0.15407650308E+02 -0.10719634227E+02  0.19966825915E+02  0.10566000000E+00 0.  1.
        996    1    1    2    0    0 -0.68085774664E+01  0.15407650308E+02  0.88079620685E+02  0.10267313181E+03  0.50000000000E+02 0.  0.
<mgrwt>
<rscale>  0 0.52761278E+02</rscale>
<asrwt>0</asrwt>
<pdfrwt beam="1">  1       13 0.10000000E+01 0.52761278E+02</pdfrwt>
<pdfrwt beam="2">  1       22 0.22639979E+00 0.52761278E+02</pdfrwt>
<totfact> 0.35830442E-01</totfact>
</mgrwt>
</event>
<event>
 4    1  0.2437479E+000  0.5139958E+02  0.7957747E-01  0.1437936E+00
         13   -1    0    0    0    0  0.00000000000E+00  0.00000000000E+00  0.99999944178E+02  0.99999999998E+02  0.10566000000E+00 0.  1.
         22   -1    0    0    0    0 -0.00000000000E+00 -0.00000000000E+00 -0.21171640400E+02  0.21171640400E+02  0.00000000000E+00 0. -1.
         13    1    1    2    0    0 -0.11839983205E+02  0.13160804419E+01 -0.11935985279E+02  0.16864049889E+02  0.10566000000E+00 0. -1.
        996    1    1    2    0    0  0.11839983205E+02 -0.13160804419E+01  0.90764289057E+02  0.10430759051E+03  0.50000000000E+02 0.  0.
<mgrwt>
<rscale>  0 0.51399584E+02</rscale>
<asrwt>0</asrwt>
<pdfrwt beam="1">  1       13 0.10000000E+01 0.51399584E+02</pdfrwt>
<pdfrwt beam="2">  1       22 0.21171662E+00 0.51399584E+02</pdfrwt>
<totfact> 0.40657988E-01</totfact>
</mgrwt>
</event>
<event>
 4    1  0.2437479E+000  0.5162926E+02  0.7957747E-01  0.1436747E+00
         13   -1    0    0    0    0  0.00000000000E+00  0.00000000000E+00  0.99999944173E+02  0.99999999994E+02  0.10566000000E+00 0.  1.
         22   -1    0    0    0    0 -0.00000000000E+00 -0.00000000000E+00 -0.10399791437E+02  0.10399791437E+02  0.00000000000E+00 0.  1.
         13    1    1    2    0    0 -0.18612144171E+01 -0.12732483256E+02  0.17864538088E+02  0.22016655833E+02  0.10566000000E+00 0. -1.
        996    1    1    2    0    0  0.18612144171E+01  0.12732483256E+02  0.71735614649E+02  0.88383135597E+02  0.50000000000E+02 0.  0.
<mgrwt>
<rscale>  0 0.51629258E+02</rscale>
<asrwt>0</asrwt>
<pdfrwt beam="1">  1       13 0.10000000E+01 0.51629258E+02</pdfrwt>
<pdfrwt beam="2">  1       22 0.10399816E+00 0.51629258E+02</pdfrwt>
<totfact> 0.13303818E+00</totfact>
</mgrwt>
</event>
<event>
 4    1  0.2437479E+000  0.5100572E+02  0.7957747E-01  0.1439991E+00
         13   -1    0    0    0    0  0.00000000000E+00  0.00000000000E+00  0.99999944182E+02  0.10000000000E+03  0.10566000000E+00 0.  1.
         22   -1    0    0    0    0 -0.00000000000E+00 -0.00000000000E+00 -0.26351439576E+02  0.26351439576E+02  0.00000000000E+00 0. -1.
         13    1    1    2    0    0 -0.87727973614E+01  0.49619991599E+01 -0.18477659542E+02  0.21048004071E+02  0.10566000000E+00 0. -1.
        996    1    1    2    0    0  0.87727973614E+01 -0.49619991599E+01  0.92126164148E+02  0.10530343551E+03  0.50000000000E+02 0.  0.
<mgrwt>
<rscale>  0 0.51005719E+02</rscale>
<asrwt>0</asrwt>
<pdfrwt beam="1">  1       13 0.10000000E+01 0.51005719E+02</pdfrwt>
<pdfrwt beam="2">  1       22 0.26351460E+00 0.51005719E+02</pdfrwt>
<totfact> 0.26539010E-01</totfact>
</mgrwt>
</event>
<event>
 4    1  0.2437479E+000  0.5335955E+02  0.7957747E-01  0.1428020E+00
         13   -1    0    0    0    0  0.00000000000E+00  0.00000000000E+00  0.99999944177E+02  0.99999999997E+02  0.10566000000E+00 0.  1.
         22   -1    0    0    0    0 -0.00000000000E+00 -0.00000000000E+00 -0.13246075688E+02  0.13246075688E+02  0.00000000000E+00 0.  1.
         13    1    1    2    0    0  0.13587250791E+01  0.18584804621E+02  0.15570116087E+02  0.24283343584E+02  0.10566000000E+00 0. -1.
        996    1    1    2    0    0 -0.13587250791E+01 -0.18584804621E+02  0.71183752402E+02  0.88962732100E+02  0.50000000000E+02 0.  0.
<mgrwt>
<rscale>  0 0.53359546E+02</rscale>
<asrwt>0</asrwt>
<pdfrwt beam="1">  1       13 0.10000000E+01 0.53359546E+02</pdfrwt>
<pdfrwt beam="2">  1       22 0.13246100E+00 0.53359546E+02</pdfrwt>
<totfact> 0.92419650E-01</totfact>
</mgrwt>
</event>
<event>
 4    1  0.2437479E+000  0.5209454E+02  0.7957747E-01  0.1434361E+00
         13   -1    0    0    0    0  0.00000000000E+00  0.00000000000E+00  0.99999944176E+02  0.99999999997E+02  0.10566000000E+00 0.  1.
         22   -1    0    0    0    0 -0.00000000000E+00 -0.00000000000E+00 -0.18145869745E+02  0.18145869745E+02  0.00000000000E+00 0. -1.
         13    1    1    2    0    0  0.13350801741E+02  0.59663090672E+01 -0.61616372137E+01  0.15868764546E+02  0.10566000000E+00 0. -1.
        996    1    1    2    0    0 -0.13350801741E+02 -0.59663090672E+01  0.88015711645E+02  0.10227710520E+03  0.50000000000E+02 0.  0.
<mgrwt>
<rscale>  0 0.52094537E+02</rscale>
<asrwt>0</asrwt>
<pdfrwt beam="1">  1       13 0.10000000E+01 0.52094537E+02</pdfrwt>
<pdfrwt beam="2">  1       22 0.18145893E+00 0.52094537E+02</pdfrwt>
<totfact> 0.54159465E-01</totfact>
</mgrwt>
</event>
<event>
 4    1  0.2437479E+000  0.5261432E+02  0.7957747E-01  0.1431730E+00
         13   -1    0    0    0    0  0.00000000000E+00  0.00000000000E+00  0.99999944175E+02  0.99999999995E+02  0.10566000000E+00 0. -1.
         22   -1    0    0    0    0 -0.00000000000E+00 -0.00000000000E+00 -0.25273709471E+02  0.25273709471E+02  0.00000000000E+00 0.  1.
         13    1    1    2    0    0  0.91180790777E+01  0.13606148004E+02 -0.14378299943E+02  0.21794799904E+02  0.10566000000E+00 0.  1.
        996    1    1    2    0    0 -0.91180790777E+01 -0.13606148004E+02  0.89104534647E+02  0.10347890956E+03  0.50000000000E+02 0.  0.
<mgrwt>
<rscale>  0 0.52614320E+02</rscale>
<asrwt>0</asrwt>
<pdfrwt beam="1">  1       13 0.10000000E+01 0.52614320E+02</pdfrwt>
<pdfrwt beam="2">  1       22 0.25273730E+00 0.52614320E+02</pdfrwt>
<totfact> 0.28881882E-01</totfact>
</mgrwt>
</event>
<event>
 4    1  0.2437479E+000  0.5374063E+02  0.7957747E-01  0.1426150E+00
         13   -1    0    0    0    0  0.00000000000E+00  0.00000000000E+00  0.99999944187E+02  0.10000000001E+03  0.10566000000E+00 0.  1.
         22   -1    0    0    0    0 -0.00000000000E+00 -0.00000000000E+00 -0.56890156706E+02  0.56890156706E+02  0.00000000000E+00 0. -1.
         13    1    1    2    0    0 -0.11188371054E+02 -0.16213447292E+02 -0.47566869083E+02  0.51484694019E+02  0.10566000000E+00 0. -1.
        996    1    1    2    0    0  0.11188371054E+02  0.16213447292E+02  0.90676656564E+02  0.10540546269E+03  0.50000000000E+02 0.  0.
<mgrwt>
<rscale>  0 0.53740632E+02</rscale>
<asrwt>0</asrwt>
<pdfrwt beam="1">  1       13 0.10000000E+01 0.53740632E+02</pdfrwt>
<pdfrwt beam="2">  1       22 0.56890169E+00 0.53740632E+02</pdfrwt>
<totfact> 0.57876334E-02</totfact>
</mgrwt>
</event>
<event>
 4    1  0.2437479E+000  0.5234769E+02  0.7957747E-01  0.1433075E+00
         13   -1    0    0    0    0  0.00000000000E+00  0.00000000000E+00  0.99999944177E+02  0.99999999998E+02  0.10566000000E+00 0.  1.
         22   -1    0    0    0    0 -0.00000000000E+00 -0.00000000000E+00 -0.44833979276E+02  0.44833979276E+02  0.00000000000E+00 0. -1.
         13    1    1    2    0    0 -0.70785256271E+01 -0.13790395177E+02 -0.36286716432E+02  0.39459060780E+02  0.10566000000E+00 0. -1.
        996    1    1    2    0    0  0.70785256271E+01  0.13790395177E+02  0.91452681334E+02  0.10537491849E+03  0.50000000000E+02 0.  0.
<mgrwt>
<rscale>  0 0.52347689E+02</rscale>
<asrwt>0</asrwt>
<pdfrwt beam="1">  1       13 0.10000000E+01 0.52347689E+02</pdfrwt>
<pdfrwt beam="2">  1       22 0.44833995E+00 0.52347689E+02</pdfrwt>
<totfact> 0.97476619E-02</totfact>
</mgrwt>
</event>
<event>
 4    1  0.2437479E+000  0.5730978E+02  0.7957747E-01  0.1409481E+00
         13   -1    0    0    0    0  0.00000000000E+00  0.00000000000E+00  0.99999944181E+02  0.10000000000E+03  0.10566000000E+00 0.  1.
         22   -1    0    0    0    0 -0.00000000000E+00 -0.00000000000E+00 -0.28554618727E+02  0.28554618727E+02  0.00000000000E+00 0. -1.
         13    1    1    2    0    0  0.15318614329E+02 -0.23446758327E+02 -0.93240105554E+01  0.29518786524E+02  0.10566000000E+00 0. -1.
        996    1    1    2    0    0 -0.15318614329E+02  0.23446758327E+02  0.80769336009E+02  0.99035832204E+02  0.50000000000E+02 0.  0.
<mgrwt>
<rscale>  0 0.57309776E+02</rscale>
<asrwt>0</asrwt>
<pdfrwt beam="1">  1       13 0.10000000E+01 0.57309776E+02</pdfrwt>
<pdfrwt beam="2">  1       22 0.28554639E+00 0.57309776E+02</pdfrwt>
<totfact> 0.22895218E-01</totfact>
</mgrwt>
</event>
<event>
 4    1  0.2437479E+000  0.5329056E+02  0.7957747E-01  0.1428360E+00
         13   -1    0    0    0    0  0.00000000000E+00  0.00000000000E+00  0.99999944181E+02  0.10000000000E+03  0.10566000000E+00 0. -1.
         22   -1    0    0    0    0 -0.00000000000E+00 -0.00000000000E+00 -0.16917864731E+02  0.16917864731E+02  0.00000000000E+00 0.  1.
         13    1    1    2    0    0 -0.17012015361E+02  0.71045723661E+01  0.26681868551E+00  0.18438166162E+02  0.10566000000E+00 0.  1.
        996    1    1    2    0    0  0.17012015361E+02 -0.71045723661E+01  0.82815260764E+02  0.98479698570E+02  0.50000000000E+02 0.  0.
<mgrwt>
<rscale>  0 0.53290558E+02</rscale>
<asrwt>0</asrwt>
<pdfrwt beam="1">  1       13 0.10000000E+01 0.53290558E+02</pdfrwt>
<pdfrwt beam="2">  1       22 0.16917888E+00 0.53290558E+02</pdfrwt>
<totfact> 0.61467939E-01</totfact>
</mgrwt>
</event>
<event>
 4    1  0.2437479E+000  0.5175830E+02  0.7957747E-01  0.1436082E+00
         13   -1    0    0    0    0  0.00000000000E+00  0.00000000000E+00  0.99999944172E+02  0.99999999992E+02  0.10566000000E+00 0. -1.
         22   -1    0    0    0    0 -0.00000000000E+00 -0.00000000000E+00 -0.18972328254E+02  0.18972328254E+02  0.00000000000E+00 0.  1.
         13    1    1    2    0    0  0.78724959052E+01  0.10814126198E+02 -0.82933097159E+01  0.15738858513E+02  0.10566000000E+00 0.  1.
        996    1    1    2    0    0 -0.78724959052E+01 -0.10814126198E+02  0.89320925633E+02  0.10323346973E+03  0.50000000000E+02 0.  0.
<mgrwt>
<rscale>  0 0.51758299E+02</rscale>
<asrwt>0</asrwt>
<pdfrwt beam="1">  1       13 0.10000000E+01 0.51758299E+02</pdfrwt>
<pdfrwt beam="2">  1       22 0.18972351E+00 0.51758299E+02</pdfrwt>
<totfact> 0.49924103E-01</totfact>
</mgrwt>
</event>
<event>
 4    1  0.2437479E+000  0.5646927E+02  0.7957747E-01  0.1413276E+00
         13   -1    0    0    0    0  0.00000000000E+00  0.00000000000E+00  0.99999944174E+02  0.99999999994E+02  0.10566000000E+00 0.  1.
         22   -1    0    0    0    0 -0.00000000000E+00 -0.00000000000E+00 -0.58419298326E+02  0.58419298326E+02  0.00000000000E+00 0. -1.
         13    1    1    2    0    0 -0.20096781110E+01 -0.26167528718E+02 -0.46731309779E+02  0.53596686866E+02  0.10566000000E+00 0. -1.
        996    1    1    2    0    0  0.20096781110E+01  0.26167528718E+02  0.88311955627E+02  0.10482261145E+03  0.50000000000E+02 0.  0.
<mgrwt>
<rscale>  0 0.56469269E+02</rscale>
<asrwt>0</asrwt>
<pdfrwt beam="1">  1       13 0.10000000E+01 0.56469269E+02</pdfrwt>
<pdfrwt beam="2">  1       22 0.58419310E+00 0.56469269E+02</pdfrwt>
<totfact> 0.59086699E-02</totfact>
</mgrwt>
</event>
<event>
 4    1  0.2437479E+000  0.5174749E+02  0.7957747E-01  0.1436138E+00
         13   -1    0    0    0    0  0.00000000000E+00  0.00000000000E+00  0.99999944187E+02  0.10000000001E+03  0.10566000000E+00 0. -1.
         22   -1    0    0    0    0 -0.00000000000E+00 -0.00000000000E+00 -0.14580255387E+02  0.14580255387E+02  0.00000000000E+00 0.  1.
         13    1    1    2    0    0 -0.13252975758E+02 -0.14702094636E+01 -0.15041018965E+01  0.13419253663E+02  0.10566000000E+00 0.  1.
        996    1    1    2    0    0  0.13252975758E+02  0.14702094636E+01  0.86923790697E+02  0.10116100173E+03  0.50000000000E+02 0.  0.
<mgrwt>
<rscale>  0 0.51747492E+02</rscale>
<asrwt>0</asrwt>
<pdfrwt beam="1">  1       13 0.10000000E+01 0.51747492E+02</pdfrwt>
<pdfrwt beam="2">  1       22 0.14580279E+00 0.51747492E+02</pdfrwt>
<totfact> 0.78873780E-01</totfact>
</mgrwt>
</event>
<event>
 4    1  0.2437479E+000  0.5315152E+02  0.7957747E-01  0.1429048E+00
         13   -1    0    0    0    0  0.00000000000E+00  0.00000000000E+00  0.99999944178E+02  0.99999999998E+02  0.10566000000E+00 0.  1.
         22   -1    0    0    0    0 -0.00000000000E+00 -0.00000000000E+00 -0.19886748986E+02  0.19886748986E+02  0.00000000000E+00 0. -1.
         13    1    1    2    0    0  0.13410982246E+02 -0.12051104230E+02 -0.57315186566E+01  0.18919435195E+02  0.10566000000E+00 0. -1.
        996    1    1    2    0    0 -0.13410982246E+02  0.12051104230E+02  0.85844713849E+02  0.10096731379E+03  0.50000000000E+02 0.  0.
<mgrwt>
<rscale>  0 0.53151515E+02</rscale>
<asrwt>0</asrwt>
<pdfrwt beam="1">  1       13 0.10000000E+01 0.53151515E+02</pdfrwt>
<pdfrwt beam="2">  1       22 0.19886771E+00 0.53151515E+02</pdfrwt>
<totfact> 0.45883850E-01</totfact>
</mgrwt>
</event>
<event>
 4    1  0.2437479E+000  0.5310241E+02  0.7957747E-01  0.1429292E+00
         13   -1    0    0    0    0  0.00000000000E+00  0.00000000000E+00  0.99999944185E+02  0.10000000000E+03  0.10566000000E+00 0. -1.
         22   -1    0    0    0    0 -0.00000000000E+00 -0.00000000000E+00 -0.12677519801E+02  0.12677519801E+02  0.00000000000E+00 0. -1.
         13    1    1    2    0    0 -0.16092929195E+02  0.78027850223E+01  0.26013499361E+02  0.31568641675E+02  0.10566000000E+00 0.  1.
        996    1    1    2    0    0  0.16092929195E+02 -0.78027850223E+01  0.61308925023E+02  0.81108878131E+02  0.50000000000E+02 0.  0.
<mgrwt>
<rscale>  0 0.53102409E+02</rscale>
<asrwt>0</asrwt>
<pdfrwt beam="1">  1       13 0.10000000E+01 0.53102409E+02</pdfrwt>
<pdfrwt beam="2">  1       22 0.12677544E+00 0.53102409E+02</pdfrwt>
<totfact> 0.98976547E-01</totfact>
</mgrwt>
</event>
<event>
 4    1  0.2437479E+000  0.5390278E+02  0.7957747E-01  0.1425360E+00
         13   -1    0    0    0    0  0.00000000000E+00  0.00000000000E+00  0.99999944176E+02  0.99999999996E+02  0.10566000000E+00 0. -1.
         22   -1    0    0    0    0 -0.00000000000E+00 -0.00000000000E+00 -0.31356522999E+02  0.31356522999E+02  0.00000000000E+00 0. -1.
         13    1    1    2    0    0  0.52628786770E+01  0.19437394328E+02 -0.19503949494E+02  0.28034361062E+02  0.10566000000E+00 0.  1.
        996    1    1    2    0    0 -0.52628786770E+01 -0.19437394328E+02  0.88147370671E+02  0.10332216193E+03  0.50000000000E+02 0.  0.
<mgrwt>
<rscale>  0 0.53902785E+02</rscale>
<asrwt>0</asrwt>
<pdfrwt beam="1">  1       13 0.10000000E+01 0.53902785E+02</pdfrwt>
<pdfrwt beam="2">  1       22 0.31356542E+00 0.53902785E+02</pdfrwt>
<totfact> 0.19129004E-01</totfact>
</mgrwt>
</event>
<event>
 4    1  0.2437479E+000  0.6275537E+02  0.7957747E-01  0.1386619E+00
         13   -1    0    0    0    0  0.00000000000E+00  0.00000000000E+00  0.99999944190E+02  0.10000000001E+03  0.10566000000E+00 0. -1.
         22   -1    0    0    0    0 -0.00000000000E+00 -0.00000000000E+00 -0.52405369270E+02  0.52405369270E+02  0.00000000000E+00 0.  1.
         13    1    1    2    0    0 -0.29618962543E+02  0.23684459293E+02 -0.32991724050E+02  0.50266306548E+02  0.10566000000E+00 0.  1.
        996    1    1    2    0    0  0.29618962543E+02 -0.23684459293E+02  0.80586298970E+02  0.10213906273E+03  0.50000000000E+02 0.  0.
<mgrwt>
<rscale>  0 0.62755371E+02</rscale>
<asrwt>0</asrwt>
<pdfrwt beam="1">  1       13 0.10000000E+01 0.62755371E+02</pdfrwt>
<pdfrwt beam="2">  1       22 0.52405383E+00 0.62755371E+02</pdfrwt>
<totfact> 0.65226464E-02</totfact>
</mgrwt>
</event>
<event>
 4    1  0.2437479E+000  0.5145421E+02  0.7957747E-01  0.1437652E+00
         13   -1    0    0    0    0  0.00000000000E+00  0.00000000000E+00  0.99999944183E+02  0.10000000000E+03  0.10566000000E+00 0.  1.
         22   -1    0    0    0    0 -0.00000000000E+00 -0.00000000000E+00 -0.17312615534E+02  0.17312615534E+02  0.00000000000E+00 0. -1.
         13    1    1    2    0    0  0.13905154009E+01 -0.12066554562E+02 -0.69224037331E+01  0.13980919482E+02  0.10566000000E+00 0. -1.
        996    1    1    2    0    0 -0.13905154009E+01  0.12066554562E+02  0.89609732382E+02  0.10333169606E+03  0.50000000000E+02 0.  0.
<mgrwt>
<rscale>  0 0.51454206E+02</rscale>
<asrwt>0</asrwt>
<pdfrwt beam="1">  1       13 0.10000000E+01 0.51454206E+02</pdfrwt>
<pdfrwt beam="2">  1       22 0.17312639E+00 0.51454206E+02</pdfrwt>
<totfact> 0.58818894E-01</totfact>
</mgrwt>
</event>
<event>
 4    1  0.2437479E+000  0.5121245E+02  0.7957747E-01  0.1438910E+00
         13   -1    0    0    0    0  0.00000000000E+00  0.00000000000E+00  0.99999944179E+02  0.99999999999E+02  0.10566000000E+00 0. -1.
         22   -1    0    0    0    0 -0.00000000000E+00 -0.00000000000E+00 -0.11673474399E+02  0.11673474399E+02  0.00000000000E+00 0. -1.
         13    1    1    2    0    0  0.39275597131E+01  0.10358066201E+02  0.19386691457E+01  0.11246548929E+02  0.10566000000E+00 0.  1.
        996    1    1    2    0    0 -0.39275597131E+01 -0.10358066201E+02  0.86387800635E+02  0.10042692547E+03  0.50000000000E+02 0.  0.
<mgrwt>
<rscale>  0 0.51212452E+02</rscale>
<asrwt>0</asrwt>
<pdfrwt beam="1">  1       13 0.10000000E+01 0.51212452E+02</pdfrwt>
<pdfrwt beam="2">  1       22 0.11673499E+00 0.51212452E+02</pdfrwt>
<totfact> 0.11190802E+00</totfact>
</mgrwt>
</event>
<event>
 4    1  0.2437479E+000  0.5373900E+02  0.7957747E-01  0.1426158E+00
         13   -1    0    0    0    0  0.00000000000E+00  0.00000000000E+00  0.99999944180E+02  0.10000000000E+03  0.10566000000E+00 0. -1.
         22   -1    0    0    0    0 -0.00000000000E+00 -0.00000000000E+00 -0.23230829949E+02  0.23230829949E+02  0.00000000000E+00 0.  1.
         13    1    1    2    0    0 -0.22214085016E+01 -0.19569004422E+02 -0.92862228029E+01  0.21774427382E+02  0.10566000000E+00 0.  1.
        996    1    1    2    0    0  0.22214085016E+01  0.19569004422E+02  0.86055337034E+02  0.10145640257E+03  0.50000000000E+02 0.  0.
<mgrwt>
<rscale>  0 0.53739004E+02</rscale>
<asrwt>0</asrwt>
<pdfrwt beam="1">  1       13 0.10000000E+01 0.53739004E+02</pdfrwt>
<pdfrwt beam="2">  1       22 0.23230851E+00 0.53739004E+02</pdfrwt>
<totfact> 0.34134398E-01</totfact>
</mgrwt>
</event>
<event>
 4    1  0.2437479E+000  0.5113562E+02  0.7957747E-01  0.1439311E+00
         13   -1    0    0    0    0  0.00000000000E+00  0.00000000000E+00  0.99999944175E+02  0.99999999995E+02  0.10566000000E+00 0.  1.
         22   -1    0    0    0    0 -0.00000000000E+00 -0.00000000000E+00 -0.22220111402E+02  0.22220111402E+02  0.00000000000E+00 0. -1.
         13    1    1    2    0    0  0.10716323046E+02 -0.10761693759E+00 -0.13714638659E+02  0.17405563439E+02  0.10566000000E+00 0. -1.
        996    1    1    2    0    0 -0.10716323046E+02  0.10761693759E+00  0.91494471432E+02  0.10481454796E+03  0.50000000000E+02 0.  0.
<mgrwt>
<rscale>  0 0.51135615E+02</rscale>
<asrwt>0</asrwt>
<pdfrwt beam="1">  1       13 0.10000000E+01 0.51135615E+02</pdfrwt>
<pdfrwt beam="2">  1       22 0.22220133E+00 0.51135615E+02</pdfrwt>
<totfact> 0.37048252E-01</totfact>
</mgrwt>
</event>
<event>
 4    1  0.2437479E+000  0.6068971E+02  0.7957747E-01  0.1394960E+00
         13   -1    0    0    0    0  0.00000000000E+00  0.00000000000E+00  0.99999944171E+02  0.99999999991E+02  0.10566000000E+00 0. -1.
         22   -1    0    0    0    0 -0.00000000000E+00 -0.00000000000E+00 -0.27861233813E+02  0.27861233813E+02  0.00000000000E+00 0.  1.
         13    1    1    2    0    0 -0.20334932389E+02  0.27744037584E+02  0.10833366248E+01  0.34415488941E+02  0.10566000000E+00 0.  1.
        996    1    1    2    0    0  0.20334932389E+02 -0.27744037584E+02  0.71055373733E+02  0.93445744864E+02  0.50000000000E+02 0.  0.
<mgrwt>
<rscale>  0 0.60689712E+02</rscale>
<asrwt>0</asrwt>
<pdfrwt beam="1">  1       13 0.10000000E+01 0.60689712E+02</pdfrwt>
<pdfrwt beam="2">  1       22 0.27861254E+00 0.60689712E+02</pdfrwt>
<totfact> 0.24113430E-01</totfact>
</mgrwt>
</event>
<event>
 4    1  0.2437479E+000  0.5272154E+02  0.7957747E-01  0.1431192E+00
         13   -1    0    0    0    0  0.00000000000E+00  0.00000000000E+00  0.99999944180E+02  0.10000000000E+03  0.10566000000E+00 0. -1.
         22   -1    0    0    0    0 -0.00000000000E+00 -0.00000000000E+00 -0.13891085945E+02  0.13891085945E+02  0.00000000000E+00 0.  1.
         13    1    1    2    0    0  0.41782071805E+00  0.16714849719E+02  0.55567402771E+01  0.17619571556E+02  0.10566000000E+00 0.  1.
        996    1    1    2    0    0 -0.41782071805E+00 -0.16714849719E+02  0.80552117957E+02  0.96271514389E+02  0.50000000000E+02 0.  0.
<mgrwt>
<rscale>  0 0.52721540E+02</rscale>
<asrwt>0</asrwt>
<pdfrwt beam="1">  1       13 0.10000000E+01 0.52721540E+02</pdfrwt>
<pdfrwt beam="2">  1       22 0.13891110E+00 0.52721540E+02</pdfrwt>
<totfact> 0.85529188E-01</totfact>
</mgrwt>
</event>
<event>
 4    1  0.2437479E+000  0.6418941E+02  0.7957747E-01  0.1381047E+00
         13   -1    0    0    0    0  0.00000000000E+00  0.00000000000E+00  0.99999944180E+02  0.10000000000E+03  0.10566000000E+00 0.  1.
         22   -1    0    0    0    0 -0.00000000000E+00 -0.00000000000E+00 -0.59958120049E+02  0.59958120049E+02  0.00000000000E+00 0. -1.
         13    1    1    2    0    0 -0.27284484397E+02  0.29594548756E+02 -0.40409699489E+02  0.57037140372E+02  0.10566000000E+00 0. -1.
        996    1    1    2    0    0  0.27284484397E+02 -0.29594548756E+02  0.80451523620E+02  0.10292097968E+03  0.50000000000E+02 0.  0.
<mgrwt>
<rscale>  0 0.64189410E+02</rscale>
<asrwt>0</asrwt>
<pdfrwt beam="1">  1       13 0.10000000E+01 0.64189410E+02</pdfrwt>
<pdfrwt beam="2">  1       22 0.59958131E+00 0.64189410E+02</pdfrwt>
<totfact> 0.63514741E-02</totfact>
</mgrwt>
</event>
<event>
 4    1  0.2437479E+000  0.6337625E+02  0.7957747E-01  0.1384186E+00
         13   -1    0    0    0    0  0.00000000000E+00  0.00000000000E+00  0.99999944177E+02  0.99999999997E+02  0.10566000000E+00 0. -1.
         22   -1    0    0    0    0 -0.00000000000E+00 -0.00000000000E+00 -0.29528360048E+02  0.29528360048E+02  0.00000000000E+00 0.  1.
         13    1    1    2    0    0  0.33313909680E+02 -0.20167614286E+02  0.65053420715E+01  0.39482652946E+02  0.10566000000E+00 0.  1.
        996    1    1    2    0    0 -0.33313909680E+02  0.20167614286E+02  0.63966242057E+02  0.90045707100E+02  0.50000000000E+02 0.  0.
<mgrwt>
<rscale>  0 0.63376251E+02</rscale>
<asrwt>0</asrwt>
<pdfrwt beam="1">  1       13 0.10000000E+01 0.63376251E+02</pdfrwt>
<pdfrwt beam="2">  1       22 0.29528380E+00 0.63376251E+02</pdfrwt>
<totfact> 0.21623858E-01</totfact>
</mgrwt>
</event>
<event>
 4    1  0.2437479E+000  0.5176451E+02  0.7957747E-01  0.1436050E+00
         13   -1    0    0    0    0  0.00000000000E+00  0.00000000000E+00  0.99999944172E+02  0.99999999992E+02  0.10566000000E+00 0. -1.
         22   -1    0    0    0    0 -0.00000000000E+00 -0.00000000000E+00 -0.23683312710E+02  0.23683312710E+02  0.00000000000E+00 0.  1.
         13    1    1    2    0    0 -0.75149352130E+01  0.11094582954E+02 -0.14128338674E+02  0.19472676753E+02  0.10566000000E+00 0.  1.
        996    1    1    2    0    0  0.75149352130E+01 -0.11094582954E+02  0.90444970135E+02  0.10421063595E+03  0.50000000000E+02 0.  0.
<mgrwt>
<rscale>  0 0.51764505E+02</rscale>
<asrwt>0</asrwt>
<pdfrwt beam="1">  1       13 0.10000000E+01 0.51764505E+02</pdfrwt>
<pdfrwt beam="2">  1       22 0.23683334E+00 0.51764505E+02</pdfrwt>
<totfact> 0.32768077E-01</totfact>
</mgrwt>
</event>
<event>
 4    1  0.2437479E+000  0.6208545E+02  0.7957747E-01  0.1389283E+00
         13   -1    0    0    0    0  0.00000000000E+00  0.00000000000E+00  0.99999944186E+02  0.10000000001E+03  0.10566000000E+00 0. -1.
         22   -1    0    0    0    0 -0.00000000000E+00 -0.00000000000E+00 -0.49880059385E+02  0.49880059385E+02  0.00000000000E+00 0.  1.
         13    1    1    2    0    0  0.81304369332E+01  0.35895671580E+02 -0.30726485046E+02  0.47945086195E+02  0.10566000000E+00 0.  1.
        996    1    1    2    0    0 -0.81304369332E+01 -0.35895671580E+02  0.80846369847E+02  0.10193497320E+03  0.50000000000E+02 0.  0.
<mgrwt>
<rscale>  0 0.62085451E+02</rscale>
<asrwt>0</asrwt>
<pdfrwt beam="1">  1       13 0.10000000E+01 0.62085451E+02</pdfrwt>
<pdfrwt beam="2">  1       22 0.49880073E+00 0.62085451E+02</pdfrwt>
<totfact> 0.74410588E-02</totfact>
</mgrwt>
</event>
<event>
 4    1  0.2437479E+000  0.5162451E+02  0.7957747E-01  0.1436771E+00
         13   -1    0    0    0    0  0.00000000000E+00  0.00000000000E+00  0.99999944176E+02  0.99999999996E+02  0.10566000000E+00 0.  1.
         22   -1    0    0    0    0 -0.00000000000E+00 -0.00000000000E+00 -0.11522509368E+02  0.11522509368E+02  0.00000000000E+00 0.  1.
         13    1    1    2    0    0 -0.10841981352E+02 -0.68950691369E+01  0.59068944375E+01  0.14141891810E+02  0.10566000000E+00 0. -1.
        996    1    1    2    0    0  0.10841981352E+02  0.68950691369E+01  0.82570540371E+02  0.97380617554E+02  0.50000000000E+02 0.  0.
<mgrwt>
<rscale>  0 0.51624515E+02</rscale>
<asrwt>0</asrwt>
<pdfrwt beam="1">  1       13 0.10000000E+01 0.51624515E+02</pdfrwt>
<pdfrwt beam="2">  1       22 0.11522534E+00 0.51624515E+02</pdfrwt>
<totfact> 0.11424022E+00</totfact>
</mgrwt>
</event>
<event>
 4    1  0.2437479E+000  0.5997568E+02  0.7957747E-01  0.1397934E+00
         13   -1    0    0    0    0  0.00000000000E+00  0.00000000000E+00  0.99999944171E+02  0.99999999991E+02  0.10566000000E+00 0. -1.
         22   -1    0    0    0    0 -0.00000000000E+00 -0.00000000000E+00 -0.60581928090E+02  0.60581928090E+02  0.00000000000E+00 0.  1.
         13    1    1    2    0    0  0.33091830135E+02 -0.14186126143E+01 -0.45709387292E+02  0.56448568929E+02  0.10566000000E+00 0.  1.
        996    1    1    2    0    0 -0.33091830135E+02  0.14186126143E+01  0.85127403373E+02  0.10413335915E+03  0.50000000000E+02 0.  0.
<mgrwt>
<rscale>  0 0.59975676E+02</rscale>
<asrwt>0</asrwt>
<pdfrwt beam="1">  1       13 0.10000000E+01 0.59975676E+02</pdfrwt>
<pdfrwt beam="2">  1       22 0.60581939E+00 0.59975676E+02</pdfrwt>
<totfact> 0.65859343E-02</totfact>
</mgrwt>
</event>
<event>
 4    1  0.2437479E+000  0.5149465E+02  0.7957747E-01  0.1437443E+00
         13   -1    0    0    0    0  0.00000000000E+00  0.00000000000E+00  0.99999944176E+02  0.99999999996E+02  0.10566000000E+00 0.  1.
         22   -1    0    0    0    0 -0.00000000000E+00 -0.00000000000E+00 -0.37143607619E+02  0.37143607619E+02  0.00000000000E+00 0.  1.
         13    1    1    2    0    0  0.48738451928E+01 -0.11311260124E+02 -0.29184362530E+02  0.31677076141E+02  0.10566000000E+00 0.  1.
        996    1    1    2    0    0 -0.48738451928E+01  0.11311260124E+02  0.92040699087E+02  0.10546653147E+03  0.50000000000E+02 0.  0.
<mgrwt>
<rscale>  0 0.51494650E+02</rscale>
<asrwt>0</asrwt>
<pdfrwt beam="1">  1       13 0.10000000E+01 0.51494650E+02</pdfrwt>
<pdfrwt beam="2">  1       22 0.37143625E+00 0.51494650E+02</pdfrwt>
<totfact> 0.14152499E-01</totfact>
</mgrwt>
</event>
<event>
 4    1  0.2437479E+000  0.5834050E+02  0.7957747E-01  0.1404931E+00
         13   -1    0    0    0    0  0.00000000000E+00  0.00000000000E+00  0.99999944176E+02  0.99999999996E+02  0.10566000000E+00 0. -1.
         22   -1    0    0    0    0 -0.00000000000E+00 -0.00000000000E+00 -0.71413578693E+02  0.71413578693E+02  0.00000000000E+00 0.  1.
         13    1    1    2    0    0  0.29921977342E+02 -0.28791050899E+01 -0.58976393092E+02  0.66195468730E+02  0.10566000000E+00 0.  1.
        996    1    1    2    0    0 -0.29921977342E+02  0.28791050899E+01  0.87562758575E+02  0.10521810996E+03  0.50000000000E+02 0.  0.
<mgrwt>
<rscale>  0 0.58340500E+02</rscale>
<asrwt>0</asrwt>
<pdfrwt beam="1">  1       13 0.10000000E+01 0.58340500E+02</pdfrwt>
<pdfrwt beam="2">  1       22 0.71413587E+00 0.58340500E+02</pdfrwt>
<totfact> 0.67192269E-02</totfact>
</mgrwt>
</event>
<event>
 4    1  0.2437479E+000  0.5370391E+02  0.7957747E-01  0.1426330E+00
         13   -1    0    0    0    0  0.00000000000E+00  0.00000000000E+00  0.99999944177E+02  0.99999999997E+02  0.10566000000E+00 0.  1.
         22   -1    0    0    0    0 -0.00000000000E+00 -0.00000000000E+00 -0.13469447808E+02  0.13469447808E+02  0.00000000000E+00 0.  1.
         13    1    1    2    0    0  0.11311656131E+02  0.16004874516E+02  0.20585908946E+02  0.28423588512E+02  0.10566000000E+00 0. -1.
        996    1    1    2    0    0 -0.11311656131E+02 -0.16004874516E+02  0.65944587423E+02  0.85045859294E+02  0.50000000000E+02 0.  0.
<mgrwt>
<rscale>  0 0.53703906E+02</rscale>
<asrwt>0</asrwt>
<pdfrwt beam="1">  1       13 0.10000000E+01 0.53703906E+02</pdfrwt>
<pdfrwt beam="2">  1       22 0.13469472E+00 0.53703906E+02</pdfrwt>
<totfact> 0.90055185E-01</totfact>
</mgrwt>
</event>
<event>
 4    1  0.2437479E+000  0.5111923E+02  0.7957747E-01  0.1439397E+00
         13   -1    0    0    0    0  0.00000000000E+00  0.00000000000E+00  0.99999944180E+02  0.10000000000E+03  0.10566000000E+00 0.  1.
         22   -1    0    0    0    0 -0.00000000000E+00 -0.00000000000E+00 -0.11315768205E+02  0.11315768205E+02  0.00000000000E+00 0. -1.
         13    1    1    2    0    0 -0.11183529088E+01  0.10579448900E+02  0.22161324782E+01  0.10867283904E+02  0.10566000000E+00 0. -1.
        996    1    1    2    0    0  0.11183529088E+01 -0.10579448900E+02  0.86468043497E+02  0.10044848430E+03  0.50000000000E+02 0.  0.
<mgrwt>
<rscale>  0 0.51119228E+02</rscale>
<asrwt>0</asrwt>
<pdfrwt beam="1">  1       13 0.10000000E+01 0.51119228E+02</pdfrwt>
<pdfrwt beam="2">  1       22 0.11315793E+00 0.51119228E+02</pdfrwt>
<totfact> 0.11725815E+00</totfact>
</mgrwt>
</event>
<event>
 4    1  0.2437479E+000  0.5133989E+02  0.7957747E-01  0.1438246E+00
         13   -1    0    0    0    0  0.00000000000E+00  0.00000000000E+00  0.99999944176E+02  0.99999999996E+02  0.10566000000E+00 0.  1.
         22   -1    0    0    0    0 -0.00000000000E+00 -0.00000000000E+00 -0.12041005418E+02  0.12041005418E+02  0.00000000000E+00 0.  1.
         13    1    1    2    0    0  0.11645561872E+02  0.40679562669E+00  0.18648603968E+01  0.11801417810E+02  0.10566000000E+00 0. -1.
        996    1    1    2    0    0 -0.11645561872E+02 -0.40679562669E+00  0.86094078361E+02  0.10023958760E+03  0.50000000000E+02 0.  0.
<mgrwt>
<rscale>  0 0.51339893E+02</rscale>
<asrwt>0</asrwt>
<pdfrwt beam="1">  1       13 0.10000000E+01 0.51339893E+02</pdfrwt>
<pdfrwt beam="2">  1       22 0.12041030E+00 0.51339893E+02</pdfrwt>
<totfact> 0.10677491E+00</totfact>
</mgrwt>
</event>
<event>
 4    1  0.2437479E+000  0.6242520E+02  0.7957747E-01  0.1387927E+00
         13   -1    0    0    0    0  0.00000000000E+00  0.00000000000E+00  0.99999944171E+02  0.99999999991E+02  0.10566000000E+00 0. -1.
         22   -1    0    0    0    0 -0.00000000000E+00 -0.00000000000E+00 -0.33665361391E+02  0.33665361391E+02  0.00000000000E+00 0.  1.
         13    1    1    2    0    0 -0.30512524831E+02  0.21584515804E+02 -0.62876847332E+01  0.37900549302E+02  0.10566000000E+00 0.  1.
        996    1    1    2    0    0  0.30512524831E+02 -0.21584515804E+02  0.72622267513E+02  0.95764812080E+02  0.50000000000E+02 0.  0.
<mgrwt>
<rscale>  0 0.62425199E+02</rscale>
<asrwt>0</asrwt>
<pdfrwt beam="1">  1       13 0.10000000E+01 0.62425199E+02</pdfrwt>
<pdfrwt beam="2">  1       22 0.33665380E+00 0.62425199E+02</pdfrwt>
<totfact> 0.16996096E-01</totfact>
</mgrwt>
</event>
<event>
 4    1  0.2437479E+000  0.5605196E+02  0.7957747E-01  0.1415189E+00
         13   -1    0    0    0    0  0.00000000000E+00  0.00000000000E+00  0.99999944185E+02  0.10000000001E+03  0.10566000000E+00 0.  1.
         22   -1    0    0    0    0 -0.00000000000E+00 -0.00000000000E+00 -0.17709524357E+02  0.17709524357E+02  0.00000000000E+00 0. -1.
         13    1    1    2    0    0  0.14196351889E+02 -0.20982987902E+02  0.40588800993E+02  0.47846464010E+02  0.10566000000E+00 0. -1.
        996    1    1    2    0    0 -0.14196351889E+02  0.20982987902E+02  0.41701618836E+02  0.69863060352E+02  0.50000000000E+02 0.  0.
<mgrwt>
<rscale>  0 0.56051960E+02</rscale>
<asrwt>0</asrwt>
<pdfrwt beam="1">  1       13 0.10000000E+01 0.56051960E+02</pdfrwt>
<pdfrwt beam="2">  1       22 0.17709547E+00 0.56051960E+02</pdfrwt>
<totfact> 0.56981306E-01</totfact>
</mgrwt>
</event>
<event>
 4    1  0.2437479E+000  0.5112456E+02  0.7957747E-01  0.1439369E+00
         13   -1    0    0    0    0  0.00000000000E+00  0.00000000000E+00  0.99999944182E+02  0.10000000000E+03  0.10566000000E+00 0.  1.
         22   -1    0    0    0    0 -0.00000000000E+00 -0.00000000000E+00 -0.13977495831E+02  0.13977495831E+02  0.00000000000E+00 0.  1.
         13    1    1    2    0    0 -0.14058069016E+01  0.10570935681E+02 -0.32099357926E+01  0.11137137246E+02  0.10566000000E+00 0. -1.
        996    1    1    2    0    0  0.14058069016E+01 -0.10570935681E+02  0.89232384144E+02  0.10284035859E+03  0.50000000000E+02 0.  0.
<mgrwt>
<rscale>  0 0.51124563E+02</rscale>
<asrwt>0</asrwt>
<pdfrwt beam="1">  1       13 0.10000000E+01 0.51124563E+02</pdfrwt>
<pdfrwt beam="2">  1       22 0.13977520E+00 0.51124563E+02</pdfrwt>
<totfact> 0.84390718E-01</totfact>
</mgrwt>
</event>
<event>
 4    1  0.2437479E+000  0.5225578E+02  0.7957747E-01  0.1433541E+00
         13   -1    0    0    0    0  0.00000000000E+00  0.00000000000E+00  0.99999944176E+02  0.99999999996E+02  0.10566000000E+00 0.  1.
         22   -1    0    0    0    0 -0.00000000000E+00 -0.00000000000E+00 -0.11496358593E+02  0.11496358593E+02  0.00000000000E+00 0.  1.
         13    1    1    2    0    0 -0.15186922378E+02  0.15444590385E+00  0.15332550935E+02  0.21581583517E+02  0.10566000000E+00 0. -1.
        996    1    1    2    0    0  0.15186922378E+02 -0.15444590385E+00  0.73171034648E+02  0.89914775073E+02  0.50000000000E+02 0.  0.
<mgrwt>
<rscale>  0 0.52255779E+02</rscale>
<asrwt>0</asrwt>
<pdfrwt beam="1">  1       13 0.10000000E+01 0.52255779E+02</pdfrwt>
<pdfrwt beam="2">  1       22 0.11496383E+00 0.52255779E+02</pdfrwt>
<totfact> 0.11479722E+00</totfact>
</mgrwt>
</event>
<event>
 4    1  0.2437479E+000  0.5125513E+02  0.7957747E-01  0.1438687E+00
         13   -1    0    0    0    0  0.00000000000E+00  0.00000000000E+00  0.99999944174E+02  0.99999999994E+02  0.10566000000E+00 0.  1.
         22   -1    0    0    0    0 -0.00000000000E+00 -0.00000000000E+00 -0.37133940382E+02  0.37133940382E+02  0.00000000000E+00 0. -1.
         13    1    1    2    0    0  0.10300282113E+01  0.11226172428E+02 -0.29455202660E+02  0.31538992268E+02  0.10566000000E+00 0. -1.
        996    1    1    2    0    0 -0.10300282113E+01 -0.11226172428E+02  0.92321206451E+02  0.10559494811E+03  0.50000000000E+02 0.  0.
<mgrwt>
<rscale>  0 0.51255126E+02</rscale>
<asrwt>0</asrwt>
<pdfrwt beam="1">  1       13 0.10000000E+01 0.51255126E+02</pdfrwt>
<pdfrwt beam="2">  1       22 0.37133958E+00 0.51255126E+02</pdfrwt>
<totfact> 0.14155851E-01</totfact>
</mgrwt>
</event>
<event>
 4    1  0.2437479E+000  0.5255843E+02  0.7957747E-01  0.1432011E+00
         13   -1    0    0    0    0  0.00000000000E+00  0.00000000000E+00  0.99999944169E+02  0.99999999989E+02  0.10566000000E+00 0.  1.
         22   -1    0    0    0    0 -0.00000000000E+00 -0.00000000000E+00 -0.11821926915E+02  0.11821926915E+02  0.00000000000E+00 0.  1.
         13    1    1    2    0    0  0.13372802732E+02  0.91409283294E+01  0.20014681293E+02  0.25748535006E+02  0.10566000000E+00 0. -1.
        996    1    1    2    0    0 -0.13372802732E+02 -0.91409283294E+01  0.68163335961E+02  0.86073391898E+02  0.50000000000E+02 0.  0.
<mgrwt>
<rscale>  0 0.52558429E+02</rscale>
<asrwt>0</asrwt>
<pdfrwt beam="1">  1       13 0.10000000E+01 0.52558429E+02</pdfrwt>
<pdfrwt beam="2">  1       22 0.11821952E+00 0.52558429E+02</pdfrwt>
<totfact> 0.11011490E+00</totfact>
</mgrwt>
</event>
<event>
 4    1  0.2437479E+000  0.6868232E+02  0.7957747E-01  0.1364632E+00
         13   -1    0    0    0    0  0.00000000000E+00  0.00000000000E+00  0.99999944183E+02  0.10000000000E+03  0.10566000000E+00 0. -1.
         22   -1    0    0    0    0 -0.00000000000E+00 -0.00000000000E+00 -0.35922569944E+02  0.35922569944E+02  0.00000000000E+00 0. -1.
         13    1    1    2    0    0 -0.34598821494E+02  0.31940293821E+02  0.91289269929E+01  0.47964667103E+02  0.10566000000E+00 0.  1.
        996    1    1    2    0    0  0.34598821494E+02 -0.31940293821E+02  0.54948447245E+02  0.87957902845E+02  0.50000000000E+02 0.  0.
<mgrwt>
<rscale>  0 0.68682318E+02</rscale>
<asrwt>0</asrwt>
<pdfrwt beam="1">  1       13 0.10000000E+01 0.68682318E+02</pdfrwt>
<pdfrwt beam="2">  1       22 0.35922588E+00 0.68682318E+02</pdfrwt>
<totfact> 0.15231779E-01</totfact>
</mgrwt>
</event>
<event>
 4    1  0.2437479E+000  0.5189216E+02  0.7957747E-01  0.1435395E+00
         13   -1    0    0    0    0  0.00000000000E+00  0.00000000000E+00  0.99999944190E+02  0.10000000001E+03  0.10566000000E+00 0.  1.
         22   -1    0    0    0    0 -0.00000000000E+00 -0.00000000000E+00 -0.17555462247E+02  0.17555462247E+02  0.00000000000E+00 0.  1.
         13    1    1    2    0    0  0.19231281299E+01  0.13751302772E+02 -0.59087164756E+01  0.15090422265E+02  0.10566000000E+00 0. -1.
        996    1    1    2    0    0 -0.19231281299E+01 -0.13751302772E+02  0.88353198419E+02  0.10246503999E+03  0.50000000000E+02 0.  0.
<mgrwt>
<rscale>  0 0.51892165E+02</rscale>
<asrwt>0</asrwt>
<pdfrwt beam="1">  1       13 0.10000000E+01 0.51892165E+02</pdfrwt>
<pdfrwt beam="2">  1       22 0.17555485E+00 0.51892165E+02</pdfrwt>
<totfact> 0.57435009E-01</totfact>
</mgrwt>
</event>
<event>
 4    1  0.2437479E+000  0.5326271E+02  0.7957747E-01  0.1428498E+00
         13   -1    0    0    0    0  0.00000000000E+00  0.00000000000E+00  0.99999944186E+02  0.10000000001E+03  0.10566000000E+00 0.  1.
         22   -1    0    0    0    0 -0.00000000000E+00 -0.00000000000E+00 -0.12836691150E+02  0.12836691150E+02  0.00000000000E+00 0.  1.
         13    1    1    2    0    0 -0.17820820629E+02 -0.43971241222E+01  0.20749063347E+02  0.27702908552E+02  0.10566000000E+00 0. -1.
        996    1    1    2    0    0  0.17820820629E+02  0.43971241222E+01  0.66414189690E+02  0.85133782605E+02  0.50000000000E+02 0.  0.
<mgrwt>
<rscale>  0 0.53262711E+02</rscale>
<asrwt>0</asrwt>
<pdfrwt beam="1">  1       13 0.10000000E+01 0.53262711E+02</pdfrwt>
<pdfrwt beam="2">  1       22 0.12836715E+00 0.53262711E+02</pdfrwt>
<totfact> 0.97094718E-01</totfact>
</mgrwt>
</event>
<event>
 4    1  0.2437479E+000  0.5712545E+02  0.7957747E-01  0.1410307E+00
         13   -1    0    0    0    0  0.00000000000E+00  0.00000000000E+00  0.99999944180E+02  0.10000000000E+03  0.10566000000E+00 0. -1.
         22   -1    0    0    0    0 -0.00000000000E+00 -0.00000000000E+00 -0.22268834287E+02  0.22268834287E+02  0.00000000000E+00 0. -1.
         13    1    1    2    0    0 -0.26758814576E+02 -0.68762403828E+01  0.24071673333E+01  0.27733057133E+02  0.10566000000E+00 0.  1.
        996    1    1    2    0    0  0.26758814576E+02  0.68762403828E+01  0.75323942560E+02  0.94535777154E+02  0.50000000000E+02 0.  0.
<mgrwt>
<rscale>  0 0.57125448E+02</rscale>
<asrwt>0</asrwt>
<pdfrwt beam="1">  1       13 0.10000000E+01 0.57125448E+02</pdfrwt>
<pdfrwt beam="2">  1       22 0.22268856E+00 0.57125448E+02</pdfrwt>
<totfact> 0.37252788E-01</totfact>
</mgrwt>
</event>
<event>
 4    1  0.2437479E+000  0.5156093E+02  0.7957747E-01  0.1437100E+00
         13   -1    0    0    0    0  0.00000000000E+00  0.00000000000E+00  0.99999944182E+02  0.10000000000E+03  0.10566000000E+00 0.  1.
         22   -1    0    0    0    0 -0.00000000000E+00 -0.00000000000E+00 -0.15988144375E+02  0.15988144375E+02  0.00000000000E+00 0. -1.
         13    1    1    2    0    0  0.61454260348E+01  0.10989246240E+02 -0.46510758426E+01  0.13422870952E+02  0.10566000000E+00 0. -1.
        996    1    1    2    0    0 -0.61454260348E+01 -0.10989246240E+02  0.88662875650E+02  0.10256527342E+03  0.50000000000E+02 0.  0.
<mgrwt>
<rscale>  0 0.51560933E+02</rscale>
<asrwt>0</asrwt>
<pdfrwt beam="1">  1       13 0.10000000E+01 0.51560933E+02</pdfrwt>
<pdfrwt beam="2">  1       22 0.15988168E+00 0.51560933E+02</pdfrwt>
<totfact> 0.67551066E-01</totfact>
</mgrwt>
</event>
<event>
 4    1  0.2437479E+000  0.5173180E+02  0.7957747E-01  0.1436218E+00
         13   -1    0    0    0    0  0.00000000000E+00  0.00000000000E+00  0.99999944174E+02  0.99999999994E+02  0.10566000000E+00 0.  1.
         22   -1    0    0    0    0 -0.00000000000E+00 -0.00000000000E+00 -0.16545243549E+02  0.16545243549E+02  0.00000000000E+00 0. -1.
         13    1    1    2    0    0  0.11675974494E+02  0.63127764068E+01 -0.49089266097E+01  0.14152323160E+02  0.10566000000E+00 0. -1.
        996    1    1    2    0    0 -0.11675974494E+02 -0.63127764068E+01  0.88363627235E+02  0.10239292038E+03  0.50000000000E+02 0.  0.
<mgrwt>
<rscale>  0 0.51731804E+02</rscale>
<asrwt>0</asrwt>
<pdfrwt beam="1">  1       13 0.10000000E+01 0.51731804E+02</pdfrwt>
<pdfrwt beam="2">  1       22 0.16545267E+00 0.51731804E+02</pdfrwt>
<totfact> 0.63706528E-01</totfact>
</mgrwt>
</event>
<event>
 4    1  0.2437479E+000  0.5126265E+02  0.7957747E-01  0.1438648E+00
         13   -1    0    0    0    0  0.00000000000E+00  0.00000000000E+00  0.99999944178E+02  0.99999999998E+02  0.10566000000E+00 0. -1.
         22   -1    0    0    0    0 -0.00000000000E+00 -0.00000000000E+00 -0.17149004321E+02  0.17149004321E+02  0.00000000000E+00 0. -1.
         13    1    1    2    0    0  0.11258045048E+02  0.10560837085E+01 -0.72878637995E+01  0.13452992749E+02  0.10566000000E+00 0.  1.
        996    1    1    2    0    0 -0.11258045048E+02 -0.10560837085E+01  0.90138803656E+02  0.10369601157E+03  0.50000000000E+02 0.  0.
<mgrwt>
<rscale>  0 0.51262646E+02</rscale>
<asrwt>0</asrwt>
<pdfrwt beam="1">  1       13 0.10000000E+01 0.51262646E+02</pdfrwt>
<pdfrwt beam="2">  1       22 0.17149027E+00 0.51262646E+02</pdfrwt>
<totfact> 0.59788463E-01</totfact>
</mgrwt>
</event>
<event>
 4    1  0.2437479E+000  0.5311761E+02  0.7957747E-01  0.1429216E+00
         13   -1    0    0    0    0  0.00000000000E+00  0.00000000000E+00  0.99999944179E+02  0.10000000000E+03  0.10566000000E+00 0. -1.
         22   -1    0    0    0    0 -0.00000000000E+00 -0.00000000000E+00 -0.14073171926E+02  0.14073171926E+02  0.00000000000E+00 0. -1.
         13    1    1    2    0    0 -0.77806969976E+01  0.16153689434E+02  0.76927133480E+01  0.19510764485E+02  0.10566000000E+00 0.  1.
        996    1    1    2    0    0  0.77806969976E+01 -0.16153689434E+02  0.78234058906E+02  0.94562407440E+02  0.50000000000E+02 0.  0.
<mgrwt>
<rscale>  0 0.53117614E+02</rscale>
<asrwt>0</asrwt>
<pdfrwt beam="1">  1       13 0.10000000E+01 0.53117614E+02</pdfrwt>
<pdfrwt beam="2">  1       22 0.14073196E+00 0.53117614E+02</pdfrwt>
<totfact> 0.83811497E-01</totfact>
</mgrwt>
</event>
<event>
 4    1  0.2437479E+000  0.5521865E+02  0.7957747E-01  0.1419068E+00
         13   -1    0    0    0    0  0.00000000000E+00  0.00000000000E+00  0.99999944181E+02  0.10000000000E+03  0.10566000000E+00 0. -1.
         22   -1    0    0    0    0 -0.00000000000E+00 -0.00000000000E+00 -0.66037915442E+02  0.66037915442E+02  0.00000000000E+00 0.  1.
         13    1    1    2    0    0 -0.74199106616E+01 -0.22227114882E+02 -0.55873687780E+02  0.60588611639E+02  0.10566000000E+00 0.  1.
        996    1    1    2    0    0  0.74199106616E+01  0.22227114882E+02  0.89835716519E+02  0.10544930380E+03  0.50000000000E+02 0.  0.
<mgrwt>
<rscale>  0 0.55218654E+02</rscale>
<asrwt>0</asrwt>
<pdfrwt beam="1">  1       13 0.10000000E+01 0.55218654E+02</pdfrwt>
<pdfrwt beam="2">  1       22 0.66037925E+00 0.55218654E+02</pdfrwt>
<totfact> 0.87262627E-02</totfact>
</mgrwt>
</event>
<event>
 4    1  0.2437479E+000  0.5221732E+02  0.7957747E-01  0.1433736E+00
         13   -1    0    0    0    0  0.00000000000E+00  0.00000000000E+00  0.99999944182E+02  0.10000000000E+03  0.10566000000E+00 0. -1.
         22   -1    0    0    0    0 -0.00000000000E+00 -0.00000000000E+00 -0.14168748756E+02  0.14168748756E+02  0.00000000000E+00 0. -1.
         13    1    1    2    0    0  0.11706874853E+02  0.94655899693E+01  0.17011645225E+01  0.15151020991E+02  0.10566000000E+00 0.  1.
        996    1    1    2    0    0 -0.11706874853E+02 -0.94655899693E+01  0.84130030904E+02  0.99017727767E+02  0.50000000000E+02 0.  0.
<mgrwt>
<rscale>  0 0.52217318E+02</rscale>
<asrwt>0</asrwt>
<pdfrwt beam="1">  1       13 0.10000000E+01 0.52217318E+02</pdfrwt>
<pdfrwt beam="2">  1       22 0.14168773E+00 0.52217318E+02</pdfrwt>
<totfact> 0.82739763E-01</totfact>
</mgrwt>
</event>
<event>
 4    1  0.2437479E+000  0.5222897E+02  0.7957747E-01  0.1433677E+00
         13   -1    0    0    0    0  0.00000000000E+00  0.00000000000E+00  0.99999944174E+02  0.99999999994E+02  0.10566000000E+00 0.  1.
         22   -1    0    0    0    0 -0.00000000000E+00 -0.00000000000E+00 -0.12663050994E+02  0.12663050994E+02  0.00000000000E+00 0. -1.
         13    1    1    2    0    0 -0.77106876255E+01  0.12977310788E+02  0.65319965009E+01  0.16448204804E+02  0.10566000000E+00 0. -1.
        996    1    1    2    0    0  0.77106876255E+01 -0.12977310788E+02  0.80804896679E+02  0.96214846184E+02  0.50000000000E+02 0.  0.
<mgrwt>
<rscale>  0 0.52228970E+02</rscale>
<asrwt>0</asrwt>
<pdfrwt beam="1">  1       13 0.10000000E+01 0.52228970E+02</pdfrwt>
<pdfrwt beam="2">  1       22 0.12663075E+00 0.52228970E+02</pdfrwt>
<totfact> 0.98966492E-01</totfact>
</mgrwt>
</event>
<event>
 4    1  0.2437479E+000  0.5245181E+02  0.7957747E-01  0.1432549E+00
         13   -1    0    0    0    0  0.00000000000E+00  0.00000000000E+00  0.99999944178E+02  0.99999999998E+02  0.10566000000E+00 0.  1.
         22   -1    0    0    0    0 -0.00000000000E+00 -0.00000000000E+00 -0.11662614332E+02  0.11662614332E+02  0.00000000000E+00 0.  1.
         13    1    1    2    0    0 -0.60814233979E+01  0.14635863127E+02  0.20476634990E+02  0.25893936444E+02  0.10566000000E+00 0. -1.
        996    1    1    2    0    0  0.60814233979E+01 -0.14635863127E+02  0.67860694856E+02  0.85768677886E+02  0.50000000000E+02 0.  0.
<mgrwt>
<rscale>  0 0.52451808E+02</rscale>
<asrwt>0</asrwt>
<pdfrwt beam="1">  1       13 0.10000000E+01 0.52451808E+02</pdfrwt>
<pdfrwt beam="2">  1       22 0.11662639E+00 0.52451808E+02</pdfrwt>
<totfact> 0.11238129E+00</totfact>
</mgrwt>
</event>
<event>
 4    1  0.2437479E+000  0.5476536E+02  0.7957747E-01  0.1421212E+00
         13   -1    0    0    0    0  0.00000000000E+00  0.00000000000E+00  0.99999944174E+02  0.99999999994E+02  0.10566000000E+00 0.  1.
         22   -1    0    0    0    0 -0.00000000000E+00 -0.00000000000E+00 -0.14927536818E+02  0.14927536818E+02  0.00000000000E+00 0.  1.
         13    1    1    2    0    0 -0.18589106916E+02 -0.12397170928E+02  0.21340573107E+02  0.30897831113E+02  0.10566000000E+00 0. -1.
        996    1    1    2    0    0  0.18589106916E+02  0.12397170928E+02  0.63731834249E+02  0.84029705698E+02  0.50000000000E+02 0.  0.
<mgrwt>
<rscale>  0 0.54765361E+02</rscale>
<asrwt>0</asrwt>
<pdfrwt beam="1">  1       13 0.10000000E+01 0.54765361E+02</pdfrwt>
<pdfrwt beam="2">  1       22 0.14927561E+00 0.54765361E+02</pdfrwt>
<totfact> 0.76320369E-01</totfact>
</mgrwt>
</event>
<event>
 4    1  0.2437479E+000  0.5257760E+02  0.7957747E-01  0.1431915E+00
         13   -1    0    0    0    0  0.00000000000E+00  0.00000000000E+00  0.99999944178E+02  0.99999999998E+02  0.10566000000E+00 0. -1.
         22   -1    0    0    0    0 -0.00000000000E+00 -0.00000000000E+00 -0.14085584310E+02  0.14085584310E+02  0.00000000000E+00 0. -1.
         13    1    1    2    0    0 -0.15136751368E+02 -0.59399231278E+01  0.39939809862E+01  0.16744162472E+02  0.10566000000E+00 0.  1.
        996    1    1    2    0    0  0.15136751368E+02  0.59399231278E+01  0.81920378882E+02  0.97341421835E+02  0.50000000000E+02 0.  0.
<mgrwt>
<rscale>  0 0.52577599E+02</rscale>
<asrwt>0</asrwt>
<pdfrwt beam="1">  1       13 0.10000000E+01 0.52577599E+02</pdfrwt>
<pdfrwt beam="2">  1       22 0.14085608E+00 0.52577599E+02</pdfrwt>
<totfact> 0.83598424E-01</totfact>
</mgrwt>
</event>
<event>
 4    1  0.2437479E+000  0.7141201E+02  0.7957747E-01  0.1355356E+00
         13   -1    0    0    0    0  0.00000000000E+00  0.00000000000E+00  0.99999944179E+02  0.99999999999E+02  0.10566000000E+00 0. -1.
         22   -1    0    0    0    0 -0.00000000000E+00 -0.00000000000E+00 -0.42069187801E+02  0.42069187801E+02  0.00000000000E+00 0.  1.
         13    1    1    2    0    0 -0.41375243618E+02  0.29795374280E+02  0.14273968780E+01  0.51007094986E+02  0.10566000000E+00 0.  1.
        996    1    1    2    0    0  0.41375243618E+02 -0.29795374280E+02  0.56503359500E+02  0.91062092815E+02  0.50000000000E+02 0.  0.
<mgrwt>
<rscale>  0 0.71412010E+02</rscale>
<asrwt>0</asrwt>
<pdfrwt beam="1">  1       13 0.10000000E+01 0.71412010E+02</pdfrwt>
<pdfrwt beam="2">  1       22 0.42069204E+00 0.71412010E+02</pdfrwt>
<totfact> 0.11326961E-01</totfact>
</mgrwt>
</event>
<event>
 4    1  0.2437479E+000  0.5202349E+02  0.7957747E-01  0.1434723E+00
         13   -1    0    0    0    0  0.00000000000E+00  0.00000000000E+00  0.99999944173E+02  0.99999999993E+02  0.10566000000E+00 0.  1.
         22   -1    0    0    0    0 -0.00000000000E+00 -0.00000000000E+00 -0.45608258488E+02  0.45608258488E+02  0.00000000000E+00 0. -1.
         13    1    1    2    0    0 -0.14346100406E+02 -0.79546062143E+00 -0.37418903520E+02  0.40082775093E+02  0.10566000000E+00 0. -1.
        996    1    1    2    0    0  0.14346100406E+02  0.79546062143E+00  0.91810589204E+02  0.10552548339E+03  0.50000000000E+02 0.  0.
<mgrwt>
<rscale>  0 0.52023488E+02</rscale>
<asrwt>0</asrwt>
<pdfrwt beam="1">  1       13 0.10000000E+01 0.52023488E+02</pdfrwt>
<pdfrwt beam="2">  1       22 0.45608274E+00 0.52023488E+02</pdfrwt>
<totfact> 0.93592473E-02</totfact>
</mgrwt>
</event>
<event>
 4    1  0.2437479E+000  0.5291173E+02  0.7957747E-01  0.1430241E+00
         13   -1    0    0    0    0  0.00000000000E+00  0.00000000000E+00  0.99999944178E+02  0.99999999998E+02  0.10566000000E+00 0. -1.
         22   -1    0    0    0    0 -0.00000000000E+00 -0.00000000000E+00 -0.12683296418E+02  0.12683296418E+02  0.00000000000E+00 0. -1.
         13    1    1    2    0    0 -0.14311270765E+02  0.97385138458E+01  0.13976891102E+02  0.22248949902E+02  0.10566000000E+00 0.  1.
        996    1    1    2    0    0  0.14311270765E+02 -0.97385138458E+01  0.73339756657E+02  0.90434346514E+02  0.50000000000E+02 0.  0.
<mgrwt>
<rscale>  0 0.52911730E+02</rscale>
<asrwt>0</asrwt>
<pdfrwt beam="1">  1       13 0.10000000E+01 0.52911730E+02</pdfrwt>
<pdfrwt beam="2">  1       22 0.12683321E+00 0.52911730E+02</pdfrwt>
<totfact> 0.98865743E-01</totfact>
</mgrwt>
</event>
<event>
 4    1  0.2437479E+000  0.6058962E+02  0.7957747E-01  0.1395374E+00
         13   -1    0    0    0    0  0.00000000000E+00  0.00000000000E+00  0.99999944175E+02  0.99999999995E+02  0.10566000000E+00 0.  1.
         22   -1    0    0    0    0 -0.00000000000E+00 -0.00000000000E+00 -0.38959430727E+02  0.38959430727E+02  0.00000000000E+00 0. -1.
         13    1    1    2    0    0 -0.24727962315E+02  0.23656490108E+02 -0.18553859904E+02  0.38927606217E+02  0.10566000000E+00 0. -1.
        996    1    1    2    0    0  0.24727962315E+02 -0.23656490108E+02  0.79594373352E+02  0.10003182450E+03  0.50000000000E+02 0.  0.
<mgrwt>
<rscale>  0 0.60589617E+02</rscale>
<asrwt>0</asrwt>
<pdfrwt beam="1">  1       13 0.10000000E+01 0.60589617E+02</pdfrwt>
<pdfrwt beam="2">  1       22 0.38959448E+00 0.60589617E+02</pdfrwt>
<totfact> 0.13078130E-01</totfact>
</mgrwt>
</event>
<event>
 4    1  0.2437479E+000  0.5145318E+02  0.7957747E-01  0.1437657E+00
         13   -1    0    0    0    0  0.00000000000E+00  0.00000000000E+00  0.99999944182E+02  0.10000000000E+03  0.10566000000E+00 0.  1.
         22   -1    0    0    0    0 -0.00000000000E+00 -0.00000000000E+00 -0.36342552352E+02  0.36342552352E+02  0.00000000000E+00 0. -1.
         13    1    1    2    0    0 -0.10960548614E+02 -0.52245770129E+01 -0.28397090312E+02  0.30884231140E+02  0.10566000000E+00 0. -1.
        996    1    1    2    0    0  0.10960548614E+02  0.52245770129E+01  0.92054482142E+02  0.10545832121E+03  0.50000000000E+02 0.  0.
<mgrwt>
<rscale>  0 0.51453181E+02</rscale>
<asrwt>0</asrwt>
<pdfrwt beam="1">  1       13 0.10000000E+01 0.51453181E+02</pdfrwt>
<pdfrwt beam="2">  1       22 0.36342570E+00 0.51453181E+02</pdfrwt>
<totfact> 0.14706233E-01</totfact>
</mgrwt>
</event>
<event>
 4    1  0.2437479E+000  0.5542297E+02  0.7957747E-01  0.1418109E+00
         13   -1    0    0    0    0  0.00000000000E+00  0.00000000000E+00  0.99999944171E+02  0.99999999991E+02  0.10566000000E+00 0. -1.
         22   -1    0    0    0    0 -0.00000000000E+00 -0.00000000000E+00 -0.52844796090E+02  0.52844796090E+02  0.00000000000E+00 0.  1.
         13    1    1    2    0    0  0.11081837514E+02 -0.21187228666E+02 -0.41730796064E+02  0.48095491321E+02  0.10566000000E+00 0.  1.
        996    1    1    2    0    0 -0.11081837514E+02  0.21187228666E+02  0.88885944145E+02  0.10474930476E+03  0.50000000000E+02 0.  0.
<mgrwt>
<rscale>  0 0.55422972E+02</rscale>
<asrwt>0</asrwt>
<pdfrwt beam="1">  1       13 0.10000000E+01 0.55422972E+02</pdfrwt>
<pdfrwt beam="2">  1       22 0.52844809E+00 0.55422972E+02</pdfrwt>
<totfact> 0.63684407E-02</totfact>
</mgrwt>
</event>
<event>
 4    1  0.2437479E+000  0.6895144E+02  0.7957747E-01  0.1363695E+00
         13   -1    0    0    0    0  0.00000000000E+00  0.00000000000E+00  0.99999944178E+02  0.99999999998E+02  0.10566000000E+00 0. -1.
         22   -1    0    0    0    0 -0.00000000000E+00 -0.00000000000E+00 -0.36590880131E+02  0.36590880131E+02  0.00000000000E+00 0. -1.
         13    1    1    2    0    0  0.12945353753E+01 -0.47461825538E+02  0.44547971801E+02  0.65106325813E+02  0.10566000000E+00 0.  1.
        996    1    1    2    0    0 -0.12945353753E+01  0.47461825538E+02  0.18861092245E+02  0.71484554317E+02  0.50000000000E+02 0.  0.
<mgrwt>
<rscale>  0 0.68951437E+02</rscale>
<asrwt>0</asrwt>
<pdfrwt beam="1">  1       13 0.10000000E+01 0.68951437E+02</pdfrwt>
<pdfrwt beam="2">  1       22 0.36590898E+00 0.68951437E+02</pdfrwt>
<totfact> 0.14742408E-01</totfact>
</mgrwt>
</event>
<event>
 4    1  0.2437479E+000  0.5261768E+02  0.7957747E-01  0.1431713E+00
         13   -1    0    0    0    0  0.00000000000E+00  0.00000000000E+00  0.99999944172E+02  0.99999999992E+02  0.10566000000E+00 0.  1.
         22   -1    0    0    0    0 -0.00000000000E+00 -0.00000000000E+00 -0.56357108076E+02  0.56357108076E+02  0.00000000000E+00 0. -1.
         13    1    1    2    0    0 -0.78971001143E+01  0.14361631500E+02 -0.47978947497E+02  0.50701195415E+02  0.10566000000E+00 0. -1.
        996    1    1    2    0    0  0.78971001143E+01 -0.14361631500E+02  0.91621783594E+02  0.10565591265E+03  0.50000000000E+02 0.  0.
<mgrwt>
<rscale>  0 0.52617684E+02</rscale>
<asrwt>0</asrwt>
<pdfrwt beam="1">  1       13 0.10000000E+01 0.52617684E+02</pdfrwt>
<pdfrwt beam="2">  1       22 0.56357120E+00 0.52617684E+02</pdfrwt>
<totfact> 0.58163619E-02</totfact>
</mgrwt>
</event>
<event>
 4    1  0.2437479E+000  0.5284018E+02  0.7957747E-01  0.1430598E+00
         13   -1    0    0    0    0  0.00000000000E+00  0.00000000000E+00  0.99999944180E+02  0.10000000000E+03  0.10566000000E+00 0. -1.
         22   -1    0    0    0    0 -0.00000000000E+00 -0.00000000000E+00 -0.24096926298E+02  0.24096926298E+02  0.00000000000E+00 0. -1.
         13    1    1    2    0    0  0.10283478685E+02  0.13650432811E+02 -0.12452762000E+02  0.21146316352E+02  0.10566000000E+00 0.  1.
        996    1    1    2    0    0 -0.10283478685E+02 -0.13650432811E+02  0.88355779882E+02  0.10295060995E+03  0.50000000000E+02 0.  0.
<mgrwt>
<rscale>  0 0.52840176E+02</rscale>
<asrwt>0</asrwt>
<pdfrwt beam="1">  1       13 0.10000000E+01 0.52840176E+02</pdfrwt>
<pdfrwt beam="2">  1       22 0.24096947E+00 0.52840176E+02</pdfrwt>
<totfact> 0.31730908E-01</totfact>
</mgrwt>
</event>
<event>
 4    1  0.2437479E+000  0.5375644E+02  0.7957747E-01  0.1426073E+00
         13   -1    0    0    0    0  0.00000000000E+00  0.00000000000E+00  0.99999944173E+02  0.99999999994E+02  0.10566000000E+00 0.  1.
         22   -1    0    0    0    0 -0.00000000000E+00 -0.00000000000E+00 -0.14195378638E+02  0.14195378638E+02  0.00000000000E+00 0.  1.
         13    1    1    2    0    0 -0.73174474397E+01 -0.18336021289E+02  0.12778884264E+02  0.23517350208E+02  0.10566000000E+00 0. -1.
        996    1    1    2    0    0  0.73174474397E+01  0.18336021289E+02  0.73025681271E+02  0.90678028424E+02  0.50000000000E+02 0.  0.
<mgrwt>
<rscale>  0 0.53756439E+02</rscale>
<asrwt>0</asrwt>
<pdfrwt beam="1">  1       13 0.10000000E+01 0.53756439E+02</pdfrwt>
<pdfrwt beam="2">  1       22 0.14195403E+00 0.53756439E+02</pdfrwt>
<totfact> 0.82747549E-01</totfact>
</mgrwt>
</event>
<event>
 4    1  0.2437479E+000  0.5508731E+02  0.7957747E-01  0.1419686E+00
         13   -1    0    0    0    0  0.00000000000E+00  0.00000000000E+00  0.99999944176E+02  0.99999999996E+02  0.10566000000E+00 0. -1.
         22   -1    0    0    0    0 -0.00000000000E+00 -0.00000000000E+00 -0.19214093757E+02  0.19214093757E+02  0.00000000000E+00 0.  1.
         13    1    1    2    0    0  0.11216928518E+02 -0.20218613886E+02  0.21762730021E+01  0.23224107325E+02  0.10566000000E+00 0.  1.
        996    1    1    2    0    0 -0.11216928518E+02  0.20218613886E+02  0.78609577417E+02  0.95989986428E+02  0.50000000000E+02 0.  0.
<mgrwt>
<rscale>  0 0.55087311E+02</rscale>
<asrwt>0</asrwt>
<pdfrwt beam="1">  1       13 0.10000000E+01 0.55087311E+02</pdfrwt>
<pdfrwt beam="2">  1       22 0.19214116E+00 0.55087311E+02</pdfrwt>
<totfact> 0.49067962E-01</totfact>
</mgrwt>
</event>
<event>
 4    1  0.2437479E+000  0.5832071E+02  0.7957747E-01  0.1405017E+00
         13   -1    0    0    0    0  0.00000000000E+00  0.00000000000E+00  0.99999944173E+02  0.99999999993E+02  0.10566000000E+00 0. -1.
         22   -1    0    0    0    0 -0.00000000000E+00 -0.00000000000E+00 -0.20505789193E+02  0.20505789193E+02  0.00000000000E+00 0.  1.
         13    1    1    2    0    0 -0.28468243139E+02 -0.95323084883E+01  0.15026250339E+02  0.33572386508E+02  0.10566000000E+00 0.  1.
        996    1    1    2    0    0  0.28468243139E+02  0.95323084883E+01  0.64467904640E+02  0.86933402679E+02  0.50000000000E+02 0.  0.
<mgrwt>
<rscale>  0 0.58320715E+02</rscale>
<asrwt>0</asrwt>
<pdfrwt beam="1">  1       13 0.10000000E+01 0.58320715E+02</pdfrwt>
<pdfrwt beam="2">  1       22 0.20505811E+00 0.58320715E+02</pdfrwt>
<totfact> 0.43694152E-01</totfact>
</mgrwt>
</event>
<event>
 4    1  0.2437479E+000  0.5313581E+02  0.7957747E-01  0.1429126E+00
         13   -1    0    0    0    0  0.00000000000E+00  0.00000000000E+00  0.99999944186E+02  0.10000000001E+03  0.10566000000E+00 0.  1.
         22   -1    0    0    0    0 -0.00000000000E+00 -0.00000000000E+00 -0.19513806968E+02  0.19513806968E+02  0.00000000000E+00 0. -1.
         13    1    1    2    0    0 -0.10850123739E+01 -0.17950950535E+02 -0.51723599949E+01  0.18713052902E+02  0.10566000000E+00 0. -1.
        996    1    1    2    0    0  0.10850123739E+01  0.17950950535E+02  0.85658497212E+02  0.10080075407E+03  0.50000000000E+02 0.  0.
<mgrwt>
<rscale>  0 0.53135806E+02</rscale>
<asrwt>0</asrwt>
<pdfrwt beam="1">  1       13 0.10000000E+01 0.53135806E+02</pdfrwt>
<pdfrwt beam="2">  1       22 0.19513829E+00 0.53135806E+02</pdfrwt>
<totfact> 0.47523723E-01</totfact>
</mgrwt>
</event>
<event>
 4    1  0.2437479E+000  0.5137765E+02  0.7957747E-01  0.1438049E+00
         13   -1    0    0    0    0  0.00000000000E+00  0.00000000000E+00  0.99999944182E+02  0.10000000000E+03  0.10566000000E+00 0. -1.
         22   -1    0    0    0    0 -0.00000000000E+00 -0.00000000000E+00 -0.10799854859E+02  0.10799854859E+02  0.00000000000E+00 0.  1.
         13    1    1    2    0    0 -0.32185833664E+01  0.11371183697E+02  0.66322035735E+01  0.13552135840E+02  0.10566000000E+00 0.  1.
        996    1    1    2    0    0  0.32185833664E+01 -0.11371183697E+02  0.82567885750E+02  0.97247719021E+02  0.50000000000E+02 0.  0.
<mgrwt>
<rscale>  0 0.51377652E+02</rscale>
<asrwt>0</asrwt>
<pdfrwt beam="1">  1       13 0.10000000E+01 0.51377652E+02</pdfrwt>
<pdfrwt beam="2">  1       22 0.10799880E+00 0.51377652E+02</pdfrwt>
<totfact> 0.12577493E+00</totfact>
</mgrwt>
</event>
<event>
 4    1  0.2437479E+000  0.5121463E+02  0.7957747E-01  0.1438898E+00
         13   -1    0    0    0    0  0.00000000000E+00  0.00000000000E+00  0.99999944176E+02  0.99999999996E+02  0.10566000000E+00 0.  1.
         22   -1    0    0    0    0 -0.00000000000E+00 -0.00000000000E+00 -0.10202833915E+02  0.10202833915E+02  0.00000000000E+00 0.  1.
         13    1    1    2    0    0 -0.76944821777E+01  0.79833053966E+01  0.26874487951E+02  0.29072108415E+02  0.10566000000E+00 0. -1.
        996    1    1    2    0    0  0.76944821777E+01 -0.79833053966E+01  0.62922622310E+02  0.81130725495E+02  0.50000000000E+02 0.  0.
<mgrwt>
<rscale>  0 0.51214629E+02</rscale>
<asrwt>0</asrwt>
<pdfrwt beam="1">  1       13 0.10000000E+01 0.51214629E+02</pdfrwt>
<pdfrwt beam="2">  1       22 0.10202859E+00 0.51214629E+02</pdfrwt>
<totfact> 0.13666797E+00</totfact>
</mgrwt>
</event>
<event>
 4    1  0.2437479E+000  0.6903782E+02  0.7957747E-01  0.1363396E+00
         13   -1    0    0    0    0  0.00000000000E+00  0.00000000000E+00  0.99999944174E+02  0.99999999995E+02  0.10566000000E+00 0.  1.
         22   -1    0    0    0    0 -0.00000000000E+00 -0.00000000000E+00 -0.41819988048E+02  0.41819988048E+02  0.00000000000E+00 0. -1.
         13    1    1    2    0    0 -0.30004529907E+02  0.36958744637E+02 -0.54700714557E+01  0.47918195561E+02  0.10566000000E+00 0. -1.
        996    1    1    2    0    0  0.30004529907E+02 -0.36958744637E+02  0.63650027582E+02  0.93901792482E+02  0.50000000000E+02 0.  0.
<mgrwt>
<rscale>  0 0.69037820E+02</rscale>
<asrwt>0</asrwt>
<pdfrwt beam="1">  1       13 0.10000000E+01 0.69037820E+02</pdfrwt>
<pdfrwt beam="2">  1       22 0.41820004E+00 0.69037820E+02</pdfrwt>
<totfact> 0.11452954E-01</totfact>
</mgrwt>
</event>
<event>
 4    1  0.2437479E+000  0.5176110E+02  0.7957747E-01  0.1436068E+00
         13   -1    0    0    0    0  0.00000000000E+00  0.00000000000E+00  0.99999944178E+02  0.99999999998E+02  0.10566000000E+00 0.  1.
         22   -1    0    0    0    0 -0.00000000000E+00 -0.00000000000E+00 -0.14872382378E+02  0.14872382378E+02  0.00000000000E+00 0. -1.
         13    1    1    2    0    0 -0.13295642289E+02  0.15612199311E+01 -0.19933552419E+01  0.13534996886E+02  0.10566000000E+00 0. -1.
        996    1    1    2    0    0  0.13295642289E+02 -0.15612199311E+01  0.87120917042E+02  0.10133738549E+03  0.50000000000E+02 0.  0.
<mgrwt>
<rscale>  0 0.51761100E+02</rscale>
<asrwt>0</asrwt>
<pdfrwt beam="1">  1       13 0.10000000E+01 0.51761100E+02</pdfrwt>
<pdfrwt beam="2">  1       22 0.14872406E+00 0.51761100E+02</pdfrwt>
<totfact> 0.76331905E-01</totfact>
</mgrwt>
</event>
<event>
 4    1  0.2437479E+000  0.5552322E+02  0.7957747E-01  0.1417641E+00
         13   -1    0    0    0    0  0.00000000000E+00  0.00000000000E+00  0.99999944174E+02  0.99999999995E+02  0.10566000000E+00 0.  1.
         22   -1    0    0    0    0 -0.00000000000E+00 -0.00000000000E+00 -0.17084857677E+02  0.17084857677E+02  0.00000000000E+00 0. -1.
         13    1    1    2    0    0 -0.19389246083E+02  0.14383505675E+02  0.40755526429E+02  0.47369317049E+02  0.10566000000E+00 0. -1.
        996    1    1    2    0    0  0.19389246083E+02 -0.14383505675E+02  0.42159560068E+02  0.69715540623E+02  0.50000000000E+02 0.  0.
<mgrwt>
<rscale>  0 0.55523221E+02</rscale>
<asrwt>0</asrwt>
<pdfrwt beam="1">  1       13 0.10000000E+01 0.55523221E+02</pdfrwt>
<pdfrwt beam="2">  1       22 0.17084881E+00 0.55523221E+02</pdfrwt>
<totfact> 0.60667212E-01</totfact>
</mgrwt>
</event>
<event>
 4    1  0.2437479E+000  0.5146935E+02  0.7957747E-01  0.1437574E+00
         13   -1    0    0    0    0  0.00000000000E+00  0.00000000000E+00  0.99999944180E+02  0.10000000000E+03  0.10566000000E+00 0.  1.
         22   -1    0    0    0    0 -0.00000000000E+00 -0.00000000000E+00 -0.13787811289E+02  0.13787811289E+02  0.00000000000E+00 0.  1.
         13    1    1    2    0    0 -0.22176024183E+01 -0.12007328320E+02 -0.12816547199E+01  0.12277927216E+02  0.10566000000E+00 0. -1.
        996    1    1    2    0    0  0.22176024183E+01  0.12007328320E+02  0.87493787611E+02  0.10150988407E+03  0.50000000000E+02 0.  0.
<mgrwt>
<rscale>  0 0.51469347E+02</rscale>
<asrwt>0</asrwt>
<pdfrwt beam="1">  1       13 0.10000000E+01 0.51469347E+02</pdfrwt>
<pdfrwt beam="2">  1       22 0.13787835E+00 0.51469347E+02</pdfrwt>
<totfact> 0.86337043E-01</totfact>
</mgrwt>
</event>
<event>
 4    1  0.2437479E+000  0.5116467E+02  0.7957747E-01  0.1439159E+00
         13   -1    0    0    0    0  0.00000000000E+00  0.00000000000E+00  0.99999944178E+02  0.99999999999E+02  0.10566000000E+00 0.  1.
         22   -1    0    0    0    0 -0.00000000000E+00 -0.00000000000E+00 -0.11279447536E+02  0.11279447536E+02  0.00000000000E+00 0. -1.
         13    1    1    2    0    0  0.69052412505E+01 -0.83750494691E+01  0.26889916644E+01  0.11183275484E+02  0.10566000000E+00 0. -1.
        996    1    1    2    0    0 -0.69052412505E+01  0.83750494691E+01  0.86031504978E+02  0.10009617205E+03  0.50000000000E+02 0.  0.
<mgrwt>
<rscale>  0 0.51164673E+02</rscale>
<asrwt>0</asrwt>
<pdfrwt beam="1">  1       13 0.10000000E+01 0.51164673E+02</pdfrwt>
<pdfrwt beam="2">  1       22 0.11279472E+00 0.51164673E+02</pdfrwt>
<totfact> 0.11783719E+00</totfact>
</mgrwt>
</event>
<event>
 4    1  0.2437479E+000  0.5171725E+02  0.7957747E-01  0.1436293E+00
         13   -1    0    0    0    0  0.00000000000E+00  0.00000000000E+00  0.99999944182E+02  0.10000000000E+03  0.10566000000E+00 0. -1.
         22   -1    0    0    0    0 -0.00000000000E+00 -0.00000000000E+00 -0.37793659742E+02  0.37793659742E+02  0.00000000000E+00 0.  1.
         13    1    1    2    0    0 -0.32940839652E+01  0.12799330334E+02 -0.29603264347E+02  0.32419720391E+02  0.10566000000E+00 0.  1.
        996    1    1    2    0    0  0.32940839652E+01 -0.12799330334E+02  0.91809548788E+02  0.10537393935E+03  0.50000000000E+02 0.  0.
<mgrwt>
<rscale>  0 0.51717249E+02</rscale>
<asrwt>0</asrwt>
<pdfrwt beam="1">  1       13 0.10000000E+01 0.51717249E+02</pdfrwt>
<pdfrwt beam="2">  1       22 0.37793677E+00 0.51717249E+02</pdfrwt>
<totfact> 0.13724696E-01</totfact>
</mgrwt>
</event>
<event>
 4    1  0.2437479E+000  0.5551491E+02  0.7957747E-01  0.1417679E+00
         13   -1    0    0    0    0  0.00000000000E+00  0.00000000000E+00  0.99999944175E+02  0.99999999995E+02  0.10566000000E+00 0.  1.
         22   -1    0    0    0    0 -0.00000000000E+00 -0.00000000000E+00 -0.16114351409E+02  0.16114351409E+02  0.00000000000E+00 0.  1.
         13    1    1    2    0    0 -0.23528990314E+02 -0.53190016161E+01  0.32448420580E+02  0.40432861951E+02  0.10566000000E+00 0. -1.
        996    1    1    2    0    0  0.23528990314E+02  0.53190016161E+01  0.51437172186E+02  0.75681489454E+02  0.50000000000E+02 0.  0.
<mgrwt>
<rscale>  0 0.55514909E+02</rscale>
<asrwt>0</asrwt>
<pdfrwt beam="1">  1       13 0.10000000E+01 0.55514909E+02</pdfrwt>
<pdfrwt beam="2">  1       22 0.16114375E+00 0.55514909E+02</pdfrwt>
<totfact> 0.67156578E-01</totfact>
</mgrwt>
</event>
<event>
 4    1  0.2437479E+000  0.5616141E+02  0.7957747E-01  0.1414685E+00
         13   -1    0    0    0    0  0.00000000000E+00  0.00000000000E+00  0.99999944180E+02  0.10000000000E+03  0.10566000000E+00 0.  1.
         22   -1    0    0    0    0 -0.00000000000E+00 -0.00000000000E+00 -0.18549249074E+02  0.18549249074E+02  0.00000000000E+00 0. -1.
         13    1    1    2    0    0 -0.24780483135E+02  0.63270635394E+01  0.95185484234E+01  0.27289521900E+02  0.10566000000E+00 0. -1.
        996    1    1    2    0    0  0.24780483135E+02 -0.63270635394E+01  0.71932146683E+02  0.91259727174E+02  0.50000000000E+02 0.  0.
<mgrwt>
<rscale>  0 0.56161411E+02</rscale>
<asrwt>0</asrwt>
<pdfrwt beam="1">  1       13 0.10000000E+01 0.56161411E+02</pdfrwt>
<pdfrwt beam="2">  1       22 0.18549272E+00 0.56161411E+02</pdfrwt>
<totfact> 0.52429651E-01</totfact>
</mgrwt>
</event>
<event>
 4    1  0.2437479E+000  0.5309460E+02  0.7957747E-01  0.1429331E+00
         13   -1    0    0    0    0  0.00000000000E+00  0.00000000000E+00  0.99999944181E+02  0.10000000000E+03  0.10566000000E+00 0.  1.
         22   -1    0    0    0    0 -0.00000000000E+00 -0.00000000000E+00 -0.17091221587E+02  0.17091221587E+02  0.00000000000E+00 0. -1.
         13    1    1    2    0    0 -0.17766755899E+02  0.18383018011E+01 -0.89447623437E+00  0.17884300950E+02  0.10566000000E+00 0. -1.
        996    1    1    2    0    0  0.17766755899E+02 -0.18383018011E+01  0.83803198828E+02  0.99206920638E+02  0.50000000000E+02 0.  0.
<mgrwt>
<rscale>  0 0.53094604E+02</rscale>
<asrwt>0</asrwt>
<pdfrwt beam="1">  1       13 0.10000000E+01 0.53094604E+02</pdfrwt>
<pdfrwt beam="2">  1       22 0.17091245E+00 0.53094604E+02</pdfrwt>
<totfact> 0.60356577E-01</totfact>
</mgrwt>
</event>
<event>
 4    1  0.2437479E+000  0.5212874E+02  0.7957747E-01  0.1434187E+00
         13   -1    0    0    0    0  0.00000000000E+00  0.00000000000E+00  0.99999944176E+02  0.99999999996E+02  0.10566000000E+00 0.  1.
         22   -1    0    0    0    0 -0.00000000000E+00 -0.00000000000E+00 -0.14834668060E+02  0.14834668060E+02  0.00000000000E+00 0.  1.
         13    1    1    2    0    0 -0.12230846473E+02  0.82347916198E+01 -0.27483816281E+00  0.14747613316E+02  0.10566000000E+00 0. -1.
        996    1    1    2    0    0  0.12230846473E+02 -0.82347916198E+01  0.85440114279E+02  0.10008705474E+03  0.50000000000E+02 0.  0.
<mgrwt>
<rscale>  0 0.52128739E+02</rscale>
<asrwt>0</asrwt>
<pdfrwt beam="1">  1       13 0.10000000E+01 0.52128739E+02</pdfrwt>
<pdfrwt beam="2">  1       22 0.14834692E+00 0.52128739E+02</pdfrwt>
<totfact> 0.76711963E-01</totfact>
</mgrwt>
</event>
<event>
 4    1  0.2437479E+000  0.5554546E+02  0.7957747E-01  0.1417537E+00
         13   -1    0    0    0    0  0.00000000000E+00  0.00000000000E+00  0.99999944181E+02  0.10000000000E+03  0.10566000000E+00 0. -1.
         22   -1    0    0    0    0 -0.00000000000E+00 -0.00000000000E+00 -0.15904822754E+02  0.15904822754E+02  0.00000000000E+00 0. -1.
         13    1    1    2    0    0 -0.21621090004E+02  0.10854801611E+02  0.26807785324E+02  0.36110480044E+02  0.10566000000E+00 0.  1.
        996    1    1    2    0    0  0.21621090004E+02 -0.10854801611E+02  0.57287336103E+02  0.79794342712E+02  0.50000000000E+02 0.  0.
<mgrwt>
<rscale>  0 0.55545461E+02</rscale>
<asrwt>0</asrwt>
<pdfrwt beam="1">  1       13 0.10000000E+01 0.55545461E+02</pdfrwt>
<pdfrwt beam="2">  1       22 0.15904846E+00 0.55545461E+02</pdfrwt>
<totfact> 0.68682952E-01</totfact>
</mgrwt>
</event>
<event>
 4    1  0.2437479E+000  0.5274061E+02  0.7957747E-01  0.1431096E+00
         13   -1    0    0    0    0  0.00000000000E+00  0.00000000000E+00  0.99999944175E+02  0.99999999995E+02  0.10566000000E+00 0.  1.
         22   -1    0    0    0    0 -0.00000000000E+00 -0.00000000000E+00 -0.13106753833E+02  0.13106753833E+02  0.00000000000E+00 0. -1.
         13    1    1    2    0    0  0.16610178997E+02  0.23819647266E+01  0.90100252396E+01  0.19046351911E+02  0.10566000000E+00 0. -1.
        996    1    1    2    0    0 -0.16610178997E+02 -0.23819647266E+01  0.77883165103E+02  0.94060401917E+02  0.50000000000E+02 0.  0.
<mgrwt>
<rscale>  0 0.52740609E+02</rscale>
<asrwt>0</asrwt>
<pdfrwt beam="1">  1       13 0.10000000E+01 0.52740609E+02</pdfrwt>
<pdfrwt beam="2">  1       22 0.13106778E+00 0.52740609E+02</pdfrwt>
<totfact> 0.93858216E-01</totfact>
</mgrwt>
</event>
<event>
 4    1  0.2437479E+000  0.5116539E+02  0.7957747E-01  0.1439155E+00
         13   -1    0    0    0    0  0.00000000000E+00  0.00000000000E+00  0.99999944181E+02  0.10000000000E+03  0.10566000000E+00 0. -1.
         22   -1    0    0    0    0 -0.00000000000E+00 -0.00000000000E+00 -0.13303954869E+02  0.13303954869E+02  0.00000000000E+00 0. -1.
         13    1    1    2    0    0  0.28703948442E+00 -0.10854234713E+02 -0.18723881593E+01  0.11018793234E+02  0.10566000000E+00 0.  1.
        996    1    1    2    0    0 -0.28703948442E+00  0.10854234713E+02  0.88568377472E+02  0.10228516164E+03  0.50000000000E+02 0.  0.
<mgrwt>
<rscale>  0 0.51165387E+02</rscale>
<asrwt>0</asrwt>
<pdfrwt beam="1">  1       13 0.10000000E+01 0.51165387E+02</pdfrwt>
<pdfrwt beam="2">  1       22 0.13303979E+00 0.51165387E+02</pdfrwt>
<totfact> 0.91352870E-01</totfact>
</mgrwt>
</event>
<event>
 4    1  0.2437479E+000  0.6189121E+02  0.7957747E-01  0.1390062E+00
         13   -1    0    0    0    0  0.00000000000E+00  0.00000000000E+00  0.99999944179E+02  0.99999999999E+02  0.10566000000E+00 0.  1.
         22   -1    0    0    0    0 -0.00000000000E+00 -0.00000000000E+00 -0.42913706600E+02  0.42913706600E+02  0.00000000000E+00 0. -1.
         13    1    1    2    0    0  0.36136117966E+02 -0.49702187246E+01 -0.21916733679E+02  0.42554394309E+02  0.10566000000E+00 0. -1.
        996    1    1    2    0    0 -0.36136117966E+02  0.49702187246E+01  0.79002971258E+02  0.10035931229E+03  0.50000000000E+02 0.  0.
<mgrwt>
<rscale>  0 0.61891212E+02</rscale>
<asrwt>0</asrwt>
<pdfrwt beam="1">  1       13 0.10000000E+01 0.61891212E+02</pdfrwt>
<pdfrwt beam="2">  1       22 0.42913723E+00 0.61891212E+02</pdfrwt>
<totfact> 0.10806887E-01</totfact>
</mgrwt>
</event>
<event>
 4    1  0.2437479E+000  0.6048224E+02  0.7957747E-01  0.1395819E+00
         13   -1    0    0    0    0  0.00000000000E+00  0.00000000000E+00  0.99999944187E+02  0.10000000001E+03  0.10566000000E+00 0.  1.
         22   -1    0    0    0    0 -0.00000000000E+00 -0.00000000000E+00 -0.47149171021E+02  0.47149171021E+02  0.00000000000E+00 0. -1.
         13    1    1    2    0    0  0.30420366495E+02  0.15254599957E+02 -0.29456677844E+02  0.45008983005E+02  0.10566000000E+00 0. -1.
        996    1    1    2    0    0 -0.30420366495E+02 -0.15254599957E+02  0.82307451010E+02  0.10214018802E+03  0.50000000000E+02 0.  0.
<mgrwt>
<rscale>  0 0.60482241E+02</rscale>
<asrwt>0</asrwt>
<pdfrwt beam="1">  1       13 0.10000000E+01 0.60482241E+02</pdfrwt>
<pdfrwt beam="2">  1       22 0.47149186E+00 0.60482241E+02</pdfrwt>
<totfact> 0.86535079E-02</totfact>
</mgrwt>
</event>
<event>
 4    1  0.2437479E+000  0.5244946E+02  0.7957747E-01  0.1432560E+00
         13   -1    0    0    0    0  0.00000000000E+00  0.00000000000E+00  0.99999944183E+02  0.10000000000E+03  0.10566000000E+00 0.  1.
         22   -1    0    0    0    0 -0.00000000000E+00 -0.00000000000E+00 -0.29029354952E+02  0.29029354952E+02  0.00000000000E+00 0. -1.
         13    1    1    2    0    0 -0.10075070959E+02 -0.12224510962E+02 -0.19091331213E+02  0.24807978850E+02  0.10566000000E+00 0. -1.
        996    1    1    2    0    0  0.10075070959E+02  0.12224510962E+02  0.90061920445E+02  0.10422137611E+03  0.50000000000E+02 0.  0.
<mgrwt>
<rscale>  0 0.52449459E+02</rscale>
<asrwt>0</asrwt>
<pdfrwt beam="1">  1       13 0.10000000E+01 0.52449459E+02</pdfrwt>
<pdfrwt beam="2">  1       22 0.29029375E+00 0.52449459E+02</pdfrwt>
<totfact> 0.22042806E-01</totfact>
</mgrwt>
</event>
<event>
 4    1  0.2437479E+000  0.6022764E+02  0.7957747E-01  0.1396879E+00
         13   -1    0    0    0    0  0.00000000000E+00  0.00000000000E+00  0.99999944188E+02  0.10000000001E+03  0.10566000000E+00 0.  1.
         22   -1    0    0    0    0 -0.00000000000E+00 -0.00000000000E+00 -0.50572690797E+02  0.50572690797E+02  0.00000000000E+00 0. -1.
         13    1    1    2    0    0 -0.26815892363E+02 -0.20205852501E+02 -0.33929368723E+02  0.47734492607E+02  0.10566000000E+00 0. -1.
        996    1    1    2    0    0  0.26815892363E+02  0.20205852501E+02  0.83356622113E+02  0.10283819820E+03  0.50000000000E+02 0.  0.
<mgrwt>
<rscale>  0 0.60227639E+02</rscale>
<asrwt>0</asrwt>
<pdfrwt beam="1">  1       13 0.10000000E+01 0.60227639E+02</pdfrwt>
<pdfrwt beam="2">  1       22 0.50572705E+00 0.60227639E+02</pdfrwt>
<totfact> 0.71592164E-02</totfact>
</mgrwt>
</event>
<event>
 4    1  0.2437479E+000  0.5099562E+02  0.7957747E-01  0.1440044E+00
         13   -1    0    0    0    0  0.00000000000E+00  0.00000000000E+00  0.99999944174E+02  0.99999999994E+02  0.10566000000E+00 0. -1.
         22   -1    0    0    0    0 -0.00000000000E+00 -0.00000000000E+00 -0.11433055823E+02  0.11433055823E+02  0.00000000000E+00 0. -1.
         13    1    1    2    0    0 -0.73750949073E+01  0.67942122808E+01  0.97199509852E+00  0.10075181582E+02  0.10566000000E+00 0.  1.
        996    1    1    2    0    0  0.73750949073E+01 -0.67942122808E+01  0.87594893253E+02  0.10135787423E+03  0.50000000000E+02 0.  0.
<mgrwt>
<rscale>  0 0.50995621E+02</rscale>
<asrwt>0</asrwt>
<pdfrwt beam="1">  1       13 0.10000000E+01 0.50995621E+02</pdfrwt>
<pdfrwt beam="2">  1       22 0.11433081E+00 0.50995621E+02</pdfrwt>
<totfact> 0.11542235E+00</totfact>
</mgrwt>
</event>
<event>
 4    1  0.2437479E+000  0.5138418E+02  0.7957747E-01  0.1438016E+00
         13   -1    0    0    0    0  0.00000000000E+00  0.00000000000E+00  0.99999944187E+02  0.10000000001E+03  0.10566000000E+00 0. -1.
         22   -1    0    0    0    0 -0.00000000000E+00 -0.00000000000E+00 -0.16817977249E+02  0.16817977249E+02  0.00000000000E+00 0. -1.
         13    1    1    2    0    0  0.11795410829E+02  0.10964981315E+01 -0.64596913759E+01  0.13493435496E+02  0.10566000000E+00 0.  1.
        996    1    1    2    0    0 -0.11795410829E+02 -0.10964981315E+01  0.89641658313E+02  0.10332454176E+03  0.50000000000E+02 0.  0.
<mgrwt>
<rscale>  0 0.51384181E+02</rscale>
<asrwt>0</asrwt>
<pdfrwt beam="1">  1       13 0.10000000E+01 0.51384181E+02</pdfrwt>
<pdfrwt beam="2">  1       22 0.16818000E+00 0.51384181E+02</pdfrwt>
<totfact> 0.61878913E-01</totfact>
</mgrwt>
</event>
<event>
 4    1  0.2437479E+000  0.5137655E+02  0.7957747E-01  0.1438055E+00
         13   -1    0    0    0    0  0.00000000000E+00  0.00000000000E+00  0.99999944176E+02  0.99999999996E+02  0.10566000000E+00 0.  1.
         22   -1    0    0    0    0 -0.00000000000E+00 -0.00000000000E+00 -0.11007911181E+02  0.11007911181E+02  0.00000000000E+00 0.  1.
         13    1    1    2    0    0  0.11760278177E+02  0.11161288465E+01  0.56322636819E+01  0.13087530120E+02  0.10566000000E+00 0. -1.
        996    1    1    2    0    0 -0.11760278177E+02 -0.11161288465E+01  0.83359769314E+02  0.97920381057E+02  0.50000000000E+02 0.  0.
<mgrwt>
<rscale>  0 0.51376550E+02</rscale>
<asrwt>0</asrwt>
<pdfrwt beam="1">  1       13 0.10000000E+01 0.51376550E+02</pdfrwt>
<pdfrwt beam="2">  1       22 0.11007936E+00 0.51376550E+02</pdfrwt>
<totfact> 0.12226406E+00</totfact>
</mgrwt>
</event>
<event>
 4    1  0.2437479E+000  0.5171802E+02  0.7957747E-01  0.1436289E+00
         13   -1    0    0    0    0  0.00000000000E+00  0.00000000000E+00  0.99999944180E+02  0.10000000000E+03  0.10566000000E+00 0.  1.
         22   -1    0    0    0    0 -0.00000000000E+00 -0.00000000000E+00 -0.10676334560E+02  0.10676334560E+02  0.00000000000E+00 0.  1.
         13    1    1    2    0    0  0.11582252968E+02 -0.63721880727E+01  0.23527045905E+02  0.26986782278E+02  0.10566000000E+00 0. -1.
        996    1    1    2    0    0 -0.11582252968E+02  0.63721880727E+01  0.65796563714E+02  0.83689552283E+02  0.50000000000E+02 0.  0.
<mgrwt>
<rscale>  0 0.51718018E+02</rscale>
<asrwt>0</asrwt>
<pdfrwt beam="1">  1       13 0.10000000E+01 0.51718018E+02</pdfrwt>
<pdfrwt beam="2">  1       22 0.10676359E+00 0.51718018E+02</pdfrwt>
<totfact> 0.12803275E+00</totfact>
</mgrwt>
</event>
<event>
 4    1  0.2437479E+000  0.5105142E+02  0.7957747E-01  0.1439752E+00
         13   -1    0    0    0    0  0.00000000000E+00  0.00000000000E+00  0.99999944175E+02  0.99999999995E+02  0.10566000000E+00 0. -1.
         22   -1    0    0    0    0 -0.00000000000E+00 -0.00000000000E+00 -0.97854325975E+01  0.97854325975E+01  0.00000000000E+00 0. -1.
         13    1    1    2    0    0 -0.98393810602E+01 -0.30714619854E+01  0.81646879496E+01  0.13149927442E+02  0.10566000000E+00 0.  1.
        996    1    1    2    0    0  0.98393810602E+01  0.30714619854E+01  0.82049823628E+02  0.96635505151E+02  0.50000000000E+02 0.  0.
<mgrwt>
<rscale>  0 0.51051418E+02</rscale>
<asrwt>0</asrwt>
<pdfrwt beam="1">  1       13 0.10000000E+01 0.51051418E+02</pdfrwt>
<pdfrwt beam="2">  1       22 0.97854578E-01 0.51051418E+02</pdfrwt>
<totfact> 0.14512950E+00</totfact>
</mgrwt>
</event>
<event>
 4    1  0.2437479E+000  0.5127235E+02  0.7957747E-01  0.1438597E+00
         13   -1    0    0    0    0  0.00000000000E+00  0.00000000000E+00  0.99999944179E+02  0.99999999999E+02  0.10566000000E+00 0. -1.
         22   -1    0    0    0    0 -0.00000000000E+00 -0.00000000000E+00 -0.14531175600E+02  0.14531175600E+02  0.00000000000E+00 0.  1.
         13    1    1    2    0    0  0.96572303624E+01  0.59658969162E+01 -0.34711724186E+01  0.11870729813E+02  0.10566000000E+00 0.  1.
        996    1    1    2    0    0 -0.96572303624E+01 -0.59658969162E+01  0.88939940998E+02  0.10266044579E+03  0.50000000000E+02 0.  0.
<mgrwt>
<rscale>  0 0.51272351E+02</rscale>
<asrwt>0</asrwt>
<pdfrwt beam="1">  1       13 0.10000000E+01 0.51272351E+02</pdfrwt>
<pdfrwt beam="2">  1       22 0.14531199E+00 0.51272351E+02</pdfrwt>
<totfact> 0.79233790E-01</totfact>
</mgrwt>
</event>
<event>
 4    1  0.2437479E+000  0.5233760E+02  0.7957747E-01  0.1433126E+00
         13   -1    0    0    0    0  0.00000000000E+00  0.00000000000E+00  0.99999944184E+02  0.10000000000E+03  0.10566000000E+00 0.  1.
         22   -1    0    0    0    0 -0.00000000000E+00 -0.00000000000E+00 -0.13378549480E+02  0.13378549480E+02  0.00000000000E+00 0.  1.
         13    1    1    2    0    0  0.38631943601E+01  0.14976662863E+02  0.46997903847E+01  0.16165515608E+02  0.10566000000E+00 0. -1.
        996    1    1    2    0    0 -0.38631943601E+01 -0.14976662863E+02  0.81921604319E+02  0.97213033876E+02  0.50000000000E+02 0.  0.
<mgrwt>
<rscale>  0 0.52337603E+02</rscale>
<asrwt>0</asrwt>
<pdfrwt beam="1">  1       13 0.10000000E+01 0.52337603E+02</pdfrwt>
<pdfrwt beam="2">  1       22 0.13378574E+00 0.52337603E+02</pdfrwt>
<totfact> 0.90773100E-01</totfact>
</mgrwt>
</event>
<event>
 4    1  0.2437479E+000  0.5142131E+02  0.7957747E-01  0.1437823E+00
         13   -1    0    0    0    0  0.00000000000E+00  0.00000000000E+00  0.99999944180E+02  0.10000000000E+03  0.10566000000E+00 0. -1.
         22   -1    0    0    0    0 -0.00000000000E+00 -0.00000000000E+00 -0.10124663870E+02  0.10124663870E+02  0.00000000000E+00 0. -1.
         13    1    1    2    0    0  0.48471506342E+01  0.10984349141E+02  0.13683713480E+02  0.18204559153E+02  0.10566000000E+00 0.  1.
        996    1    1    2    0    0 -0.48471506342E+01 -0.10984349141E+02  0.76191566830E+02  0.91920104718E+02  0.50000000000E+02 0.  0.
<mgrwt>
<rscale>  0 0.51421307E+02</rscale>
<asrwt>0</asrwt>
<pdfrwt beam="1">  1       13 0.10000000E+01 0.51421307E+02</pdfrwt>
<pdfrwt beam="2">  1       22 0.10124689E+00 0.51421307E+02</pdfrwt>
<totfact> 0.13827428E+00</totfact>
</mgrwt>
</event>
<event>
 4    1  0.2437479E+000  0.5398512E+02  0.7957747E-01  0.1424960E+00
         13   -1    0    0    0    0  0.00000000000E+00  0.00000000000E+00  0.99999944180E+02  0.10000000000E+03  0.10566000000E+00 0. -1.
         22   -1    0    0    0    0 -0.00000000000E+00 -0.00000000000E+00 -0.13871225845E+02  0.13871225845E+02  0.00000000000E+00 0.  1.
         13    1    1    2    0    0 -0.23479541257E-01  0.20356641749E+02  0.20479382343E+02  0.28875762843E+02  0.10566000000E+00 0.  1.
        996    1    1    2    0    0  0.23479541257E-01 -0.20356641749E+02  0.65649335992E+02  0.84995463001E+02  0.50000000000E+02 0.  0.
<mgrwt>
<rscale>  0 0.53985122E+02</rscale>
<asrwt>0</asrwt>
<pdfrwt beam="1">  1       13 0.10000000E+01 0.53985122E+02</pdfrwt>
<pdfrwt beam="2">  1       22 0.13871250E+00 0.53985122E+02</pdfrwt>
<totfact> 0.85949712E-01</totfact>
</mgrwt>
</event>
<event>
 4    1  0.2437479E+000  0.5787579E+02  0.7957747E-01  0.1406969E+00
         13   -1    0    0    0    0  0.00000000000E+00  0.00000000000E+00  0.99999944174E+02  0.99999999994E+02  0.10566000000E+00 0. -1.
         22   -1    0    0    0    0 -0.00000000000E+00 -0.00000000000E+00 -0.40017854416E+02  0.40017854416E+02  0.00000000000E+00 0.  1.
         13    1    1    2    0    0  0.26640100162E+02  0.11828436770E+02 -0.24183032106E+02  0.37873962810E+02  0.10566000000E+00 0.  1.
        996    1    1    2    0    0 -0.26640100162E+02 -0.11828436770E+02  0.84165121863E+02  0.10214389160E+03  0.50000000000E+02 0.  0.
<mgrwt>
<rscale>  0 0.57875788E+02</rscale>
<asrwt>0</asrwt>
<pdfrwt beam="1">  1       13 0.10000000E+01 0.57875788E+02</pdfrwt>
<pdfrwt beam="2">  1       22 0.40017871E+00 0.57875788E+02</pdfrwt>
<totfact> 0.12411315E-01</totfact>
</mgrwt>
</event>
<event>
 4    1  0.2437479E+000  0.5468451E+02  0.7957747E-01  0.1421597E+00
         13   -1    0    0    0    0  0.00000000000E+00  0.00000000000E+00  0.99999944181E+02  0.10000000000E+03  0.10566000000E+00 0. -1.
         22   -1    0    0    0    0 -0.00000000000E+00 -0.00000000000E+00 -0.33123015978E+02  0.33123015978E+02  0.00000000000E+00 0.  1.
         13    1    1    2    0    0 -0.15508127551E+02 -0.15808034732E+02 -0.20413295355E+02  0.30118263122E+02  0.10566000000E+00 0.  1.
        996    1    1    2    0    0  0.15508127551E+02  0.15808034732E+02  0.87290223558E+02  0.10300475286E+03  0.50000000000E+02 0.  0.
<mgrwt>
<rscale>  0 0.54684513E+02</rscale>
<asrwt>0</asrwt>
<pdfrwt beam="1">  1       13 0.10000000E+01 0.54684513E+02</pdfrwt>
<pdfrwt beam="2">  1       22 0.33123035E+00 0.54684513E+02</pdfrwt>
<totfact> 0.17356701E-01</totfact>
</mgrwt>
</event>
<event>
 4    1  0.2437479E+000  0.5152062E+02  0.7957747E-01  0.1437308E+00
         13   -1    0    0    0    0  0.00000000000E+00  0.00000000000E+00  0.99999944174E+02  0.99999999994E+02  0.10566000000E+00 0.  1.
         22   -1    0    0    0    0 -0.00000000000E+00 -0.00000000000E+00 -0.10834107052E+02  0.10834107052E+02  0.00000000000E+00 0.  1.
         13    1    1    2    0    0  0.12045333680E+02 -0.30470314729E+01  0.82718249494E+01  0.14926778497E+02  0.10566000000E+00 0. -1.
        996    1    1    2    0    0 -0.12045333680E+02  0.30470314729E+01  0.80894012172E+02  0.95907328550E+02  0.50000000000E+02 0.  0.
<mgrwt>
<rscale>  0 0.51520622E+02</rscale>
<asrwt>0</asrwt>
<pdfrwt beam="1">  1       13 0.10000000E+01 0.51520622E+02</pdfrwt>
<pdfrwt beam="2">  1       22 0.10834132E+00 0.51520622E+02</pdfrwt>
<totfact> 0.12522891E+00</totfact>
</mgrwt>
</event>
<event>
 4    1  0.2437479E+000  0.5427514E+02  0.7957747E-01  0.1423558E+00
         13   -1    0    0    0    0  0.00000000000E+00  0.00000000000E+00  0.99999944182E+02  0.10000000000E+03  0.10566000000E+00 0.  1.
         22   -1    0    0    0    0 -0.00000000000E+00 -0.00000000000E+00 -0.40470303074E+02  0.40470303074E+02  0.00000000000E+00 0. -1.
         13    1    1    2    0    0 -0.24259207881E+01 -0.20973928047E+02 -0.29454201379E+02  0.36240197189E+02  0.10566000000E+00 0. -1.
        996    1    1    2    0    0  0.24259207881E+01  0.20973928047E+02  0.88983842487E+02  0.10423010589E+03  0.50000000000E+02 0.  0.
<mgrwt>
<rscale>  0 0.54275139E+02</rscale>
<asrwt>0</asrwt>
<pdfrwt beam="1">  1       13 0.10000000E+01 0.54275139E+02</pdfrwt>
<pdfrwt beam="2">  1       22 0.40470320E+00 0.54275139E+02</pdfrwt>
<totfact> 0.12114816E-01</totfact>
</mgrwt>
</event>
<event>
 4    1  0.2437479E+000  0.5139411E+02  0.7957747E-01  0.1437964E+00
         13   -1    0    0    0    0  0.00000000000E+00  0.00000000000E+00  0.99999944182E+02  0.10000000000E+03  0.10566000000E+00 0. -1.
         22   -1    0    0    0    0 -0.00000000000E+00 -0.00000000000E+00 -0.12245753407E+02  0.12245753407E+02  0.00000000000E+00 0. -1.
         13    1    1    2    0    0  0.98441905735E+00  0.11848449355E+02  0.16972523031E+01  0.12010273203E+02  0.10566000000E+00 0.  1.
        996    1    1    2    0    0 -0.98441905735E+00 -0.11848449355E+02  0.86056938472E+02  0.10023548021E+03  0.50000000000E+02 0.  0.
<mgrwt>
<rscale>  0 0.51394113E+02</rscale>
<asrwt>0</asrwt>
<pdfrwt beam="1">  1       13 0.10000000E+01 0.51394113E+02</pdfrwt>
<pdfrwt beam="2">  1       22 0.12245778E+00 0.51394113E+02</pdfrwt>
<totfact> 0.10405514E+00</totfact>
</mgrwt>
</event>
<event>
 4    1  0.2437479E+000  0.5278492E+02  0.7957747E-01  0.1430874E+00
         13   -1    0    0    0    0  0.00000000000E+00  0.00000000000E+00  0.99999944181E+02  0.10000000000E+03  0.10566000000E+00 0.  1.
         22   -1    0    0    0    0 -0.00000000000E+00 -0.00000000000E+00 -0.28975015744E+02  0.28975015744E+02  0.00000000000E+00 0.  1.
         13    1    1    2    0    0  0.79495853119E+01 -0.14934907774E+02 -0.18485789820E+02  0.25059588308E+02  0.10566000000E+00 0. -1.
        996    1    1    2    0    0 -0.79495853119E+01  0.14934907774E+02  0.89510718256E+02  0.10391542744E+03  0.50000000000E+02 0.  0.
<mgrwt>
<rscale>  0 0.52784916E+02</rscale>
<asrwt>0</asrwt>
<pdfrwt beam="1">  1       13 0.10000000E+01 0.52784916E+02</pdfrwt>
<pdfrwt beam="2">  1       22 0.28975036E+00 0.52784916E+02</pdfrwt>
<totfact> 0.22131728E-01</totfact>
</mgrwt>
</event>
<event>
 4    1  0.2437479E+000  0.5828786E+02  0.7957747E-01  0.1405161E+00
         13   -1    0    0    0    0  0.00000000000E+00  0.00000000000E+00  0.99999944180E+02  0.10000000000E+03  0.10566000000E+00 0.  1.
         22   -1    0    0    0    0 -0.00000000000E+00 -0.00000000000E+00 -0.20165449429E+02  0.20165449429E+02  0.00000000000E+00 0.  1.
         13    1    1    2    0    0 -0.12151821802E+02  0.27382626547E+02  0.16944745717E+02  0.34418172252E+02  0.10566000000E+00 0. -1.
        996    1    1    2    0    0  0.12151821802E+02 -0.27382626547E+02  0.62889749034E+02  0.85747277177E+02  0.50000000000E+02 0.  0.
<mgrwt>
<rscale>  0 0.58287863E+02</rscale>
<asrwt>0</asrwt>
<pdfrwt beam="1">  1       13 0.10000000E+01 0.58287863E+02</pdfrwt>
<pdfrwt beam="2">  1       22 0.20165472E+00 0.58287863E+02</pdfrwt>
<totfact> 0.45089712E-01</totfact>
</mgrwt>
</event>
<event>
 4    1  0.2437479E+000  0.5277139E+02  0.7957747E-01  0.1430942E+00
         13   -1    0    0    0    0  0.00000000000E+00  0.00000000000E+00  0.99999944174E+02  0.99999999994E+02  0.10566000000E+00 0.  1.
         22   -1    0    0    0    0 -0.00000000000E+00 -0.00000000000E+00 -0.22745569355E+02  0.22745569355E+02  0.00000000000E+00 0. -1.
         13    1    1    2    0    0  0.76790684959E+01  0.15028354219E+02 -0.10837326773E+02  0.20056877602E+02  0.10566000000E+00 0. -1.
        996    1    1    2    0    0 -0.76790684959E+01 -0.15028354219E+02  0.88091701592E+02  0.10268869175E+03  0.50000000000E+02 0.  0.
<mgrwt>
<rscale>  0 0.52771389E+02</rscale>
<asrwt>0</asrwt>
<pdfrwt beam="1">  1       13 0.10000000E+01 0.52771389E+02</pdfrwt>
<pdfrwt beam="2">  1       22 0.22745591E+00 0.52771389E+02</pdfrwt>
<totfact> 0.35509221E-01</totfact>
</mgrwt>
</event>
<event>
 4    1  0.2437479E+000  0.5206435E+02  0.7957747E-01  0.1434515E+00
         13   -1    0    0    0    0  0.00000000000E+00  0.00000000000E+00  0.99999944176E+02  0.99999999996E+02  0.10566000000E+00 0. -1.
         22   -1    0    0    0    0 -0.00000000000E+00 -0.00000000000E+00 -0.12103884381E+02  0.12103884381E+02  0.00000000000E+00 0.  1.
         13    1    1    2    0    0 -0.11658960504E+02  0.86466873537E+01  0.75451530077E+01  0.16359616749E+02  0.10566000000E+00 0.  1.
        996    1    1    2    0    0  0.11658960504E+02 -0.86466873537E+01  0.80350906787E+02  0.95744267629E+02  0.50000000000E+02 0.  0.
<mgrwt>
<rscale>  0 0.52064350E+02</rscale>
<asrwt>0</asrwt>
<pdfrwt beam="1">  1       13 0.10000000E+01 0.52064350E+02</pdfrwt>
<pdfrwt beam="2">  1       22 0.12103909E+00 0.52064350E+02</pdfrwt>
<totfact> 0.10609706E+00</totfact>
</mgrwt>
</event>
<event>
 4    1  0.2437479E+000  0.5387703E+02  0.7957747E-01  0.1425485E+00
         13   -1    0    0    0    0  0.00000000000E+00  0.00000000000E+00  0.99999944181E+02  0.10000000000E+03  0.10566000000E+00 0. -1.
         22   -1    0    0    0    0 -0.00000000000E+00 -0.00000000000E+00 -0.13909699407E+02  0.13909699407E+02  0.00000000000E+00 0. -1.
         13    1    1    2    0    0  0.29326732072E+01 -0.19852792940E+02  0.30370784660E+02  0.36402330757E+02  0.10566000000E+00 0.  1.
        996    1    1    2    0    0 -0.29326732072E+01  0.19852792940E+02  0.55719460115E+02  0.77507368651E+02  0.50000000000E+02 0.  0.
<mgrwt>
<rscale>  0 0.53877026E+02</rscale>
<asrwt>0</asrwt>
<pdfrwt beam="1">  1       13 0.10000000E+01 0.53877026E+02</pdfrwt>
<pdfrwt beam="2">  1       22 0.13909723E+00 0.53877026E+02</pdfrwt>
<totfact> 0.85546804E-01</totfact>
</mgrwt>
</event>
<event>
 4    1  0.2437479E+000  0.5206937E+02  0.7957747E-01  0.1434489E+00
         13   -1    0    0    0    0  0.00000000000E+00  0.00000000000E+00  0.99999944183E+02  0.10000000000E+03  0.10566000000E+00 0. -1.
         22   -1    0    0    0    0 -0.00000000000E+00 -0.00000000000E+00 -0.30328300732E+02  0.30328300732E+02  0.00000000000E+00 0.  1.
         13    1    1    2    0    0  0.12779209873E+02 -0.69217658661E+01 -0.21136405408E+02  0.25651078833E+02  0.10566000000E+00 0.  1.
        996    1    1    2    0    0 -0.12779209873E+02  0.69217658661E+01  0.90808048858E+02  0.10467722190E+03  0.50000000000E+02 0.  0.
<mgrwt>
<rscale>  0 0.52069368E+02</rscale>
<asrwt>0</asrwt>
<pdfrwt beam="1">  1       13 0.10000000E+01 0.52069368E+02</pdfrwt>
<pdfrwt beam="2">  1       22 0.30328320E+00 0.52069368E+02</pdfrwt>
<totfact> 0.20289538E-01</totfact>
</mgrwt>
</event>
<event>
 4    1  0.2437479E+000  0.6589062E+02  0.7957747E-01  0.1374652E+00
         13   -1    0    0    0    0  0.00000000000E+00  0.00000000000E+00  0.99999944175E+02  0.99999999995E+02  0.10566000000E+00 0. -1.
         22   -1    0    0    0    0 -0.00000000000E+00 -0.00000000000E+00 -0.33735833373E+02  0.33735833373E+02  0.00000000000E+00 0.  1.
         13    1    1    2    0    0 -0.32703195899E+02 -0.27786229357E+02  0.40323927358E+01  0.43102725194E+02  0.10566000000E+00 0.  1.
        996    1    1    2    0    0  0.32703195899E+02  0.27786229357E+02  0.62231718066E+02  0.90633108174E+02  0.50000000000E+02 0.  0.
<mgrwt>
<rscale>  0 0.65890618E+02</rscale>
<asrwt>0</asrwt>
<pdfrwt beam="1">  1       13 0.10000000E+01 0.65890618E+02</pdfrwt>
<pdfrwt beam="2">  1       22 0.33735852E+00 0.65890618E+02</pdfrwt>
<totfact> 0.16985614E-01</totfact>
</mgrwt>
</event>
<event>
 4    1  0.2437479E+000  0.6047355E+02  0.7957747E-01  0.1395855E+00
         13   -1    0    0    0    0  0.00000000000E+00  0.00000000000E+00  0.99999944183E+02  0.10000000000E+03  0.10566000000E+00 0.  1.
         22   -1    0    0    0    0 -0.00000000000E+00 -0.00000000000E+00 -0.30189108919E+02  0.30189108919E+02  0.00000000000E+00 0. -1.
         13    1    1    2    0    0 -0.11212887604E+01  0.33996963456E+02 -0.45762565222E+01  0.34322064339E+02  0.10566000000E+00 0. -1.
        996    1    1    2    0    0  0.11212887604E+01 -0.33996963456E+02  0.74387091786E+02  0.95867044583E+02  0.50000000000E+02 0.  0.
<mgrwt>
<rscale>  0 0.60473555E+02</rscale>
<asrwt>0</asrwt>
<pdfrwt beam="1">  1       13 0.10000000E+01 0.60473555E+02</pdfrwt>
<pdfrwt beam="2">  1       22 0.30189128E+00 0.60473555E+02</pdfrwt>
<totfact> 0.20671894E-01</totfact>
</mgrwt>
</event>
<event>
 4    1  0.2437479E+000  0.5173711E+02  0.7957747E-01  0.1436191E+00
         13   -1    0    0    0    0  0.00000000000E+00  0.00000000000E+00  0.99999944172E+02  0.99999999993E+02  0.10566000000E+00 0.  1.
         22   -1    0    0    0    0 -0.00000000000E+00 -0.00000000000E+00 -0.12239418378E+02  0.12239418378E+02  0.00000000000E+00 0. -1.
         13    1    1    2    0    0 -0.12961765440E+02  0.29531008140E+01  0.41695427606E+01  0.13932853929E+02  0.10566000000E+00 0. -1.
        996    1    1    2    0    0  0.12961765440E+02 -0.29531008140E+01  0.83590983034E+02  0.98306564441E+02  0.50000000000E+02 0.  0.
<mgrwt>
<rscale>  0 0.51737106E+02</rscale>
<asrwt>0</asrwt>
<pdfrwt beam="1">  1       13 0.10000000E+01 0.51737106E+02</pdfrwt>
<pdfrwt beam="2">  1       22 0.12239443E+00 0.51737106E+02</pdfrwt>
<totfact> 0.10421811E+00</totfact>
</mgrwt>
</event>
<event>
 4    1  0.2437479E+000  0.5826950E+02  0.7957747E-01  0.1405241E+00
         13   -1    0    0    0    0  0.00000000000E+00  0.00000000000E+00  0.99999944181E+02  0.10000000000E+03  0.10566000000E+00 0. -1.
         22   -1    0    0    0    0 -0.00000000000E+00 -0.00000000000E+00 -0.38556556137E+02  0.38556556137E+02  0.00000000000E+00 0.  1.
         13    1    1    2    0    0 -0.23957763622E+02 -0.17926531168E+02 -0.21746090972E+02  0.36989709300E+02  0.10566000000E+00 0.  1.
        996    1    1    2    0    0  0.23957763622E+02  0.17926531168E+02  0.83189479017E+02  0.10156684684E+03  0.50000000000E+02 0.  0.
<mgrwt>
<rscale>  0 0.58269503E+02</rscale>
<asrwt>0</asrwt>
<pdfrwt beam="1">  1       13 0.10000000E+01 0.58269503E+02</pdfrwt>
<pdfrwt beam="2">  1       22 0.38556573E+00 0.58269503E+02</pdfrwt>
<totfact> 0.13308386E-01</totfact>
</mgrwt>
</event>
<event>
 4    1  0.2437479E+000  0.5188926E+02  0.7957747E-01  0.1435410E+00
         13   -1    0    0    0    0  0.00000000000E+00  0.00000000000E+00  0.99999944186E+02  0.10000000001E+03  0.10566000000E+00 0.  1.
         22   -1    0    0    0    0 -0.00000000000E+00 -0.00000000000E+00 -0.10984402657E+02  0.10984402657E+02  0.00000000000E+00 0.  1.
         13    1    1    2    0    0  0.10430074911E+02  0.91492507963E+01  0.24875246853E+02  0.28483053257E+02  0.10566000000E+00 0. -1.
        996    1    1    2    0    0 -0.10430074911E+02 -0.91492507963E+01  0.64140294676E+02  0.82501349407E+02  0.50000000000E+02 0.  0.
<mgrwt>
<rscale>  0 0.51889260E+02</rscale>
<asrwt>0</asrwt>
<pdfrwt beam="1">  1       13 0.10000000E+01 0.51889260E+02</pdfrwt>
<pdfrwt beam="2">  1       22 0.10984428E+00 0.51889260E+02</pdfrwt>
<totfact> 0.12279997E+00</totfact>
</mgrwt>
</event>
<event>
 4    1  0.2437479E+000  0.5719698E+02  0.7957747E-01  0.1409986E+00
         13   -1    0    0    0    0  0.00000000000E+00  0.00000000000E+00  0.99999944180E+02  0.10000000000E+03  0.10566000000E+00 0. -1.
         22   -1    0    0    0    0 -0.00000000000E+00 -0.00000000000E+00 -0.19819632890E+02  0.19819632890E+02  0.00000000000E+00 0.  1.
         13    1    1    2    0    0 -0.82016187925E+01  0.26537285814E+02  0.10556690201E+02  0.29714457108E+02  0.10566000000E+00 0.  1.
        996    1    1    2    0    0  0.82016187925E+01 -0.26537285814E+02  0.69623621089E+02  0.90105175782E+02  0.50000000000E+02 0.  0.
<mgrwt>
<rscale>  0 0.57196976E+02</rscale>
<asrwt>0</asrwt>
<pdfrwt beam="1">  1       13 0.10000000E+01 0.57196976E+02</pdfrwt>
<pdfrwt beam="2">  1       22 0.19819655E+00 0.57196976E+02</pdfrwt>
<totfact> 0.46490737E-01</totfact>
</mgrwt>
</event>
<event>
 4    1  0.2437479E+000  0.5112377E+02  0.7957747E-01  0.1439373E+00
         13   -1    0    0    0    0  0.00000000000E+00  0.00000000000E+00  0.99999944186E+02  0.10000000001E+03  0.10566000000E+00 0. -1.
         22   -1    0    0    0    0 -0.00000000000E+00 -0.00000000000E+00 -0.11894858401E+02  0.11894858401E+02  0.00000000000E+00 0. -1.
         13    1    1    2    0    0  0.55481954522E+01 -0.91025874363E+01  0.75955059392E+00  0.10687733715E+02  0.10566000000E+00 0.  1.
        996    1    1    2    0    0 -0.55481954522E+01  0.91025874363E+01  0.87345535191E+02  0.10120712469E+03  0.50000000000E+02 0.  0.
<mgrwt>
<rscale>  0 0.51123767E+02</rscale>
<asrwt>0</asrwt>
<pdfrwt beam="1">  1       13 0.10000000E+01 0.51123767E+02</pdfrwt>
<pdfrwt beam="2">  1       22 0.11894883E+00 0.51123767E+02</pdfrwt>
<totfact> 0.10873490E+00</totfact>
</mgrwt>
</event>
<event>
 4    1  0.2437479E+000  0.5117802E+02  0.7957747E-01  0.1439089E+00
         13   -1    0    0    0    0  0.00000000000E+00  0.00000000000E+00  0.99999944186E+02  0.10000000001E+03  0.10566000000E+00 0.  1.
         22   -1    0    0    0    0 -0.00000000000E+00 -0.00000000000E+00 -0.20693880465E+02  0.20693880465E+02  0.00000000000E+00 0. -1.
         13    1    1    2    0    0 -0.10696109035E+02  0.21869985287E+01 -0.11875512345E+02  0.16131604649E+02  0.10566000000E+00 0. -1.
        996    1    1    2    0    0  0.10696109035E+02 -0.21869985287E+01  0.91181576066E+02  0.10456227582E+03  0.50000000000E+02 0.  0.
<mgrwt>
<rscale>  0 0.51178020E+02</rscale>
<asrwt>0</asrwt>
<pdfrwt beam="1">  1       13 0.10000000E+01 0.51178020E+02</pdfrwt>
<pdfrwt beam="2">  1       22 0.20693903E+00 0.51178020E+02</pdfrwt>
<totfact> 0.42437016E-01</totfact>
</mgrwt>
</event>
<event>
 4    1  0.2437479E+000  0.5129898E+02  0.7957747E-01  0.1438459E+00
         13   -1    0    0    0    0  0.00000000000E+00  0.00000000000E+00  0.99999944174E+02  0.99999999994E+02  0.10566000000E+00 0.  1.
         22   -1    0    0    0    0 -0.00000000000E+00 -0.00000000000E+00 -0.30511131056E+02  0.30511131056E+02  0.00000000000E+00 0. -1.
         13    1    1    2    0    0 -0.90437948822E+01 -0.70565399308E+01 -0.22460150212E+02  0.25220120801E+02  0.10566000000E+00 0. -1.
        996    1    1    2    0    0  0.90437948822E+01  0.70565399308E+01  0.91948963330E+02  0.10529101025E+03  0.50000000000E+02 0.  0.
<mgrwt>
<rscale>  0 0.51298976E+02</rscale>
<asrwt>0</asrwt>
<pdfrwt beam="1">  1       13 0.10000000E+01 0.51298976E+02</pdfrwt>
<pdfrwt beam="2">  1       22 0.30511150E+00 0.51298976E+02</pdfrwt>
<totfact> 0.20045180E-01</totfact>
</mgrwt>
</event>
<event>
 4    1  0.2437479E+000  0.6442757E+02  0.7957747E-01  0.1380138E+00
         13   -1    0    0    0    0  0.00000000000E+00  0.00000000000E+00  0.99999944174E+02  0.99999999995E+02  0.10566000000E+00 0. -1.
         22   -1    0    0    0    0 -0.00000000000E+00 -0.00000000000E+00 -0.33292609899E+02  0.33292609899E+02  0.00000000000E+00 0. -1.
         13    1    1    2    0    0  0.14255128282E+02 -0.38048692830E+02  0.54073928205E+02  0.67638100091E+02  0.10566000000E+00 0.  1.
        996    1    1    2    0    0 -0.14255128282E+02  0.38048692830E+02  0.12633406071E+02  0.65654509802E+02  0.50000000000E+02 0.  0.
<mgrwt>
<rscale>  0 0.64427569E+02</rscale>
<asrwt>0</asrwt>
<pdfrwt beam="1">  1       13 0.10000000E+01 0.64427569E+02</pdfrwt>
<pdfrwt beam="2">  1       22 0.33292629E+00 0.64427569E+02</pdfrwt>
<totfact> 0.17366825E-01</totfact>
</mgrwt>
</event>
<event>
 4    1  0.2437479E+000  0.5133785E+02  0.7957747E-01  0.1438256E+00
         13   -1    0    0    0    0  0.00000000000E+00  0.00000000000E+00  0.99999944177E+02  0.99999999997E+02  0.10566000000E+00 0.  1.
         22   -1    0    0    0    0 -0.00000000000E+00 -0.00000000000E+00 -0.12688153536E+02  0.12688153536E+02  0.00000000000E+00 0.  1.
         13    1    1    2    0    0 -0.28137514888E+01  0.11298558104E+02  0.28527823813E+00  0.11647624667E+02  0.10566000000E+00 0. -1.
        996    1    1    2    0    0  0.28137514888E+01 -0.11298558104E+02  0.87026512402E+02  0.10104052887E+03  0.50000000000E+02 0.  0.
<mgrwt>
<rscale>  0 0.51337848E+02</rscale>
<asrwt>0</asrwt>
<pdfrwt beam="1">  1       13 0.10000000E+01 0.51337848E+02</pdfrwt>
<pdfrwt beam="2">  1       22 0.12688178E+00 0.51337848E+02</pdfrwt>
<totfact> 0.98468041E-01</totfact>
</mgrwt>
</event>
<event>
 4    1  0.2437479E+000  0.5102739E+02  0.7957747E-01  0.1439878E+00
         13   -1    0    0    0    0  0.00000000000E+00  0.00000000000E+00  0.99999944181E+02  0.10000000000E+03  0.10566000000E+00 0.  1.
         22   -1    0    0    0    0 -0.00000000000E+00 -0.00000000000E+00 -0.10907229550E+02  0.10907229550E+02  0.00000000000E+00 0. -1.
         13    1    1    2    0    0 -0.21597474650E+01  0.99564315718E+01  0.26504258788E+01  0.10527628419E+02  0.10566000000E+00 0. -1.
        996    1    1    2    0    0  0.21597474650E+01 -0.99564315718E+01  0.86442288752E+02  0.10037960113E+03  0.50000000000E+02 0.  0.
<mgrwt>
<rscale>  0 0.51027395E+02</rscale>
<asrwt>0</asrwt>
<pdfrwt beam="1">  1       13 0.10000000E+01 0.51027395E+02</pdfrwt>
<pdfrwt beam="2">  1       22 0.10907254E+00 0.51027395E+02</pdfrwt>
<totfact> 0.12384262E+00</totfact>
</mgrwt>
</event>
<event>
 4    1  0.2437479E+000  0.5120212E+02  0.7957747E-01  0.1438963E+00
         13   -1    0    0    0    0  0.00000000000E+00  0.00000000000E+00  0.99999944178E+02  0.99999999998E+02  0.10566000000E+00 0.  1.
         22   -1    0    0    0    0 -0.00000000000E+00 -0.00000000000E+00 -0.10022290615E+02  0.10022290615E+02  0.00000000000E+00 0.  1.
         13    1    1    2    0    0 -0.84985401833E+01  0.70307718891E+01  0.91003813447E+01  0.14299826686E+02  0.10566000000E+00 0. -1.
        996    1    1    2    0    0  0.84985401833E+01 -0.70307718891E+01  0.80877272218E+02  0.95722463926E+02  0.50000000000E+02 0.  0.
<mgrwt>
<rscale>  0 0.51202118E+02</rscale>
<asrwt>0</asrwt>
<pdfrwt beam="1">  1       13 0.10000000E+01 0.51202118E+02</pdfrwt>
<pdfrwt beam="2">  1       22 0.10022316E+00 0.51202118E+02</pdfrwt>
<totfact> 0.14025375E+00</totfact>
</mgrwt>
</event>
<event>
 4    1  0.2437479E+000  0.5755811E+02  0.7957747E-01  0.1408375E+00
         13   -1    0    0    0    0  0.00000000000E+00  0.00000000000E+00  0.99999944177E+02  0.99999999998E+02  0.10566000000E+00 0. -1.
         22   -1    0    0    0    0 -0.00000000000E+00 -0.00000000000E+00 -0.28940024291E+02  0.28940024291E+02  0.00000000000E+00 0. -1.
         13    1    1    2    0    0 -0.15389779212E+02 -0.24001900095E+02 -0.93913948322E+01  0.30019093479E+02  0.10566000000E+00 0.  1.
        996    1    1    2    0    0  0.15389779212E+02  0.24001900095E+02  0.80451314719E+02  0.98920930810E+02  0.50000000000E+02 0.  0.
<mgrwt>
<rscale>  0 0.57558114E+02</rscale>
<asrwt>0</asrwt>
<pdfrwt beam="1">  1       13 0.10000000E+01 0.57558114E+02</pdfrwt>
<pdfrwt beam="2">  1       22 0.28940044E+00 0.57558114E+02</pdfrwt>
<totfact> 0.22320058E-01</totfact>
</mgrwt>
</event>
<event>
 4    1  0.2437479E+000  0.5200394E+02  0.7957747E-01  0.1434823E+00
         13   -1    0    0    0    0  0.00000000000E+00  0.00000000000E+00  0.99999944181E+02  0.10000000000E+03  0.10566000000E+00 0.  1.
         22   -1    0    0    0    0 -0.00000000000E+00 -0.00000000000E+00 -0.30496900359E+02  0.30496900359E+02  0.00000000000E+00 0. -1.
         13    1    1    2    0    0 -0.20353787676E+01 -0.14151589143E+02 -0.21419410073E+02  0.25752913115E+02  0.10566000000E+00 0. -1.
        996    1    1    2    0    0  0.20353787676E+01  0.14151589143E+02  0.90922453894E+02  0.10474398725E+03  0.50000000000E+02 0.  0.
<mgrwt>
<rscale>  0 0.52003944E+02</rscale>
<asrwt>0</asrwt>
<pdfrwt beam="1">  1       13 0.10000000E+01 0.52003944E+02</pdfrwt>
<pdfrwt beam="2">  1       22 0.30496920E+00 0.52003944E+02</pdfrwt>
<totfact> 0.20080834E-01</totfact>
</mgrwt>
</event>
<event>
 4    1  0.2437479E+000  0.5192876E+02  0.7957747E-01  0.1435208E+00
         13   -1    0    0    0    0  0.00000000000E+00  0.00000000000E+00  0.99999944176E+02  0.99999999996E+02  0.10566000000E+00 0. -1.
         22   -1    0    0    0    0 -0.00000000000E+00 -0.00000000000E+00 -0.10891814625E+02  0.10891814625E+02  0.00000000000E+00 0. -1.
         13    1    1    2    0    0 -0.12553461531E+02  0.62455398171E+01  0.17133033813E+02  0.22139290316E+02  0.10566000000E+00 0.  1.
        996    1    1    2    0    0  0.12553461531E+02 -0.62455398171E+01  0.71975095737E+02  0.88752524305E+02  0.50000000000E+02 0.  0.
<mgrwt>
<rscale>  0 0.51928760E+02</rscale>
<asrwt>0</asrwt>
<pdfrwt beam="1">  1       13 0.10000000E+01 0.51928760E+02</pdfrwt>
<pdfrwt beam="2">  1       22 0.10891839E+00 0.51928760E+02</pdfrwt>
<totfact> 0.12436516E+00</totfact>
</mgrwt>
</event>
<event>
 4    1  0.2437479E+000  0.5193276E+02  0.7957747E-01  0.1435187E+00
         13   -1    0    0    0    0  0.00000000000E+00  0.00000000000E+00  0.99999944178E+02  0.99999999998E+02  0.10566000000E+00 0.  1.
         22   -1    0    0    0    0 -0.00000000000E+00 -0.00000000000E+00 -0.65634380028E+02  0.65634380028E+02  0.00000000000E+00 0. -1.
         13    1    1    2    0    0  0.54995373582E+00 -0.14025296544E+02 -0.57997770393E+02  0.59672136939E+02  0.10566000000E+00 0. -1.
        996    1    1    2    0    0 -0.54995373582E+00  0.14025296544E+02  0.92363334543E+02  0.10596224309E+03  0.50000000000E+02 0.  0.
<mgrwt>
<rscale>  0 0.51932758E+02</rscale>
<asrwt>0</asrwt>
<pdfrwt beam="1">  1       13 0.10000000E+01 0.51932758E+02</pdfrwt>
<pdfrwt beam="2">  1       22 0.65634390E+00 0.51932758E+02</pdfrwt>
<totfact> 0.87173624E-02</totfact>
</mgrwt>
</event>
<event>
 4    1  0.2437479E+000  0.5320428E+02  0.7957747E-01  0.1428787E+00
         13   -1    0    0    0    0  0.00000000000E+00  0.00000000000E+00  0.99999944173E+02  0.99999999993E+02  0.10566000000E+00 0.  1.
         22   -1    0    0    0    0 -0.00000000000E+00 -0.00000000000E+00 -0.14129988807E+02  0.14129988807E+02  0.00000000000E+00 0.  1.
         13    1    1    2    0    0 -0.15445637016E+02 -0.95982935613E+01  0.81129338147E+01  0.19912955612E+02  0.10566000000E+00 0. -1.
        996    1    1    2    0    0  0.15445637016E+02  0.95982935613E+01  0.77757021552E+02  0.94217033188E+02  0.50000000000E+02 0.  0.
<mgrwt>
<rscale>  0 0.53204276E+02</rscale>
<asrwt>0</asrwt>
<pdfrwt beam="1">  1       13 0.10000000E+01 0.53204276E+02</pdfrwt>
<pdfrwt beam="2">  1       22 0.14130013E+00 0.53204276E+02</pdfrwt>
<totfact> 0.83278937E-01</totfact>
</mgrwt>
</event>
<event>
 4    1  0.2437479E+000  0.5116910E+02  0.7957747E-01  0.1439136E+00
         13   -1    0    0    0    0  0.00000000000E+00  0.00000000000E+00  0.99999944185E+02  0.10000000001E+03  0.10566000000E+00 0.  1.
         22   -1    0    0    0    0 -0.00000000000E+00 -0.00000000000E+00 -0.44022317203E+02  0.44022317203E+02  0.00000000000E+00 0. -1.
         13    1    1    2    0    0  0.22608768653E+01  0.10637919207E+02 -0.36634338921E+02  0.38214694052E+02  0.10566000000E+00 0. -1.
        996    1    1    2    0    0 -0.22608768653E+01 -0.10637919207E+02  0.92611965904E+02  0.10580762316E+03  0.50000000000E+02 0.  0.
<mgrwt>
<rscale>  0 0.51169101E+02</rscale>
<asrwt>0</asrwt>
<pdfrwt beam="1">  1       13 0.10000000E+01 0.51169101E+02</pdfrwt>
<pdfrwt beam="2">  1       22 0.44022333E+00 0.51169101E+02</pdfrwt>
<totfact> 0.10154647E-01</totfact>
</mgrwt>
</event>
<event>
 4    1  0.2437479E+000  0.5108246E+02  0.7957747E-01  0.1439589E+00
         13   -1    0    0    0    0  0.00000000000E+00  0.00000000000E+00  0.99999944171E+02  0.99999999991E+02  0.10566000000E+00 0. -1.
         22   -1    0    0    0    0 -0.00000000000E+00 -0.00000000000E+00 -0.35905929961E+02  0.35905929961E+02  0.00000000000E+00 0.  1.
         13    1    1    2    0    0  0.67744273553E+01 -0.79702479054E+01 -0.28387946434E+02  0.30253997826E+02  0.10566000000E+00 0.  1.
        996    1    1    2    0    0 -0.67744273553E+01  0.79702479054E+01  0.92481960644E+02  0.10565193213E+03  0.50000000000E+02 0.  0.
<mgrwt>
<rscale>  0 0.51082460E+02</rscale>
<asrwt>0</asrwt>
<pdfrwt beam="1">  1       13 0.10000000E+01 0.51082460E+02</pdfrwt>
<pdfrwt beam="2">  1       22 0.35905948E+00 0.51082460E+02</pdfrwt>
<totfact> 0.15015312E-01</totfact>
</mgrwt>
</event>
<event>
 4    1  0.2437479E+000  0.6021431E+02  0.7957747E-01  0.1396935E+00
         13   -1    0    0    0    0  0.00000000000E+00  0.00000000000E+00  0.99999944182E+02  0.10000000000E+03  0.10566000000E+00 0.  1.
         22   -1    0    0    0    0 -0.00000000000E+00 -0.00000000000E+00 -0.46292195531E+02  0.46292195531E+02  0.00000000000E+00 0. -1.
         13    1    1    2    0    0  0.22188585017E+02 -0.25168040234E+02 -0.28752627226E+02  0.44186969693E+02  0.10566000000E+00 0. -1.
        996    1    1    2    0    0 -0.22188585017E+02  0.25168040234E+02  0.82460375876E+02  0.10210522584E+03  0.50000000000E+02 0.  0.
<mgrwt>
<rscale>  0 0.60214314E+02</rscale>
<asrwt>0</asrwt>
<pdfrwt beam="1">  1       13 0.10000000E+01 0.60214314E+02</pdfrwt>
<pdfrwt beam="2">  1       22 0.46292211E+00 0.60214314E+02</pdfrwt>
<totfact> 0.90635488E-02</totfact>
</mgrwt>
</event>
<event>
 4    1  0.2437479E+000  0.5126280E+02  0.7957747E-01  0.1438647E+00
         13   -1    0    0    0    0  0.00000000000E+00  0.00000000000E+00  0.99999944183E+02  0.10000000000E+03  0.10566000000E+00 0.  1.
         22   -1    0    0    0    0 -0.00000000000E+00 -0.00000000000E+00 -0.47696010524E+02  0.47696010524E+02  0.00000000000E+00 0. -1.
         13    1    1    2    0    0 -0.90927465047E+01  0.67228303578E+01 -0.40296442454E+02  0.41853182979E+02  0.10566000000E+00 0. -1.
        996    1    1    2    0    0  0.90927465047E+01 -0.67228303578E+01  0.92600376113E+02  0.10584282755E+03  0.50000000000E+02 0.  0.
<mgrwt>
<rscale>  0 0.51262798E+02</rscale>
<asrwt>0</asrwt>
<pdfrwt beam="1">  1       13 0.10000000E+01 0.51262798E+02</pdfrwt>
<pdfrwt beam="2">  1       22 0.47696025E+00 0.51262798E+02</pdfrwt>
<totfact> 0.83609179E-02</totfact>
</mgrwt>
</event>
<event>
 4    1  0.2437479E+000  0.5279525E+02  0.7957747E-01  0.1430823E+00
         13   -1    0    0    0    0  0.00000000000E+00  0.00000000000E+00  0.99999944180E+02  0.10000000000E+03  0.10566000000E+00 0.  1.
         22   -1    0    0    0    0 -0.00000000000E+00 -0.00000000000E+00 -0.12288888713E+02  0.12288888713E+02  0.00000000000E+00 0.  1.
         13    1    1    2    0    0 -0.16485422260E+02  0.39457341810E+01  0.16637513898E+02  0.23751968299E+02  0.10566000000E+00 0. -1.
        996    1    1    2    0    0  0.16485422260E+02 -0.39457341810E+01  0.71073541569E+02  0.88536920414E+02  0.50000000000E+02 0.  0.
<mgrwt>
<rscale>  0 0.52795246E+02</rscale>
<asrwt>0</asrwt>
<pdfrwt beam="1">  1       13 0.10000000E+01 0.52795246E+02</pdfrwt>
<pdfrwt beam="2">  1       22 0.12288913E+00 0.52795246E+02</pdfrwt>
<totfact> 0.10381309E+00</totfact>
</mgrwt>
</event>
<event>
 4    1  0.2437479E+000  0.6021135E+02  0.7957747E-01  0.1396947E+00
         13   -1    0    0    0    0  0.00000000000E+00  0.00000000000E+00  0.99999944188E+02  0.10000000001E+03  0.10566000000E+00 0.  1.
         22   -1    0    0    0    0 -0.00000000000E+00 -0.00000000000E+00 -0.27885539908E+02  0.27885539908E+02  0.00000000000E+00 0. -1.
         13    1    1    2    0    0  0.16189448400E+02 -0.29382103582E+02 -0.50508989747E+00  0.33551043654E+02  0.10566000000E+00 0. -1.
        996    1    1    2    0    0 -0.16189448400E+02  0.29382103582E+02  0.72619494177E+02  0.94334496262E+02  0.50000000000E+02 0.  0.
<mgrwt>
<rscale>  0 0.60211347E+02</rscale>
<asrwt>0</asrwt>
<pdfrwt beam="1">  1       13 0.10000000E+01 0.60211347E+02</pdfrwt>
<pdfrwt beam="2">  1       22 0.27885560E+00 0.60211347E+02</pdfrwt>
<totfact> 0.24058456E-01</totfact>
</mgrwt>
</event>
<event>
 4    1  0.2437479E+000  0.5612907E+02  0.7957747E-01  0.1414834E+00
         13   -1    0    0    0    0  0.00000000000E+00  0.00000000000E+00  0.99999944188E+02  0.10000000001E+03  0.10566000000E+00 0.  1.
         22   -1    0    0    0    0 -0.00000000000E+00 -0.00000000000E+00 -0.17093133359E+02  0.17093133359E+02  0.00000000000E+00 0.  1.
         13    1    1    2    0    0  0.22366078175E+02  0.12256881858E+02  0.17640481828E+02  0.31010810518E+02  0.10566000000E+00 0. -1.
        996    1    1    2    0    0 -0.22366078175E+02 -0.12256881858E+02  0.65266329001E+02  0.86082322849E+02  0.50000000000E+02 0.  0.
<mgrwt>
<rscale>  0 0.56129071E+02</rscale>
<asrwt>0</asrwt>
<pdfrwt beam="1">  1       13 0.10000000E+01 0.56129071E+02</pdfrwt>
<pdfrwt beam="2">  1       22 0.17093157E+00 0.56129071E+02</pdfrwt>
<totfact> 0.60681282E-01</totfact>
</mgrwt>
</event>
<event>
 4    1  0.2437479E+000  0.5213296E+02  0.7957747E-01  0.1434165E+00
         13   -1    0    0    0    0  0.00000000000E+00  0.00000000000E+00  0.99999944180E+02  0.10000000000E+03  0.10566000000E+00 0. -1.
         22   -1    0    0    0    0 -0.00000000000E+00 -0.00000000000E+00 -0.34813285737E+02  0.34813285737E+02  0.00000000000E+00 0. -1.
         13    1    1    2    0    0  0.13382390055E+02  0.62255417497E+01 -0.25930045358E+02  0.29836624306E+02  0.10566000000E+00 0.  1.
        996    1    1    2    0    0 -0.13382390055E+02 -0.62255417497E+01  0.91116703801E+02  0.10497666143E+03  0.50000000000E+02 0.  0.
<mgrwt>
<rscale>  0 0.52132962E+02</rscale>
<asrwt>0</asrwt>
<pdfrwt beam="1">  1       13 0.10000000E+01 0.52132962E+02</pdfrwt>
<pdfrwt beam="2">  1       22 0.34813304E+00 0.52132962E+02</pdfrwt>
<totfact> 0.15863726E-01</totfact>
</mgrwt>
</event>
<event>
 4    1  0.2437479E+000  0.5735083E+02  0.7957747E-01  0.1409298E+00
         13   -1    0    0    0    0  0.00000000000E+00  0.00000000000E+00  0.99999944187E+02  0.10000000001E+03  0.10566000000E+00 0. -1.
         22   -1    0    0    0    0 -0.00000000000E+00 -0.00000000000E+00 -0.20172823701E+02  0.20172823701E+02  0.00000000000E+00 0.  1.
         13    1    1    2    0    0  0.26948972712E+02 -0.79290806464E+01  0.10012619056E+02  0.29822494103E+02  0.10566000000E+00 0.  1.
        996    1    1    2    0    0 -0.26948972712E+02  0.79290806464E+01  0.69814501429E+02  0.90350329606E+02  0.50000000000E+02 0.  0.
<mgrwt>
<rscale>  0 0.57350828E+02</rscale>
<asrwt>0</asrwt>
<pdfrwt beam="1">  1       13 0.10000000E+01 0.57350828E+02</pdfrwt>
<pdfrwt beam="2">  1       22 0.20172846E+00 0.57350828E+02</pdfrwt>
<totfact> 0.44991580E-01</totfact>
</mgrwt>
</event>
<event>
 4    1  0.2437479E+000  0.5134658E+02  0.7957747E-01  0.1438211E+00
         13   -1    0    0    0    0  0.00000000000E+00  0.00000000000E+00  0.99999944178E+02  0.99999999999E+02  0.10566000000E+00 0. -1.
         22   -1    0    0    0    0 -0.00000000000E+00 -0.00000000000E+00 -0.22834407421E+02  0.22834407421E+02  0.00000000000E+00 0.  1.
         13    1    1    2    0    0  0.59860393321E+01 -0.10031856945E+02 -0.13981338110E+02  0.18219763995E+02  0.10566000000E+00 0.  1.
        996    1    1    2    0    0 -0.59860393321E+01  0.10031856945E+02  0.91146874868E+02  0.10461464342E+03  0.50000000000E+02 0.  0.
<mgrwt>
<rscale>  0 0.51346576E+02</rscale>
<asrwt>0</asrwt>
<pdfrwt beam="1">  1       13 0.10000000E+01 0.51346576E+02</pdfrwt>
<pdfrwt beam="2">  1       22 0.22834429E+00 0.51346576E+02</pdfrwt>
<totfact> 0.35158035E-01</totfact>
</mgrwt>
</event>
<event>
 4    1  0.2437479E+000  0.5443421E+02  0.7957747E-01  0.1422794E+00
         13   -1    0    0    0    0  0.00000000000E+00  0.00000000000E+00  0.99999944184E+02  0.10000000000E+03  0.10566000000E+00 0. -1.
         22   -1    0    0    0    0 -0.00000000000E+00 -0.00000000000E+00 -0.15136510974E+02  0.15136510974E+02  0.00000000000E+00 0.  1.
         13    1    1    2    0    0  0.17059937438E+02 -0.13116455485E+02  0.13581357160E+02  0.25446950627E+02  0.10566000000E+00 0.  1.
        996    1    1    2    0    0 -0.17059937438E+02  0.13116455485E+02  0.71282076050E+02  0.89689560351E+02  0.50000000000E+02 0.  0.
<mgrwt>
<rscale>  0 0.54434207E+02</rscale>
<asrwt>0</asrwt>
<pdfrwt beam="1">  1       13 0.10000000E+01 0.54434207E+02</pdfrwt>
<pdfrwt beam="2">  1       22 0.15136535E+00 0.54434207E+02</pdfrwt>
<totfact> 0.74522537E-01</totfact>
</mgrwt>
</event>
<event>
 4    1  0.2437479E+000  0.5586841E+02  0.7957747E-01  0.1416036E+00
         13   -1    0    0    0    0  0.00000000000E+00  0.00000000000E+00  0.99999944171E+02  0.99999999991E+02  0.10566000000E+00 0. -1.
         22   -1    0    0    0    0 -0.00000000000E+00 -0.00000000000E+00 -0.31672062810E+02  0.31672062810E+02  0.00000000000E+00 0.  1.
         13    1    1    2    0    0  0.31793032780E+01 -0.24721873262E+02 -0.16649054445E+02  0.29974675392E+02  0.10566000000E+00 0.  1.
        996    1    1    2    0    0 -0.31793032780E+01  0.24721873262E+02  0.84976935805E+02  0.10169738741E+03  0.50000000000E+02 0.  0.
<mgrwt>
<rscale>  0 0.55868408E+02</rscale>
<asrwt>0</asrwt>
<pdfrwt beam="1">  1       13 0.10000000E+01 0.55868408E+02</pdfrwt>
<pdfrwt beam="2">  1       22 0.31672082E+00 0.55868408E+02</pdfrwt>
<totfact> 0.18827823E-01</totfact>
</mgrwt>
</event>
<event>
 4    1  0.2437479E+000  0.5221013E+02  0.7957747E-01  0.1433773E+00
         13   -1    0    0    0    0  0.00000000000E+00  0.00000000000E+00  0.99999944176E+02  0.99999999996E+02  0.10566000000E+00 0.  1.
         22   -1    0    0    0    0 -0.00000000000E+00 -0.00000000000E+00 -0.12305502978E+02  0.12305502978E+02  0.00000000000E+00 0.  1.
         13    1    1    2    0    0  0.15026089079E+02 -0.33837879681E+00  0.79864760329E+01  0.17020364764E+02  0.10566000000E+00 0. -1.
        996    1    1    2    0    0 -0.15026089079E+02  0.33837879681E+00  0.79707965164E+02  0.95285138211E+02  0.50000000000E+02 0.  0.
<mgrwt>
<rscale>  0 0.52210132E+02</rscale>
<asrwt>0</asrwt>
<pdfrwt beam="1">  1       13 0.10000000E+01 0.52210132E+02</pdfrwt>
<pdfrwt beam="2">  1       22 0.12305527E+00 0.52210132E+02</pdfrwt>
<totfact> 0.10346387E+00</totfact>
</mgrwt>
</event>
<event>
 4    1  0.2437479E+000  0.5125440E+02  0.7957747E-01  0.1438691E+00
         13   -1    0    0    0    0  0.00000000000E+00  0.00000000000E+00  0.99999944187E+02  0.10000000001E+03  0.10566000000E+00 0.  1.
         22   -1    0    0    0    0 -0.00000000000E+00 -0.00000000000E+00 -0.22436593960E+02  0.22436593960E+02  0.00000000000E+00 0. -1.
         13    1    1    2    0    0 -0.78240930831E+01  0.81115580922E+01 -0.13715453887E+02  0.17752144846E+02  0.10566000000E+00 0. -1.
        996    1    1    2    0    0  0.78240930831E+01 -0.81115580922E+01  0.91278804114E+02  0.10468444912E+03  0.50000000000E+02 0.  0.
<mgrwt>
<rscale>  0 0.51254403E+02</rscale>
<asrwt>0</asrwt>
<pdfrwt beam="1">  1       13 0.10000000E+01 0.51254403E+02</pdfrwt>
<pdfrwt beam="2">  1       22 0.22436616E+00 0.51254403E+02</pdfrwt>
<totfact> 0.36369118E-01</totfact>
</mgrwt>
</event>
<event>
 4    1  0.2437479E+000  0.5208344E+02  0.7957747E-01  0.1434417E+00
         13   -1    0    0    0    0  0.00000000000E+00  0.00000000000E+00  0.99999944172E+02  0.99999999992E+02  0.10566000000E+00 0. -1.
         22   -1    0    0    0    0 -0.00000000000E+00 -0.00000000000E+00 -0.12183236586E+02  0.12183236586E+02  0.00000000000E+00 0. -1.
         13    1    1    2    0    0  0.11078167155E+02  0.94846938318E+01  0.35416675287E+02  0.38301922367E+02  0.10566000000E+00 0.  1.
        996    1    1    2    0    0 -0.11078167155E+02 -0.94846938318E+01  0.52400032299E+02  0.73881314211E+02  0.50000000000E+02 0.  0.
<mgrwt>
<rscale>  0 0.52083445E+02</rscale>
<asrwt>0</asrwt>
<pdfrwt beam="1">  1       13 0.10000000E+01 0.52083445E+02</pdfrwt>
<pdfrwt beam="2">  1       22 0.12183261E+00 0.52083445E+02</pdfrwt>
<totfact> 0.10504048E+00</totfact>
</mgrwt>
</event>
<event>
 4    1  0.2437479E+000  0.5402583E+02  0.7957747E-01  0.1424763E+00
         13   -1    0    0    0    0  0.00000000000E+00  0.00000000000E+00  0.99999944176E+02  0.99999999996E+02  0.10566000000E+00 0. -1.
         22   -1    0    0    0    0 -0.00000000000E+00 -0.00000000000E+00 -0.25099807401E+02  0.25099807401E+02  0.00000000000E+00 0.  1.
         13    1    1    2    0    0 -0.41253039632E+01  0.20044244999E+02 -0.11293520629E+02  0.23374016827E+02  0.10566000000E+00 0.  1.
        996    1    1    2    0    0  0.41253039632E+01 -0.20044244999E+02  0.86193657405E+02  0.10172579057E+03  0.50000000000E+02 0.  0.
<mgrwt>
<rscale>  0 0.54025826E+02</rscale>
<asrwt>0</asrwt>
<pdfrwt beam="1">  1       13 0.10000000E+01 0.54025826E+02</pdfrwt>
<pdfrwt beam="2">  1       22 0.25099828E+00 0.54025826E+02</pdfrwt>
<totfact> 0.29340167E-01</totfact>
</mgrwt>
</event>
<event>
 4    1  0.2437479E+000  0.5383368E+02  0.7957747E-01  0.1425696E+00
         13   -1    0    0    0    0  0.00000000000E+00  0.00000000000E+00  0.99999944175E+02  0.99999999995E+02  0.10566000000E+00 0. -1.
         22   -1    0    0    0    0 -0.00000000000E+00 -0.00000000000E+00 -0.27546248639E+02  0.27546248639E+02  0.00000000000E+00 0.  1.
         13    1    1    2    0    0  0.19643499545E+02 -0.34925383299E+01 -0.14924211120E+02  0.24916021752E+02  0.10566000000E+00 0.  1.
        996    1    1    2    0    0 -0.19643499545E+02  0.34925383299E+01  0.87377906656E+02  0.10263022688E+03  0.50000000000E+02 0.  0.
<mgrwt>
<rscale>  0 0.53833678E+02</rscale>
<asrwt>0</asrwt>
<pdfrwt beam="1">  1       13 0.10000000E+01 0.53833678E+02</pdfrwt>
<pdfrwt beam="2">  1       22 0.27546269E+00 0.53833678E+02</pdfrwt>
<totfact> 0.24435024E-01</totfact>
</mgrwt>
</event>
<event>
 4    1  0.2437479E+000  0.5799723E+02  0.7957747E-01  0.1406434E+00
         13   -1    0    0    0    0  0.00000000000E+00  0.00000000000E+00  0.99999944174E+02  0.99999999994E+02  0.10566000000E+00 0.  1.
         22   -1    0    0    0    0 -0.00000000000E+00 -0.00000000000E+00 -0.23576621569E+02  0.23576621569E+02  0.00000000000E+00 0.  1.
         13    1    1    2    0    0  0.20195609490E+02 -0.21349849795E+02  0.53838039127E+02  0.61336973760E+02  0.10566000000E+00 0. -1.
        996    1    1    2    0    0 -0.20195609490E+02  0.21349849795E+02  0.22585283477E+02  0.62239647803E+02  0.50000000000E+02 0.  0.
<mgrwt>
<rscale>  0 0.57997230E+02</rscale>
<asrwt>0</asrwt>
<pdfrwt beam="1">  1       13 0.10000000E+01 0.57997230E+02</pdfrwt>
<pdfrwt beam="2">  1       22 0.23576643E+00 0.57997230E+02</pdfrwt>
<totfact> 0.33378278E-01</totfact>
</mgrwt>
</event>
<event>
 4    1  0.2437479E+000  0.6189146E+02  0.7957747E-01  0.1390061E+00
         13   -1    0    0    0    0  0.00000000000E+00  0.00000000000E+00  0.99999944183E+02  0.10000000000E+03  0.10566000000E+00 0.  1.
         22   -1    0    0    0    0 -0.00000000000E+00 -0.00000000000E+00 -0.26667222634E+02  0.26667222634E+02  0.00000000000E+00 0. -1.
         13    1    1    2    0    0  0.36427193472E+02 -0.19006972095E+01  0.93664051723E+01  0.37660241422E+02  0.10566000000E+00 0. -1.
        996    1    1    2    0    0 -0.36427193472E+02  0.19006972095E+01  0.63966316377E+02  0.89006981214E+02  0.50000000000E+02 0.  0.
<mgrwt>
<rscale>  0 0.61891462E+02</rscale>
<asrwt>0</asrwt>
<pdfrwt beam="1">  1       13 0.10000000E+01 0.61891462E+02</pdfrwt>
<pdfrwt beam="2">  1       22 0.26667243E+00 0.61891462E+02</pdfrwt>
<totfact> 0.26315826E-01</totfact>
</mgrwt>
</event>
<event>
 4    1  0.2437479E+000  0.5274657E+02  0.7957747E-01  0.1431066E+00
         13   -1    0    0    0    0  0.00000000000E+00  0.00000000000E+00  0.99999944178E+02  0.99999999998E+02  0.10566000000E+00 0. -1.
         22   -1    0    0    0    0 -0.00000000000E+00 -0.00000000000E+00 -0.22412454863E+02  0.22412454863E+02  0.00000000000E+00 0.  1.
         13    1    1    2    0    0 -0.16540703300E+02 -0.29336158768E+01 -0.10449148928E+02  0.19783752049E+02  0.10566000000E+00 0.  1.
        996    1    1    2    0    0  0.16540703300E+02  0.29336158768E+01  0.88036638243E+02  0.10262870281E+03  0.50000000000E+02 0.  0.
<mgrwt>
<rscale>  0 0.52746573E+02</rscale>
<asrwt>0</asrwt>
<pdfrwt beam="1">  1       13 0.10000000E+01 0.52746573E+02</pdfrwt>
<pdfrwt beam="2">  1       22 0.22412477E+00 0.52746573E+02</pdfrwt>
<totfact> 0.36536704E-01</totfact>
</mgrwt>
</event>
<event>
 4    1  0.2437479E+000  0.5859612E+02  0.7957747E-01  0.1403819E+00
         13   -1    0    0    0    0  0.00000000000E+00  0.00000000000E+00  0.99999944185E+02  0.10000000000E+03  0.10566000000E+00 0. -1.
         22   -1    0    0    0    0 -0.00000000000E+00 -0.00000000000E+00 -0.33358485237E+02  0.33358485237E+02  0.00000000000E+00 0.  1.
         13    1    1    2    0    0  0.53176168773E+01  0.30087003800E+02 -0.14055424393E+02  0.33631398511E+02  0.10566000000E+00 0.  1.
        996    1    1    2    0    0 -0.53176168773E+01 -0.30087003800E+02  0.80696883341E+02  0.99727086731E+02  0.50000000000E+02 0.  0.
<mgrwt>
<rscale>  0 0.58596116E+02</rscale>
<asrwt>0</asrwt>
<pdfrwt beam="1">  1       13 0.10000000E+01 0.58596116E+02</pdfrwt>
<pdfrwt beam="2">  1       22 0.33358504E+00 0.58596116E+02</pdfrwt>
<totfact> 0.17210544E-01</totfact>
</mgrwt>
</event>
<event>
 4    1  0.2437479E+000  0.5260999E+02  0.7957747E-01  0.1431752E+00
         13   -1    0    0    0    0  0.00000000000E+00  0.00000000000E+00  0.99999944165E+02  0.99999999985E+02  0.10566000000E+00 0.  1.
         22   -1    0    0    0    0 -0.00000000000E+00 -0.00000000000E+00 -0.67291717251E+02  0.67291717251E+02  0.00000000000E+00 0. -1.
         13    1    1    2    0    0  0.16124556009E+02  0.27945465573E+01 -0.59184039773E+02  0.61404987785E+02  0.10566000000E+00 0. -1.
        996    1    1    2    0    0 -0.16124556009E+02 -0.27945465573E+01  0.91892266687E+02  0.10588672945E+03  0.50000000000E+02 0.  0.
<mgrwt>
<rscale>  0 0.52609988E+02</rscale>
<asrwt>0</asrwt>
<pdfrwt beam="1">  1       13 0.10000000E+01 0.52609988E+02</pdfrwt>
<pdfrwt beam="2">  1       22 0.67291726E+00 0.52609988E+02</pdfrwt>
<totfact> 0.85609325E-02</totfact>
</mgrwt>
</event>
<event>
 4    1  0.2437479E+000  0.5113241E+02  0.7957747E-01  0.1439328E+00
         13   -1    0    0    0    0  0.00000000000E+00  0.00000000000E+00  0.99999944178E+02  0.99999999998E+02  0.10566000000E+00 0. -1.
         22   -1    0    0    0    0 -0.00000000000E+00 -0.00000000000E+00 -0.10048734241E+02  0.10048734241E+02  0.00000000000E+00 0. -1.
         13    1    1    2    0    0  0.10099059877E+02  0.35400413169E+01  0.76429748646E+01  0.13151012575E+02  0.10566000000E+00 0.  1.
        996    1    1    2    0    0 -0.10099059877E+02 -0.35400413169E+01  0.82308235073E+02  0.96897721664E+02  0.50000000000E+02 0.  0.
<mgrwt>
<rscale>  0 0.51132406E+02</rscale>
<asrwt>0</asrwt>
<pdfrwt beam="1">  1       13 0.10000000E+01 0.51132406E+02</pdfrwt>
<pdfrwt beam="2">  1       22 0.10048759E+00 0.51132406E+02</pdfrwt>
<totfact> 0.13969545E+00</totfact>
</mgrwt>
</event>
<event>
 4    1  0.2437479E+000  0.5205873E+02  0.7957747E-01  0.1434543E+00
         13   -1    0    0    0    0  0.00000000000E+00  0.00000000000E+00  0.99999944180E+02  0.10000000000E+03  0.10566000000E+00 0. -1.
         22   -1    0    0    0    0 -0.00000000000E+00 -0.00000000000E+00 -0.46336100739E+02  0.46336100739E+02  0.00000000000E+00 0.  1.
         13    1    1    2    0    0 -0.17466314309E+01  0.14389586566E+02 -0.38138544208E+02  0.40800375504E+02  0.10566000000E+00 0.  1.
        996    1    1    2    0    0  0.17466314309E+01 -0.14389586566E+02  0.91802387649E+02  0.10553572524E+03  0.50000000000E+02 0.  0.
<mgrwt>
<rscale>  0 0.52058726E+02</rscale>
<asrwt>0</asrwt>
<pdfrwt beam="1">  1       13 0.10000000E+01 0.52058726E+02</pdfrwt>
<pdfrwt beam="2">  1       22 0.46336116E+00 0.52058726E+02</pdfrwt>
<totfact> 0.90045896E-02</totfact>
</mgrwt>
</event>
<event>
 4    1  0.2437479E+000  0.5155598E+02  0.7957747E-01  0.1437125E+00
         13   -1    0    0    0    0  0.00000000000E+00  0.00000000000E+00  0.99999944182E+02  0.10000000000E+03  0.10566000000E+00 0. -1.
         22   -1    0    0    0    0 -0.00000000000E+00 -0.00000000000E+00 -0.27411313439E+02  0.27411313439E+02  0.00000000000E+00 0.  1.
         13    1    1    2    0    0 -0.80949761656E+00  0.12544462096E+02 -0.18722155299E+02  0.22551032765E+02  0.10566000000E+00 0.  1.
        996    1    1    2    0    0  0.80949761656E+00 -0.12544462096E+02  0.91310786043E+02  0.10486028068E+03  0.50000000000E+02 0.  0.
<mgrwt>
<rscale>  0 0.51555977E+02</rscale>
<asrwt>0</asrwt>
<pdfrwt beam="1">  1       13 0.10000000E+01 0.51555977E+02</pdfrwt>
<pdfrwt beam="2">  1       22 0.27411334E+00 0.51555977E+02</pdfrwt>
<totfact> 0.24589600E-01</totfact>
</mgrwt>
</event>
<event>
 4    1  0.2437479E+000  0.5404548E+02  0.7957747E-01  0.1424668E+00
         13   -1    0    0    0    0  0.00000000000E+00  0.00000000000E+00  0.99999944178E+02  0.99999999998E+02  0.10566000000E+00 0.  1.
         22   -1    0    0    0    0 -0.00000000000E+00 -0.00000000000E+00 -0.16243616116E+02  0.16243616116E+02  0.00000000000E+00 0. -1.
         13    1    1    2    0    0  0.20085979911E+02  0.41793302209E+01  0.56827789711E+01  0.21288929774E+02  0.10566000000E+00 0. -1.
        996    1    1    2    0    0 -0.20085979911E+02 -0.41793302209E+01  0.78073549091E+02  0.94954686339E+02  0.50000000000E+02 0.  0.
<mgrwt>
<rscale>  0 0.54045475E+02</rscale>
<asrwt>0</asrwt>
<pdfrwt beam="1">  1       13 0.10000000E+01 0.54045475E+02</pdfrwt>
<pdfrwt beam="2">  1       22 0.16243639E+00 0.54045475E+02</pdfrwt>
<totfact> 0.66058438E-01</totfact>
</mgrwt>
</event>
<event>
 4    1  0.2437479E+000  0.7137835E+02  0.7957747E-01  0.1355468E+00
         13   -1    0    0    0    0  0.00000000000E+00  0.00000000000E+00  0.99999944176E+02  0.99999999996E+02  0.10566000000E+00 0.  1.
         22   -1    0    0    0    0 -0.00000000000E+00 -0.00000000000E+00 -0.40069141699E+02  0.40069141699E+02  0.00000000000E+00 0. -1.
         13    1    1    2    0    0 -0.19627785713E+02  0.47006585224E+02  0.74676412879E+01  0.51484423439E+02  0.10566000000E+00 0. -1.
        996    1    1    2    0    0  0.19627785713E+02 -0.47006585224E+02  0.52463161189E+02  0.88584718256E+02  0.50000000000E+02 0.  0.
<mgrwt>
<rscale>  0 0.71378351E+02</rscale>
<asrwt>0</asrwt>
<pdfrwt beam="1">  1       13 0.10000000E+01 0.71378351E+02</pdfrwt>
<pdfrwt beam="2">  1       22 0.40069158E+00 0.71378351E+02</pdfrwt>
<totfact> 0.12486511E-01</totfact>
</mgrwt>
</event>
<event>
 4    1  0.2437479E+000  0.5579719E+02  0.7957747E-01  0.1416366E+00
         13   -1    0    0    0    0  0.00000000000E+00  0.00000000000E+00  0.99999944172E+02  0.99999999992E+02  0.10566000000E+00 0.  1.
         22   -1    0    0    0    0 -0.00000000000E+00 -0.00000000000E+00 -0.26274969148E+02  0.26274969148E+02  0.00000000000E+00 0. -1.
         13    1    1    2    0    0  0.78529354807E+01 -0.23487399705E+02 -0.91203741848E+01  0.26391645077E+02  0.10566000000E+00 0. -1.
        996    1    1    2    0    0 -0.78529354807E+01  0.23487399705E+02  0.82845349208E+02  0.99883324063E+02  0.50000000000E+02 0.  0.
<mgrwt>
<rscale>  0 0.55797191E+02</rscale>
<asrwt>0</asrwt>
<pdfrwt beam="1">  1       13 0.10000000E+01 0.55797191E+02</pdfrwt>
<pdfrwt beam="2">  1       22 0.26274990E+00 0.55797191E+02</pdfrwt>
<totfact> 0.26879312E-01</totfact>
</mgrwt>
</event>
<event>
 4    1  0.2437479E+000  0.6495426E+02  0.7957747E-01  0.1378144E+00
         13   -1    0    0    0    0  0.00000000000E+00  0.00000000000E+00  0.99999944168E+02  0.99999999988E+02  0.10566000000E+00 0. -1.
         22   -1    0    0    0    0 -0.00000000000E+00 -0.00000000000E+00 -0.29026584098E+02  0.29026584098E+02  0.00000000000E+00 0.  1.
         13    1    1    2    0    0  0.16235191706E+02 -0.38150685735E+02  0.17958958547E+02  0.45183975345E+02  0.10566000000E+00 0.  1.
        996    1    1    2    0    0 -0.16235191706E+02  0.38150685735E+02  0.53014401523E+02  0.83842608742E+02  0.50000000000E+02 0.  0.
<mgrwt>
<rscale>  0 0.64954263E+02</rscale>
<asrwt>0</asrwt>
<pdfrwt beam="1">  1       13 0.10000000E+01 0.64954263E+02</pdfrwt>
<pdfrwt beam="2">  1       22 0.29026604E+00 0.64954263E+02</pdfrwt>
<totfact> 0.22382867E-01</totfact>
</mgrwt>
</event>
<event>
 4    1  0.2437479E+000  0.5165924E+02  0.7957747E-01  0.1436592E+00
         13   -1    0    0    0    0  0.00000000000E+00  0.00000000000E+00  0.99999944180E+02  0.10000000000E+03  0.10566000000E+00 0.  1.
         22   -1    0    0    0    0 -0.00000000000E+00 -0.00000000000E+00 -0.11690290593E+02  0.11690290593E+02  0.00000000000E+00 0.  1.
         13    1    1    2    0    0  0.59728010631E+01 -0.11532697232E+02  0.55351874235E+01  0.14118318662E+02  0.10566000000E+00 0. -1.
        996    1    1    2    0    0 -0.59728010631E+01  0.11532697232E+02  0.82774466163E+02  0.97571971931E+02  0.50000000000E+02 0.  0.
<mgrwt>
<rscale>  0 0.51659244E+02</rscale>
<asrwt>0</asrwt>
<pdfrwt beam="1">  1       13 0.10000000E+01 0.51659244E+02</pdfrwt>
<pdfrwt beam="2">  1       22 0.11690315E+00 0.51659244E+02</pdfrwt>
<totfact> 0.11177813E+00</totfact>
</mgrwt>
</event>
<event>
 4    1  0.2437479E+000  0.5312807E+02  0.7957747E-01  0.1429165E+00
         13   -1    0    0    0    0  0.00000000000E+00  0.00000000000E+00  0.99999944176E+02  0.99999999997E+02  0.10566000000E+00 0. -1.
         22   -1    0    0    0    0 -0.00000000000E+00 -0.00000000000E+00 -0.13957950816E+02  0.13957950816E+02  0.00000000000E+00 0. -1.
         13    1    1    2    0    0  0.11093292454E+02 -0.14125541032E+02  0.82750448105E+01  0.19775732036E+02  0.10566000000E+00 0.  1.
        996    1    1    2    0    0 -0.11093292454E+02  0.14125541032E+02  0.77766948550E+02  0.94182218777E+02  0.50000000000E+02 0.  0.
<mgrwt>
<rscale>  0 0.53128072E+02</rscale>
<asrwt>0</asrwt>
<pdfrwt beam="1">  1       13 0.10000000E+01 0.53128072E+02</pdfrwt>
<pdfrwt beam="2">  1       22 0.13957975E+00 0.53128072E+02</pdfrwt>
<totfact> 0.84938568E-01</totfact>
</mgrwt>
</event>
<event>
 4    1  0.2437479E+000  0.6198805E+02  0.7957747E-01  0.1389673E+00
         13   -1    0    0    0    0  0.00000000000E+00  0.00000000000E+00  0.99999944186E+02  0.10000000001E+03  0.10566000000E+00 0.  1.
         22   -1    0    0    0    0 -0.00000000000E+00 -0.00000000000E+00 -0.39842153519E+02  0.39842153519E+02  0.00000000000E+00 0. -1.
         13    1    1    2    0    0  0.36180888740E+02 -0.57845789900E+01 -0.17394952377E+02  0.40559999955E+02  0.10566000000E+00 0. -1.
        996    1    1    2    0    0 -0.36180888740E+02  0.57845789900E+01  0.77552743044E+02  0.99282153571E+02  0.50000000000E+02 0.  0.
<mgrwt>
<rscale>  0 0.61988048E+02</rscale>
<asrwt>0</asrwt>
<pdfrwt beam="1">  1       13 0.10000000E+01 0.61988048E+02</pdfrwt>
<pdfrwt beam="2">  1       22 0.39842170E+00 0.61988048E+02</pdfrwt>
<totfact> 0.12551088E-01</totfact>
</mgrwt>
</event>
<event>
 4    1  0.2437479E+000  0.5124829E+02  0.7957747E-01  0.1438723E+00
         13   -1    0    0    0    0  0.00000000000E+00  0.00000000000E+00  0.99999944178E+02  0.99999999998E+02  0.10566000000E+00 0. -1.
         22   -1    0    0    0    0 -0.00000000000E+00 -0.00000000000E+00 -0.11248924998E+02  0.11248924998E+02  0.00000000000E+00 0.  1.
         13    1    1    2    0    0 -0.10810406271E+02  0.30857937192E+01  0.34913926119E+01  0.11772340168E+02  0.10566000000E+00 0.  1.
        996    1    1    2    0    0  0.10810406271E+02 -0.30857937192E+01  0.85259626568E+02  0.99476584828E+02  0.50000000000E+02 0.  0.
<mgrwt>
<rscale>  0 0.51248288E+02</rscale>
<asrwt>0</asrwt>
<pdfrwt beam="1">  1       13 0.10000000E+01 0.51248288E+02</pdfrwt>
<pdfrwt beam="2">  1       22 0.11248950E+00 0.51248288E+02</pdfrwt>
<totfact> 0.11833951E+00</totfact>
</mgrwt>
</event>
<event>
 4    1  0.2437479E+000  0.5175394E+02  0.7957747E-01  0.1436105E+00
         13   -1    0    0    0    0  0.00000000000E+00  0.00000000000E+00  0.99999944182E+02  0.10000000000E+03  0.10566000000E+00 0. -1.
         22   -1    0    0    0    0 -0.00000000000E+00 -0.00000000000E+00 -0.12783472508E+02  0.12783472508E+02  0.00000000000E+00 0.  1.
         13    1    1    2    0    0  0.71456612662E+01  0.11287581839E+02  0.26236783379E+01  0.13614875348E+02  0.10566000000E+00 0.  1.
        996    1    1    2    0    0 -0.71456612662E+01 -0.11287581839E+02  0.84592793336E+02  0.99168597162E+02  0.50000000000E+02 0.  0.
<mgrwt>
<rscale>  0 0.51753937E+02</rscale>
<asrwt>0</asrwt>
<pdfrwt beam="1">  1       13 0.10000000E+01 0.51753937E+02</pdfrwt>
<pdfrwt beam="2">  1       22 0.12783497E+00 0.51753937E+02</pdfrwt>
<totfact> 0.97411735E-01</totfact>
</mgrwt>
</event>
<event>
 4    1  0.2437479E+000  0.5426391E+02  0.7957747E-01  0.1423612E+00
         13   -1    0    0    0    0  0.00000000000E+00  0.00000000000E+00  0.99999944182E+02  0.10000000000E+03  0.10566000000E+00 0.  1.
         22   -1    0    0    0    0 -0.00000000000E+00 -0.00000000000E+00 -0.16369853318E+02  0.16369853318E+02  0.00000000000E+00 0.  1.
         13    1    1    2    0    0 -0.20481038340E+02  0.50099390982E+01  0.65008817607E+01  0.22064565461E+02  0.10566000000E+00 0. -1.
        996    1    1    2    0    0  0.20481038340E+02 -0.50099390982E+01  0.77129209104E+02  0.94305287859E+02  0.50000000000E+02 0.  0.
<mgrwt>
<rscale>  0 0.54263915E+02</rscale>
<asrwt>0</asrwt>
<pdfrwt beam="1">  1       13 0.10000000E+01 0.54263915E+02</pdfrwt>
<pdfrwt beam="2">  1       22 0.16369877E+00 0.54263915E+02</pdfrwt>
<totfact> 0.65209236E-01</totfact>
</mgrwt>
</event>
<event>
 4    1  0.2437479E+000  0.5404615E+02  0.7957747E-01  0.1424664E+00
         13   -1    0    0    0    0  0.00000000000E+00  0.00000000000E+00  0.99999944185E+02  0.10000000000E+03  0.10566000000E+00 0.  1.
         22   -1    0    0    0    0 -0.00000000000E+00 -0.00000000000E+00 -0.20812938935E+02  0.20812938935E+02  0.00000000000E+00 0. -1.
         13    1    1    2    0    0  0.27815455776E+01 -0.20328527309E+02 -0.46750265083E+01  0.21044074112E+02  0.10566000000E+00 0. -1.
        996    1    1    2    0    0 -0.27815455776E+01  0.20328527309E+02  0.83862031758E+02  0.99768864827E+02  0.50000000000E+02 0.  0.
<mgrwt>
<rscale>  0 0.54046147E+02</rscale>
<asrwt>0</asrwt>
<pdfrwt beam="1">  1       13 0.10000000E+01 0.54046147E+02</pdfrwt>
<pdfrwt beam="2">  1       22 0.20812961E+00 0.54046147E+02</pdfrwt>
<totfact> 0.42189519E-01</totfact>
</mgrwt>
</event>
<event>
 4    1  0.2437479E+000  0.6316277E+02  0.7957747E-01  0.1385019E+00
         13   -1    0    0    0    0  0.00000000000E+00  0.00000000000E+00  0.99999944176E+02  0.99999999996E+02  0.10566000000E+00 0.  1.
         22   -1    0    0    0    0 -0.00000000000E+00 -0.00000000000E+00 -0.41701045175E+02  0.41701045175E+02  0.00000000000E+00 0. -1.
         13    1    1    2    0    0 -0.37743071292E+02 -0.80620148236E+01 -0.18054042804E+02  0.42608627520E+02  0.10566000000E+00 0. -1.
        996    1    1    2    0    0  0.37743071292E+02  0.80620148236E+01  0.76352941805E+02  0.99092417650E+02  0.50000000000E+02 0.  0.
<mgrwt>
<rscale>  0 0.63162770E+02</rscale>
<asrwt>0</asrwt>
<pdfrwt beam="1">  1       13 0.10000000E+01 0.63162770E+02</pdfrwt>
<pdfrwt beam="2">  1       22 0.41701061E+00 0.63162770E+02</pdfrwt>
<totfact> 0.11482342E-01</totfact>
</mgrwt>
</event>
<event>
 4    1  0.2437479E+000  0.5108885E+02  0.7957747E-01  0.1439556E+00
         13   -1    0    0    0    0  0.00000000000E+00  0.00000000000E+00  0.99999944182E+02  0.10000000000E+03  0.10566000000E+00 0. -1.
         22   -1    0    0    0    0 -0.00000000000E+00 -0.00000000000E+00 -0.96204653476E+01  0.96204653476E+01  0.00000000000E+00 0. -1.
         13    1    1    2    0    0  0.73903884295E+01 -0.74466418560E+01  0.10832769298E+02  0.15080794766E+02  0.10566000000E+00 0.  1.
        996    1    1    2    0    0 -0.73903884295E+01  0.74466418560E+01  0.79546709537E+02  0.94539670585E+02  0.50000000000E+02 0.  0.
<mgrwt>
<rscale>  0 0.51088847E+02</rscale>
<asrwt>0</asrwt>
<pdfrwt beam="1">  1       13 0.10000000E+01 0.51088847E+02</pdfrwt>
<pdfrwt beam="2">  1       22 0.96204906E-01 0.51088847E+02</pdfrwt>
<totfact> 0.14873138E+00</totfact>
</mgrwt>
</event>
<event>
 4    1  0.2437479E+000  0.5519808E+02  0.7957747E-01  0.1419164E+00
         13   -1    0    0    0    0  0.00000000000E+00  0.00000000000E+00  0.99999944176E+02  0.99999999997E+02  0.10566000000E+00 0. -1.
         22   -1    0    0    0    0 -0.00000000000E+00 -0.00000000000E+00 -0.22099975280E+02  0.22099975280E+02  0.00000000000E+00 0.  1.
         13    1    1    2    0    0 -0.17441396665E+02  0.15576462138E+02 -0.36069352589E+01  0.23661141907E+02  0.10566000000E+00 0.  1.
        996    1    1    2    0    0  0.17441396665E+02 -0.15576462138E+02  0.81506904155E+02  0.98438833370E+02  0.50000000000E+02 0.  0.
<mgrwt>
<rscale>  0 0.55198084E+02</rscale>
<asrwt>0</asrwt>
<pdfrwt beam="1">  1       13 0.10000000E+01 0.55198084E+02</pdfrwt>
<pdfrwt beam="2">  1       22 0.22099997E+00 0.55198084E+02</pdfrwt>
<totfact> 0.37690660E-01</totfact>
</mgrwt>
</event>
<event>
 4    1  0.2437479E+000  0.5116801E+02  0.7957747E-01  0.1439142E+00
         13   -1    0    0    0    0  0.00000000000E+00  0.00000000000E+00  0.99999944181E+02  0.10000000000E+03  0.10566000000E+00 0.  1.
         22   -1    0    0    0    0 -0.00000000000E+00 -0.00000000000E+00 -0.15182123491E+02  0.15182123491E+02  0.00000000000E+00 0.  1.
         13    1    1    2    0    0 -0.10752175985E+02  0.15988086223E+01 -0.48801055891E+01  0.11916042632E+02  0.10566000000E+00 0. -1.
        996    1    1    2    0    0  0.10752175985E+02 -0.15988086223E+01  0.89697926279E+02  0.10326608086E+03  0.50000000000E+02 0.  0.
<mgrwt>
<rscale>  0 0.51168012E+02</rscale>
<asrwt>0</asrwt>
<pdfrwt beam="1">  1       13 0.10000000E+01 0.51168012E+02</pdfrwt>
<pdfrwt beam="2">  1       22 0.15182147E+00 0.51168012E+02</pdfrwt>
<totfact> 0.73665198E-01</totfact>
</mgrwt>
</event>
<event>
 4    1  0.2437479E+000  0.5123332E+02  0.7957747E-01  0.1438801E+00
         13   -1    0    0    0    0  0.00000000000E+00  0.00000000000E+00  0.99999944180E+02  0.10000000000E+03  0.10566000000E+00 0. -1.
         22   -1    0    0    0    0 -0.00000000000E+00 -0.00000000000E+00 -0.14710767793E+02  0.14710767793E+02  0.00000000000E+00 0.  1.
         13    1    1    2    0    0  0.97918039616E+01  0.53827655075E+01 -0.39154089230E+01  0.11840404571E+02  0.10566000000E+00 0.  1.
        996    1    1    2    0    0 -0.97918039616E+01 -0.53827655075E+01  0.89204585310E+02  0.10287036322E+03  0.50000000000E+02 0.  0.
<mgrwt>
<rscale>  0 0.51233325E+02</rscale>
<asrwt>0</asrwt>
<pdfrwt beam="1">  1       13 0.10000000E+01 0.51233325E+02</pdfrwt>
<pdfrwt beam="2">  1       22 0.14710792E+00 0.51233325E+02</pdfrwt>
<totfact> 0.77640001E-01</totfact>
</mgrwt>
</event>
<event>
 4    1  0.2437479E+000  0.5099686E+02  0.7957747E-01  0.1440038E+00
         13   -1    0    0    0    0  0.00000000000E+00  0.00000000000E+00  0.99999944180E+02  0.10000000000E+03  0.10566000000E+00 0.  1.
         22   -1    0    0    0    0 -0.00000000000E+00 -0.00000000000E+00 -0.23276207340E+02  0.23276207340E+02  0.00000000000E+00 0. -1.
         13    1    1    2    0    0 -0.45702749790E+01  0.89326518779E+01 -0.15165260013E+02  0.18184497745E+02  0.10566000000E+00 0. -1.
        996    1    1    2    0    0  0.45702749790E+01 -0.89326518779E+01  0.91888996853E+02  0.10509170960E+03  0.50000000000E+02 0.  0.
<mgrwt>
<rscale>  0 0.50996860E+02</rscale>
<asrwt>0</asrwt>
<pdfrwt beam="1">  1       13 0.10000000E+01 0.50996860E+02</pdfrwt>
<pdfrwt beam="2">  1       22 0.23276229E+00 0.50996860E+02</pdfrwt>
<totfact> 0.33852472E-01</totfact>
</mgrwt>
</event>
<event>
 4    1  0.2437479E+000  0.5130992E+02  0.7957747E-01  0.1438402E+00
         13   -1    0    0    0    0  0.00000000000E+00  0.00000000000E+00  0.99999944179E+02  0.99999999999E+02  0.10566000000E+00 0.  1.
         22   -1    0    0    0    0 -0.00000000000E+00 -0.00000000000E+00 -0.37190363608E+02  0.37190363608E+02  0.00000000000E+00 0. -1.
         13    1    1    2    0    0  0.10691384020E+02  0.42897952515E+01 -0.29449750078E+02  0.31622886953E+02  0.10566000000E+00 0. -1.
        996    1    1    2    0    0 -0.10691384020E+02 -0.42897952515E+01  0.92259330648E+02  0.10556747665E+03  0.50000000000E+02 0.  0.
<mgrwt>
<rscale>  0 0.51309921E+02</rscale>
<asrwt>0</asrwt>
<pdfrwt beam="1">  1       13 0.10000000E+01 0.51309921E+02</pdfrwt>
<pdfrwt beam="2">  1       22 0.37190381E+00 0.51309921E+02</pdfrwt>
<totfact> 0.14118560E-01</totfact>
</mgrwt>
</event>
<event>
 4    1  0.2437479E+000  0.5111017E+02  0.7957747E-01  0.1439444E+00
         13   -1    0    0    0    0  0.00000000000E+00  0.00000000000E+00  0.99999944184E+02  0.10000000000E+03  0.10566000000E+00 0. -1.
         22   -1    0    0    0    0 -0.00000000000E+00 -0.00000000000E+00 -0.28621926100E+02  0.28621926100E+02  0.00000000000E+00 0.  1.
         13    1    1    2    0    0 -0.30012042619E+01 -0.10160824757E+02 -0.20731681760E+02  0.23282254603E+02  0.10566000000E+00 0.  1.
        996    1    1    2    0    0  0.30012042619E+01  0.10160824757E+02  0.92109699843E+02  0.10533967150E+03  0.50000000000E+02 0.  0.
<mgrwt>
<rscale>  0 0.51110171E+02</rscale>
<asrwt>0</asrwt>
<pdfrwt beam="1">  1       13 0.10000000E+01 0.51110171E+02</pdfrwt>
<pdfrwt beam="2">  1       22 0.28621946E+00 0.51110171E+02</pdfrwt>
<totfact> 0.22604056E-01</totfact>
</mgrwt>
</event>
<event>
 4    1  0.2437479E+000  0.5287603E+02  0.7957747E-01  0.1430419E+00
         13   -1    0    0    0    0  0.00000000000E+00  0.00000000000E+00  0.99999944179E+02  0.99999999999E+02  0.10566000000E+00 0.  1.
         22   -1    0    0    0    0 -0.00000000000E+00 -0.00000000000E+00 -0.26586953380E+02  0.26586953380E+02  0.00000000000E+00 0. -1.
         13    1    1    2    0    0 -0.16241168246E+02 -0.56656211755E+01 -0.15490055690E+02  0.23147954524E+02  0.10566000000E+00 0. -1.
        996    1    1    2    0    0  0.16241168246E+02  0.56656211755E+01  0.88903046489E+02  0.10343899886E+03  0.50000000000E+02 0.  0.
<mgrwt>
<rscale>  0 0.52876032E+02</rscale>
<asrwt>0</asrwt>
<pdfrwt beam="1">  1       13 0.10000000E+01 0.52876032E+02</pdfrwt>
<pdfrwt beam="2">  1       22 0.26586974E+00 0.52876032E+02</pdfrwt>
<totfact> 0.26152981E-01</totfact>
</mgrwt>
</event>
<event>
 4    1  0.2437479E+000  0.6760098E+02  0.7957747E-01  0.1368446E+00
         13   -1    0    0    0    0  0.00000000000E+00  0.00000000000E+00  0.99999944172E+02  0.99999999993E+02  0.10566000000E+00 0. -1.
         22   -1    0    0    0    0 -0.00000000000E+00 -0.00000000000E+00 -0.74070025262E+02  0.74070025262E+02  0.00000000000E+00 0.  1.
         13    1    1    2    0    0 -0.36977091626E+02 -0.26506367329E+02 -0.53196584565E+02  0.69998432751E+02  0.10566000000E+00 0.  1.
        996    1    1    2    0    0  0.36977091626E+02  0.26506367329E+02  0.79126503475E+02  0.10407159250E+03  0.50000000000E+02 0.  0.
<mgrwt>
<rscale>  0 0.67600982E+02</rscale>
<asrwt>0</asrwt>
<pdfrwt beam="1">  1       13 0.10000000E+01 0.67600982E+02</pdfrwt>
<pdfrwt beam="2">  1       22 0.74070033E+00 0.67600982E+02</pdfrwt>
<totfact> 0.53370131E-02</totfact>
</mgrwt>
</event>
<event>
 4    1  0.2437479E+000  0.5605079E+02  0.7957747E-01  0.1415194E+00
         13   -1    0    0    0    0  0.00000000000E+00  0.00000000000E+00  0.99999944178E+02  0.99999999998E+02  0.10566000000E+00 0.  1.
         22   -1    0    0    0    0 -0.00000000000E+00 -0.00000000000E+00 -0.16566165886E+02  0.16566165886E+02  0.00000000000E+00 0.  1.
         13    1    1    2    0    0 -0.18115203938E+01 -0.25266776186E+02  0.24766411944E+02  0.35427078761E+02  0.10566000000E+00 0. -1.
        996    1    1    2    0    0  0.18115203938E+01  0.25266776186E+02  0.58667366348E+02  0.81139087123E+02  0.50000000000E+02 0.  0.
<mgrwt>
<rscale>  0 0.56050795E+02</rscale>
<asrwt>0</asrwt>
<pdfrwt beam="1">  1       13 0.10000000E+01 0.56050795E+02</pdfrwt>
<pdfrwt beam="2">  1       22 0.16566189E+00 0.56050795E+02</pdfrwt>
<totfact> 0.64087029E-01</totfact>
</mgrwt>
</event>
<event>
 4    1  0.2437479E+000  0.5215023E+02  0.7957747E-01  0.1434077E+00
         13   -1    0    0    0    0  0.00000000000E+00  0.00000000000E+00  0.99999944180E+02  0.10000000000E+03  0.10566000000E+00 0.  1.
         22   -1    0    0    0    0 -0.00000000000E+00 -0.00000000000E+00 -0.21427180794E+02  0.21427180794E+02  0.00000000000E+00 0.  1.
         13    1    1    2    0    0 -0.11668374832E+02 -0.91375898929E+01 -0.10532963832E+02  0.18182436893E+02  0.10566000000E+00 0. -1.
        996    1    1    2    0    0  0.11668374832E+02  0.91375898929E+01  0.89105727217E+02  0.10324474390E+03  0.50000000000E+02 0.  0.
<mgrwt>
<rscale>  0 0.52150230E+02</rscale>
<asrwt>0</asrwt>
<pdfrwt beam="1">  1       13 0.10000000E+01 0.52150230E+02</pdfrwt>
<pdfrwt beam="2">  1       22 0.21427203E+00 0.52150230E+02</pdfrwt>
<totfact> 0.39791667E-01</totfact>
</mgrwt>
</event>
<event>
 4    1  0.2437479E+000  0.5193983E+02  0.7957747E-01  0.1435151E+00
         13   -1    0    0    0    0  0.00000000000E+00  0.00000000000E+00  0.99999944173E+02  0.99999999993E+02  0.10566000000E+00 0.  1.
         22   -1    0    0    0    0 -0.00000000000E+00 -0.00000000000E+00 -0.17749520744E+02  0.17749520744E+02  0.00000000000E+00 0. -1.
         13    1    1    2    0    0  0.93500066302E+01 -0.10503480306E+02 -0.60476337787E+01  0.15307865980E+02  0.10566000000E+00 0. -1.
        996    1    1    2    0    0 -0.93500066302E+01  0.10503480306E+02  0.88298057208E+02  0.10244165476E+03  0.50000000000E+02 0.  0.
<mgrwt>
<rscale>  0 0.51939828E+02</rscale>
<asrwt>0</asrwt>
<pdfrwt beam="1">  1       13 0.10000000E+01 0.51939828E+02</pdfrwt>
<pdfrwt beam="2">  1       22 0.17749544E+00 0.51939828E+02</pdfrwt>
<totfact> 0.56327815E-01</totfact>
</mgrwt>
</event>
<event>
 4    1  0.2437479E+000  0.5135666E+02  0.7957747E-01  0.1438159E+00
         13   -1    0    0    0    0  0.00000000000E+00  0.00000000000E+00  0.99999944189E+02  0.10000000001E+03  0.10566000000E+00 0.  1.
         22   -1    0    0    0    0 -0.00000000000E+00 -0.00000000000E+00 -0.17014179913E+02  0.17014179913E+02  0.00000000000E+00 0.  1.
         13    1    1    2    0    0  0.10256728203E+02 -0.56838000959E+01 -0.68164596107E+01  0.13563972229E+02  0.10566000000E+00 0. -1.
        996    1    1    2    0    0 -0.10256728203E+02  0.56838000959E+01  0.89802223887E+02  0.10345020769E+03  0.50000000000E+02 0.  0.
<mgrwt>
<rscale>  0 0.51356655E+02</rscale>
<asrwt>0</asrwt>
<pdfrwt beam="1">  1       13 0.10000000E+01 0.51356655E+02</pdfrwt>
<pdfrwt beam="2">  1       22 0.17014203E+00 0.51356655E+02</pdfrwt>
<totfact> 0.60633600E-01</totfact>
</mgrwt>
</event>
<event>
 4    1  0.2437479E+000  0.5365140E+02  0.7957747E-01  0.1426586E+00
         13   -1    0    0    0    0  0.00000000000E+00  0.00000000000E+00  0.99999944177E+02  0.99999999997E+02  0.10566000000E+00 0. -1.
         22   -1    0    0    0    0 -0.00000000000E+00 -0.00000000000E+00 -0.29308671507E+02  0.29308671507E+02  0.00000000000E+00 0.  1.
         13    1    1    2    0    0 -0.19307052579E+02 -0.23897413235E+01 -0.17442524582E+02  0.26129025445E+02  0.10566000000E+00 0.  1.
        996    1    1    2    0    0  0.19307052579E+02  0.23897413235E+01  0.88133797252E+02  0.10317964606E+03  0.50000000000E+02 0.  0.
<mgrwt>
<rscale>  0 0.53651404E+02</rscale>
<asrwt>0</asrwt>
<pdfrwt beam="1">  1       13 0.10000000E+01 0.53651404E+02</pdfrwt>
<pdfrwt beam="2">  1       22 0.29308691E+00 0.53651404E+02</pdfrwt>
<totfact> 0.21679870E-01</totfact>
</mgrwt>
</event>
<event>
 4    1  0.2437479E+000  0.5267650E+02  0.7957747E-01  0.1431418E+00
         13   -1    0    0    0    0  0.00000000000E+00  0.00000000000E+00  0.99999944179E+02  0.10000000000E+03  0.10566000000E+00 0.  1.
         22   -1    0    0    0    0 -0.00000000000E+00 -0.00000000000E+00 -0.14269090487E+02  0.14269090487E+02  0.00000000000E+00 0.  1.
         13    1    1    2    0    0  0.15984317932E+02 -0.43949360648E+01  0.40330941699E+01  0.17061386092E+02  0.10566000000E+00 0. -1.
        996    1    1    2    0    0 -0.15984317932E+02  0.43949360648E+01  0.81697759522E+02  0.97207704395E+02  0.50000000000E+02 0.  0.
<mgrwt>
<rscale>  0 0.52676502E+02</rscale>
<asrwt>0</asrwt>
<pdfrwt beam="1">  1       13 0.10000000E+01 0.52676502E+02</pdfrwt>
<pdfrwt beam="2">  1       22 0.14269114E+00 0.52676502E+02</pdfrwt>
<totfact> 0.81870829E-01</totfact>
</mgrwt>
</event>
<event>
 4    1  0.2437479E+000  0.5144893E+02  0.7957747E-01  0.1437680E+00
         13   -1    0    0    0    0  0.00000000000E+00  0.00000000000E+00  0.99999944174E+02  0.99999999994E+02  0.10566000000E+00 0. -1.
         22   -1    0    0    0    0 -0.00000000000E+00 -0.00000000000E+00 -0.17473543985E+02  0.17473543985E+02  0.00000000000E+00 0.  1.
         13    1    1    2    0    0  0.11831598982E+02  0.26467976921E+01 -0.71579475668E+01  0.14079760292E+02  0.10566000000E+00 0.  1.
        996    1    1    2    0    0 -0.11831598982E+02 -0.26467976921E+01  0.89684347756E+02  0.10339378369E+03  0.50000000000E+02 0.  0.
<mgrwt>
<rscale>  0 0.51448929E+02</rscale>
<asrwt>0</asrwt>
<pdfrwt beam="1">  1       13 0.10000000E+01 0.51448929E+02</pdfrwt>
<pdfrwt beam="2">  1       22 0.17473567E+00 0.51448929E+02</pdfrwt>
<totfact> 0.57863943E-01</totfact>
</mgrwt>
</event>
<event>
 4    1  0.2437479E+000  0.5334851E+02  0.7957747E-01  0.1428074E+00
         13   -1    0    0    0    0  0.00000000000E+00  0.00000000000E+00  0.99999944185E+02  0.10000000000E+03  0.10566000000E+00 0. -1.
         22   -1    0    0    0    0 -0.00000000000E+00 -0.00000000000E+00 -0.55036042593E+02  0.55036042593E+02  0.00000000000E+00 0.  1.
         13    1    1    2    0    0 -0.18509732743E+02  0.18583335045E+01 -0.45979317466E+02  0.49600125083E+02  0.10566000000E+00 0.  1.
        996    1    1    2    0    0  0.18509732743E+02 -0.18583335045E+01  0.90943219057E+02  0.10543591751E+03  0.50000000000E+02 0.  0.
<mgrwt>
<rscale>  0 0.53348511E+02</rscale>
<asrwt>0</asrwt>
<pdfrwt beam="1">  1       13 0.10000000E+01 0.53348511E+02</pdfrwt>
<pdfrwt beam="2">  1       22 0.55036055E+00 0.53348511E+02</pdfrwt>
<totfact> 0.59205161E-02</totfact>
</mgrwt>
</event>
<event>
 4    1  0.2437479E+000  0.6099743E+02  0.7957747E-01  0.1393693E+00
         13   -1    0    0    0    0  0.00000000000E+00  0.00000000000E+00  0.99999944182E+02  0.10000000000E+03  0.10566000000E+00 0. -1.
         22   -1    0    0    0    0 -0.00000000000E+00 -0.00000000000E+00 -0.23072176559E+02  0.23072176559E+02  0.00000000000E+00 0.  1.
         13    1    1    2    0    0  0.20097320678E+02 -0.28579433032E+02  0.24950703409E+02  0.42932913429E+02  0.10566000000E+00 0.  1.
        996    1    1    2    0    0 -0.20097320678E+02  0.28579433032E+02  0.51977064214E+02  0.80139263131E+02  0.50000000000E+02 0.  0.
<mgrwt>
<rscale>  0 0.60997429E+02</rscale>
<asrwt>0</asrwt>
<pdfrwt beam="1">  1       13 0.10000000E+01 0.60997429E+02</pdfrwt>
<pdfrwt beam="2">  1       22 0.23072198E+00 0.60997429E+02</pdfrwt>
<totfact> 0.34970156E-01</totfact>
</mgrwt>
</event>
<event>
 4    1  0.2437479E+000  0.5260068E+02  0.7957747E-01  0.1431799E+00
         13   -1    0    0    0    0  0.00000000000E+00  0.00000000000E+00  0.99999944181E+02  0.10000000000E+03  0.10566000000E+00 0.  1.
         22   -1    0    0    0    0 -0.00000000000E+00 -0.00000000000E+00 -0.16598411452E+02  0.16598411452E+02  0.00000000000E+00 0. -1.
         13    1    1    2    0    0  0.62548815386E+01 -0.15089987831E+02 -0.18349955425E+01  0.16438054887E+02  0.10566000000E+00 0. -1.
        996    1    1    2    0    0 -0.62548815386E+01  0.15089987831E+02  0.85236528271E+02  0.10016035657E+03  0.50000000000E+02 0.  0.
<mgrwt>
<rscale>  0 0.52600678E+02</rscale>
<asrwt>0</asrwt>
<pdfrwt beam="1">  1       13 0.10000000E+01 0.52600678E+02</pdfrwt>
<pdfrwt beam="2">  1       22 0.16598435E+00 0.52600678E+02</pdfrwt>
<totfact> 0.63460640E-01</totfact>
</mgrwt>
</event>
<event>
 4    1  0.2437479E+000  0.5172861E+02  0.7957747E-01  0.1436235E+00
         13   -1    0    0    0    0  0.00000000000E+00  0.00000000000E+00  0.99999944175E+02  0.99999999995E+02  0.10566000000E+00 0. -1.
         22   -1    0    0    0    0 -0.00000000000E+00 -0.00000000000E+00 -0.10670343518E+02  0.10670343518E+02  0.00000000000E+00 0. -1.
         13    1    1    2    0    0  0.13192439787E+02  0.13446848465E+01  0.13937836992E+02  0.19238583859E+02  0.10566000000E+00 0.  1.
        996    1    1    2    0    0 -0.13192439787E+02 -0.13446848465E+01  0.75391763665E+02  0.91431759654E+02  0.50000000000E+02 0.  0.
<mgrwt>
<rscale>  0 0.51728606E+02</rscale>
<asrwt>0</asrwt>
<pdfrwt beam="1">  1       13 0.10000000E+01 0.51728606E+02</pdfrwt>
<pdfrwt beam="2">  1       22 0.10670368E+00 0.51728606E+02</pdfrwt>
<totfact> 0.12814196E+00</totfact>
</mgrwt>
</event>
<event>
 4    1  0.2437479E+000  0.5101470E+02  0.7957747E-01  0.1439944E+00
         13   -1    0    0    0    0  0.00000000000E+00  0.00000000000E+00  0.99999944175E+02  0.99999999995E+02  0.10566000000E+00 0. -1.
         22   -1    0    0    0    0 -0.00000000000E+00 -0.00000000000E+00 -0.99722777148E+01  0.99722777148E+01  0.00000000000E+00 0. -1.
         13    1    1    2    0    0 -0.48925103644E+01 -0.88635879811E+01  0.62924170591E+01  0.11920802240E+02  0.10566000000E+00 0.  1.
        996    1    1    2    0    0  0.48925103644E+01  0.88635879811E+01  0.83735249401E+02  0.98051475470E+02  0.50000000000E+02 0.  0.
<mgrwt>
<rscale>  0 0.51014702E+02</rscale>
<asrwt>0</asrwt>
<pdfrwt beam="1">  1       13 0.10000000E+01 0.51014702E+02</pdfrwt>
<pdfrwt beam="2">  1       22 0.99723028E-01 0.51014702E+02</pdfrwt>
<totfact> 0.14120870E+00</totfact>
</mgrwt>
</event>
<event>
 4    1  0.2437479E+000  0.5578764E+02  0.7957747E-01  0.1416410E+00
         13   -1    0    0    0    0  0.00000000000E+00  0.00000000000E+00  0.99999944179E+02  0.99999999999E+02  0.10566000000E+00 0.  1.
         22   -1    0    0    0    0 -0.00000000000E+00 -0.00000000000E+00 -0.62090750269E+02  0.62090750269E+02  0.00000000000E+00 0. -1.
         13    1    1    2    0    0  0.88668136832E+01 -0.23100650880E+02 -0.51253287319E+02  0.56913716107E+02  0.10566000000E+00 0. -1.
        996    1    1    2    0    0 -0.88668136832E+01  0.23100650880E+02  0.89162481229E+02  0.10517703416E+03  0.50000000000E+02 0.  0.
<mgrwt>
<rscale>  0 0.55787637E+02</rscale>
<asrwt>0</asrwt>
<pdfrwt beam="1">  1       13 0.10000000E+01 0.55787637E+02</pdfrwt>
<pdfrwt beam="2">  1       22 0.62090761E+00 0.55787637E+02</pdfrwt>
<totfact> 0.73464374E-02</totfact>
</mgrwt>
</event>
<event>
 4    1  0.2437479E+000  0.5159800E+02  0.7957747E-01  0.1436908E+00
         13   -1    0    0    0    0  0.00000000000E+00  0.00000000000E+00  0.99999944186E+02  0.10000000001E+03  0.10566000000E+00 0.  1.
         22   -1    0    0    0    0 -0.00000000000E+00 -0.00000000000E+00 -0.10503786603E+02  0.10503786603E+02  0.00000000000E+00 0.  1.
         13    1    1    2    0    0  0.11134177643E+02 -0.61954367628E+01  0.12755980433E+02  0.18029962543E+02  0.10566000000E+00 0. -1.
        996    1    1    2    0    0 -0.11134177643E+02  0.61954367628E+01  0.76740177150E+02  0.92473824066E+02  0.50000000000E+02 0.  0.
<mgrwt>
<rscale>  0 0.51597998E+02</rscale>
<asrwt>0</asrwt>
<pdfrwt beam="1">  1       13 0.10000000E+01 0.51597998E+02</pdfrwt>
<pdfrwt beam="2">  1       22 0.10503812E+00 0.51597998E+02</pdfrwt>
<totfact> 0.13110211E+00</totfact>
</mgrwt>
</event>
<event>
 4    1  0.2437479E+000  0.5144490E+02  0.7957747E-01  0.1437700E+00
         13   -1    0    0    0    0  0.00000000000E+00  0.00000000000E+00  0.99999944174E+02  0.99999999995E+02  0.10566000000E+00 0. -1.
         22   -1    0    0    0    0 -0.00000000000E+00 -0.00000000000E+00 -0.45401500455E+02  0.45401500455E+02  0.00000000000E+00 0.  1.
         13    1    1    2    0    0 -0.88892900103E+01 -0.82194080670E+01 -0.37775438441E+02  0.39668287829E+02  0.10566000000E+00 0.  1.
        996    1    1    2    0    0  0.88892900103E+01  0.82194080670E+01  0.92373882160E+02  0.10573321262E+03  0.50000000000E+02 0.  0.
<mgrwt>
<rscale>  0 0.51444904E+02</rscale>
<asrwt>0</asrwt>
<pdfrwt beam="1">  1       13 0.10000000E+01 0.51444904E+02</pdfrwt>
<pdfrwt beam="2">  1       22 0.45401516E+00 0.51444904E+02</pdfrwt>
<totfact> 0.94583778E-02</totfact>
</mgrwt>
</event>
<event>
 4    1  0.2437479E+000  0.5191389E+02  0.7957747E-01  0.1435284E+00
         13   -1    0    0    0    0  0.00000000000E+00  0.00000000000E+00  0.99999944173E+02  0.99999999993E+02  0.10566000000E+00 0. -1.
         22   -1    0    0    0    0 -0.00000000000E+00 -0.00000000000E+00 -0.11094555567E+02  0.11094555567E+02  0.00000000000E+00 0. -1.
         13    1    1    2    0    0  0.10829195865E+02  0.88193506768E+01  0.26181524685E+02  0.29673823958E+02  0.10566000000E+00 0.  1.
        996    1    1    2    0    0 -0.10829195865E+02 -0.88193506768E+01  0.62723863921E+02  0.81420731602E+02  0.50000000000E+02 0.  0.
<mgrwt>
<rscale>  0 0.51913894E+02</rscale>
<asrwt>0</asrwt>
<pdfrwt beam="1">  1       13 0.10000000E+01 0.51913894E+02</pdfrwt>
<pdfrwt beam="2">  1       22 0.11094580E+00 0.51913894E+02</pdfrwt>
<totfact> 0.12099528E+00</totfact>
</mgrwt>
</event>
<event>
 4    1  0.2437479E+000  0.5993223E+02  0.7957747E-01  0.1398116E+00
         13   -1    0    0    0    0  0.00000000000E+00  0.00000000000E+00  0.99999944178E+02  0.99999999998E+02  0.10566000000E+00 0. -1.
         22   -1    0    0    0    0 -0.00000000000E+00 -0.00000000000E+00 -0.46668614517E+02  0.46668614517E+02  0.00000000000E+00 0.  1.
         13    1    1    2    0    0  0.23967790174E+02  0.22746808983E+02 -0.29590195942E+02  0.44356094786E+02  0.10566000000E+00 0.  1.
        996    1    1    2    0    0 -0.23967790174E+02 -0.22746808983E+02  0.82921525603E+02  0.10231251973E+03  0.50000000000E+02 0.  0.
<mgrwt>
<rscale>  0 0.59932231E+02</rscale>
<asrwt>0</asrwt>
<pdfrwt beam="1">  1       13 0.10000000E+01 0.59932231E+02</pdfrwt>
<pdfrwt beam="2">  1       22 0.46668629E+00 0.59932231E+02</pdfrwt>
<totfact> 0.88804464E-02</totfact>
</mgrwt>
</event>
<event>
 4    1  0.2437479E+000  0.5105203E+02  0.7957747E-01  0.1439748E+00
         13   -1    0    0    0    0  0.00000000000E+00  0.00000000000E+00  0.99999944172E+02  0.99999999992E+02  0.10566000000E+00 0.  1.
         22   -1    0    0    0    0 -0.00000000000E+00 -0.00000000000E+00 -0.55380924376E+02  0.55380924376E+02  0.00000000000E+00 0. -1.
         13    1    1    2    0    0  0.10117515556E+02  0.19863578556E+01 -0.48285165973E+02  0.49373861056E+02  0.10566000000E+00 0. -1.
        996    1    1    2    0    0 -0.10117515556E+02 -0.19863578556E+01  0.92904185769E+02  0.10600706331E+03  0.50000000000E+02 0.  0.
<mgrwt>
<rscale>  0 0.51052030E+02</rscale>
<asrwt>0</asrwt>
<pdfrwt beam="1">  1       13 0.10000000E+01 0.51052030E+02</pdfrwt>
<pdfrwt beam="2">  1       22 0.55380937E+00 0.51052030E+02</pdfrwt>
<totfact> 0.58868639E-02</totfact>
</mgrwt>
</event>
<event>
 4    1  0.2437479E+000  0.5441837E+02  0.7957747E-01  0.1422870E+00
         13   -1    0    0    0    0  0.00000000000E+00  0.00000000000E+00  0.99999944177E+02  0.99999999997E+02  0.10566000000E+00 0. -1.
         22   -1    0    0    0    0 -0.00000000000E+00 -0.00000000000E+00 -0.18231253411E+02  0.18231253411E+02  0.00000000000E+00 0.  1.
         13    1    1    2    0    0  0.21081161987E+02 -0.41162247307E+01  0.18698387125E+01  0.21560755033E+02  0.10566000000E+00 0.  1.
        996    1    1    2    0    0 -0.21081161987E+02  0.41162247307E+01  0.79898852053E+02  0.96670498376E+02  0.50000000000E+02 0.  0.
<mgrwt>
<rscale>  0 0.54418367E+02</rscale>
<asrwt>0</asrwt>
<pdfrwt beam="1">  1       13 0.10000000E+01 0.54418367E+02</pdfrwt>
<pdfrwt beam="2">  1       22 0.18231276E+00 0.54418367E+02</pdfrwt>
<totfact> 0.53932568E-01</totfact>
</mgrwt>
</event>
<event>
 4    1  0.2437479E+000  0.5529433E+02  0.7957747E-01  0.1418712E+00
         13   -1    0    0    0    0  0.00000000000E+00  0.00000000000E+00  0.99999944177E+02  0.99999999997E+02  0.10566000000E+00 0.  1.
         22   -1    0    0    0    0 -0.00000000000E+00 -0.00000000000E+00 -0.62308291698E+02  0.62308291698E+02  0.00000000000E+00 0. -1.
         13    1    1    2    0    0 -0.17075704281E+02  0.16305937821E+02 -0.51905011890E+02  0.57022843740E+02  0.10566000000E+00 0. -1.
        996    1    1    2    0    0  0.17075704281E+02 -0.16305937821E+02  0.89596664369E+02  0.10528544795E+03  0.50000000000E+02 0.  0.
<mgrwt>
<rscale>  0 0.55294333E+02</rscale>
<asrwt>0</asrwt>
<pdfrwt beam="1">  1       13 0.10000000E+01 0.55294333E+02</pdfrwt>
<pdfrwt beam="2">  1       22 0.62308302E+00 0.55294333E+02</pdfrwt>
<totfact> 0.74745560E-02</totfact>
</mgrwt>
</event>
<event>
 4    1  0.2437479E+000  0.5275064E+02  0.7957747E-01  0.1431046E+00
         13   -1    0    0    0    0  0.00000000000E+00  0.00000000000E+00  0.99999944178E+02  0.99999999998E+02  0.10566000000E+00 0.  1.
         22   -1    0    0    0    0 -0.00000000000E+00 -0.00000000000E+00 -0.17540778899E+02  0.17540778899E+02  0.00000000000E+00 0.  1.
         13    1    1    2    0    0  0.12587580565E+02  0.11143711923E+02 -0.30337821115E+01  0.17083456847E+02  0.10566000000E+00 0. -1.
        996    1    1    2    0    0 -0.12587580565E+02 -0.11143711923E+02  0.85492947391E+02  0.10045732205E+03  0.50000000000E+02 0.  0.
<mgrwt>
<rscale>  0 0.52750635E+02</rscale>
<asrwt>0</asrwt>
<pdfrwt beam="1">  1       13 0.10000000E+01 0.52750635E+02</pdfrwt>
<pdfrwt beam="2">  1       22 0.17540802E+00 0.52750635E+02</pdfrwt>
<totfact> 0.57614208E-01</totfact>
</mgrwt>
</event>
<event>
 4    1  0.2437479E+000  0.5103048E+02  0.7957747E-01  0.1439861E+00
         13   -1    0    0    0    0  0.00000000000E+00  0.00000000000E+00  0.99999944176E+02  0.99999999997E+02  0.10566000000E+00 0.  1.
         22   -1    0    0    0    0 -0.00000000000E+00 -0.00000000000E+00 -0.95226874460E+01  0.95226874460E+01  0.00000000000E+00 0. -1.
         13    1    1    2    0    0 -0.10202147325E+02  0.16039271839E+00  0.10417785901E+02  0.14582556805E+02  0.10566000000E+00 0. -1.
        996    1    1    2    0    0  0.10202147325E+02 -0.16039271839E+00  0.80059470830E+02  0.94940130637E+02  0.50000000000E+02 0.  0.
<mgrwt>
<rscale>  0 0.51030477E+02</rscale>
<asrwt>0</asrwt>
<pdfrwt beam="1">  1       13 0.10000000E+01 0.51030477E+02</pdfrwt>
<pdfrwt beam="2">  1       22 0.95227127E-01 0.51030477E+02</pdfrwt>
<totfact> 0.15090033E+00</totfact>
</mgrwt>
</event>
<event>
 4    1  0.2437479E+000  0.5129788E+02  0.7957747E-01  0.1438464E+00
         13   -1    0    0    0    0  0.00000000000E+00  0.00000000000E+00  0.99999944183E+02  0.10000000000E+03  0.10566000000E+00 0.  1.
         22   -1    0    0    0    0 -0.00000000000E+00 -0.00000000000E+00 -0.11874988341E+02  0.11874988341E+02  0.00000000000E+00 0.  1.
         13    1    1    2    0    0 -0.10583428736E+02  0.44117558187E+01  0.20136335499E+01  0.11642097634E+02  0.10566000000E+00 0. -1.
        996    1    1    2    0    0  0.10583428736E+02 -0.44117558187E+01  0.86111322292E+02  0.10023289071E+03  0.50000000000E+02 0.  0.
<mgrwt>
<rscale>  0 0.51297881E+02</rscale>
<asrwt>0</asrwt>
<pdfrwt beam="1">  1       13 0.10000000E+01 0.51297881E+02</pdfrwt>
<pdfrwt beam="2">  1       22 0.11875013E+00 0.51297881E+02</pdfrwt>
<totfact> 0.10905597E+00</totfact>
</mgrwt>
</event>
<event>
 4    1  0.2437479E+000  0.5160696E+02  0.7957747E-01  0.1436862E+00
         13   -1    0    0    0    0  0.00000000000E+00  0.00000000000E+00  0.99999944175E+02  0.99999999995E+02  0.10566000000E+00 0. -1.
         22   -1    0    0    0    0 -0.00000000000E+00 -0.00000000000E+00 -0.14700436542E+02  0.14700436542E+02  0.00000000000E+00 0.  1.
         13    1    1    2    0    0  0.12536980953E+02  0.24702333195E+01 -0.23440526944E+01  0.12991677765E+02  0.10566000000E+00 0.  1.
        996    1    1    2    0    0 -0.12536980953E+02 -0.24702333195E+01  0.87643560327E+02  0.10170875877E+03  0.50000000000E+02 0.  0.
<mgrwt>
<rscale>  0 0.51606956E+02</rscale>
<asrwt>0</asrwt>
<pdfrwt beam="1">  1       13 0.10000000E+01 0.51606956E+02</pdfrwt>
<pdfrwt beam="2">  1       22 0.14700460E+00 0.51606956E+02</pdfrwt>
<totfact> 0.77790688E-01</totfact>
</mgrwt>
</event>
<event>
 4    1  0.2437479E+000  0.5154625E+02  0.7957747E-01  0.1437176E+00
         13   -1    0    0    0    0  0.00000000000E+00  0.00000000000E+00  0.99999944178E+02  0.99999999998E+02  0.10566000000E+00 0.  1.
         22   -1    0    0    0    0 -0.00000000000E+00 -0.00000000000E+00 -0.13275696395E+02  0.13275696395E+02  0.00000000000E+00 0.  1.
         13    1    1    2    0    0  0.90446903893E+01 -0.86723219583E+01  0.16646891824E+00  0.12532137420E+02  0.10566000000E+00 0. -1.
        996    1    1    2    0    0 -0.90446903893E+01  0.86723219583E+01  0.86557778865E+02  0.10074355897E+03  0.50000000000E+02 0.  0.
<mgrwt>
<rscale>  0 0.51546247E+02</rscale>
<asrwt>0</asrwt>
<pdfrwt beam="1">  1       13 0.10000000E+01 0.51546247E+02</pdfrwt>
<pdfrwt beam="2">  1       22 0.13275721E+00 0.51546247E+02</pdfrwt>
<totfact> 0.91737743E-01</totfact>
</mgrwt>
</event>
<event>
 4    1  0.2437479E+000  0.5591232E+02  0.7957747E-01  0.1415833E+00
         13   -1    0    0    0    0  0.00000000000E+00  0.00000000000E+00  0.99999944173E+02  0.99999999993E+02  0.10566000000E+00 0.  1.
         22   -1    0    0    0    0 -0.00000000000E+00 -0.00000000000E+00 -0.46003979174E+02  0.46003979174E+02  0.00000000000E+00 0. -1.
         13    1    1    2    0    0  0.38882794122E+01 -0.24719805207E+02 -0.33715442765E+02  0.41987256771E+02  0.10566000000E+00 0. -1.
        996    1    1    2    0    0 -0.38882794122E+01  0.24719805207E+02  0.87711407763E+02  0.10401672240E+03  0.50000000000E+02 0.  0.
<mgrwt>
<rscale>  0 0.55912320E+02</rscale>
<asrwt>0</asrwt>
<pdfrwt beam="1">  1       13 0.10000000E+01 0.55912320E+02</pdfrwt>
<pdfrwt beam="2">  1       22 0.46003994E+00 0.55912320E+02</pdfrwt>
<totfact> 0.91845921E-02</totfact>
</mgrwt>
</event>
<event>
 4    1  0.2437479E+000  0.5205263E+02  0.7957747E-01  0.1434575E+00
         13   -1    0    0    0    0  0.00000000000E+00  0.00000000000E+00  0.99999944174E+02  0.99999999994E+02  0.10566000000E+00 0. -1.
         22   -1    0    0    0    0 -0.00000000000E+00 -0.00000000000E+00 -0.12021260222E+02  0.12021260222E+02  0.00000000000E+00 0. -1.
         13    1    1    2    0    0 -0.55065746522E+01  0.13384822067E+02  0.78378616332E+01  0.16459619230E+02  0.10566000000E+00 0.  1.
        996    1    1    2    0    0  0.55065746522E+01 -0.13384822067E+02  0.80140822319E+02  0.95561640987E+02  0.50000000000E+02 0.  0.
<mgrwt>
<rscale>  0 0.52052626E+02</rscale>
<asrwt>0</asrwt>
<pdfrwt beam="1">  1       13 0.10000000E+01 0.52052626E+02</pdfrwt>
<pdfrwt beam="2">  1       22 0.12021285E+00 0.52052626E+02</pdfrwt>
<totfact> 0.10721538E+00</totfact>
</mgrwt>
</event>
<event>
 4    1  0.2437479E+000  0.5209273E+02  0.7957747E-01  0.1434370E+00
         13   -1    0    0    0    0  0.00000000000E+00  0.00000000000E+00  0.99999944180E+02  0.10000000000E+03  0.10566000000E+00 0.  1.
         22   -1    0    0    0    0 -0.00000000000E+00 -0.00000000000E+00 -0.11164802346E+02  0.11164802346E+02  0.00000000000E+00 0.  1.
         13    1    1    2    0    0 -0.14160985034E+02  0.36219693638E+01  0.22282754310E+02  0.26649286349E+02  0.10566000000E+00 0. -1.
        996    1    1    2    0    0  0.14160985034E+02 -0.36219693638E+01  0.66552387524E+02  0.84515515998E+02  0.50000000000E+02 0.  0.
<mgrwt>
<rscale>  0 0.52092727E+02</rscale>
<asrwt>0</asrwt>
<pdfrwt beam="1">  1       13 0.10000000E+01 0.52092727E+02</pdfrwt>
<pdfrwt beam="2">  1       22 0.11164827E+00 0.52092727E+02</pdfrwt>
<totfact> 0.11990963E+00</totfact>
</mgrwt>
</event>
<event>
 4    1  0.2437479E+000  0.5238290E+02  0.7957747E-01  0.1432897E+00
         13   -1    0    0    0    0  0.00000000000E+00  0.00000000000E+00  0.99999944174E+02  0.99999999994E+02  0.10566000000E+00 0. -1.
         22   -1    0    0    0    0 -0.00000000000E+00 -0.00000000000E+00 -0.12013607972E+02  0.12013607972E+02  0.00000000000E+00 0. -1.
         13    1    1    2    0    0 -0.40266192042E+01  0.15091524576E+02  0.30323425390E+02  0.34109955551E+02  0.10566000000E+00 0.  1.
        996    1    1    2    0    0  0.40266192042E+01 -0.15091524576E+02  0.57662910812E+02  0.77903652415E+02  0.50000000000E+02 0.  0.
<mgrwt>
<rscale>  0 0.52382896E+02</rscale>
<asrwt>0</asrwt>
<pdfrwt beam="1">  1       13 0.10000000E+01 0.52382896E+02</pdfrwt>
<pdfrwt beam="2">  1       22 0.12013633E+00 0.52382896E+02</pdfrwt>
<totfact> 0.10739894E+00</totfact>
</mgrwt>
</event>
<event>
 4    1  0.2437479E+000  0.5546137E+02  0.7957747E-01  0.1417930E+00
         13   -1    0    0    0    0  0.00000000000E+00  0.00000000000E+00  0.99999944180E+02  0.10000000000E+03  0.10566000000E+00 0. -1.
         22   -1    0    0    0    0 -0.00000000000E+00 -0.00000000000E+00 -0.18540121982E+02  0.18540121982E+02  0.00000000000E+00 0.  1.
         13    1    1    2    0    0 -0.11844290694E+02 -0.20872854232E+02  0.57311532717E+01  0.24674289203E+02  0.10566000000E+00 0.  1.
        996    1    1    2    0    0  0.11844290694E+02  0.20872854232E+02  0.75728668927E+02  0.93865832779E+02  0.50000000000E+02 0.  0.
<mgrwt>
<rscale>  0 0.55461367E+02</rscale>
<asrwt>0</asrwt>
<pdfrwt beam="1">  1       13 0.10000000E+01 0.55461367E+02</pdfrwt>
<pdfrwt beam="2">  1       22 0.18540145E+00 0.55461367E+02</pdfrwt>
<totfact> 0.52413244E-01</totfact>
</mgrwt>
</event>
<event>
 4    1  0.2437479E+000  0.5209726E+02  0.7957747E-01  0.1434347E+00
         13   -1    0    0    0    0  0.00000000000E+00  0.00000000000E+00  0.99999944181E+02  0.10000000000E+03  0.10566000000E+00 0. -1.
         22   -1    0    0    0    0 -0.00000000000E+00 -0.00000000000E+00 -0.63081493327E+02  0.63081493327E+02  0.00000000000E+00 0.  1.
         13    1    1    2    0    0  0.12416929476E+02 -0.77423519888E+01 -0.55278955267E+02  0.57183023805E+02  0.10566000000E+00 0.  1.
        996    1    1    2    0    0 -0.12416929476E+02  0.77423519888E+01  0.92197406121E+02  0.10589846952E+03  0.50000000000E+02 0.  0.
<mgrwt>
<rscale>  0 0.52097257E+02</rscale>
<asrwt>0</asrwt>
<pdfrwt beam="1">  1       13 0.10000000E+01 0.52097257E+02</pdfrwt>
<pdfrwt beam="2">  1       22 0.63081504E+00 0.52097257E+02</pdfrwt>
<totfact> 0.79157462E-02</totfact>
</mgrwt>
</event>
<event>
 4    1  0.2437479E+000  0.5109053E+02  0.7957747E-01  0.1439547E+00
         13   -1    0    0    0    0  0.00000000000E+00  0.00000000000E+00  0.99999944183E+02  0.10000000000E+03  0.10566000000E+00 0. -1.
         22   -1    0    0    0    0 -0.00000000000E+00 -0.00000000000E+00 -0.21544777137E+02  0.21544777137E+02  0.00000000000E+00 0.  1.
         13    1    1    2    0    0  0.90268124486E+01 -0.53627024346E+01 -0.13045815872E+02  0.16746533856E+02  0.10566000000E+00 0.  1.
        996    1    1    2    0    0 -0.90268124486E+01  0.53627024346E+01  0.91500982918E+02  0.10479824328E+03  0.50000000000E+02 0.  0.
<mgrwt>
<rscale>  0 0.51090527E+02</rscale>
<asrwt>0</asrwt>
<pdfrwt beam="1">  1       13 0.10000000E+01 0.51090527E+02</pdfrwt>
<pdfrwt beam="2">  1       22 0.21544799E+00 0.51090527E+02</pdfrwt>
<totfact> 0.39305396E-01</totfact>
</mgrwt>
</event>
<event>
 4    1  0.2437479E+000  0.5132942E+02  0.7957747E-01  0.1438300E+00
         13   -1    0    0    0    0  0.00000000000E+00  0.00000000000E+00  0.99999944178E+02  0.99999999998E+02  0.10566000000E+00 0.  1.
         22   -1    0    0    0    0 -0.00000000000E+00 -0.00000000000E+00 -0.10350278726E+02  0.10350278726E+02  0.00000000000E+00 0.  1.
         13    1    1    2    0    0 -0.11593053552E+02 -0.55709606619E+00  0.87286769298E+01  0.14522748075E+02  0.10566000000E+00 0. -1.
        996    1    1    2    0    0  0.11593053552E+02  0.55709606619E+00  0.80920988523E+02  0.95827530649E+02  0.50000000000E+02 0.  0.
<mgrwt>
<rscale>  0 0.51329419E+02</rscale>
<asrwt>0</asrwt>
<pdfrwt beam="1">  1       13 0.10000000E+01 0.51329419E+02</pdfrwt>
<pdfrwt beam="2">  1       22 0.10350304E+00 0.51329419E+02</pdfrwt>
<totfact> 0.13387427E+00</totfact>
</mgrwt>
</event>
<event>
 4    1  0.2437479E+000  0.5100845E+02  0.7957747E-01  0.1439977E+00
         13   -1    0    0    0    0  0.00000000000E+00  0.00000000000E+00  0.99999944180E+02  0.10000000000E+03  0.10566000000E+00 0.  1.
         22   -1    0    0    0    0 -0.00000000000E+00 -0.00000000000E+00 -0.28677558437E+02  0.28677558437E+02  0.00000000000E+00 0. -1.
         13    1    1    2    0    0 -0.10001523725E+02 -0.13533246866E+01 -0.20944522209E+02  0.23249648150E+02  0.10566000000E+00 0. -1.
        996    1    1    2    0    0  0.10001523725E+02  0.13533246866E+01  0.92266907952E+02  0.10542791029E+03  0.50000000000E+02 0.  0.
<mgrwt>
<rscale>  0 0.51008450E+02</rscale>
<asrwt>0</asrwt>
<pdfrwt beam="1">  1       13 0.10000000E+01 0.51008450E+02</pdfrwt>
<pdfrwt beam="2">  1       22 0.28677578E+00 0.51008450E+02</pdfrwt>
<totfact> 0.22516930E-01</totfact>
</mgrwt>
</event>
<event>
 4    1  0.2437479E+000  0.5221753E+02  0.7957747E-01  0.1433735E+00
         13   -1    0    0    0    0  0.00000000000E+00  0.00000000000E+00  0.99999944179E+02  0.99999999999E+02  0.10566000000E+00 0. -1.
         22   -1    0    0    0    0 -0.00000000000E+00 -0.00000000000E+00 -0.12984083596E+02  0.12984083596E+02  0.00000000000E+00 0.  1.
         13    1    1    2    0    0  0.15048412992E+02 -0.46397948430E+00  0.52074189646E+01  0.15931051028E+02  0.10566000000E+00 0.  1.
        996    1    1    2    0    0 -0.15048412992E+02  0.46397948430E+00  0.81808441618E+02  0.97053032567E+02  0.50000000000E+02 0.  0.
<mgrwt>
<rscale>  0 0.52217526E+02</rscale>
<asrwt>0</asrwt>
<pdfrwt beam="1">  1       13 0.10000000E+01 0.52217526E+02</pdfrwt>
<pdfrwt beam="2">  1       22 0.12984108E+00 0.52217526E+02</pdfrwt>
<totfact> 0.95154565E-01</totfact>
</mgrwt>
</event>
<event>
 4    1  0.2437479E+000  0.5244754E+02  0.7957747E-01  0.1432570E+00
         13   -1    0    0    0    0  0.00000000000E+00  0.00000000000E+00  0.99999944183E+02  0.10000000000E+03  0.10566000000E+00 0. -1.
         22   -1    0    0    0    0 -0.00000000000E+00 -0.00000000000E+00 -0.16274796567E+02  0.16274796567E+02  0.00000000000E+00 0. -1.
         13    1    1    2    0    0 -0.10038100336E+02  0.12246658198E+02 -0.18120357517E+01  0.15938592566E+02  0.10566000000E+00 0.  1.
        996    1    1    2    0    0  0.10038100336E+02 -0.12246658198E+02  0.85537183368E+02  0.10033620400E+03  0.50000000000E+02 0.  0.
<mgrwt>
<rscale>  0 0.52447537E+02</rscale>
<asrwt>0</asrwt>
<pdfrwt beam="1">  1       13 0.10000000E+01 0.52447537E+02</pdfrwt>
<pdfrwt beam="2">  1       22 0.16274820E+00 0.52447537E+02</pdfrwt>
<totfact> 0.65638401E-01</totfact>
</mgrwt>
</event>
<event>
 4    1  0.2437479E+000  0.5713826E+02  0.7957747E-01  0.1410249E+00
         13   -1    0    0    0    0  0.00000000000E+00  0.00000000000E+00  0.99999944171E+02  0.99999999991E+02  0.10566000000E+00 0. -1.
         22   -1    0    0    0    0 -0.00000000000E+00 -0.00000000000E+00 -0.68598635165E+02  0.68598635165E+02  0.00000000000E+00 0.  1.
         13    1    1    2    0    0 -0.47608463258E+01  0.27241796013E+02 -0.56991141117E+02  0.63346526642E+02  0.10566000000E+00 0.  1.
        996    1    1    2    0    0  0.47608463258E+01 -0.27241796013E+02  0.88392450123E+02  0.10525210851E+03  0.50000000000E+02 0.  0.
<mgrwt>
<rscale>  0 0.57138263E+02</rscale>
<asrwt>0</asrwt>
<pdfrwt beam="1">  1       13 0.10000000E+01 0.57138263E+02</pdfrwt>
<pdfrwt beam="2">  1       22 0.68598644E+00 0.57138263E+02</pdfrwt>
<totfact> 0.81180921E-02</totfact>
</mgrwt>
</event>
<event>
 4    1  0.2437479E+000  0.5156988E+02  0.7957747E-01  0.1437053E+00
         13   -1    0    0    0    0  0.00000000000E+00  0.00000000000E+00  0.99999944177E+02  0.99999999997E+02  0.10566000000E+00 0.  1.
         22   -1    0    0    0    0 -0.00000000000E+00 -0.00000000000E+00 -0.48940883222E+02  0.48940883222E+02  0.00000000000E+00 0. -1.
         13    1    1    2    0    0  0.50165200876E+01  0.11588219943E+02 -0.41284872377E+02  0.43172956425E+02  0.10566000000E+00 0. -1.
        996    1    1    2    0    0 -0.50165200876E+01 -0.11588219943E+02  0.92343933331E+02  0.10576792679E+03  0.50000000000E+02 0.  0.
<mgrwt>
<rscale>  0 0.51569878E+02</rscale>
<asrwt>0</asrwt>
<pdfrwt beam="1">  1       13 0.10000000E+01 0.51569878E+02</pdfrwt>
<pdfrwt beam="2">  1       22 0.48940897E+00 0.51569878E+02</pdfrwt>
<totfact> 0.78058708E-02</totfact>
</mgrwt>
</event>
<event>
 4    1  0.2437479E+000  0.5107131E+02  0.7957747E-01  0.1439647E+00
         13   -1    0    0    0    0  0.00000000000E+00  0.00000000000E+00  0.99999944185E+02  0.10000000001E+03  0.10566000000E+00 0. -1.
         22   -1    0    0    0    0 -0.00000000000E+00 -0.00000000000E+00 -0.27397922504E+02  0.27397922504E+02  0.00000000000E+00 0.  1.
         13    1    1    2    0    0 -0.29487138628E+01  0.99791597329E+01 -0.19489117236E+02  0.22093333771E+02  0.10566000000E+00 0.  1.
        996    1    1    2    0    0  0.29487138628E+01 -0.99791597329E+01  0.92091138917E+02  0.10530458874E+03  0.50000000000E+02 0.  0.
<mgrwt>
<rscale>  0 0.51071308E+02</rscale>
<asrwt>0</asrwt>
<pdfrwt beam="1">  1       13 0.10000000E+01 0.51071308E+02</pdfrwt>
<pdfrwt beam="2">  1       22 0.27397943E+00 0.51071308E+02</pdfrwt>
<totfact> 0.24595432E-01</totfact>
</mgrwt>
</event>
<event>
 4    1  0.2437479E+000  0.5958358E+02  0.7957747E-01  0.1399588E+00
         13   -1    0    0    0    0  0.00000000000E+00  0.00000000000E+00  0.99999944181E+02  0.10000000000E+03  0.10566000000E+00 0.  1.
         22   -1    0    0    0    0 -0.00000000000E+00 -0.00000000000E+00 -0.22263279575E+02  0.22263279575E+02  0.00000000000E+00 0. -1.
         13    1    1    2    0    0  0.22608869050E+02 -0.23217286781E+02  0.14899095794E+02  0.35667878893E+02  0.10566000000E+00 0. -1.
        996    1    1    2    0    0 -0.22608869050E+02  0.23217286781E+02  0.62837568812E+02  0.86595400683E+02  0.50000000000E+02 0.  0.
<mgrwt>
<rscale>  0 0.59583583E+02</rscale>
<asrwt>0</asrwt>
<pdfrwt beam="1">  1       13 0.10000000E+01 0.59583583E+02</pdfrwt>
<pdfrwt beam="2">  1       22 0.22263301E+00 0.59583583E+02</pdfrwt>
<totfact> 0.37408025E-01</totfact>
</mgrwt>
</event>
<event>
 4    1  0.2437479E+000  0.5107036E+02  0.7957747E-01  0.1439652E+00
         13   -1    0    0    0    0  0.00000000000E+00  0.00000000000E+00  0.99999944182E+02  0.10000000000E+03  0.10566000000E+00 0.  1.
         22   -1    0    0    0    0 -0.00000000000E+00 -0.00000000000E+00 -0.28764989087E+02  0.28764989087E+02  0.00000000000E+00 0. -1.
         13    1    1    2    0    0 -0.10053166335E+02  0.26674727963E+01 -0.20943639492E+02  0.23384370072E+02  0.10566000000E+00 0. -1.
        996    1    1    2    0    0  0.10053166335E+02 -0.26674727963E+01  0.92178594587E+02  0.10538061902E+03  0.50000000000E+02 0.  0.
<mgrwt>
<rscale>  0 0.51070359E+02</rscale>
<asrwt>0</asrwt>
<pdfrwt beam="1">  1       13 0.10000000E+01 0.51070359E+02</pdfrwt>
<pdfrwt beam="2">  1       22 0.28765009E+00 0.51070359E+02</pdfrwt>
<totfact> 0.22388186E-01</totfact>
</mgrwt>
</event>
<event>
 4    1  0.2437479E+000  0.5141177E+02  0.7957747E-01  0.1437872E+00
         13   -1    0    0    0    0  0.00000000000E+00  0.00000000000E+00  0.99999944189E+02  0.10000000001E+03  0.10566000000E+00 0.  1.
         22   -1    0    0    0    0 -0.00000000000E+00 -0.00000000000E+00 -0.19265898107E+02  0.19265898107E+02  0.00000000000E+00 0. -1.
         13    1    1    2    0    0 -0.10875143855E+02  0.49901752664E+01 -0.95903587231E+01  0.15334821405E+02  0.10566000000E+00 0. -1.
        996    1    1    2    0    0  0.10875143855E+02 -0.49901752664E+01  0.90324404805E+02  0.10393107671E+03  0.50000000000E+02 0.  0.
<mgrwt>
<rscale>  0 0.51411775E+02</rscale>
<asrwt>0</asrwt>
<pdfrwt beam="1">  1       13 0.10000000E+01 0.51411775E+02</pdfrwt>
<pdfrwt beam="2">  1       22 0.19265921E+00 0.51411775E+02</pdfrwt>
<totfact> 0.48506140E-01</totfact>
</mgrwt>
</event>
<event>
 4    1  0.2437479E+000  0.5111539E+02  0.7957747E-01  0.1439417E+00
         13   -1    0    0    0    0  0.00000000000E+00  0.00000000000E+00  0.99999944175E+02  0.99999999995E+02  0.10566000000E+00 0. -1.
         22   -1    0    0    0    0 -0.00000000000E+00 -0.00000000000E+00 -0.28694370086E+02  0.28694370086E+02  0.00000000000E+00 0.  1.
         13    1    1    2    0    0 -0.64000823278E+01  0.84747651360E+01 -0.20800708294E+02  0.23355156336E+02  0.10566000000E+00 0.  1.
        996    1    1    2    0    0  0.64000823278E+01 -0.84747651360E+01  0.92106282383E+02  0.10533921374E+03  0.50000000000E+02 0.  0.
<mgrwt>
<rscale>  0 0.51115386E+02</rscale>
<asrwt>0</asrwt>
<pdfrwt beam="1">  1       13 0.10000000E+01 0.51115386E+02</pdfrwt>
<pdfrwt beam="2">  1       22 0.28694390E+00 0.51115386E+02</pdfrwt>
<totfact> 0.22495096E-01</totfact>
</mgrwt>
</event>
<event>
 4    1  0.2437479E+000  0.5107061E+02  0.7957747E-01  0.1439651E+00
         13   -1    0    0    0    0  0.00000000000E+00  0.00000000000E+00  0.99999944175E+02  0.99999999995E+02  0.10566000000E+00 0. -1.
         22   -1    0    0    0    0 -0.00000000000E+00 -0.00000000000E+00 -0.96776388760E+01  0.96776388760E+01  0.00000000000E+00 0. -1.
         13    1    1    2    0    0 -0.96197970183E+00  0.10357694776E+02  0.22396515939E+02  0.24694581112E+02  0.10566000000E+00 0.  1.
        996    1    1    2    0    0  0.96197970183E+00 -0.10357694776E+02  0.67925789360E+02  0.84983057760E+02  0.50000000000E+02 0.  0.
<mgrwt>
<rscale>  0 0.51070610E+02</rscale>
<asrwt>0</asrwt>
<pdfrwt beam="1">  1       13 0.10000000E+01 0.51070610E+02</pdfrwt>
<pdfrwt beam="2">  1       22 0.96776641E-01 0.51070610E+02</pdfrwt>
<totfact> 0.14746597E+00</totfact>
</mgrwt>
</event>
<event>
 4    1  0.2437479E+000  0.5125853E+02  0.7957747E-01  0.1438669E+00
         13   -1    0    0    0    0  0.00000000000E+00  0.00000000000E+00  0.99999944186E+02  0.10000000001E+03  0.10566000000E+00 0.  1.
         22   -1    0    0    0    0 -0.00000000000E+00 -0.00000000000E+00 -0.33285521297E+02  0.33285521297E+02  0.00000000000E+00 0. -1.
         13    1    1    2    0    0 -0.92023408966E+01 -0.65386099166E+01 -0.25441302854E+02  0.27833568808E+02  0.10566000000E+00 0. -1.
        996    1    1    2    0    0  0.92023408966E+01  0.65386099166E+01  0.92155725744E+02  0.10545195249E+03  0.50000000000E+02 0.  0.
<mgrwt>
<rscale>  0 0.51258526E+02</rscale>
<asrwt>0</asrwt>
<pdfrwt beam="1">  1       13 0.10000000E+01 0.51258526E+02</pdfrwt>
<pdfrwt beam="2">  1       22 0.33285540E+00 0.51258526E+02</pdfrwt>
<totfact> 0.17141958E-01</totfact>
</mgrwt>
</event>
<event>
 4    1  0.2437479E+000  0.5755740E+02  0.7957747E-01  0.1408378E+00
         13   -1    0    0    0    0  0.00000000000E+00  0.00000000000E+00  0.99999944175E+02  0.99999999995E+02  0.10566000000E+00 0.  1.
         22   -1    0    0    0    0 -0.00000000000E+00 -0.00000000000E+00 -0.18892898539E+02  0.18892898539E+02  0.00000000000E+00 0.  1.
         13    1    1    2    0    0 -0.28196564660E+02 -0.42199795675E+01  0.35016870342E+02  0.45155806479E+02  0.10566000000E+00 0. -1.
        996    1    1    2    0    0  0.28196564660E+02  0.42199795675E+01  0.46090175293E+02  0.73737092055E+02  0.50000000000E+02 0.  0.
<mgrwt>
<rscale>  0 0.57557402E+02</rscale>
<asrwt>0</asrwt>
<pdfrwt beam="1">  1       13 0.10000000E+01 0.57557402E+02</pdfrwt>
<pdfrwt beam="2">  1       22 0.18892921E+00 0.57557402E+02</pdfrwt>
<totfact> 0.50821955E-01</totfact>
</mgrwt>
</event>
<event>
 4    1  0.2437479E+000  0.5233081E+02  0.7957747E-01  0.1433160E+00
         13   -1    0    0    0    0  0.00000000000E+00  0.00000000000E+00  0.99999944178E+02  0.99999999998E+02  0.10566000000E+00 0. -1.
         22   -1    0    0    0    0 -0.00000000000E+00 -0.00000000000E+00 -0.20207884692E+02  0.20207884692E+02  0.00000000000E+00 0. -1.
         13    1    1    2    0    0  0.13992890234E+02 -0.65355301915E+01 -0.84580892061E+01  0.17608650404E+02  0.10566000000E+00 0.  1.
        996    1    1    2    0    0 -0.13992890234E+02  0.65355301915E+01  0.88250148692E+02  0.10259923429E+03  0.50000000000E+02 0.  0.
<mgrwt>
<rscale>  0 0.52330814E+02</rscale>
<asrwt>0</asrwt>
<pdfrwt beam="1">  1       13 0.10000000E+01 0.52330814E+02</pdfrwt>
<pdfrwt beam="2">  1       22 0.20207907E+00 0.52330814E+02</pdfrwt>
<totfact> 0.44466917E-01</totfact>
</mgrwt>
</event>
<event>
 4    1  0.2437479E+000  0.6334016E+02  0.7957747E-01  0.1384326E+00
         13   -1    0    0    0    0  0.00000000000E+00  0.00000000000E+00  0.99999944178E+02  0.99999999998E+02  0.10566000000E+00 0. -1.
         22   -1    0    0    0    0 -0.00000000000E+00 -0.00000000000E+00 -0.26501922342E+02  0.26501922342E+02  0.00000000000E+00 0.  1.
         13    1    1    2    0    0 -0.31257693265E+02 -0.23128606178E+02  0.20750971450E+02  0.44074820387E+02  0.10566000000E+00 0.  1.
        996    1    1    2    0    0  0.31257693265E+02  0.23128606178E+02  0.52747050386E+02  0.82427101953E+02  0.50000000000E+02 0.  0.
<mgrwt>
<rscale>  0 0.63340160E+02</rscale>
<asrwt>0</asrwt>
<pdfrwt beam="1">  1       13 0.10000000E+01 0.63340160E+02</pdfrwt>
<pdfrwt beam="2">  1       22 0.26501943E+00 0.63340160E+02</pdfrwt>
<totfact> 0.26687999E-01</totfact>
</mgrwt>
</event>
<event>
 4    1  0.2437479E+000  0.5214218E+02  0.7957747E-01  0.1434118E+00
         13   -1    0    0    0    0  0.00000000000E+00  0.00000000000E+00  0.99999944170E+02  0.99999999990E+02  0.10566000000E+00 0.  1.
         22   -1    0    0    0    0 -0.00000000000E+00 -0.00000000000E+00 -0.21076641097E+02  0.21076641097E+02  0.00000000000E+00 0. -1.
         13    1    1    2    0    0 -0.14424840611E+02 -0.32757488959E+01 -0.10096797872E+02  0.17909858982E+02  0.10566000000E+00 0. -1.
        996    1    1    2    0    0  0.14424840611E+02  0.32757488959E+01  0.89020100945E+02  0.10316678210E+03  0.50000000000E+02 0.  0.
<mgrwt>
<rscale>  0 0.52142176E+02</rscale>
<asrwt>0</asrwt>
<pdfrwt beam="1">  1       13 0.10000000E+01 0.52142176E+02</pdfrwt>
<pdfrwt beam="2">  1       22 0.21076663E+00 0.52142176E+02</pdfrwt>
<totfact> 0.41060216E-01</totfact>
</mgrwt>
</event>
<event>
 4    1  0.2437479E+000  0.5210591E+02  0.7957747E-01  0.1434303E+00
         13   -1    0    0    0    0  0.00000000000E+00  0.00000000000E+00  0.99999944177E+02  0.99999999998E+02  0.10566000000E+00 0.  1.
         22   -1    0    0    0    0 -0.00000000000E+00 -0.00000000000E+00 -0.15624520682E+02  0.15624520682E+02  0.00000000000E+00 0. -1.
         13    1    1    2    0    0 -0.85001209321E+00 -0.14639116739E+02 -0.19492086477E+01  0.14793134822E+02  0.10566000000E+00 0. -1.
        996    1    1    2    0    0  0.85001209321E+00  0.14639116739E+02  0.86324632143E+02  0.10083138586E+03  0.50000000000E+02 0.  0.
<mgrwt>
<rscale>  0 0.52105914E+02</rscale>
<asrwt>0</asrwt>
<pdfrwt beam="1">  1       13 0.10000000E+01 0.52105914E+02</pdfrwt>
<pdfrwt beam="2">  1       22 0.15624544E+00 0.52105914E+02</pdfrwt>
<totfact> 0.70323718E-01</totfact>
</mgrwt>
</event>
<event>
 4    1  0.2437479E+000  0.5680658E+02  0.7957747E-01  0.1411744E+00
         13   -1    0    0    0    0  0.00000000000E+00  0.00000000000E+00  0.99999944187E+02  0.10000000001E+03  0.10566000000E+00 0. -1.
         22   -1    0    0    0    0 -0.00000000000E+00 -0.00000000000E+00 -0.31871529549E+02  0.31871529549E+02  0.00000000000E+00 0.  1.
         13    1    1    2    0    0  0.71506215825E+01  0.25997225607E+02 -0.15253020123E+02  0.30978265206E+02  0.10566000000E+00 0.  1.
        996    1    1    2    0    0 -0.71506215825E+01 -0.25997225607E+02  0.83381434762E+02  0.10089326435E+03  0.50000000000E+02 0.  0.
<mgrwt>
<rscale>  0 0.56806576E+02</rscale>
<asrwt>0</asrwt>
<pdfrwt beam="1">  1       13 0.10000000E+01 0.56806576E+02</pdfrwt>
<pdfrwt beam="2">  1       22 0.31871549E+00 0.56806576E+02</pdfrwt>
<totfact> 0.18634947E-01</totfact>
</mgrwt>
</event>
<event>
 4    1  0.2437479E+000  0.5433834E+02  0.7957747E-01  0.1423254E+00
         13   -1    0    0    0    0  0.00000000000E+00  0.00000000000E+00  0.99999944178E+02  0.99999999999E+02  0.10566000000E+00 0. -1.
         22   -1    0    0    0    0 -0.00000000000E+00 -0.00000000000E+00 -0.14533925849E+02  0.14533925849E+02  0.00000000000E+00 0. -1.
         13    1    1    2    0    0 -0.20077666960E+02  0.70386545873E+01  0.17723605346E+02  0.27691022362E+02  0.10566000000E+00 0.  1.
        996    1    1    2    0    0  0.20077666960E+02 -0.70386545873E+01  0.67742412984E+02  0.86842903486E+02  0.50000000000E+02 0.  0.
<mgrwt>
<rscale>  0 0.54338342E+02</rscale>
<asrwt>0</asrwt>
<pdfrwt beam="1">  1       13 0.10000000E+01 0.54338342E+02</pdfrwt>
<pdfrwt beam="2">  1       22 0.14533950E+00 0.54338342E+02</pdfrwt>
<totfact> 0.79705277E-01</totfact>
</mgrwt>
</event>
<event>
 4    1  0.2437479E+000  0.5407104E+02  0.7957747E-01  0.1424544E+00
         13   -1    0    0    0    0  0.00000000000E+00  0.00000000000E+00  0.99999944176E+02  0.99999999996E+02  0.10566000000E+00 0. -1.
         22   -1    0    0    0    0 -0.00000000000E+00 -0.00000000000E+00 -0.14096581989E+02  0.14096581989E+02  0.00000000000E+00 0.  1.
         13    1    1    2    0    0 -0.92894781880E+01  0.18367993900E+02  0.18412908610E+02  0.27617457747E+02  0.10566000000E+00 0.  1.
        996    1    1    2    0    0  0.92894781880E+01 -0.18367993900E+02  0.67490453577E+02  0.86479124238E+02  0.50000000000E+02 0.  0.
<mgrwt>
<rscale>  0 0.54071042E+02</rscale>
<asrwt>0</asrwt>
<pdfrwt beam="1">  1       13 0.10000000E+01 0.54071042E+02</pdfrwt>
<pdfrwt beam="2">  1       22 0.14096606E+00 0.54071042E+02</pdfrwt>
<totfact> 0.83747190E-01</totfact>
</mgrwt>
</event>
<event>
 4    1  0.2437479E+000  0.5504470E+02  0.7957747E-01  0.1419888E+00
         13   -1    0    0    0    0  0.00000000000E+00  0.00000000000E+00  0.99999944184E+02  0.10000000000E+03  0.10566000000E+00 0.  1.
         22   -1    0    0    0    0 -0.00000000000E+00 -0.00000000000E+00 -0.63283653539E+02  0.63283653539E+02  0.00000000000E+00 0. -1.
         13    1    1    2    0    0  0.23019032189E+02 -0.20774484477E+00 -0.53137672298E+02  0.57909777950E+02  0.10566000000E+00 0. -1.
        996    1    1    2    0    0 -0.23019032189E+02  0.20774484477E+00  0.89853962944E+02  0.10537387559E+03  0.50000000000E+02 0.  0.
<mgrwt>
<rscale>  0 0.55044700E+02</rscale>
<asrwt>0</asrwt>
<pdfrwt beam="1">  1       13 0.10000000E+01 0.55044700E+02</pdfrwt>
<pdfrwt beam="2">  1       22 0.63283664E+00 0.55044700E+02</pdfrwt>
<totfact> 0.80237178E-02</totfact>
</mgrwt>
</event>
<event>
 4    1  0.2437479E+000  0.5299394E+02  0.7957747E-01  0.1429831E+00
         13   -1    0    0    0    0  0.00000000000E+00  0.00000000000E+00  0.99999944176E+02  0.99999999996E+02  0.10566000000E+00 0.  1.
         22   -1    0    0    0    0 -0.00000000000E+00 -0.00000000000E+00 -0.12754941416E+02  0.12754941416E+02  0.00000000000E+00 0. -1.
         13    1    1    2    0    0  0.84300140180E+01 -0.15404299225E+02  0.14613820591E+02  0.22845841794E+02  0.10566000000E+00 0. -1.
        996    1    1    2    0    0 -0.84300140180E+01  0.15404299225E+02  0.72631182169E+02  0.89909099618E+02  0.50000000000E+02 0.  0.
<mgrwt>
<rscale>  0 0.52993939E+02</rscale>
<asrwt>0</asrwt>
<pdfrwt beam="1">  1       13 0.10000000E+01 0.52993939E+02</pdfrwt>
<pdfrwt beam="2">  1       22 0.12754966E+00 0.52993939E+02</pdfrwt>
<totfact> 0.98015848E-01</totfact>
</mgrwt>
</event>
<event>
 4    1  0.2437479E+000  0.5220182E+02  0.7957747E-01  0.1433815E+00
         13   -1    0    0    0    0  0.00000000000E+00  0.00000000000E+00  0.99999944177E+02  0.99999999998E+02  0.10566000000E+00 0. -1.
         22   -1    0    0    0    0 -0.00000000000E+00 -0.00000000000E+00 -0.19766568654E+02  0.19766568654E+02  0.00000000000E+00 0.  1.
         13    1    1    2    0    0 -0.73423269202E+00  0.14983011977E+02 -0.81844074540E+01  0.17088751708E+02  0.10566000000E+00 0.  1.
        996    1    1    2    0    0  0.73423269202E+00 -0.14983011977E+02  0.88417782978E+02  0.10267781694E+03  0.50000000000E+02 0.  0.
<mgrwt>
<rscale>  0 0.52201817E+02</rscale>
<asrwt>0</asrwt>
<pdfrwt beam="1">  1       13 0.10000000E+01 0.52201817E+02</pdfrwt>
<pdfrwt beam="2">  1       22 0.19766591E+00 0.52201817E+02</pdfrwt>
<totfact> 0.46325827E-01</totfact>
</mgrwt>
</event>
<event>
 4    1  0.2437479E+000  0.5790563E+02  0.7957747E-01  0.1406837E+00
         13   -1    0    0    0    0  0.00000000000E+00  0.00000000000E+00  0.99999944181E+02  0.10000000000E+03  0.10566000000E+00 0. -1.
         22   -1    0    0    0    0 -0.00000000000E+00 -0.00000000000E+00 -0.25592579372E+02  0.25592579372E+02  0.00000000000E+00 0.  1.
         13    1    1    2    0    0  0.21425910128E+02 -0.19849239719E+02 -0.25100954857E+01  0.29315076081E+02  0.10566000000E+00 0.  1.
        996    1    1    2    0    0 -0.21425910128E+02  0.19849239719E+02  0.76917460295E+02  0.96277503293E+02  0.50000000000E+02 0.  0.
<mgrwt>
<rscale>  0 0.57905630E+02</rscale>
<asrwt>0</asrwt>
<pdfrwt beam="1">  1       13 0.10000000E+01 0.57905630E+02</pdfrwt>
<pdfrwt beam="2">  1       22 0.25592600E+00 0.57905630E+02</pdfrwt>
<totfact> 0.28394137E-01</totfact>
</mgrwt>
</event>
<event>
 4    1  0.2437479E+000  0.6241187E+02  0.7957747E-01  0.1387980E+00
         13   -1    0    0    0    0  0.00000000000E+00  0.00000000000E+00  0.99999944177E+02  0.99999999997E+02  0.10566000000E+00 0.  1.
         22   -1    0    0    0    0 -0.00000000000E+00 -0.00000000000E+00 -0.47706237471E+02  0.47706237471E+02  0.00000000000E+00 0. -1.
         13    1    1    2    0    0 -0.15988248786E+02  0.33758211222E+02 -0.27513801483E+02  0.46392470943E+02  0.10566000000E+00 0. -1.
        996    1    1    2    0    0  0.15988248786E+02 -0.33758211222E+02  0.79807508189E+02  0.10131376652E+03  0.50000000000E+02 0.  0.
<mgrwt>
<rscale>  0 0.62411865E+02</rscale>
<asrwt>0</asrwt>
<pdfrwt beam="1">  1       13 0.10000000E+01 0.62411865E+02</pdfrwt>
<pdfrwt beam="2">  1       22 0.47706252E+00 0.62411865E+02</pdfrwt>
<totfact> 0.84000013E-02</totfact>
</mgrwt>
</event>
<event>
 4    1  0.2437479E+000  0.6123451E+02  0.7957747E-01  0.1392723E+00
         13   -1    0    0    0    0  0.00000000000E+00  0.00000000000E+00  0.99999944183E+02  0.10000000000E+03  0.10566000000E+00 0.  1.
         22   -1    0    0    0    0 -0.00000000000E+00 -0.00000000000E+00 -0.40729458000E+02  0.40729458000E+02  0.00000000000E+00 0. -1.
         13    1    1    2    0    0 -0.28177180706E+02 -0.21347398476E+02 -0.19957936132E+02  0.40595508531E+02  0.10566000000E+00 0. -1.
        996    1    1    2    0    0  0.28177180706E+02  0.21347398476E+02  0.79228422315E+02  0.10013394947E+03  0.50000000000E+02 0.  0.
<mgrwt>
<rscale>  0 0.61234508E+02</rscale>
<asrwt>0</asrwt>
<pdfrwt beam="1">  1       13 0.10000000E+01 0.61234508E+02</pdfrwt>
<pdfrwt beam="2">  1       22 0.40729475E+00 0.61234508E+02</pdfrwt>
<totfact> 0.12022281E-01</totfact>
</mgrwt>
</event>
<event>
 4    1  0.2437479E+000  0.5898655E+02  0.7957747E-01  0.1402135E+00
         13   -1    0    0    0    0  0.00000000000E+00  0.00000000000E+00  0.99999944174E+02  0.99999999995E+02  0.10566000000E+00 0. -1.
         22   -1    0    0    0    0 -0.00000000000E+00 -0.00000000000E+00 -0.25416966780E+02  0.25416966780E+02  0.00000000000E+00 0.  1.
         13    1    1    2    0    0 -0.23530117716E+02  0.20633632535E+02  0.12718118192E+01  0.31321588412E+02  0.10566000000E+00 0.  1.
        996    1    1    2    0    0  0.23530117716E+02 -0.20633632535E+02  0.73311165575E+02  0.94095378363E+02  0.50000000000E+02 0.  0.
<mgrwt>
<rscale>  0 0.58986551E+02</rscale>
<asrwt>0</asrwt>
<pdfrwt beam="1">  1       13 0.10000000E+01 0.58986551E+02</pdfrwt>
<pdfrwt beam="2">  1       22 0.25416988E+00 0.58986551E+02</pdfrwt>
<totfact> 0.28825411E-01</totfact>
</mgrwt>
</event>
<event>
 4    1  0.2437479E+000  0.5568068E+02  0.7957747E-01  0.1416907E+00
         13   -1    0    0    0    0  0.00000000000E+00  0.00000000000E+00  0.99999944183E+02  0.10000000000E+03  0.10566000000E+00 0.  1.
         22   -1    0    0    0    0 -0.00000000000E+00 -0.00000000000E+00 -0.16093464986E+02  0.16093464986E+02  0.00000000000E+00 0.  1.
         13    1    1    2    0    0 -0.17837874576E+02  0.16797259208E+02  0.27561375559E+02  0.36877883250E+02  0.10566000000E+00 0. -1.
        996    1    1    2    0    0  0.17837874576E+02 -0.16797259208E+02  0.56345103638E+02  0.79215581739E+02  0.50000000000E+02 0.  0.
<mgrwt>
<rscale>  0 0.55680676E+02</rscale>
<asrwt>0</asrwt>
<pdfrwt beam="1">  1       13 0.10000000E+01 0.55680676E+02</pdfrwt>
<pdfrwt beam="2">  1       22 0.16093488E+00 0.55680676E+02</pdfrwt>
<totfact> 0.67326867E-01</totfact>
</mgrwt>
</event>
<event>
 4    1  0.2437479E+000  0.6118405E+02  0.7957747E-01  0.1392929E+00
         13   -1    0    0    0    0  0.00000000000E+00  0.00000000000E+00  0.99999944178E+02  0.99999999999E+02  0.10566000000E+00 0.  1.
         22   -1    0    0    0    0 -0.00000000000E+00 -0.00000000000E+00 -0.50589987863E+02  0.50589987863E+02  0.00000000000E+00 0. -1.
         13    1    1    2    0    0 -0.15592999591E+02 -0.31628256678E+02 -0.32767209983E+02  0.48137194256E+02  0.10566000000E+00 0. -1.
        996    1    1    2    0    0  0.15592999591E+02  0.31628256678E+02  0.82177166298E+02  0.10245279361E+03  0.50000000000E+02 0.  0.
<mgrwt>
<rscale>  0 0.61184052E+02</rscale>
<asrwt>0</asrwt>
<pdfrwt beam="1">  1       13 0.10000000E+01 0.61184052E+02</pdfrwt>
<pdfrwt beam="2">  1       22 0.50590002E+00 0.61184052E+02</pdfrwt>
<totfact> 0.71551018E-02</totfact>
</mgrwt>
</event>
<event>
 4    1  0.2437479E+000  0.5122364E+02  0.7957747E-01  0.1438851E+00
         13   -1    0    0    0    0  0.00000000000E+00  0.00000000000E+00  0.99999944173E+02  0.99999999994E+02  0.10566000000E+00 0. -1.
         22   -1    0    0    0    0 -0.00000000000E+00 -0.00000000000E+00 -0.10578114268E+02  0.10578114268E+02  0.00000000000E+00 0. -1.
         13    1    1    2    0    0  0.94307856861E+01  0.59094269153E+01  0.58925808934E+01  0.12593439512E+02  0.10566000000E+00 0.  1.
        996    1    1    2    0    0 -0.94307856861E+01 -0.59094269153E+01  0.83529249012E+02  0.97984674749E+02  0.50000000000E+02 0.  0.
<mgrwt>
<rscale>  0 0.51223638E+02</rscale>
<asrwt>0</asrwt>
<pdfrwt beam="1">  1       13 0.10000000E+01 0.51223638E+02</pdfrwt>
<pdfrwt beam="2">  1       22 0.10578139E+00 0.51223638E+02</pdfrwt>
<totfact> 0.12963555E+00</totfact>
</mgrwt>
</event>
<event>
 4    1  0.2437479E+000  0.5317691E+02  0.7957747E-01  0.1428922E+00
         13   -1    0    0    0    0  0.00000000000E+00  0.00000000000E+00  0.99999944176E+02  0.99999999996E+02  0.10566000000E+00 0.  1.
         22   -1    0    0    0    0 -0.00000000000E+00 -0.00000000000E+00 -0.12734888130E+02  0.12734888130E+02  0.00000000000E+00 0.  1.
         13    1    1    2    0    0  0.88579189232E+00 -0.18083130228E+02  0.19754394731E+02  0.26796109818E+02  0.10566000000E+00 0. -1.
        996    1    1    2    0    0 -0.88579189232E+00  0.18083130228E+02  0.67510661314E+02  0.85938778309E+02  0.50000000000E+02 0.  0.
<mgrwt>
<rscale>  0 0.53176914E+02</rscale>
<asrwt>0</asrwt>
<pdfrwt beam="1">  1       13 0.10000000E+01 0.53176914E+02</pdfrwt>
<pdfrwt beam="2">  1       22 0.12734912E+00 0.53176914E+02</pdfrwt>
<totfact> 0.98295910E-01</totfact>
</mgrwt>
</event>
<event>
 4    1  0.2437479E+000  0.5386543E+02  0.7957747E-01  0.1425542E+00
         13   -1    0    0    0    0  0.00000000000E+00  0.00000000000E+00  0.99999944172E+02  0.99999999992E+02  0.10566000000E+00 0. -1.
         22   -1    0    0    0    0 -0.00000000000E+00 -0.00000000000E+00 -0.20331600044E+02  0.20331600044E+02  0.00000000000E+00 0.  1.
         13    1    1    2    0    0  0.75678744738E+00  0.20022788803E+02 -0.43735654004E+01  0.20509120825E+02  0.10566000000E+00 0.  1.
        996    1    1    2    0    0 -0.75678744738E+00 -0.20022788803E+02  0.84041909528E+02  0.99822479211E+02  0.50000000000E+02 0.  0.
<mgrwt>
<rscale>  0 0.53865432E+02</rscale>
<asrwt>0</asrwt>
<pdfrwt beam="1">  1       13 0.10000000E+01 0.53865432E+02</pdfrwt>
<pdfrwt beam="2">  1       22 0.20331622E+00 0.53865432E+02</pdfrwt>
<totfact> 0.44078733E-01</totfact>
</mgrwt>
</event>
<event>
 4    1  0.2437479E+000  0.8098692E+02  0.7957747E-01  0.1326274E+00
         13   -1    0    0    0    0  0.00000000000E+00  0.00000000000E+00  0.99999944187E+02  0.10000000001E+03  0.10566000000E+00 0.  1.
         22   -1    0    0    0    0 -0.00000000000E+00 -0.00000000000E+00 -0.84105764987E+02  0.84105764987E+02  0.00000000000E+00 0. -1.
         13    1    1    2    0    0 -0.46681739817E+02 -0.43355459307E+02 -0.48961975338E+02  0.80350276149E+02  0.10566000000E+00 0. -1.
        996    1    1    2    0    0  0.46681739817E+02  0.43355459307E+02  0.64856154538E+02  0.10375548885E+03  0.50000000000E+02 0.  0.
<mgrwt>
<rscale>  0 0.80986917E+02</rscale>
<asrwt>0</asrwt>
<pdfrwt beam="1">  1       13 0.10000000E+01 0.80986917E+02</pdfrwt>
<pdfrwt beam="2">  1       22 0.84105769E+00 0.80986917E+02</pdfrwt>
<totfact> 0.20813619E-02</totfact>
</mgrwt>
</event>
<event>
 4    1  0.2437479E+000  0.5108917E+02  0.7957747E-01  0.1439554E+00
         13   -1    0    0    0    0  0.00000000000E+00  0.00000000000E+00  0.99999944178E+02  0.99999999999E+02  0.10566000000E+00 0.  1.
         22   -1    0    0    0    0 -0.00000000000E+00 -0.00000000000E+00 -0.16886798459E+02  0.16886798459E+02  0.00000000000E+00 0. -1.
         13    1    1    2    0    0 -0.62082138492E+01  0.84594204683E+01 -0.74760678797E+01  0.12884349764E+02  0.10566000000E+00 0. -1.
        996    1    1    2    0    0  0.62082138492E+01 -0.84594204683E+01  0.90589213599E+02  0.10400244869E+03  0.50000000000E+02 0.  0.
<mgrwt>
<rscale>  0 0.51089174E+02</rscale>
<asrwt>0</asrwt>
<pdfrwt beam="1">  1       13 0.10000000E+01 0.51089174E+02</pdfrwt>
<pdfrwt beam="2">  1       22 0.16886822E+00 0.51089174E+02</pdfrwt>
<totfact> 0.61403641E-01</totfact>
</mgrwt>
</event>
<event>
 4    1  0.2437479E+000  0.5133959E+02  0.7957747E-01  0.1438247E+00
         13   -1    0    0    0    0  0.00000000000E+00  0.00000000000E+00  0.99999944174E+02  0.99999999994E+02  0.10566000000E+00 0.  1.
         22   -1    0    0    0    0 -0.00000000000E+00 -0.00000000000E+00 -0.10449036200E+02  0.10449036200E+02  0.00000000000E+00 0.  1.
         13    1    1    2    0    0 -0.91607255277E+01 -0.71996573581E+01  0.81823718856E+01  0.14237848573E+02  0.10566000000E+00 0. -1.
        996    1    1    2    0    0  0.91607255277E+01  0.71996573581E+01  0.81368536089E+02  0.96211187621E+02  0.50000000000E+02 0.  0.
<mgrwt>
<rscale>  0 0.51339594E+02</rscale>
<asrwt>0</asrwt>
<pdfrwt beam="1">  1       13 0.10000000E+01 0.51339594E+02</pdfrwt>
<pdfrwt beam="2">  1       22 0.10449061E+00 0.51339594E+02</pdfrwt>
<totfact> 0.13202969E+00</totfact>
</mgrwt>
</event>
<event>
 4    1  0.2437479E+000  0.5143493E+02  0.7957747E-01  0.1437752E+00
         13   -1    0    0    0    0  0.00000000000E+00  0.00000000000E+00  0.99999944183E+02  0.10000000000E+03  0.10566000000E+00 0.  1.
         22   -1    0    0    0    0 -0.00000000000E+00 -0.00000000000E+00 -0.19174790784E+02  0.19174790784E+02  0.00000000000E+00 0. -1.
         13    1    1    2    0    0 -0.10933879688E+02 -0.50992260716E+01 -0.94161446957E+01  0.15304469168E+02  0.10566000000E+00 0. -1.
        996    1    1    2    0    0  0.10933879688E+02  0.50992260716E+01  0.90241298095E+02  0.10387032162E+03  0.50000000000E+02 0.  0.
<mgrwt>
<rscale>  0 0.51434928E+02</rscale>
<asrwt>0</asrwt>
<pdfrwt beam="1">  1       13 0.10000000E+01 0.51434928E+02</pdfrwt>
<pdfrwt beam="2">  1       22 0.19174813E+00 0.51434928E+02</pdfrwt>
<totfact> 0.48932729E-01</totfact>
</mgrwt>
</event>
<event>
 4    1  0.2437479E+000  0.5209416E+02  0.7957747E-01  0.1434363E+00
         13   -1    0    0    0    0  0.00000000000E+00  0.00000000000E+00  0.99999944181E+02  0.10000000000E+03  0.10566000000E+00 0. -1.
         22   -1    0    0    0    0 -0.00000000000E+00 -0.00000000000E+00 -0.15454718704E+02  0.15454718704E+02  0.00000000000E+00 0.  1.
         13    1    1    2    0    0  0.10869693247E+02  0.97801560757E+01 -0.16758431034E+01  0.14718060276E+02  0.10566000000E+00 0.  1.
        996    1    1    2    0    0 -0.10869693247E+02 -0.97801560757E+01  0.86221068581E+02  0.10073665843E+03  0.50000000000E+02 0.  0.
<mgrwt>
<rscale>  0 0.52094162E+02</rscale>
<asrwt>0</asrwt>
<pdfrwt beam="1">  1       13 0.10000000E+01 0.52094162E+02</pdfrwt>
<pdfrwt beam="2">  1       22 0.15454742E+00 0.52094162E+02</pdfrwt>
<totfact> 0.71632220E-01</totfact>
</mgrwt>
</event>
<event>
 4    1  0.2437479E+000  0.5861822E+02  0.7957747E-01  0.1403724E+00
         13   -1    0    0    0    0  0.00000000000E+00  0.00000000000E+00  0.99999944187E+02  0.10000000001E+03  0.10566000000E+00 0.  1.
         22   -1    0    0    0    0 -0.00000000000E+00 -0.00000000000E+00 -0.62958063980E+02  0.62958063980E+02  0.00000000000E+00 0. -1.
         13    1    1    2    0    0  0.15744928513E+02  0.26233427255E+02 -0.49642987374E+02  0.58314087825E+02  0.10566000000E+00 0. -1.
        996    1    1    2    0    0 -0.15744928513E+02 -0.26233427255E+02  0.86684867581E+02  0.10464397616E+03  0.50000000000E+02 0.  0.
<mgrwt>
<rscale>  0 0.58618218E+02</rscale>
<asrwt>0</asrwt>
<pdfrwt beam="1">  1       13 0.10000000E+01 0.58618218E+02</pdfrwt>
<pdfrwt beam="2">  1       22 0.62958074E+00 0.58618218E+02</pdfrwt>
<totfact> 0.78501268E-02</totfact>
</mgrwt>
</event>
<event>
 4    1  0.2437479E+000  0.5394989E+02  0.7957747E-01  0.1425131E+00
         13   -1    0    0    0    0  0.00000000000E+00  0.00000000000E+00  0.99999944192E+02  0.10000000001E+03  0.10566000000E+00 0. -1.
         22   -1    0    0    0    0 -0.00000000000E+00 -0.00000000000E+00 -0.18064248695E+02  0.18064248695E+02  0.00000000000E+00 0.  1.
         13    1    1    2    0    0 -0.10756154823E+02 -0.17172514293E+02  0.36490991700E+00  0.20266584246E+02  0.10566000000E+00 0.  1.
        996    1    1    2    0    0  0.10756154823E+02  0.17172514293E+02  0.81570785580E+02  0.97797664460E+02  0.50000000000E+02 0.  0.
<mgrwt>
<rscale>  0 0.53949885E+02</rscale>
<asrwt>0</asrwt>
<pdfrwt beam="1">  1       13 0.10000000E+01 0.53949885E+02</pdfrwt>
<pdfrwt beam="2">  1       22 0.18064272E+00 0.53949885E+02</pdfrwt>
<totfact> 0.54787428E-01</totfact>
</mgrwt>
</event>
<event>
 4    1  0.2437479E+000  0.6128791E+02  0.7957747E-01  0.1392505E+00
         13   -1    0    0    0    0  0.00000000000E+00  0.00000000000E+00  0.99999944176E+02  0.99999999996E+02  0.10566000000E+00 0.  1.
         22   -1    0    0    0    0 -0.00000000000E+00 -0.00000000000E+00 -0.36027455148E+02  0.36027455148E+02  0.00000000000E+00 0. -1.
         13    1    1    2    0    0 -0.35439725875E+02  0.48326072258E+00 -0.12896426367E+02  0.37716530700E+02  0.10566000000E+00 0. -1.
        996    1    1    2    0    0  0.35439725875E+02 -0.48326072258E+00  0.76868915395E+02  0.98310924444E+02  0.50000000000E+02 0.  0.
<mgrwt>
<rscale>  0 0.61287908E+02</rscale>
<asrwt>0</asrwt>
<pdfrwt beam="1">  1       13 0.10000000E+01 0.61287908E+02</pdfrwt>
<pdfrwt beam="2">  1       22 0.36027473E+00 0.61287908E+02</pdfrwt>
<totfact> 0.15065941E-01</totfact>
</mgrwt>
</event>
<event>
 4    1  0.2437479E+000  0.5194956E+02  0.7957747E-01  0.1435101E+00
         13   -1    0    0    0    0  0.00000000000E+00  0.00000000000E+00  0.99999944177E+02  0.99999999997E+02  0.10566000000E+00 0.  1.
         22   -1    0    0    0    0 -0.00000000000E+00 -0.00000000000E+00 -0.59399601232E+02  0.59399601232E+02  0.00000000000E+00 0. -1.
         13    1    1    2    0    0  0.31898431893E+01 -0.13732510269E+02 -0.51643449525E+02  0.53533297869E+02  0.10566000000E+00 0. -1.
        996    1    1    2    0    0 -0.31898431893E+01  0.13732510269E+02  0.92243792470E+02  0.10586630336E+03  0.50000000000E+02 0.  0.
<mgrwt>
<rscale>  0 0.51949561E+02</rscale>
<asrwt>0</asrwt>
<pdfrwt beam="1">  1       13 0.10000000E+01 0.51949561E+02</pdfrwt>
<pdfrwt beam="2">  1       22 0.59399613E+00 0.51949561E+02</pdfrwt>
<totfact> 0.61578071E-02</totfact>
</mgrwt>
</event>
<event>
 4    1  0.2437479E+000  0.5236562E+02  0.7957747E-01  0.1432984E+00
         13   -1    0    0    0    0  0.00000000000E+00  0.00000000000E+00  0.99999944176E+02  0.99999999996E+02  0.10566000000E+00 0. -1.
         22   -1    0    0    0    0 -0.00000000000E+00 -0.00000000000E+00 -0.15446464863E+02  0.15446464863E+02  0.00000000000E+00 0.  1.
         13    1    1    2    0    0 -0.15307671486E+02  0.27987480438E+01 -0.49486745577E+00  0.15569645300E+02  0.10566000000E+00 0.  1.
        996    1    1    2    0    0  0.15307671486E+02 -0.27987480438E+01  0.85048346769E+02  0.99876819558E+02  0.50000000000E+02 0.  0.
<mgrwt>
<rscale>  0 0.52365617E+02</rscale>
<asrwt>0</asrwt>
<pdfrwt beam="1">  1       13 0.10000000E+01 0.52365617E+02</pdfrwt>
<pdfrwt beam="2">  1       22 0.15446488E+00 0.52365617E+02</pdfrwt>
<totfact> 0.71735860E-01</totfact>
</mgrwt>
</event>
<event>
 4    1  0.2437479E+000  0.5498515E+02  0.7957747E-01  0.1420169E+00
         13   -1    0    0    0    0  0.00000000000E+00  0.00000000000E+00  0.99999944186E+02  0.10000000001E+03  0.10566000000E+00 0.  1.
         22   -1    0    0    0    0 -0.00000000000E+00 -0.00000000000E+00 -0.19195903818E+02  0.19195903818E+02  0.00000000000E+00 0.  1.
         13    1    1    2    0    0 -0.15160799856E+02  0.17132328833E+02  0.18096270927E+01  0.22948909729E+02  0.10566000000E+00 0. -1.
        996    1    1    2    0    0  0.15160799856E+02 -0.17132328833E+02  0.78994413276E+02  0.96246994095E+02  0.50000000000E+02 0.  0.
<mgrwt>
<rscale>  0 0.54985148E+02</rscale>
<asrwt>0</asrwt>
<pdfrwt beam="1">  1       13 0.10000000E+01 0.54985148E+02</pdfrwt>
<pdfrwt beam="2">  1       22 0.19195926E+00 0.54985148E+02</pdfrwt>
<totfact> 0.49144935E-01</totfact>
</mgrwt>
</event>
<event>
 4    1  0.2437479E+000  0.5292535E+02  0.7957747E-01  0.1430173E+00
         13   -1    0    0    0    0  0.00000000000E+00  0.00000000000E+00  0.99999944179E+02  0.99999999999E+02  0.10566000000E+00 0.  1.
         22   -1    0    0    0    0 -0.00000000000E+00 -0.00000000000E+00 -0.13171211868E+02  0.13171211868E+02  0.00000000000E+00 0. -1.
         13    1    1    2    0    0  0.22757357337E+00  0.17350540534E+02  0.10477698653E+02  0.20270332499E+02  0.10566000000E+00 0. -1.
        996    1    1    2    0    0 -0.22757357337E+00 -0.17350540534E+02  0.76351033658E+02  0.92900879367E+02  0.50000000000E+02 0.  0.
<mgrwt>
<rscale>  0 0.52925354E+02</rscale>
<asrwt>0</asrwt>
<pdfrwt beam="1">  1       13 0.10000000E+01 0.52925354E+02</pdfrwt>
<pdfrwt beam="2">  1       22 0.13171236E+00 0.52925354E+02</pdfrwt>
<totfact> 0.93168928E-01</totfact>
</mgrwt>
</event>
<event>
 4    1  0.2437479E+000  0.5151765E+02  0.7957747E-01  0.1437324E+00
         13   -1    0    0    0    0  0.00000000000E+00  0.00000000000E+00  0.99999944176E+02  0.99999999996E+02  0.10566000000E+00 0. -1.
         22   -1    0    0    0    0 -0.00000000000E+00 -0.00000000000E+00 -0.14969909987E+02  0.14969909987E+02  0.00000000000E+00 0.  1.
         13    1    1    2    0    0  0.10317587755E+02  0.69004390748E+01 -0.31835297788E+01  0.12814628453E+02  0.10566000000E+00 0.  1.
        996    1    1    2    0    0 -0.10317587755E+02 -0.69004390748E+01  0.88213563968E+02  0.10215528153E+03  0.50000000000E+02 0.  0.
<mgrwt>
<rscale>  0 0.51517654E+02</rscale>
<asrwt>0</asrwt>
<pdfrwt beam="1">  1       13 0.10000000E+01 0.51517654E+02</pdfrwt>
<pdfrwt beam="2">  1       22 0.14969934E+00 0.51517654E+02</pdfrwt>
<totfact> 0.75469650E-01</totfact>
</mgrwt>
</event>
<event>
 4    1  0.2437479E+000  0.5542048E+02  0.7957747E-01  0.1418121E+00
         13   -1    0    0    0    0  0.00000000000E+00  0.00000000000E+00  0.99999944178E+02  0.99999999999E+02  0.10566000000E+00 0.  1.
         22   -1    0    0    0    0 -0.00000000000E+00 -0.00000000000E+00 -0.49611604577E+02  0.49611604577E+02  0.00000000000E+00 0. -1.
         13    1    1    2    0    0  0.23534637923E+02 -0.41893636211E+01 -0.38231231610E+02  0.45089557374E+02  0.10566000000E+00 0. -1.
        996    1    1    2    0    0 -0.23534637923E+02  0.41893636211E+01  0.88619571211E+02  0.10452204720E+03  0.50000000000E+02 0.  0.
<mgrwt>
<rscale>  0 0.55420483E+02</rscale>
<asrwt>0</asrwt>
<pdfrwt beam="1">  1       13 0.10000000E+01 0.55420483E+02</pdfrwt>
<pdfrwt beam="2">  1       22 0.49611619E+00 0.55420483E+02</pdfrwt>
<totfact> 0.75325290E-02</totfact>
</mgrwt>
</event>
<event>
 4    1  0.2437479E+000  0.5114645E+02  0.7957747E-01  0.1439254E+00
         13   -1    0    0    0    0  0.00000000000E+00  0.00000000000E+00  0.99999944170E+02  0.99999999990E+02  0.10566000000E+00 0.  1.
         22   -1    0    0    0    0 -0.00000000000E+00 -0.00000000000E+00 -0.26122430859E+02  0.26122430859E+02  0.00000000000E+00 0. -1.
         13    1    1    2    0    0 -0.67435664141E+01  0.83954777551E+01 -0.17995726093E+02  0.20971815762E+02  0.10566000000E+00 0. -1.
        996    1    1    2    0    0  0.67435664141E+01 -0.83954777551E+01  0.91873239403E+02  0.10515061509E+03  0.50000000000E+02 0.  0.
<mgrwt>
<rscale>  0 0.51146454E+02</rscale>
<asrwt>0</asrwt>
<pdfrwt beam="1">  1       13 0.10000000E+01 0.51146454E+02</pdfrwt>
<pdfrwt beam="2">  1       22 0.26122451E+00 0.51146454E+02</pdfrwt>
<totfact> 0.27003687E-01</totfact>
</mgrwt>
</event>
<event>
 4    1  0.2437479E+000  0.5194836E+02  0.7957747E-01  0.1435107E+00
         13   -1    0    0    0    0  0.00000000000E+00  0.00000000000E+00  0.99999944181E+02  0.10000000000E+03  0.10566000000E+00 0.  1.
         22   -1    0    0    0    0 -0.00000000000E+00 -0.00000000000E+00 -0.11991728200E+02  0.11991728200E+02  0.00000000000E+00 0.  1.
         13    1    1    2    0    0 -0.12832342141E+02 -0.58277473435E+01  0.69468835204E+01  0.15713115497E+02  0.10566000000E+00 0. -1.
        996    1    1    2    0    0  0.12832342141E+02  0.58277473435E+01  0.81061332461E+02  0.96278612704E+02  0.50000000000E+02 0.  0.
<mgrwt>
<rscale>  0 0.51948356E+02</rscale>
<asrwt>0</asrwt>
<pdfrwt beam="1">  1       13 0.10000000E+01 0.51948356E+02</pdfrwt>
<pdfrwt beam="2">  1       22 0.11991753E+00 0.51948356E+02</pdfrwt>
<totfact> 0.10759510E+00</totfact>
</mgrwt>
</event>
<event>
 4    1  0.2437479E+000  0.5152695E+02  0.7957747E-01  0.1437275E+00
         13   -1    0    0    0    0  0.00000000000E+00  0.00000000000E+00  0.99999944185E+02  0.10000000001E+03  0.10566000000E+00 0. -1.
         22   -1    0    0    0    0 -0.00000000000E+00 -0.00000000000E+00 -0.10988620970E+02  0.10988620970E+02  0.00000000000E+00 0. -1.
         13    1    1    2    0    0 -0.11381363472E+02  0.50488682205E+01  0.30947899336E+02  0.33358809064E+02  0.10566000000E+00 0.  1.
        996    1    1    2    0    0  0.11381363472E+02 -0.50488682205E+01  0.58063423879E+02  0.77629811911E+02  0.50000000000E+02 0.  0.
<mgrwt>
<rscale>  0 0.51526949E+02</rscale>
<asrwt>0</asrwt>
<pdfrwt beam="1">  1       13 0.10000000E+01 0.51526949E+02</pdfrwt>
<pdfrwt beam="2">  1       22 0.10988646E+00 0.51526949E+02</pdfrwt>
<totfact> 0.12262652E+00</totfact>
</mgrwt>
</event>
<event>
 4    1  0.2437479E+000  0.5124327E+02  0.7957747E-01  0.1438749E+00
         13   -1    0    0    0    0  0.00000000000E+00  0.00000000000E+00  0.99999944180E+02  0.10000000000E+03  0.10566000000E+00 0. -1.
         22   -1    0    0    0    0 -0.00000000000E+00 -0.00000000000E+00 -0.10329383063E+02  0.10329383063E+02  0.00000000000E+00 0. -1.
         13    1    1    2    0    0  0.65819382747E+01  0.90857293536E+01  0.75195873962E+01  0.13506581654E+02  0.10566000000E+00 0.  1.
        996    1    1    2    0    0 -0.65819382747E+01 -0.90857293536E+01  0.82150973721E+02  0.96822801409E+02  0.50000000000E+02 0.  0.
<mgrwt>
<rscale>  0 0.51243267E+02</rscale>
<asrwt>0</asrwt>
<pdfrwt beam="1">  1       13 0.10000000E+01 0.51243267E+02</pdfrwt>
<pdfrwt beam="2">  1       22 0.10329408E+00 0.51243267E+02</pdfrwt>
<totfact> 0.13424241E+00</totfact>
</mgrwt>
</event>
<event>
 4    1  0.2437479E+000  0.5279760E+02  0.7957747E-01  0.1430811E+00
         13   -1    0    0    0    0  0.00000000000E+00  0.00000000000E+00  0.99999944184E+02  0.10000000000E+03  0.10566000000E+00 0. -1.
         22   -1    0    0    0    0 -0.00000000000E+00 -0.00000000000E+00 -0.20267433571E+02  0.20267433571E+02  0.00000000000E+00 0.  1.
         13    1    1    2    0    0 -0.24211844603E+01  0.16784633348E+02 -0.73073525419E+01  0.18466039533E+02  0.10566000000E+00 0.  1.
        996    1    1    2    0    0  0.24211844603E+01 -0.16784633348E+02  0.87039863156E+02  0.10180139404E+03  0.50000000000E+02 0.  0.
<mgrwt>
<rscale>  0 0.52797595E+02</rscale>
<asrwt>0</asrwt>
<pdfrwt beam="1">  1       13 0.10000000E+01 0.52797595E+02</pdfrwt>
<pdfrwt beam="2">  1       22 0.20267456E+00 0.52797595E+02</pdfrwt>
<totfact> 0.44258886E-01</totfact>
</mgrwt>
</event>
<event>
 4    1  0.2437479E+000  0.5473207E+02  0.7957747E-01  0.1421370E+00
         13   -1    0    0    0    0  0.00000000000E+00  0.00000000000E+00  0.99999944174E+02  0.99999999994E+02  0.10566000000E+00 0.  1.
         22   -1    0    0    0    0 -0.00000000000E+00 -0.00000000000E+00 -0.15102373104E+02  0.15102373104E+02  0.00000000000E+00 0.  1.
         13    1    1    2    0    0  0.10433880731E+02  0.19665545694E+02  0.32027625531E+02  0.39004865283E+02  0.10566000000E+00 0. -1.
        996    1    1    2    0    0 -0.10433880731E+02 -0.19665545694E+02  0.52869945538E+02  0.76097507816E+02  0.50000000000E+02 0.  0.
<mgrwt>
<rscale>  0 0.54732071E+02</rscale>
<asrwt>0</asrwt>
<pdfrwt beam="1">  1       13 0.10000000E+01 0.54732071E+02</pdfrwt>
<pdfrwt beam="2">  1       22 0.15102397E+00 0.54732071E+02</pdfrwt>
<totfact> 0.74847535E-01</totfact>
</mgrwt>
</event>
<event>
 4    1  0.2437479E+000  0.5122064E+02  0.7957747E-01  0.1438867E+00
         13   -1    0    0    0    0  0.00000000000E+00  0.00000000000E+00  0.99999944173E+02  0.99999999993E+02  0.10566000000E+00 0.  1.
         22   -1    0    0    0    0 -0.00000000000E+00 -0.00000000000E+00 -0.10129570581E+02  0.10129570581E+02  0.00000000000E+00 0.  1.
         13    1    1    2    0    0  0.10774741002E+02 -0.27311869005E+01  0.25864832013E+02  0.28152355579E+02  0.10566000000E+00 0. -1.
        996    1    1    2    0    0 -0.10774741002E+02  0.27311869005E+01  0.64005541580E+02  0.81977214996E+02  0.50000000000E+02 0.  0.
<mgrwt>
<rscale>  0 0.51220645E+02</rscale>
<asrwt>0</asrwt>
<pdfrwt beam="1">  1       13 0.10000000E+01 0.51220645E+02</pdfrwt>
<pdfrwt beam="2">  1       22 0.10129596E+00 0.51220645E+02</pdfrwt>
<totfact> 0.13810996E+00</totfact>
</mgrwt>
</event>
<event>
 4    1  0.2437479E+000  0.5314929E+02  0.7957747E-01  0.1429059E+00
         13   -1    0    0    0    0  0.00000000000E+00  0.00000000000E+00  0.99999944177E+02  0.99999999998E+02  0.10566000000E+00 0. -1.
         22   -1    0    0    0    0 -0.00000000000E+00 -0.00000000000E+00 -0.30619274109E+02  0.30619274109E+02  0.00000000000E+00 0.  1.
         13    1    1    2    0    0  0.95984102356E+01  0.15255067483E+02 -0.19816886446E+02  0.26787435775E+02  0.10566000000E+00 0.  1.
        996    1    1    2    0    0 -0.95984102356E+01 -0.15255067483E+02  0.89197556515E+02  0.10383183833E+03  0.50000000000E+02 0.  0.
<mgrwt>
<rscale>  0 0.53149286E+02</rscale>
<asrwt>0</asrwt>
<pdfrwt beam="1">  1       13 0.10000000E+01 0.53149286E+02</pdfrwt>
<pdfrwt beam="2">  1       22 0.30619293E+00 0.53149286E+02</pdfrwt>
<totfact> 0.19962100E-01</totfact>
</mgrwt>
</event>
<event>
 4    1  0.2437479E+000  0.5150546E+02  0.7957747E-01  0.1437387E+00
         13   -1    0    0    0    0  0.00000000000E+00  0.00000000000E+00  0.99999944188E+02  0.10000000001E+03  0.10566000000E+00 0. -1.
         22   -1    0    0    0    0 -0.00000000000E+00 -0.00000000000E+00 -0.76359937379E+02  0.76359937379E+02  0.00000000000E+00 0.  1.
         13    1    1    2    0    0  0.11670317057E+02  0.40762841747E+01 -0.69143158732E+02  0.70239589665E+02  0.10566000000E+00 0.  1.
        996    1    1    2    0    0 -0.11670317057E+02 -0.40762841747E+01  0.92783165541E+02  0.10612034772E+03  0.50000000000E+02 0.  0.
<mgrwt>
<rscale>  0 0.51505460E+02</rscale>
<asrwt>0</asrwt>
<pdfrwt beam="1">  1       13 0.10000000E+01 0.51505460E+02</pdfrwt>
<pdfrwt beam="2">  1       22 0.76359944E+00 0.51505460E+02</pdfrwt>
<totfact> 0.43222071E-02</totfact>
</mgrwt>
</event>
<event>
 4    1  0.2437479E+000  0.5228221E+02  0.7957747E-01  0.1433407E+00
         13   -1    0    0    0    0  0.00000000000E+00  0.00000000000E+00  0.99999944177E+02  0.99999999998E+02  0.10566000000E+00 0.  1.
         22   -1    0    0    0    0 -0.00000000000E+00 -0.00000000000E+00 -0.13940215018E+02  0.13940215018E+02  0.00000000000E+00 0.  1.
         13    1    1    2    0    0 -0.14868011756E+02  0.35173715791E+01  0.44814473185E+02  0.47347416480E+02  0.10566000000E+00 0. -1.
        996    1    1    2    0    0  0.14868011756E+02 -0.35173715791E+01  0.41245255974E+02  0.66592798535E+02  0.50000000000E+02 0.  0.
<mgrwt>
<rscale>  0 0.52282212E+02</rscale>
<asrwt>0</asrwt>
<pdfrwt beam="1">  1       13 0.10000000E+01 0.52282212E+02</pdfrwt>
<pdfrwt beam="2">  1       22 0.13940239E+00 0.52282212E+02</pdfrwt>
<totfact> 0.84964322E-01</totfact>
</mgrwt>
</event>
<event>
 4    1  0.2437479E+000  0.5128740E+02  0.7957747E-01  0.1438519E+00
         13   -1    0    0    0    0  0.00000000000E+00  0.00000000000E+00  0.99999944177E+02  0.99999999998E+02  0.10566000000E+00 0. -1.
         22   -1    0    0    0    0 -0.00000000000E+00 -0.00000000000E+00 -0.14511201017E+02  0.14511201017E+02  0.00000000000E+00 0.  1.
         13    1    1    2    0    0  0.10736095960E+02 -0.38901457368E+01 -0.33761425911E+01  0.11908253152E+02  0.10566000000E+00 0.  1.
        996    1    1    2    0    0 -0.10736095960E+02  0.38901457368E+01  0.88864885752E+02  0.10260294786E+03  0.50000000000E+02 0.  0.
<mgrwt>
<rscale>  0 0.51287396E+02</rscale>
<asrwt>0</asrwt>
<pdfrwt beam="1">  1       13 0.10000000E+01 0.51287396E+02</pdfrwt>
<pdfrwt beam="2">  1       22 0.14511225E+00 0.51287396E+02</pdfrwt>
<totfact> 0.79415597E-01</totfact>
</mgrwt>
</event>
<event>
 4    1  0.2437479E+000  0.5161493E+02  0.7957747E-01  0.1436821E+00
         13   -1    0    0    0    0  0.00000000000E+00  0.00000000000E+00  0.99999944175E+02  0.99999999995E+02  0.10566000000E+00 0.  1.
         22   -1    0    0    0    0 -0.00000000000E+00 -0.00000000000E+00 -0.10377362600E+02  0.10377362600E+02  0.00000000000E+00 0.  1.
         13    1    1    2    0    0 -0.11345469160E+02 -0.59482296362E+01  0.17447099940E+02  0.21645174211E+02  0.10566000000E+00 0. -1.
        996    1    1    2    0    0  0.11345469160E+02  0.59482296362E+01  0.72175481635E+02  0.88732188384E+02  0.50000000000E+02 0.  0.
<mgrwt>
<rscale>  0 0.51614931E+02</rscale>
<asrwt>0</asrwt>
<pdfrwt beam="1">  1       13 0.10000000E+01 0.51614931E+02</pdfrwt>
<pdfrwt beam="2">  1       22 0.10377388E+00 0.51614931E+02</pdfrwt>
<totfact> 0.13345463E+00</totfact>
</mgrwt>
</event>
<event>
 4    1  0.2437479E+000  0.5867885E+02  0.7957747E-01  0.1403461E+00
         13   -1    0    0    0    0  0.00000000000E+00  0.00000000000E+00  0.99999944170E+02  0.99999999991E+02  0.10566000000E+00 0. -1.
         22   -1    0    0    0    0 -0.00000000000E+00 -0.00000000000E+00 -0.28039737787E+02  0.28039737787E+02  0.00000000000E+00 0.  1.
         13    1    1    2    0    0  0.13073931160E+02  0.27789918917E+02 -0.51512850116E+01  0.31140876203E+02  0.10566000000E+00 0.  1.
        996    1    1    2    0    0 -0.13073931160E+02 -0.27789918917E+02  0.77111491395E+02  0.96898861575E+02  0.50000000000E+02 0.  0.
<mgrwt>
<rscale>  0 0.58678849E+02</rscale>
<asrwt>0</asrwt>
<pdfrwt beam="1">  1       13 0.10000000E+01 0.58678849E+02</pdfrwt>
<pdfrwt beam="2">  1       22 0.28039758E+00 0.58678849E+02</pdfrwt>
<totfact> 0.23756600E-01</totfact>
</mgrwt>
</event>
<event>
 4    1  0.2437479E+000  0.5522767E+02  0.7957747E-01  0.1419025E+00
         13   -1    0    0    0    0  0.00000000000E+00  0.00000000000E+00  0.99999944183E+02  0.10000000000E+03  0.10566000000E+00 0.  1.
         22   -1    0    0    0    0 -0.00000000000E+00 -0.00000000000E+00 -0.39704717110E+02  0.39704717110E+02  0.00000000000E+00 0. -1.
         13    1    1    2    0    0 -0.10600062619E+02 -0.20922104904E+02 -0.27400352095E+02  0.36067800877E+02  0.10566000000E+00 0. -1.
        996    1    1    2    0    0  0.10600062619E+02  0.20922104904E+02  0.87695579168E+02  0.10363691624E+03  0.50000000000E+02 0.  0.
<mgrwt>
<rscale>  0 0.55227672E+02</rscale>
<asrwt>0</asrwt>
<pdfrwt beam="1">  1       13 0.10000000E+01 0.55227672E+02</pdfrwt>
<pdfrwt beam="2">  1       22 0.39704734E+00 0.55227672E+02</pdfrwt>
<totfact> 0.12573496E-01</totfact>
</mgrwt>
</event>
<event>
 4    1  0.2437479E+000  0.5146785E+02  0.7957747E-01  0.1437581E+00
         13   -1    0    0    0    0  0.00000000000E+00  0.00000000000E+00  0.99999944171E+02  0.99999999992E+02  0.10566000000E+00 0.  1.
         22   -1    0    0    0    0 -0.00000000000E+00 -0.00000000000E+00 -0.10593583344E+02  0.10593583344E+02  0.00000000000E+00 0. -1.
         13    1    1    2    0    0  0.11625052773E+02 -0.37145944580E+01  0.27501835164E+02  0.30088239653E+02  0.10566000000E+00 0. -1.
        996    1    1    2    0    0 -0.11625052773E+02  0.37145944580E+01  0.61904525663E+02  0.80505343683E+02  0.50000000000E+02 0.  0.
<mgrwt>
<rscale>  0 0.51467855E+02</rscale>
<asrwt>0</asrwt>
<pdfrwt beam="1">  1       13 0.10000000E+01 0.51467855E+02</pdfrwt>
<pdfrwt beam="2">  1       22 0.10593608E+00 0.51467855E+02</pdfrwt>
<totfact> 0.12943229E+00</totfact>
</mgrwt>
</event>
<event>
 4    1  0.2437479E+000  0.5131610E+02  0.7957747E-01  0.1438369E+00
         13   -1    0    0    0    0  0.00000000000E+00  0.00000000000E+00  0.99999944183E+02  0.10000000000E+03  0.10566000000E+00 0. -1.
         22   -1    0    0    0    0 -0.00000000000E+00 -0.00000000000E+00 -0.13292876227E+02  0.13292876227E+02  0.00000000000E+00 0.  1.
         13    1    1    2    0    0 -0.82224871206E+01  0.81075735243E+01 -0.10896804004E+01  0.11599164207E+02  0.10566000000E+00 0.  1.
        996    1    1    2    0    0  0.82224871206E+01 -0.81075735243E+01  0.87796748357E+02  0.10169371202E+03  0.50000000000E+02 0.  0.
<mgrwt>
<rscale>  0 0.51316099E+02</rscale>
<asrwt>0</asrwt>
<pdfrwt beam="1">  1       13 0.10000000E+01 0.51316099E+02</pdfrwt>
<pdfrwt beam="2">  1       22 0.13292900E+00 0.51316099E+02</pdfrwt>
<totfact> 0.91503854E-01</totfact>
</mgrwt>
</event>
<event>
 4    1  0.2437479E+000  0.5643519E+02  0.7957747E-01  0.1413431E+00
         13   -1    0    0    0    0  0.00000000000E+00  0.00000000000E+00  0.99999944178E+02  0.99999999998E+02  0.10566000000E+00 0. -1.
         22   -1    0    0    0    0 -0.00000000000E+00 -0.00000000000E+00 -0.57009951576E+02  0.57009951576E+02  0.00000000000E+00 0.  1.
         13    1    1    2    0    0 -0.48464816312E+01  0.25718511478E+02 -0.45245885123E+02  0.52269795308E+02  0.10566000000E+00 0.  1.
        996    1    1    2    0    0  0.48464816312E+01 -0.25718511478E+02  0.88235877725E+02  0.10474015627E+03  0.50000000000E+02 0.  0.
<mgrwt>
<rscale>  0 0.56435186E+02</rscale>
<asrwt>0</asrwt>
<pdfrwt beam="1">  1       13 0.10000000E+01 0.56435186E+02</pdfrwt>
<pdfrwt beam="2">  1       22 0.57009964E+00 0.56435186E+02</pdfrwt>
<totfact> 0.57877663E-02</totfact>
</mgrwt>
</event>
<event>
 4    1  0.2437479E+000  0.5099744E+02  0.7957747E-01  0.1440035E+00
         13   -1    0    0    0    0  0.00000000000E+00  0.00000000000E+00  0.99999944185E+02  0.10000000001E+03  0.10566000000E+00 0. -1.
         22   -1    0    0    0    0 -0.00000000000E+00 -0.00000000000E+00 -0.10438468631E+02  0.10438468631E+02  0.00000000000E+00 0. -1.
         13    1    1    2    0    0  0.93060769844E+01 -0.37597009088E+01  0.39457331116E+01  0.10785100537E+02  0.10566000000E+00 0.  1.
        996    1    1    2    0    0 -0.93060769844E+01  0.37597009088E+01  0.85615742442E+02  0.99653368100E+02  0.50000000000E+02 0.  0.
<mgrwt>
<rscale>  0 0.50997435E+02</rscale>
<asrwt>0</asrwt>
<pdfrwt beam="1">  1       13 0.10000000E+01 0.50997435E+02</pdfrwt>
<pdfrwt beam="2">  1       22 0.10438494E+00 0.50997435E+02</pdfrwt>
<totfact> 0.13211715E+00</totfact>
</mgrwt>
</event>
<event>
 4    1  0.2437479E+000  0.5302493E+02  0.7957747E-01  0.1429677E+00
         13   -1    0    0    0    0  0.00000000000E+00  0.00000000000E+00  0.99999944176E+02  0.99999999996E+02  0.10566000000E+00 0.  1.
         22   -1    0    0    0    0 -0.00000000000E+00 -0.00000000000E+00 -0.45859651168E+02  0.45859651168E+02  0.00000000000E+00 0. -1.
         13    1    1    2    0    0 -0.17648383682E+02  0.42212819492E+00 -0.36672094396E+02  0.40700089807E+02  0.10566000000E+00 0. -1.
        996    1    1    2    0    0  0.17648383682E+02 -0.42212819492E+00  0.90812387404E+02  0.10515956136E+03  0.50000000000E+02 0.  0.
<mgrwt>
<rscale>  0 0.53024934E+02</rscale>
<asrwt>0</asrwt>
<pdfrwt beam="1">  1       13 0.10000000E+01 0.53024934E+02</pdfrwt>
<pdfrwt beam="2">  1       22 0.45859666E+00 0.53024934E+02</pdfrwt>
<totfact> 0.92409228E-02</totfact>
</mgrwt>
</event>
<event>
 4    1  0.2437479E+000  0.5103902E+02  0.7957747E-01  0.1439817E+00
         13   -1    0    0    0    0  0.00000000000E+00  0.00000000000E+00  0.99999944175E+02  0.99999999995E+02  0.10566000000E+00 0.  1.
         22   -1    0    0    0    0 -0.00000000000E+00 -0.00000000000E+00 -0.95421547503E+01  0.95421547503E+01  0.00000000000E+00 0.  1.
         13    1    1    2    0    0  0.55015253273E+01  0.86437716422E+01  0.10406896140E+02  0.14604664338E+02  0.10566000000E+00 0. -1.
        996    1    1    2    0    0 -0.55015253273E+01 -0.86437716422E+01  0.80050893285E+02  0.94937490407E+02  0.50000000000E+02 0.  0.
<mgrwt>
<rscale>  0 0.51039020E+02</rscale>
<asrwt>0</asrwt>
<pdfrwt beam="1">  1       13 0.10000000E+01 0.51039020E+02</pdfrwt>
<pdfrwt beam="2">  1       22 0.95421800E-01 0.51039020E+02</pdfrwt>
<totfact> 0.15046352E+00</totfact>
</mgrwt>
</event>
<event>
 4    1  0.2437479E+000  0.5650865E+02  0.7957747E-01  0.1413096E+00
         13   -1    0    0    0    0  0.00000000000E+00  0.00000000000E+00  0.99999944182E+02  0.10000000000E+03  0.10566000000E+00 0.  1.
         22   -1    0    0    0    0 -0.00000000000E+00 -0.00000000000E+00 -0.17707076448E+02  0.17707076448E+02  0.00000000000E+00 0.  1.
         13    1    1    2    0    0 -0.15330065575E+02 -0.21406001438E+02  0.16925422929E+02  0.31300302130E+02  0.10566000000E+00 0. -1.
        996    1    1    2    0    0  0.15330065575E+02  0.21406001438E+02  0.65367444805E+02  0.86406774320E+02  0.50000000000E+02 0.  0.
<mgrwt>
<rscale>  0 0.56508653E+02</rscale>
<asrwt>0</asrwt>
<pdfrwt beam="1">  1       13 0.10000000E+01 0.56508653E+02</pdfrwt>
<pdfrwt beam="2">  1       22 0.17707099E+00 0.56508653E+02</pdfrwt>
<totfact> 0.57040810E-01</totfact>
</mgrwt>
</event>
<event>
 4    1  0.2437479E+000  0.5529067E+02  0.7957747E-01  0.1418729E+00
         13   -1    0    0    0    0  0.00000000000E+00  0.00000000000E+00  0.99999944176E+02  0.99999999996E+02  0.10566000000E+00 0. -1.
         22   -1    0    0    0    0 -0.00000000000E+00 -0.00000000000E+00 -0.47604587476E+02  0.47604587476E+02  0.00000000000E+00 0.  1.
         13    1    1    2    0    0 -0.93787730825E+01  0.21658646942E+02 -0.36174591594E+02  0.43193409369E+02  0.10566000000E+00 0.  1.
        996    1    1    2    0    0  0.93787730825E+01 -0.21658646942E+02  0.88569948295E+02  0.10441117810E+03  0.50000000000E+02 0.  0.
<mgrwt>
<rscale>  0 0.55290672E+02</rscale>
<asrwt>0</asrwt>
<pdfrwt beam="1">  1       13 0.10000000E+01 0.55290672E+02</pdfrwt>
<pdfrwt beam="2">  1       22 0.47604602E+00 0.55290672E+02</pdfrwt>
<totfact> 0.84199181E-02</totfact>
</mgrwt>
</event>
<event>
 4    1  0.2437479E+000  0.5201969E+02  0.7957747E-01  0.1434743E+00
         13   -1    0    0    0    0  0.00000000000E+00  0.00000000000E+00  0.99999944179E+02  0.99999999999E+02  0.10566000000E+00 0.  1.
         22   -1    0    0    0    0 -0.00000000000E+00 -0.00000000000E+00 -0.25677530247E+02  0.25677530247E+02  0.00000000000E+00 0. -1.
         13    1    1    2    0    0  0.13837761492E+02 -0.38163393672E+01 -0.15969301013E+02  0.21472722886E+02  0.10566000000E+00 0. -1.
        996    1    1    2    0    0 -0.13837761492E+02  0.38163393672E+01  0.90291714945E+02  0.10420480736E+03  0.50000000000E+02 0.  0.
<mgrwt>
<rscale>  0 0.52019689E+02</rscale>
<asrwt>0</asrwt>
<pdfrwt beam="1">  1       13 0.10000000E+01 0.52019689E+02</pdfrwt>
<pdfrwt beam="2">  1       22 0.25677551E+00 0.52019689E+02</pdfrwt>
<totfact> 0.27969036E-01</totfact>
</mgrwt>
</event>
<event>
 4    1  0.2437479E+000  0.5748646E+02  0.7957747E-01  0.1408693E+00
         13   -1    0    0    0    0  0.00000000000E+00  0.00000000000E+00  0.99999944187E+02  0.10000000001E+03  0.10566000000E+00 0. -1.
         22   -1    0    0    0    0 -0.00000000000E+00 -0.00000000000E+00 -0.21660706801E+02  0.21660706801E+02  0.00000000000E+00 0. -1.
         13    1    1    2    0    0  0.58056646098E+01 -0.27766654956E+02  0.55442617599E+01  0.28904028638E+02  0.10566000000E+00 0.  1.
        996    1    1    2    0    0 -0.58056646098E+01  0.27766654956E+02  0.72794975626E+02  0.92756678171E+02  0.50000000000E+02 0.  0.
<mgrwt>
<rscale>  0 0.57486458E+02</rscale>
<asrwt>0</asrwt>
<pdfrwt beam="1">  1       13 0.10000000E+01 0.57486458E+02</pdfrwt>
<pdfrwt beam="2">  1       22 0.21660729E+00 0.57486458E+02</pdfrwt>
<totfact> 0.39315678E-01</totfact>
</mgrwt>
</event>
<event>
 4    1  0.2437479E+000  0.5125758E+02  0.7957747E-01  0.1438674E+00
         13   -1    0    0    0    0  0.00000000000E+00  0.00000000000E+00  0.99999944181E+02  0.10000000000E+03  0.10566000000E+00 0.  1.
         22   -1    0    0    0    0 -0.00000000000E+00 -0.00000000000E+00 -0.16108152373E+02  0.16108152373E+02  0.00000000000E+00 0. -1.
         13    1    1    2    0    0 -0.58847256310E+01  0.96285643861E+01 -0.58864294276E+01  0.12727940263E+02  0.10566000000E+00 0. -1.
        996    1    1    2    0    0  0.58847256310E+01 -0.96285643861E+01  0.89778221236E+02  0.10338021211E+03  0.50000000000E+02 0.  0.
<mgrwt>
<rscale>  0 0.51257577E+02</rscale>
<asrwt>0</asrwt>
<pdfrwt beam="1">  1       13 0.10000000E+01 0.51257577E+02</pdfrwt>
<pdfrwt beam="2">  1       22 0.16108176E+00 0.51257577E+02</pdfrwt>
<totfact> 0.66651537E-01</totfact>
</mgrwt>
</event>
<event>
 4    1  0.2437479E+000  0.5279414E+02  0.7957747E-01  0.1430828E+00
         13   -1    0    0    0    0  0.00000000000E+00  0.00000000000E+00  0.99999944175E+02  0.99999999995E+02  0.10566000000E+00 0.  1.
         22   -1    0    0    0    0 -0.00000000000E+00 -0.00000000000E+00 -0.49980207057E+02  0.49980207057E+02  0.00000000000E+00 0. -1.
         13    1    1    2    0    0 -0.16921180956E+02  0.94622708186E+00 -0.41219436780E+02  0.44567643455E+02  0.10566000000E+00 0. -1.
        996    1    1    2    0    0  0.16921180956E+02 -0.94622708186E+00  0.91239173897E+02  0.10541256360E+03  0.50000000000E+02 0.  0.
<mgrwt>
<rscale>  0 0.52794145E+02</rscale>
<asrwt>0</asrwt>
<pdfrwt beam="1">  1       13 0.10000000E+01 0.52794145E+02</pdfrwt>
<pdfrwt beam="2">  1       22 0.49980221E+00 0.52794145E+02</pdfrwt>
<totfact> 0.73719552E-02</totfact>
</mgrwt>
</event>
<event>
 4    1  0.2437479E+000  0.5272482E+02  0.7957747E-01  0.1431175E+00
         13   -1    0    0    0    0  0.00000000000E+00  0.00000000000E+00  0.99999944178E+02  0.99999999999E+02  0.10566000000E+00 0. -1.
         22   -1    0    0    0    0 -0.00000000000E+00 -0.00000000000E+00 -0.12365597757E+02  0.12365597757E+02  0.00000000000E+00 0.  1.
         13    1    1    2    0    0  0.15924866736E+02  0.51288534374E+01  0.14084764103E+02  0.21870031139E+02  0.10566000000E+00 0.  1.
        996    1    1    2    0    0 -0.15924866736E+02 -0.51288534374E+01  0.73549582318E+02  0.90495566617E+02  0.50000000000E+02 0.  0.
<mgrwt>
<rscale>  0 0.52724819E+02</rscale>
<asrwt>0</asrwt>
<pdfrwt beam="1">  1       13 0.10000000E+01 0.52724819E+02</pdfrwt>
<pdfrwt beam="2">  1       22 0.12365622E+00 0.52724819E+02</pdfrwt>
<totfact> 0.10280294E+00</totfact>
</mgrwt>
</event>
<event>
 4    1  0.2437479E+000  0.6325539E+02  0.7957747E-01  0.1384657E+00
         13   -1    0    0    0    0  0.00000000000E+00  0.00000000000E+00  0.99999944181E+02  0.10000000000E+03  0.10566000000E+00 0. -1.
         22   -1    0    0    0    0 -0.00000000000E+00 -0.00000000000E+00 -0.44498472046E+02  0.44498472046E+02  0.00000000000E+00 0.  1.
         13    1    1    2    0    0 -0.12320636773E+02  0.36734813953E+02 -0.21923999371E+02  0.44518732676E+02  0.10566000000E+00 0.  1.
        996    1    1    2    0    0  0.12320636773E+02 -0.36734813953E+02  0.77425471506E+02  0.99979739370E+02  0.50000000000E+02 0.  0.
<mgrwt>
<rscale>  0 0.63255392E+02</rscale>
<asrwt>0</asrwt>
<pdfrwt beam="1">  1       13 0.10000000E+01 0.63255392E+02</pdfrwt>
<pdfrwt beam="2">  1       22 0.44498488E+00 0.63255392E+02</pdfrwt>
<totfact> 0.99774668E-02</totfact>
</mgrwt>
</event>
<event>
 4    1  0.2437479E+000  0.5437409E+02  0.7957747E-01  0.1423082E+00
         13   -1    0    0    0    0  0.00000000000E+00  0.00000000000E+00  0.99999944184E+02  0.10000000000E+03  0.10566000000E+00 0.  1.
         22   -1    0    0    0    0 -0.00000000000E+00 -0.00000000000E+00 -0.16830531000E+02  0.16830531000E+02  0.00000000000E+00 0. -1.
         13    1    1    2    0    0  0.15731093240E+01 -0.21308856605E+02  0.55771694111E+01  0.22082980447E+02  0.10566000000E+00 0. -1.
        996    1    1    2    0    0 -0.15731093240E+01  0.21308856605E+02  0.77592243773E+02  0.94747550557E+02  0.50000000000E+02 0.  0.
<mgrwt>
<rscale>  0 0.54374093E+02</rscale>
<asrwt>0</asrwt>
<pdfrwt beam="1">  1       13 0.10000000E+01 0.54374093E+02</pdfrwt>
<pdfrwt beam="2">  1       22 0.16830554E+00 0.54374093E+02</pdfrwt>
<totfact> 0.62152654E-01</totfact>
</mgrwt>
</event>
<event>
 4    1  0.2437479E+000  0.5129706E+02  0.7957747E-01  0.1438469E+00
         13   -1    0    0    0    0  0.00000000000E+00  0.00000000000E+00  0.99999944178E+02  0.99999999998E+02  0.10566000000E+00 0. -1.
         22   -1    0    0    0    0 -0.00000000000E+00 -0.00000000000E+00 -0.40186300570E+02  0.40186300570E+02  0.00000000000E+00 0.  1.
         13    1    1    2    0    0 -0.88532914354E+01 -0.72806363674E+01 -0.32563449510E+02  0.34522135554E+02  0.10566000000E+00 0.  1.
        996    1    1    2    0    0  0.88532914354E+01  0.72806363674E+01  0.92377093118E+02  0.10566416501E+03  0.50000000000E+02 0.  0.
<mgrwt>
<rscale>  0 0.51297061E+02</rscale>
<asrwt>0</asrwt>
<pdfrwt beam="1">  1       13 0.10000000E+01 0.51297061E+02</pdfrwt>
<pdfrwt beam="2">  1       22 0.40186317E+00 0.51297061E+02</pdfrwt>
<totfact> 0.12251961E-01</totfact>
</mgrwt>
</event>
<event>
 4    1  0.2437479E+000  0.5315423E+02  0.7957747E-01  0.1429035E+00
         13   -1    0    0    0    0  0.00000000000E+00  0.00000000000E+00  0.99999944181E+02  0.10000000000E+03  0.10566000000E+00 0. -1.
         22   -1    0    0    0    0 -0.00000000000E+00 -0.00000000000E+00 -0.45319027740E+02  0.45319027740E+02  0.00000000000E+00 0.  1.
         13    1    1    2    0    0 -0.16720357289E+02  0.67677233665E+01 -0.35966552842E+02  0.40236507239E+02  0.10566000000E+00 0.  1.
        996    1    1    2    0    0  0.16720357289E+02 -0.67677233665E+01  0.90647469283E+02  0.10508252050E+03  0.50000000000E+02 0.  0.
<mgrwt>
<rscale>  0 0.53154232E+02</rscale>
<asrwt>0</asrwt>
<pdfrwt beam="1">  1       13 0.10000000E+01 0.53154232E+02</pdfrwt>
<pdfrwt beam="2">  1       22 0.45319043E+00 0.53154232E+02</pdfrwt>
<totfact> 0.95087809E-02</totfact>
</mgrwt>
</event>
<event>
 4    1  0.2437479E+000  0.5462802E+02  0.7957747E-01  0.1421866E+00
         13   -1    0    0    0    0  0.00000000000E+00  0.00000000000E+00  0.99999944180E+02  0.10000000000E+03  0.10566000000E+00 0. -1.
         22   -1    0    0    0    0 -0.00000000000E+00 -0.00000000000E+00 -0.15319048457E+02  0.15319048457E+02  0.00000000000E+00 0.  1.
         13    1    1    2    0    0 -0.96465775033E+01 -0.19777858811E+02  0.14374494938E+02  0.26284166820E+02  0.10566000000E+00 0.  1.
        996    1    1    2    0    0  0.96465775033E+01  0.19777858811E+02  0.70306400785E+02  0.89034881637E+02  0.50000000000E+02 0.  0.
<mgrwt>
<rscale>  0 0.54628016E+02</rscale>
<asrwt>0</asrwt>
<pdfrwt beam="1">  1       13 0.10000000E+01 0.54628016E+02</pdfrwt>
<pdfrwt beam="2">  1       22 0.15319072E+00 0.54628016E+02</pdfrwt>
<totfact> 0.73066500E-01</totfact>
</mgrwt>
</event>
<event>
 4    1  0.2437479E+000  0.5393774E+02  0.7957747E-01  0.1425190E+00
         13   -1    0    0    0    0  0.00000000000E+00  0.00000000000E+00  0.99999944180E+02  0.10000000000E+03  0.10566000000E+00 0.  1.
         22   -1    0    0    0    0 -0.00000000000E+00 -0.00000000000E+00 -0.15535367619E+02  0.15535367619E+02  0.00000000000E+00 0. -1.
         13    1    1    2    0    0 -0.20216721284E+02  0.75084164893E+00  0.75513400788E+01  0.21594292850E+02  0.10566000000E+00 0. -1.
        996    1    1    2    0    0  0.20216721284E+02 -0.75084164893E+00  0.76913236482E+02  0.93941074769E+02  0.50000000000E+02 0.  0.
<mgrwt>
<rscale>  0 0.53937738E+02</rscale>
<asrwt>0</asrwt>
<pdfrwt beam="1">  1       13 0.10000000E+01 0.53937738E+02</pdfrwt>
<pdfrwt beam="2">  1       22 0.15535391E+00 0.53937738E+02</pdfrwt>
<totfact> 0.71264627E-01</totfact>
</mgrwt>
</event>
<event>
 4    1  0.2437479E+000  0.5223401E+02  0.7957747E-01  0.1433651E+00
         13   -1    0    0    0    0  0.00000000000E+00  0.00000000000E+00  0.99999944191E+02  0.10000000001E+03  0.10566000000E+00 0.  1.
         22   -1    0    0    0    0 -0.00000000000E+00 -0.00000000000E+00 -0.22367285238E+02  0.22367285238E+02  0.00000000000E+00 0. -1.
         13    1    1    2    0    0  0.99618418212E+01 -0.11364570752E+02 -0.11544992008E+02  0.19018143057E+02  0.10566000000E+00 0. -1.
        996    1    1    2    0    0 -0.99618418212E+01  0.11364570752E+02  0.89177650961E+02  0.10334914219E+03  0.50000000000E+02 0.  0.
<mgrwt>
<rscale>  0 0.52234010E+02</rscale>
<asrwt>0</asrwt>
<pdfrwt beam="1">  1       13 0.10000000E+01 0.52234010E+02</pdfrwt>
<pdfrwt beam="2">  1       22 0.22367307E+00 0.52234010E+02</pdfrwt>
<totfact> 0.36647961E-01</totfact>
</mgrwt>
</event>
<event>
 4    1  0.2437479E+000  0.5436160E+02  0.7957747E-01  0.1423142E+00
         13   -1    0    0    0    0  0.00000000000E+00  0.00000000000E+00  0.99999944183E+02  0.10000000000E+03  0.10566000000E+00 0.  1.
         22   -1    0    0    0    0 -0.00000000000E+00 -0.00000000000E+00 -0.43728438802E+02  0.43728438802E+02  0.00000000000E+00 0. -1.
         13    1    1    2    0    0  0.18057159537E+02  0.11363217365E+02 -0.32947716663E+02  0.39252349188E+02  0.10566000000E+00 0. -1.
        996    1    1    2    0    0 -0.18057159537E+02 -0.11363217365E+02  0.89219222044E+02  0.10447608962E+03  0.50000000000E+02 0.  0.
<mgrwt>
<rscale>  0 0.54361602E+02</rscale>
<asrwt>0</asrwt>
<pdfrwt beam="1">  1       13 0.10000000E+01 0.54361602E+02</pdfrwt>
<pdfrwt beam="2">  1       22 0.43728455E+00 0.54361602E+02</pdfrwt>
<totfact> 0.10327655E-01</totfact>
</mgrwt>
</event>
<event>
 4    1  0.2437479E+000  0.5215993E+02  0.7957747E-01  0.1434028E+00
         13   -1    0    0    0    0  0.00000000000E+00  0.00000000000E+00  0.99999944181E+02  0.10000000000E+03  0.10566000000E+00 0.  1.
         22   -1    0    0    0    0 -0.00000000000E+00 -0.00000000000E+00 -0.12391709974E+02  0.12391709974E+02  0.00000000000E+00 0.  1.
         13    1    1    2    0    0 -0.14538024809E+02 -0.30502490286E+01  0.71025801845E+01  0.16465600317E+02  0.10566000000E+00 0. -1.
        996    1    1    2    0    0  0.14538024809E+02  0.30502490286E+01  0.80505654023E+02  0.95926109658E+02  0.50000000000E+02 0.  0.
<mgrwt>
<rscale>  0 0.52159929E+02</rscale>
<asrwt>0</asrwt>
<pdfrwt beam="1">  1       13 0.10000000E+01 0.52159929E+02</pdfrwt>
<pdfrwt beam="2">  1       22 0.12391734E+00 0.52159929E+02</pdfrwt>
<totfact> 0.10234107E+00</totfact>
</mgrwt>
</event>
<event>
 4    1  0.2437479E+000  0.5170112E+02  0.7957747E-01  0.1436376E+00
         13   -1    0    0    0    0  0.00000000000E+00  0.00000000000E+00  0.99999944183E+02  0.10000000000E+03  0.10566000000E+00 0.  1.
         22   -1    0    0    0    0 -0.00000000000E+00 -0.00000000000E+00 -0.25914686517E+02  0.25914686517E+02  0.00000000000E+00 0. -1.
         13    1    1    2    0    0 -0.81527256746E+01  0.10321757387E+02 -0.16809841209E+02  0.21344496644E+02  0.10566000000E+00 0. -1.
        996    1    1    2    0    0  0.81527256746E+01 -0.10321757387E+02  0.90895098874E+02  0.10457018988E+03  0.50000000000E+02 0.  0.
<mgrwt>
<rscale>  0 0.51701118E+02</rscale>
<asrwt>0</asrwt>
<pdfrwt beam="1">  1       13 0.10000000E+01 0.51701118E+02</pdfrwt>
<pdfrwt beam="2">  1       22 0.25914707E+00 0.51701118E+02</pdfrwt>
<totfact> 0.27454286E-01</totfact>
</mgrwt>
</event>
<event>
 4    1  0.2437479E+000  0.5105188E+02  0.7957747E-01  0.1439749E+00
         13   -1    0    0    0    0  0.00000000000E+00  0.00000000000E+00  0.99999944173E+02  0.99999999993E+02  0.10566000000E+00 0.  1.
         22   -1    0    0    0    0 -0.00000000000E+00 -0.00000000000E+00 -0.96047030095E+01  0.96047030095E+01  0.00000000000E+00 0.  1.
         13    1    1    2    0    0  0.44685440752E+01 -0.92912114140E+01  0.99567063237E+01  0.14333236220E+02  0.10566000000E+00 0. -1.
        996    1    1    2    0    0 -0.44685440752E+01  0.92912114140E+01  0.80438534840E+02  0.95271466782E+02  0.50000000000E+02 0.  0.
<mgrwt>
<rscale>  0 0.51051880E+02</rscale>
<asrwt>0</asrwt>
<pdfrwt beam="1">  1       13 0.10000000E+01 0.51051880E+02</pdfrwt>
<pdfrwt beam="2">  1       22 0.96047282E-01 0.51051880E+02</pdfrwt>
<totfact> 0.14906762E+00</totfact>
</mgrwt>
</event>
<event>
 4    1  0.2437479E+000  0.5207434E+02  0.7957747E-01  0.1434464E+00
         13   -1    0    0    0    0  0.00000000000E+00  0.00000000000E+00  0.99999944178E+02  0.99999999998E+02  0.10566000000E+00 0.  1.
         22   -1    0    0    0    0 -0.00000000000E+00 -0.00000000000E+00 -0.14934296812E+02  0.14934296812E+02  0.00000000000E+00 0.  1.
         13    1    1    2    0    0  0.81244299189E+01 -0.12071881704E+02 -0.73215143511E+00  0.14569965654E+02  0.10566000000E+00 0. -1.
        996    1    1    2    0    0 -0.81244299189E+01  0.12071881704E+02  0.85797798801E+02  0.10036433116E+03  0.50000000000E+02 0.  0.
<mgrwt>
<rscale>  0 0.52074338E+02</rscale>
<asrwt>0</asrwt>
<pdfrwt beam="1">  1       13 0.10000000E+01 0.52074338E+02</pdfrwt>
<pdfrwt beam="2">  1       22 0.14934321E+00 0.52074338E+02</pdfrwt>
<totfact> 0.75855854E-01</totfact>
</mgrwt>
</event>
<event>
 4    1  0.2437479E+000  0.6436658E+02  0.7957747E-01  0.1380370E+00
         13   -1    0    0    0    0  0.00000000000E+00  0.00000000000E+00  0.99999944180E+02  0.10000000000E+03  0.10566000000E+00 0. -1.
         22   -1    0    0    0    0 -0.00000000000E+00 -0.00000000000E+00 -0.30661243916E+02  0.30661243916E+02  0.00000000000E+00 0.  1.
         13    1    1    2    0    0  0.30111373695E+02  0.27135983631E+02  0.71512325245E+01  0.41160754659E+02  0.10566000000E+00 0.  1.
        996    1    1    2    0    0 -0.30111373695E+02 -0.27135983631E+02  0.62187467740E+02  0.89500489257E+02  0.50000000000E+02 0.  0.
<mgrwt>
<rscale>  0 0.64366579E+02</rscale>
<asrwt>0</asrwt>
<pdfrwt beam="1">  1       13 0.10000000E+01 0.64366579E+02</pdfrwt>
<pdfrwt beam="2">  1       22 0.30661263E+00 0.64366579E+02</pdfrwt>
<totfact> 0.20165753E-01</totfact>
</mgrwt>
</event>
<event>
 4    1  0.2437479E+000  0.5442806E+02  0.7957747E-01  0.1422823E+00
         13   -1    0    0    0    0  0.00000000000E+00  0.00000000000E+00  0.99999944174E+02  0.99999999994E+02  0.10566000000E+00 0.  1.
         22   -1    0    0    0    0 -0.00000000000E+00 -0.00000000000E+00 -0.31422588347E+02  0.31422588347E+02  0.00000000000E+00 0. -1.
         13    1    1    2    0    0  0.53036532400E+01 -0.20839503150E+02 -0.18744542554E+02  0.28526876254E+02  0.10566000000E+00 0. -1.
        996    1    1    2    0    0 -0.53036532400E+01  0.20839503150E+02  0.87321898381E+02  0.10289571209E+03  0.50000000000E+02 0.  0.
<mgrwt>
<rscale>  0 0.54428059E+02</rscale>
<asrwt>0</asrwt>
<pdfrwt beam="1">  1       13 0.10000000E+01 0.54428059E+02</pdfrwt>
<pdfrwt beam="2">  1       22 0.31422608E+00 0.54428059E+02</pdfrwt>
<totfact> 0.19067896E-01</totfact>
</mgrwt>
</event>
<event>
 4    1  0.2437479E+000  0.5429456E+02  0.7957747E-01  0.1423465E+00
         13   -1    0    0    0    0  0.00000000000E+00  0.00000000000E+00  0.99999944188E+02  0.10000000001E+03  0.10566000000E+00 0.  1.
         22   -1    0    0    0    0 -0.00000000000E+00 -0.00000000000E+00 -0.19014440398E+02  0.19014440398E+02  0.00000000000E+00 0. -1.
         13    1    1    2    0    0 -0.18480672733E+02 -0.10313273473E+02 -0.41496442071E+00  0.21167952993E+02  0.10566000000E+00 0. -1.
        996    1    1    2    0    0  0.18480672733E+02  0.10313273473E+02  0.81400468210E+02  0.97846487414E+02  0.50000000000E+02 0.  0.
<mgrwt>
<rscale>  0 0.54294557E+02</rscale>
<asrwt>0</asrwt>
<pdfrwt beam="1">  1       13 0.10000000E+01 0.54294557E+02</pdfrwt>
<pdfrwt beam="2">  1       22 0.19014463E+00 0.54294557E+02</pdfrwt>
<totfact> 0.49949814E-01</totfact>
</mgrwt>
</event>
<event>
 4    1  0.2437479E+000  0.6163692E+02  0.7957747E-01  0.1391088E+00
         13   -1    0    0    0    0  0.00000000000E+00  0.00000000000E+00  0.99999944181E+02  0.10000000000E+03  0.10566000000E+00 0.  1.
         22   -1    0    0    0    0 -0.00000000000E+00 -0.00000000000E+00 -0.23952617201E+02  0.23952617201E+02  0.00000000000E+00 0. -1.
         13    1    1    2    0    0 -0.32608893301E+02 -0.15354812336E+02  0.24255124589E+02  0.43444590193E+02  0.10566000000E+00 0. -1.
        996    1    1    2    0    0  0.32608893301E+02  0.15354812336E+02  0.51792202392E+02  0.80508027009E+02  0.50000000000E+02 0.  0.
<mgrwt>
<rscale>  0 0.61636922E+02</rscale>
<asrwt>0</asrwt>
<pdfrwt beam="1">  1       13 0.10000000E+01 0.61636922E+02</pdfrwt>
<pdfrwt beam="2">  1       22 0.23952638E+00 0.61636922E+02</pdfrwt>
<totfact> 0.32522345E-01</totfact>
</mgrwt>
</event>
<event>
 4    1  0.2437479E+000  0.5603741E+02  0.7957747E-01  0.1415256E+00
         13   -1    0    0    0    0  0.00000000000E+00  0.00000000000E+00  0.99999944173E+02  0.99999999993E+02  0.10566000000E+00 0.  1.
         22   -1    0    0    0    0 -0.00000000000E+00 -0.00000000000E+00 -0.32735502188E+02  0.32735502188E+02  0.00000000000E+00 0. -1.
         13    1    1    2    0    0  0.19681145392E+02  0.15901079556E+02 -0.17754604434E+02  0.30910013873E+02  0.10566000000E+00 0. -1.
        996    1    1    2    0    0 -0.19681145392E+02 -0.15901079556E+02  0.85019046419E+02  0.10182548831E+03  0.50000000000E+02 0.  0.
<mgrwt>
<rscale>  0 0.56037414E+02</rscale>
<asrwt>0</asrwt>
<pdfrwt beam="1">  1       13 0.10000000E+01 0.56037414E+02</pdfrwt>
<pdfrwt beam="2">  1       22 0.32735521E+00 0.56037414E+02</pdfrwt>
<totfact> 0.17748419E-01</totfact>
</mgrwt>
</event>
<event>
 4    1  0.2437479E+000  0.5159428E+02  0.7957747E-01  0.1436927E+00
         13   -1    0    0    0    0  0.00000000000E+00  0.00000000000E+00  0.99999944182E+02  0.10000000000E+03  0.10566000000E+00 0. -1.
         22   -1    0    0    0    0 -0.00000000000E+00 -0.00000000000E+00 -0.11235657488E+02  0.11235657488E+02  0.00000000000E+00 0.  1.
         13    1    1    2    0    0  0.12704631757E+02  0.74951712327E+00  0.69215836806E+01  0.14487543915E+02  0.10566000000E+00 0.  1.
        996    1    1    2    0    0 -0.12704631757E+02 -0.74951712327E+00  0.81842703012E+02  0.96748113575E+02  0.50000000000E+02 0.  0.
<mgrwt>
<rscale>  0 0.51594277E+02</rscale>
<asrwt>0</asrwt>
<pdfrwt beam="1">  1       13 0.10000000E+01 0.51594277E+02</pdfrwt>
<pdfrwt beam="2">  1       22 0.11235682E+00 0.51594277E+02</pdfrwt>
<totfact> 0.11864393E+00</totfact>
</mgrwt>
</event>
<event>
 4    1  0.2437479E+000  0.5196617E+02  0.7957747E-01  0.1435016E+00
         13   -1    0    0    0    0  0.00000000000E+00  0.00000000000E+00  0.99999944183E+02  0.10000000000E+03  0.10566000000E+00 0.  1.
         22   -1    0    0    0    0 -0.00000000000E+00 -0.00000000000E+00 -0.14603661868E+02  0.14603661868E+02  0.00000000000E+00 0.  1.
         13    1    1    2    0    0 -0.13875867994E+02 -0.28182749656E+01 -0.54790689122E+00  0.14170171218E+02  0.10566000000E+00 0. -1.
        996    1    1    2    0    0  0.13875867994E+02  0.28182749656E+01  0.85944189207E+02  0.10043349065E+03  0.50000000000E+02 0.  0.
<mgrwt>
<rscale>  0 0.51966166E+02</rscale>
<asrwt>0</asrwt>
<pdfrwt beam="1">  1       13 0.10000000E+01 0.51966166E+02</pdfrwt>
<pdfrwt beam="2">  1       22 0.14603686E+00 0.51966166E+02</pdfrwt>
<totfact> 0.78701376E-01</totfact>
</mgrwt>
</event>
<event>
 4    1  0.2437479E+000  0.5151952E+02  0.7957747E-01  0.1437314E+00
         13   -1    0    0    0    0  0.00000000000E+00  0.00000000000E+00  0.99999944178E+02  0.99999999999E+02  0.10566000000E+00 0.  1.
         22   -1    0    0    0    0 -0.00000000000E+00 -0.00000000000E+00 -0.14488499242E+02  0.14488499242E+02  0.00000000000E+00 0. -1.
         13    1    1    2    0    0 -0.10027424916E+02  0.73287965944E+01 -0.23454333132E+01  0.12640123870E+02  0.10566000000E+00 0. -1.
        996    1    1    2    0    0  0.10027424916E+02 -0.73287965944E+01  0.87856878250E+02  0.10184837537E+03  0.50000000000E+02 0.  0.
<mgrwt>
<rscale>  0 0.51519516E+02</rscale>
<asrwt>0</asrwt>
<pdfrwt beam="1">  1       13 0.10000000E+01 0.51519516E+02</pdfrwt>
<pdfrwt beam="2">  1       22 0.14488523E+00 0.51519516E+02</pdfrwt>
<totfact> 0.79658834E-01</totfact>
</mgrwt>
</event>
<event>
 4    1  0.2437479E+000  0.5603994E+02  0.7957747E-01  0.1415244E+00
         13   -1    0    0    0    0  0.00000000000E+00  0.00000000000E+00  0.99999944172E+02  0.99999999992E+02  0.10566000000E+00 0. -1.
         22   -1    0    0    0    0 -0.00000000000E+00 -0.00000000000E+00 -0.19707210800E+02  0.19707210800E+02  0.00000000000E+00 0. -1.
         13    1    1    2    0    0 -0.30742637765E+01 -0.25120181967E+02  0.49912895463E+02  0.55962334989E+02  0.10566000000E+00 0.  1.
        996    1    1    2    0    0  0.30742637765E+01  0.25120181967E+02  0.30379837909E+02  0.63744875804E+02  0.50000000000E+02 0.  0.
<mgrwt>
<rscale>  0 0.56039938E+02</rscale>
<asrwt>0</asrwt>
<pdfrwt beam="1">  1       13 0.10000000E+01 0.56039938E+02</pdfrwt>
<pdfrwt beam="2">  1       22 0.19707233E+00 0.56039938E+02</pdfrwt>
<totfact> 0.46896195E-01</totfact>
</mgrwt>
</event>
<event>
 4    1  0.2437479E+000  0.5142849E+02  0.7957747E-01  0.1437786E+00
         13   -1    0    0    0    0  0.00000000000E+00  0.00000000000E+00  0.99999944179E+02  0.10000000000E+03  0.10566000000E+00 0.  1.
         22   -1    0    0    0    0 -0.00000000000E+00 -0.00000000000E+00 -0.45028701367E+02  0.45028701367E+02  0.00000000000E+00 0. -1.
         13    1    1    2    0    0 -0.80944416821E+01  0.89089404058E+01 -0.37408949404E+02  0.39297962604E+02  0.10566000000E+00 0. -1.
        996    1    1    2    0    0  0.80944416821E+01 -0.89089404058E+01  0.92380192216E+02  0.10573073876E+03  0.50000000000E+02 0.  0.
<mgrwt>
<rscale>  0 0.51428486E+02</rscale>
<asrwt>0</asrwt>
<pdfrwt beam="1">  1       13 0.10000000E+01 0.51428486E+02</pdfrwt>
<pdfrwt beam="2">  1       22 0.45028717E+00 0.51428486E+02</pdfrwt>
<totfact> 0.96443192E-02</totfact>
</mgrwt>
</event>
<event>
 4    1  0.2437479E+000  0.5426197E+02  0.7957747E-01  0.1423622E+00
         13   -1    0    0    0    0  0.00000000000E+00  0.00000000000E+00  0.99999944176E+02  0.99999999996E+02  0.10566000000E+00 0.  1.
         22   -1    0    0    0    0 -0.00000000000E+00 -0.00000000000E+00 -0.34484167419E+02  0.34484167419E+02  0.00000000000E+00 0. -1.
         13    1    1    2    0    0  0.13312595105E+02 -0.16344311910E+02 -0.22660534184E+02  0.30949518474E+02  0.10566000000E+00 0. -1.
        996    1    1    2    0    0 -0.13312595105E+02  0.16344311910E+02  0.88176310941E+02  0.10353464894E+03  0.50000000000E+02 0.  0.
<mgrwt>
<rscale>  0 0.54261973E+02</rscale>
<asrwt>0</asrwt>
<pdfrwt beam="1">  1       13 0.10000000E+01 0.54261973E+02</pdfrwt>
<pdfrwt beam="2">  1       22 0.34484186E+00 0.54261973E+02</pdfrwt>
<totfact> 0.16164528E-01</totfact>
</mgrwt>
</event>
<event>
 4    1  0.2437479E+000  0.5357664E+02  0.7957747E-01  0.1426952E+00
         13   -1    0    0    0    0  0.00000000000E+00  0.00000000000E+00  0.99999944179E+02  0.10000000000E+03  0.10566000000E+00 0.  1.
         22   -1    0    0    0    0 -0.00000000000E+00 -0.00000000000E+00 -0.24319203882E+02  0.24319203882E+02  0.00000000000E+00 0.  1.
         13    1    1    2    0    0 -0.19131808729E+02  0.21048255586E+01 -0.11183818583E+02  0.22260848097E+02  0.10566000000E+00 0. -1.
        996    1    1    2    0    0  0.19131808729E+02 -0.21048255586E+01  0.86864558881E+02  0.10205835578E+03  0.50000000000E+02 0.  0.
<mgrwt>
<rscale>  0 0.53576640E+02</rscale>
<asrwt>0</asrwt>
<pdfrwt beam="1">  1       13 0.10000000E+01 0.53576640E+02</pdfrwt>
<pdfrwt beam="2">  1       22 0.24319225E+00 0.53576640E+02</pdfrwt>
<totfact> 0.31200262E-01</totfact>
</mgrwt>
</event>
<event>
 4    1  0.2437479E+000  0.5129710E+02  0.7957747E-01  0.1438468E+00
         13   -1    0    0    0    0  0.00000000000E+00  0.00000000000E+00  0.99999944180E+02  0.10000000000E+03  0.10566000000E+00 0.  1.
         22   -1    0    0    0    0 -0.00000000000E+00 -0.00000000000E+00 -0.10174628656E+02  0.10174628656E+02  0.00000000000E+00 0. -1.
         13    1    1    2    0    0 -0.84344591349E+01 -0.77622298560E+01  0.96039842227E+01  0.14954597628E+02  0.10566000000E+00 0. -1.
        996    1    1    2    0    0  0.84344591349E+01  0.77622298560E+01  0.80221331301E+02  0.95220031028E+02  0.50000000000E+02 0.  0.
<mgrwt>
<rscale>  0 0.51297098E+02</rscale>
<asrwt>0</asrwt>
<pdfrwt beam="1">  1       13 0.10000000E+01 0.51297098E+02</pdfrwt>
<pdfrwt beam="2">  1       22 0.10174654E+00 0.51297098E+02</pdfrwt>
<totfact> 0.13724701E+00</totfact>
</mgrwt>
</event>
<event>
 4    1  0.2437479E+000  0.5165915E+02  0.7957747E-01  0.1436593E+00
         13   -1    0    0    0    0  0.00000000000E+00  0.00000000000E+00  0.99999944176E+02  0.99999999996E+02  0.10566000000E+00 0. -1.
         22   -1    0    0    0    0 -0.00000000000E+00 -0.00000000000E+00 -0.10468773966E+02  0.10468773966E+02  0.00000000000E+00 0. -1.
         13    1    1    2    0    0  0.11888320187E+02 -0.52283839750E+01  0.16067374582E+02  0.20660102755E+02  0.10566000000E+00 0.  1.
        996    1    1    2    0    0 -0.11888320187E+02  0.52283839750E+01  0.73463795628E+02  0.89808671207E+02  0.50000000000E+02 0.  0.
<mgrwt>
<rscale>  0 0.51659154E+02</rscale>
<asrwt>0</asrwt>
<pdfrwt beam="1">  1       13 0.10000000E+01 0.51659154E+02</pdfrwt>
<pdfrwt beam="2">  1       22 0.10468799E+00 0.51659154E+02</pdfrwt>
<totfact> 0.13176504E+00</totfact>
</mgrwt>
</event>
<event>
 4    1  0.2437479E+000  0.5272633E+02  0.7957747E-01  0.1431168E+00
         13   -1    0    0    0    0  0.00000000000E+00  0.00000000000E+00  0.99999944173E+02  0.99999999993E+02  0.10566000000E+00 0. -1.
         22   -1    0    0    0    0 -0.00000000000E+00 -0.00000000000E+00 -0.57004831148E+02  0.57004831148E+02  0.00000000000E+00 0.  1.
         13    1    1    2    0    0  0.16320165729E+02  0.37038263981E+01 -0.48554268818E+02  0.51357514775E+02  0.10566000000E+00 0.  1.
        996    1    1    2    0    0 -0.16320165729E+02 -0.37038263981E+01  0.91549381843E+02  0.10564731637E+03  0.50000000000E+02 0.  0.
<mgrwt>
<rscale>  0 0.52726333E+02</rscale>
<asrwt>0</asrwt>
<pdfrwt beam="1">  1       13 0.10000000E+01 0.52726333E+02</pdfrwt>
<pdfrwt beam="2">  1       22 0.57004843E+00 0.52726333E+02</pdfrwt>
<totfact> 0.57830160E-02</totfact>
</mgrwt>
</event>
<event>
 4    1  0.2437479E+000  0.5497923E+02  0.7957747E-01  0.1420197E+00
         13   -1    0    0    0    0  0.00000000000E+00  0.00000000000E+00  0.99999944174E+02  0.99999999995E+02  0.10566000000E+00 0.  1.
         22   -1    0    0    0    0 -0.00000000000E+00 -0.00000000000E+00 -0.27370827014E+02  0.27370827014E+02  0.00000000000E+00 0. -1.
         13    1    1    2    0    0 -0.19114633252E+02 -0.12543804961E+02 -0.12480437376E+02  0.26047816193E+02  0.10566000000E+00 0. -1.
        996    1    1    2    0    0  0.19114633252E+02  0.12543804961E+02  0.85109554537E+02  0.10132301082E+03  0.50000000000E+02 0.  0.
<mgrwt>
<rscale>  0 0.54979235E+02</rscale>
<asrwt>0</asrwt>
<pdfrwt beam="1">  1       13 0.10000000E+01 0.54979235E+02</pdfrwt>
<pdfrwt beam="2">  1       22 0.27370847E+00 0.54979235E+02</pdfrwt>
<totfact> 0.24780646E-01</totfact>
</mgrwt>
</event>
<event>
 4    1  0.2437479E+000  0.5339849E+02  0.7957747E-01  0.1427828E+00
         13   -1    0    0    0    0  0.00000000000E+00  0.00000000000E+00  0.99999944178E+02  0.99999999999E+02  0.10566000000E+00 0.  1.
         22   -1    0    0    0    0 -0.00000000000E+00 -0.00000000000E+00 -0.14928610175E+02  0.14928610175E+02  0.00000000000E+00 0.  1.
         13    1    1    2    0    0  0.14563827728E+01  0.18688981054E+02  0.63242920174E+01  0.19784006095E+02  0.10566000000E+00 0. -1.
        996    1    1    2    0    0 -0.14563827728E+01 -0.18688981054E+02  0.78747041986E+02  0.95144604078E+02  0.50000000000E+02 0.  0.
<mgrwt>
<rscale>  0 0.53398493E+02</rscale>
<asrwt>0</asrwt>
<pdfrwt beam="1">  1       13 0.10000000E+01 0.53398493E+02</pdfrwt>
<pdfrwt beam="2">  1       22 0.14928634E+00 0.53398493E+02</pdfrwt>
<totfact> 0.76106894E-01</totfact>
</mgrwt>
</event>
<event>
 4    1  0.2437479E+000  0.8297694E+02  0.7957747E-01  0.1320809E+00
         13   -1    0    0    0    0  0.00000000000E+00  0.00000000000E+00  0.99999944183E+02  0.10000000000E+03  0.10566000000E+00 0.  1.
         22   -1    0    0    0    0 -0.00000000000E+00 -0.00000000000E+00 -0.63841616351E+02  0.63841616351E+02  0.00000000000E+00 0. -1.
         13    1    1    2    0    0  0.40123101763E+02  0.52681209497E+02 -0.12873777450E+02  0.67460495395E+02  0.10566000000E+00 0. -1.
        996    1    1    2    0    0 -0.40123101763E+02 -0.52681209497E+02  0.49032105281E+02  0.96381120960E+02  0.50000000000E+02 0.  0.
<mgrwt>
<rscale>  0 0.82976943E+02</rscale>
<asrwt>0</asrwt>
<pdfrwt beam="1">  1       13 0.10000000E+01 0.82976943E+02</pdfrwt>
<pdfrwt beam="2">  1       22 0.63841626E+00 0.82976943E+02</pdfrwt>
<totfact> 0.82788769E-02</totfact>
</mgrwt>
</event>
<event>
 4    1  0.2437479E+000  0.5122822E+02  0.7957747E-01  0.1438827E+00
         13   -1    0    0    0    0  0.00000000000E+00  0.00000000000E+00  0.99999944181E+02  0.10000000000E+03  0.10566000000E+00 0.  1.
         22   -1    0    0    0    0 -0.00000000000E+00 -0.00000000000E+00 -0.97751690064E+01  0.97751690064E+01  0.00000000000E+00 0.  1.
         13    1    1    2    0    0  0.10789397069E+02  0.28141834908E+01  0.19200124538E+02  0.22203303001E+02  0.10566000000E+00 0. -1.
        996    1    1    2    0    0 -0.10789397069E+02 -0.28141834908E+01  0.71024650636E+02  0.87571866006E+02  0.50000000000E+02 0.  0.
<mgrwt>
<rscale>  0 0.51228222E+02</rscale>
<asrwt>0</asrwt>
<pdfrwt beam="1">  1       13 0.10000000E+01 0.51228222E+02</pdfrwt>
<pdfrwt beam="2">  1       22 0.97751942E-01 0.51228222E+02</pdfrwt>
<totfact> 0.14541210E+00</totfact>
</mgrwt>
</event>
<event>
 4    1  0.2437479E+000  0.5348658E+02  0.7957747E-01  0.1427395E+00
         13   -1    0    0    0    0  0.00000000000E+00  0.00000000000E+00  0.99999944184E+02  0.10000000000E+03  0.10566000000E+00 0. -1.
         22   -1    0    0    0    0 -0.00000000000E+00 -0.00000000000E+00 -0.38781983307E+02  0.38781983307E+02  0.00000000000E+00 0.  1.
         13    1    1    2    0    0  0.86350524228E+00 -0.18975466419E+02 -0.28547446791E+02  0.34289675551E+02  0.10566000000E+00 0.  1.
        996    1    1    2    0    0 -0.86350524228E+00  0.18975466419E+02  0.89765407668E+02  0.10449230776E+03  0.50000000000E+02 0.  0.
<mgrwt>
<rscale>  0 0.53486577E+02</rscale>
<asrwt>0</asrwt>
<pdfrwt beam="1">  1       13 0.10000000E+01 0.53486577E+02</pdfrwt>
<pdfrwt beam="2">  1       22 0.38782000E+00 0.53486577E+02</pdfrwt>
<totfact> 0.13117370E-01</totfact>
</mgrwt>
</event>
<event>
 4    1  0.2437479E+000  0.5134400E+02  0.7957747E-01  0.1438224E+00
         13   -1    0    0    0    0  0.00000000000E+00  0.00000000000E+00  0.99999944184E+02  0.10000000000E+03  0.10566000000E+00 0.  1.
         22   -1    0    0    0    0 -0.00000000000E+00 -0.00000000000E+00 -0.47948658580E+02  0.47948658580E+02  0.00000000000E+00 0. -1.
         13    1    1    2    0    0 -0.10044197673E+02 -0.59430982793E+01 -0.40478885071E+02  0.42127872302E+02  0.10566000000E+00 0. -1.
        996    1    1    2    0    0  0.10044197673E+02  0.59430982793E+01  0.92530170675E+02  0.10582078628E+03  0.50000000000E+02 0.  0.
<mgrwt>
<rscale>  0 0.51344000E+02</rscale>
<asrwt>0</asrwt>
<pdfrwt beam="1">  1       13 0.10000000E+01 0.51344000E+02</pdfrwt>
<pdfrwt beam="2">  1       22 0.47948673E+00 0.51344000E+02</pdfrwt>
<totfact> 0.82460689E-02</totfact>
</mgrwt>
</event>
<event>
 4    1  0.2437479E+000  0.5146919E+02  0.7957747E-01  0.1437574E+00
         13   -1    0    0    0    0  0.00000000000E+00  0.00000000000E+00  0.99999944181E+02  0.10000000000E+03  0.10566000000E+00 0. -1.
         22   -1    0    0    0    0 -0.00000000000E+00 -0.00000000000E+00 -0.28475030857E+02  0.28475030857E+02  0.00000000000E+00 0.  1.
         13    1    1    2    0    0 -0.10696718745E+01 -0.12162793374E+02 -0.20022117171E+02  0.23451526189E+02  0.10566000000E+00 0.  1.
        996    1    1    2    0    0  0.10696718745E+01  0.12162793374E+02  0.91547030495E+02  0.10502350467E+03  0.50000000000E+02 0.  0.
<mgrwt>
<rscale>  0 0.51469192E+02</rscale>
<asrwt>0</asrwt>
<pdfrwt beam="1">  1       13 0.10000000E+01 0.51469192E+02</pdfrwt>
<pdfrwt beam="2">  1       22 0.28475051E+00 0.51469192E+02</pdfrwt>
<totfact> 0.22839834E-01</totfact>
</mgrwt>
</event>
<event>
 4    1  0.2437479E+000  0.6237889E+02  0.7957747E-01  0.1388111E+00
         13   -1    0    0    0    0  0.00000000000E+00  0.00000000000E+00  0.99999944180E+02  0.10000000000E+03  0.10566000000E+00 0. -1.
         22   -1    0    0    0    0 -0.00000000000E+00 -0.00000000000E+00 -0.25175107267E+02  0.25175107267E+02  0.00000000000E+00 0.  1.
         13    1    1    2    0    0  0.28712961878E+02 -0.23805285692E+02  0.35130164518E+02  0.51237344093E+02  0.10566000000E+00 0.  1.
        996    1    1    2    0    0 -0.28712961878E+02  0.23805285692E+02  0.39694672395E+02  0.73937763174E+02  0.50000000000E+02 0.  0.
<mgrwt>
<rscale>  0 0.62378889E+02</rscale>
<asrwt>0</asrwt>
<pdfrwt beam="1">  1       13 0.10000000E+01 0.62378889E+02</pdfrwt>
<pdfrwt beam="2">  1       22 0.25175128E+00 0.62378889E+02</pdfrwt>
<totfact> 0.29507195E-01</totfact>
</mgrwt>
</event>
<event>
 4    1  0.2437479E+000  0.5628756E+02  0.7957747E-01  0.1414106E+00
         13   -1    0    0    0    0  0.00000000000E+00  0.00000000000E+00  0.99999944187E+02  0.10000000001E+03  0.10566000000E+00 0.  1.
         22   -1    0    0    0    0 -0.00000000000E+00 -0.00000000000E+00 -0.21652579710E+02  0.21652579710E+02  0.00000000000E+00 0. -1.
         13    1    1    2    0    0  0.13109552133E+02 -0.22280698865E+02  0.84303986955E+00  0.25865262019E+02  0.10566000000E+00 0. -1.
        996    1    1    2    0    0 -0.13109552133E+02  0.22280698865E+02  0.77504324608E+02  0.95787317699E+02  0.50000000000E+02 0.  0.
<mgrwt>
<rscale>  0 0.56287564E+02</rscale>
<asrwt>0</asrwt>
<pdfrwt beam="1">  1       13 0.10000000E+01 0.56287564E+02</pdfrwt>
<pdfrwt beam="2">  1       22 0.21652602E+00 0.56287564E+02</pdfrwt>
<totfact> 0.39270399E-01</totfact>
</mgrwt>
</event>
<event>
 4    1  0.2437479E+000  0.5112910E+02  0.7957747E-01  0.1439345E+00
         13   -1    0    0    0    0  0.00000000000E+00  0.00000000000E+00  0.99999944173E+02  0.99999999994E+02  0.10566000000E+00 0. -1.
         22   -1    0    0    0    0 -0.00000000000E+00 -0.00000000000E+00 -0.10633980168E+02  0.10633980168E+02  0.00000000000E+00 0. -1.
         13    1    1    2    0    0 -0.10404709090E+02  0.24344865291E+01  0.45836667870E+01  0.11627805518E+02  0.10566000000E+00 0.  1.
        996    1    1    2    0    0  0.10404709090E+02 -0.24344865291E+01  0.84782297219E+02  0.99006174644E+02  0.50000000000E+02 0.  0.
<mgrwt>
<rscale>  0 0.51129098E+02</rscale>
<asrwt>0</asrwt>
<pdfrwt beam="1">  1       13 0.10000000E+01 0.51129098E+02</pdfrwt>
<pdfrwt beam="2">  1       22 0.10634005E+00 0.51129098E+02</pdfrwt>
<totfact> 0.12860563E+00</totfact>
</mgrwt>
</event>
<event>
 4    1  0.2437479E+000  0.5494813E+02  0.7957747E-01  0.1420344E+00
         13   -1    0    0    0    0  0.00000000000E+00  0.00000000000E+00  0.99999944181E+02  0.10000000000E+03  0.10566000000E+00 0. -1.
         22   -1    0    0    0    0 -0.00000000000E+00 -0.00000000000E+00 -0.22490048292E+02  0.22490048292E+02  0.00000000000E+00 0.  1.
         13    1    1    2    0    0 -0.22003847494E+02 -0.59268712974E+01 -0.50262591831E+01  0.23336056936E+02  0.10566000000E+00 0.  1.
        996    1    1    2    0    0  0.22003847494E+02  0.59268712974E+01  0.82536155072E+02  0.99153991357E+02  0.50000000000E+02 0.  0.
<mgrwt>
<rscale>  0 0.54948131E+02</rscale>
<asrwt>0</asrwt>
<pdfrwt beam="1">  1       13 0.10000000E+01 0.54948131E+02</pdfrwt>
<pdfrwt beam="2">  1       22 0.22490070E+00 0.54948131E+02</pdfrwt>
<totfact> 0.36423225E-01</totfact>
</mgrwt>
</event>
<event>
 4    1  0.2437479E+000  0.5383542E+02  0.7957747E-01  0.1425688E+00
         13   -1    0    0    0    0  0.00000000000E+00  0.00000000000E+00  0.99999944177E+02  0.99999999998E+02  0.10566000000E+00 0.  1.
         22   -1    0    0    0    0 -0.00000000000E+00 -0.00000000000E+00 -0.15456700715E+02  0.15456700715E+02  0.00000000000E+00 0.  1.
         13    1    1    2    0    0 -0.16285116183E+02  0.11534636388E+02  0.71873920075E+01  0.21211379342E+02  0.10566000000E+00 0. -1.
        996    1    1    2    0    0  0.16285116183E+02 -0.11534636388E+02  0.77355851455E+02  0.94245321370E+02  0.50000000000E+02 0.  0.
<mgrwt>
<rscale>  0 0.53835424E+02</rscale>
<asrwt>0</asrwt>
<pdfrwt beam="1">  1       13 0.10000000E+01 0.53835424E+02</pdfrwt>
<pdfrwt beam="2">  1       22 0.15456724E+00 0.53835424E+02</pdfrwt>
<totfact> 0.71863935E-01</totfact>
</mgrwt>
</event>
<event>
 4    1  0.2437479E+000  0.6078966E+02  0.7957747E-01  0.1394547E+00
         13   -1    0    0    0    0  0.00000000000E+00  0.00000000000E+00  0.99999944182E+02  0.10000000000E+03  0.10566000000E+00 0. -1.
         22   -1    0    0    0    0 -0.00000000000E+00 -0.00000000000E+00 -0.54737643377E+02  0.54737643377E+02  0.00000000000E+00 0.  1.
         13    1    1    2    0    0  0.10590498665E+02  0.32912372342E+02 -0.38174666761E+02  0.51504361577E+02  0.10566000000E+00 0.  1.
        996    1    1    2    0    0 -0.10590498665E+02 -0.32912372342E+02  0.83436967565E+02  0.10323328180E+03  0.50000000000E+02 0.  0.
<mgrwt>
<rscale>  0 0.60789661E+02</rscale>
<asrwt>0</asrwt>
<pdfrwt beam="1">  1       13 0.10000000E+01 0.60789661E+02</pdfrwt>
<pdfrwt beam="2">  1       22 0.54737656E+00 0.60789661E+02</pdfrwt>
<totfact> 0.59650776E-02</totfact>
</mgrwt>
</event>
<event>
 4    1  0.2437479E+000  0.5196524E+02  0.7957747E-01  0.1435021E+00
         13   -1    0    0    0    0  0.00000000000E+00  0.00000000000E+00  0.99999944176E+02  0.99999999996E+02  0.10566000000E+00 0. -1.
         22   -1    0    0    0    0 -0.00000000000E+00 -0.00000000000E+00 -0.28609112361E+02  0.28609112361E+02  0.00000000000E+00 0.  1.
         13    1    1    2    0    0  0.93448387591E+01 -0.10632988466E+02 -0.19389741319E+02  0.24007492323E+02  0.10566000000E+00 0.  1.
        996    1    1    2    0    0 -0.93448387591E+01  0.10632988466E+02  0.90780573134E+02  0.10460162003E+03  0.50000000000E+02 0.  0.
<mgrwt>
<rscale>  0 0.51965243E+02</rscale>
<asrwt>0</asrwt>
<pdfrwt beam="1">  1       13 0.10000000E+01 0.51965243E+02</pdfrwt>
<pdfrwt beam="2">  1       22 0.28609132E+00 0.51965243E+02</pdfrwt>
<totfact> 0.22650656E-01</totfact>
</mgrwt>
</event>
<event>
 4    1  0.2437479E+000  0.6222130E+02  0.7957747E-01  0.1388739E+00
         13   -1    0    0    0    0  0.00000000000E+00  0.00000000000E+00  0.99999944176E+02  0.99999999996E+02  0.10566000000E+00 0. -1.
         22   -1    0    0    0    0 -0.00000000000E+00 -0.00000000000E+00 -0.57419586017E+02  0.57419586017E+02  0.00000000000E+00 0.  1.
         13    1    1    2    0    0 -0.60447444925E+01  0.36536992788E+02 -0.39680360510E+02  0.54277370535E+02  0.10566000000E+00 0.  1.
        996    1    1    2    0    0  0.60447444925E+01 -0.36536992788E+02  0.82260718668E+02  0.10314221548E+03  0.50000000000E+02 0.  0.
<mgrwt>
<rscale>  0 0.62221305E+02</rscale>
<asrwt>0</asrwt>
<pdfrwt beam="1">  1       13 0.10000000E+01 0.62221305E+02</pdfrwt>
<pdfrwt beam="2">  1       22 0.57419598E+00 0.62221305E+02</pdfrwt>
<totfact> 0.57943494E-02</totfact>
</mgrwt>
</event>
<event>
 4    1  0.2437479E+000  0.5233289E+02  0.7957747E-01  0.1433150E+00
         13   -1    0    0    0    0  0.00000000000E+00  0.00000000000E+00  0.99999944182E+02  0.10000000000E+03  0.10566000000E+00 0.  1.
         22   -1    0    0    0    0 -0.00000000000E+00 -0.00000000000E+00 -0.11921610758E+02  0.11921610758E+02  0.00000000000E+00 0.  1.
         13    1    1    2    0    0 -0.39007698125E+01  0.14950413739E+02  0.29987709937E+02  0.33734326544E+02  0.10566000000E+00 0. -1.
        996    1    1    2    0    0  0.39007698125E+01 -0.14950413739E+02  0.58090623487E+02  0.78187284217E+02  0.50000000000E+02 0.  0.
<mgrwt>
<rscale>  0 0.52332885E+02</rscale>
<asrwt>0</asrwt>
<pdfrwt beam="1">  1       13 0.10000000E+01 0.52332885E+02</pdfrwt>
<pdfrwt beam="2">  1       22 0.11921635E+00 0.52332885E+02</pdfrwt>
<totfact> 0.10865811E+00</totfact>
</mgrwt>
</event>
<event>
 4    1  0.2437479E+000  0.5116557E+02  0.7957747E-01  0.1439154E+00
         13   -1    0    0    0    0  0.00000000000E+00  0.00000000000E+00  0.99999944175E+02  0.99999999995E+02  0.10566000000E+00 0. -1.
         22   -1    0    0    0    0 -0.00000000000E+00 -0.00000000000E+00 -0.17928708801E+02  0.17928708801E+02  0.00000000000E+00 0.  1.
         13    1    1    2    0    0  0.10822255464E+02  0.89118556506E+00 -0.85765104283E+01  0.13837742598E+02  0.10566000000E+00 0.  1.
        996    1    1    2    0    0 -0.10822255464E+02 -0.89118556506E+00  0.90647745802E+02  0.10409096620E+03  0.50000000000E+02 0.  0.
<mgrwt>
<rscale>  0 0.51165569E+02</rscale>
<asrwt>0</asrwt>
<pdfrwt beam="1">  1       13 0.10000000E+01 0.51165569E+02</pdfrwt>
<pdfrwt beam="2">  1       22 0.17928732E+00 0.51165569E+02</pdfrwt>
<totfact> 0.55244353E-01</totfact>
</mgrwt>
</event>
<event>
 4    1  0.2437479E+000  0.5139831E+02  0.7957747E-01  0.1437942E+00
         13   -1    0    0    0    0  0.00000000000E+00  0.00000000000E+00  0.99999944176E+02  0.99999999996E+02  0.10566000000E+00 0. -1.
         22   -1    0    0    0    0 -0.00000000000E+00 -0.00000000000E+00 -0.10019317119E+02  0.10019317119E+02  0.00000000000E+00 0. -1.
         13    1    1    2    0    0  0.31306587354E+01  0.11488482653E+02  0.16753699455E+02  0.20554412355E+02  0.10566000000E+00 0.  1.
        996    1    1    2    0    0 -0.31306587354E+01 -0.11488482653E+02  0.73226927602E+02  0.89464904761E+02  0.50000000000E+02 0.  0.
<mgrwt>
<rscale>  0 0.51398310E+02</rscale>
<asrwt>0</asrwt>
<pdfrwt beam="1">  1       13 0.10000000E+01 0.51398310E+02</pdfrwt>
<pdfrwt beam="2">  1       22 0.10019342E+00 0.51398310E+02</pdfrwt>
<totfact> 0.14038091E+00</totfact>
</mgrwt>
</event>
<event>
 4    1  0.2437479E+000  0.5747277E+02  0.7957747E-01  0.1408754E+00
         13   -1    0    0    0    0  0.00000000000E+00  0.00000000000E+00  0.99999944177E+02  0.99999999998E+02  0.10566000000E+00 0. -1.
         22   -1    0    0    0    0 -0.00000000000E+00 -0.00000000000E+00 -0.25265890500E+02  0.25265890500E+02  0.00000000000E+00 0.  1.
         13    1    1    2    0    0 -0.19803922676E+02  0.20271246799E+02 -0.31040491755E+01  0.28509035155E+02  0.10566000000E+00 0.  1.
        996    1    1    2    0    0  0.19803922676E+02 -0.20271246799E+02  0.77838102852E+02  0.96756855343E+02  0.50000000000E+02 0.  0.
<mgrwt>
<rscale>  0 0.57472766E+02</rscale>
<asrwt>0</asrwt>
<pdfrwt beam="1">  1       13 0.10000000E+01 0.57472766E+02</pdfrwt>
<pdfrwt beam="2">  1       22 0.25265911E+00 0.57472766E+02</pdfrwt>
<totfact> 0.29106116E-01</totfact>
</mgrwt>
</event>
<event>
 4    1  0.2437479E+000  0.5368785E+02  0.7957747E-01  0.1426408E+00
         13   -1    0    0    0    0  0.00000000000E+00  0.00000000000E+00  0.99999944182E+02  0.10000000000E+03  0.10566000000E+00 0.  1.
         22   -1    0    0    0    0 -0.00000000000E+00 -0.00000000000E+00 -0.24983870736E+02  0.24983870736E+02  0.00000000000E+00 0. -1.
         13    1    1    2    0    0  0.18328002310E+02 -0.68168396480E+01 -0.11850420554E+02  0.22865445607E+02  0.10566000000E+00 0. -1.
        996    1    1    2    0    0 -0.18328002310E+02  0.68168396480E+01  0.86866494001E+02  0.10211842513E+03  0.50000000000E+02 0.  0.
<mgrwt>
<rscale>  0 0.53687848E+02</rscale>
<asrwt>0</asrwt>
<pdfrwt beam="1">  1       13 0.10000000E+01 0.53687848E+02</pdfrwt>
<pdfrwt beam="2">  1       22 0.24983892E+00 0.53687848E+02</pdfrwt>
<totfact> 0.29593807E-01</totfact>
</mgrwt>
</event>
<event>
 4    1  0.2437479E+000  0.5104891E+02  0.7957747E-01  0.1439765E+00
         13   -1    0    0    0    0  0.00000000000E+00  0.00000000000E+00  0.99999944175E+02  0.99999999995E+02  0.10566000000E+00 0.  1.
         22   -1    0    0    0    0 -0.00000000000E+00 -0.00000000000E+00 -0.27755625653E+02  0.27755625653E+02  0.00000000000E+00 0. -1.
         13    1    1    2    0    0  0.86174426398E+01 -0.56330302764E+01 -0.19905528851E+02  0.22410546415E+02  0.10566000000E+00 0. -1.
        996    1    1    2    0    0 -0.86174426398E+01  0.56330302764E+01  0.92149847373E+02  0.10534507923E+03  0.50000000000E+02 0.  0.
<mgrwt>
<rscale>  0 0.51048911E+02</rscale>
<asrwt>0</asrwt>
<pdfrwt beam="1">  1       13 0.10000000E+01 0.51048911E+02</pdfrwt>
<pdfrwt beam="2">  1       22 0.27755646E+00 0.51048911E+02</pdfrwt>
<totfact> 0.23982326E-01</totfact>
</mgrwt>
</event>
<event>
 4    1  0.2437479E+000  0.7126610E+02  0.7957747E-01  0.1355840E+00
         13   -1    0    0    0    0  0.00000000000E+00  0.00000000000E+00  0.99999944180E+02  0.10000000000E+03  0.10566000000E+00 0.  1.
         22   -1    0    0    0    0 -0.00000000000E+00 -0.00000000000E+00 -0.76676783663E+02  0.76676783663E+02  0.00000000000E+00 0. -1.
         13    1    1    2    0    0  0.32950632305E+02 -0.38640810918E+02 -0.52207552069E+02  0.72831971653E+02  0.10566000000E+00 0. -1.
        996    1    1    2    0    0 -0.32950632305E+02  0.38640810918E+02  0.75530712587E+02  0.10384481201E+03  0.50000000000E+02 0.  0.
<mgrwt>
<rscale>  0 0.71266096E+02</rscale>
<asrwt>0</asrwt>
<pdfrwt beam="1">  1       13 0.10000000E+01 0.71266096E+02</pdfrwt>
<pdfrwt beam="2">  1       22 0.76676790E+00 0.71266096E+02</pdfrwt>
<totfact> 0.41942855E-02</totfact>
</mgrwt>
</event>
<event>
 4    1  0.2437479E+000  0.6740921E+02  0.7957747E-01  0.1369132E+00
         13   -1    0    0    0    0  0.00000000000E+00  0.00000000000E+00  0.99999944185E+02  0.10000000001E+03  0.10566000000E+00 0. -1.
         22   -1    0    0    0    0 -0.00000000000E+00 -0.00000000000E+00 -0.35072233708E+02  0.35072233708E+02  0.00000000000E+00 0.  1.
         13    1    1    2    0    0 -0.40001336561E+02 -0.21068818100E+02  0.61328442301E+01  0.45624828385E+02  0.10566000000E+00 0.  1.
        996    1    1    2    0    0  0.40001336561E+02  0.21068818100E+02  0.58794866248E+02  0.89447405328E+02  0.50000000000E+02 0.  0.
<mgrwt>
<rscale>  0 0.67409213E+02</rscale>
<asrwt>0</asrwt>
<pdfrwt beam="1">  1       13 0.10000000E+01 0.67409213E+02</pdfrwt>
<pdfrwt beam="2">  1       22 0.35072252E+00 0.67409213E+02</pdfrwt>
<totfact> 0.15876697E-01</totfact>
</mgrwt>
</event>
<event>
 4    1  0.2437479E+000  0.5099150E+02  0.7957747E-01  0.1440066E+00
         13   -1    0    0    0    0  0.00000000000E+00  0.00000000000E+00  0.99999944181E+02  0.10000000000E+03  0.10566000000E+00 0. -1.
         22   -1    0    0    0    0 -0.00000000000E+00 -0.00000000000E+00 -0.21195906346E+02  0.21195906346E+02  0.00000000000E+00 0.  1.
         13    1    1    2    0    0 -0.57108993392E+01 -0.82169640561E+01 -0.12865139538E+02  0.16298952388E+02  0.10566000000E+00 0.  1.
        996    1    1    2    0    0  0.57108993392E+01  0.82169640561E+01  0.91669177374E+02  0.10489695396E+03  0.50000000000E+02 0.  0.
<mgrwt>
<rscale>  0 0.50991498E+02</rscale>
<asrwt>0</asrwt>
<pdfrwt beam="1">  1       13 0.10000000E+01 0.50991498E+02</pdfrwt>
<pdfrwt beam="2">  1       22 0.21195928E+00 0.50991498E+02</pdfrwt>
<totfact> 0.40540259E-01</totfact>
</mgrwt>
</event>
<event>
 4    1  0.2437479E+000  0.5176918E+02  0.7957747E-01  0.1436026E+00
         13   -1    0    0    0    0  0.00000000000E+00  0.00000000000E+00  0.99999944179E+02  0.99999999999E+02  0.10566000000E+00 0. -1.
         22   -1    0    0    0    0 -0.00000000000E+00 -0.00000000000E+00 -0.18253765989E+02  0.18253765989E+02  0.00000000000E+00 0. -1.
         13    1    1    2    0    0  0.69151198238E+00 -0.13400366303E+02 -0.72826260916E+01  0.15267475649E+02  0.10566000000E+00 0.  1.
        996    1    1    2    0    0 -0.69151198238E+00  0.13400366303E+02  0.89028804282E+02  0.10298629034E+03  0.50000000000E+02 0.  0.
<mgrwt>
<rscale>  0 0.51769180E+02</rscale>
<asrwt>0</asrwt>
<pdfrwt beam="1">  1       13 0.10000000E+01 0.51769180E+02</pdfrwt>
<pdfrwt beam="2">  1       22 0.18253789E+00 0.51769180E+02</pdfrwt>
<totfact> 0.53551583E-01</totfact>
</mgrwt>
</event>
<event>
 4    1  0.2437479E+000  0.5257836E+02  0.7957747E-01  0.1431911E+00
         13   -1    0    0    0    0  0.00000000000E+00  0.00000000000E+00  0.99999944179E+02  0.99999999999E+02  0.10566000000E+00 0. -1.
         22   -1    0    0    0    0 -0.00000000000E+00 -0.00000000000E+00 -0.15145220674E+02  0.15145220674E+02  0.00000000000E+00 0. -1.
         13    1    1    2    0    0 -0.13775073714E+02  0.86447121868E+01  0.11588593966E+01  0.16304533841E+02  0.10566000000E+00 0.  1.
        996    1    1    2    0    0  0.13775073714E+02 -0.86447121868E+01  0.83695864108E+02  0.98840686832E+02  0.50000000000E+02 0.  0.
<mgrwt>
<rscale>  0 0.52578358E+02</rscale>
<asrwt>0</asrwt>
<pdfrwt beam="1">  1       13 0.10000000E+01 0.52578358E+02</pdfrwt>
<pdfrwt beam="2">  1       22 0.15145244E+00 0.52578358E+02</pdfrwt>
<totfact> 0.74178679E-01</totfact>
</mgrwt>
</event>
<event>
 4    1  0.2437479E+000  0.6140335E+02  0.7957747E-01  0.1392035E+00
         13   -1    0    0    0    0  0.00000000000E+00  0.00000000000E+00  0.99999944184E+02  0.10000000000E+03  0.10566000000E+00 0.  1.
         22   -1    0    0    0    0 -0.00000000000E+00 -0.00000000000E+00 -0.25812628268E+02  0.25812628268E+02  0.00000000000E+00 0. -1.
         13    1    1    2    0    0 -0.36181034880E+01 -0.35458151072E+02  0.46149417663E+02  0.58310814306E+02  0.10566000000E+00 0. -1.
        996    1    1    2    0    0  0.36181034880E+01  0.35458151072E+02  0.28037898252E+02  0.67501813966E+02  0.50000000000E+02 0.  0.
<mgrwt>
<rscale>  0 0.61403348E+02</rscale>
<asrwt>0</asrwt>
<pdfrwt beam="1">  1       13 0.10000000E+01 0.61403348E+02</pdfrwt>
<pdfrwt beam="2">  1       22 0.25812649E+00 0.61403348E+02</pdfrwt>
<totfact> 0.28047569E-01</totfact>
</mgrwt>
</event>
<event>
 4    1  0.2437479E+000  0.5261764E+02  0.7957747E-01  0.1431713E+00
         13   -1    0    0    0    0  0.00000000000E+00  0.00000000000E+00  0.99999944181E+02  0.10000000000E+03  0.10566000000E+00 0.  1.
         22   -1    0    0    0    0 -0.00000000000E+00 -0.00000000000E+00 -0.11998261882E+02  0.11998261882E+02  0.00000000000E+00 0.  1.
         13    1    1    2    0    0 -0.90045341170E+01 -0.13694321421E+02  0.16873676967E+02  0.23523354613E+02  0.10566000000E+00 0. -1.
        996    1    1    2    0    0  0.90045341170E+01  0.13694321421E+02  0.71128005332E+02  0.88474907270E+02  0.50000000000E+02 0.  0.
<mgrwt>
<rscale>  0 0.52617640E+02</rscale>
<asrwt>0</asrwt>
<pdfrwt beam="1">  1       13 0.10000000E+01 0.52617640E+02</pdfrwt>
<pdfrwt beam="2">  1       22 0.11998286E+00 0.52617640E+02</pdfrwt>
<totfact> 0.10766541E+00</totfact>
</mgrwt>
</event>
<event>
 4    1  0.2437479E+000  0.5813934E+02  0.7957747E-01  0.1405810E+00
         13   -1    0    0    0    0  0.00000000000E+00  0.00000000000E+00  0.99999944182E+02  0.10000000000E+03  0.10566000000E+00 0.  1.
         22   -1    0    0    0    0 -0.00000000000E+00 -0.00000000000E+00 -0.67449000039E+02  0.67449000039E+02  0.00000000000E+00 0. -1.
         13    1    1    2    0    0 -0.14568787163E+02  0.25844405804E+02 -0.54918608933E+02  0.62419929846E+02  0.10566000000E+00 0. -1.
        996    1    1    2    0    0  0.14568787163E+02 -0.25844405804E+02  0.87469553076E+02  0.10502907020E+03  0.50000000000E+02 0.  0.
<mgrwt>
<rscale>  0 0.58139340E+02</rscale>
<asrwt>0</asrwt>
<pdfrwt beam="1">  1       13 0.10000000E+01 0.58139340E+02</pdfrwt>
<pdfrwt beam="2">  1       22 0.67449009E+00 0.58139340E+02</pdfrwt>
<totfact> 0.85193705E-02</totfact>
</mgrwt>
</event>
<event>
 4    1  0.2437479E+000  0.5416974E+02  0.7957747E-01  0.1424067E+00
         13   -1    0    0    0    0  0.00000000000E+00  0.00000000000E+00  0.99999944176E+02  0.99999999996E+02  0.10566000000E+00 0. -1.
         22   -1    0    0    0    0 -0.00000000000E+00 -0.00000000000E+00 -0.14148940316E+02  0.14148940316E+02  0.00000000000E+00 0. -1.
         13    1    1    2    0    0 -0.20755617132E+02  0.18881630988E+01  0.27864577694E+02  0.34796647202E+02  0.10566000000E+00 0.  1.
        996    1    1    2    0    0  0.20755617132E+02 -0.18881630988E+01  0.57986426166E+02  0.79352293111E+02  0.50000000000E+02 0.  0.
<mgrwt>
<rscale>  0 0.54169741E+02</rscale>
<asrwt>0</asrwt>
<pdfrwt beam="1">  1       13 0.10000000E+01 0.54169741E+02</pdfrwt>
<pdfrwt beam="2">  1       22 0.14148964E+00 0.54169741E+02</pdfrwt>
<totfact> 0.83259763E-01</totfact>
</mgrwt>
</event>
<event>
 4    1  0.2437479E+000  0.5203563E+02  0.7957747E-01  0.1434661E+00
         13   -1    0    0    0    0  0.00000000000E+00  0.00000000000E+00  0.99999944179E+02  0.99999999999E+02  0.10566000000E+00 0. -1.
         22   -1    0    0    0    0 -0.00000000000E+00 -0.00000000000E+00 -0.11136061684E+02  0.11136061684E+02  0.00000000000E+00 0. -1.
         13    1    1    2    0    0 -0.11835484535E+02  0.82236179079E+01  0.15195455420E+02  0.20943247483E+02  0.10566000000E+00 0.  1.
        996    1    1    2    0    0  0.11835484535E+02 -0.82236179079E+01  0.73668427074E+02  0.90192814200E+02  0.50000000000E+02 0.  0.
<mgrwt>
<rscale>  0 0.52035628E+02</rscale>
<asrwt>0</asrwt>
<pdfrwt beam="1">  1       13 0.10000000E+01 0.52035628E+02</pdfrwt>
<pdfrwt beam="2">  1       22 0.11136086E+00 0.52035628E+02</pdfrwt>
<totfact> 0.12035652E+00</totfact>
</mgrwt>
</event>
<event>
 4    1  0.2437479E+000  0.5201739E+02  0.7957747E-01  0.1434754E+00
         13   -1    0    0    0    0  0.00000000000E+00  0.00000000000E+00  0.99999944178E+02  0.99999999998E+02  0.10566000000E+00 0.  1.
         22   -1    0    0    0    0 -0.00000000000E+00 -0.00000000000E+00 -0.11347037595E+02  0.11347037595E+02  0.00000000000E+00 0. -1.
         13    1    1    2    0    0  0.12479252060E+02  0.70764959737E+01  0.11960812621E+02  0.18678349227E+02  0.10566000000E+00 0. -1.
        996    1    1    2    0    0 -0.12479252060E+02 -0.70764959737E+01  0.76692093962E+02  0.92668688366E+02  0.50000000000E+02 0.  0.
<mgrwt>
<rscale>  0 0.52017387E+02</rscale>
<asrwt>0</asrwt>
<pdfrwt beam="1">  1       13 0.10000000E+01 0.52017387E+02</pdfrwt>
<pdfrwt beam="2">  1       22 0.11347062E+00 0.52017387E+02</pdfrwt>
<totfact> 0.11701542E+00</totfact>
</mgrwt>
</event>
<event>
 4    1  0.2437479E+000  0.5321696E+02  0.7957747E-01  0.1428724E+00
         13   -1    0    0    0    0  0.00000000000E+00  0.00000000000E+00  0.99999944184E+02  0.10000000000E+03  0.10566000000E+00 0. -1.
         22   -1    0    0    0    0 -0.00000000000E+00 -0.00000000000E+00 -0.90648488915E+02  0.90648488915E+02  0.00000000000E+00 0.  1.
         13    1    1    2    0    0  0.17887013856E+02  0.34784197851E+01 -0.82503093778E+02  0.84491516236E+02  0.10566000000E+00 0.  1.
        996    1    1    2    0    0 -0.17887013856E+02 -0.34784197851E+01  0.91854549047E+02  0.10615697268E+03  0.50000000000E+02 0.  0.
<mgrwt>
<rscale>  0 0.53216958E+02</rscale>
<asrwt>0</asrwt>
<pdfrwt beam="1">  1       13 0.10000000E+01 0.53216958E+02</pdfrwt>
<pdfrwt beam="2">  1       22 0.90648492E+00 0.53216958E+02</pdfrwt>
<totfact> 0.94740504E-03</totfact>
</mgrwt>
</event>
<event>
 4    1  0.2437479E+000  0.5149553E+02  0.7957747E-01  0.1437438E+00
         13   -1    0    0    0    0  0.00000000000E+00  0.00000000000E+00  0.99999944182E+02  0.10000000000E+03  0.10566000000E+00 0.  1.
         22   -1    0    0    0    0 -0.00000000000E+00 -0.00000000000E+00 -0.11914751793E+02  0.11914751793E+02  0.00000000000E+00 0.  1.
         13    1    1    2    0    0  0.32691686860E+01  0.11878620866E+02  0.38514447942E+02  0.40437148291E+02  0.10566000000E+00 0. -1.
        996    1    1    2    0    0 -0.32691686860E+01 -0.11878620866E+02  0.49570744448E+02  0.71477603504E+02  0.50000000000E+02 0.  0.
<mgrwt>
<rscale>  0 0.51495525E+02</rscale>
<asrwt>0</asrwt>
<pdfrwt beam="1">  1       13 0.10000000E+01 0.51495525E+02</pdfrwt>
<pdfrwt beam="2">  1       22 0.11914776E+00 0.51495525E+02</pdfrwt>
<totfact> 0.10854947E+00</totfact>
</mgrwt>
</event>
<event>
 4    1  0.2437479E+000  0.5518735E+02  0.7957747E-01  0.1419215E+00
         13   -1    0    0    0    0  0.00000000000E+00  0.00000000000E+00  0.99999944177E+02  0.99999999998E+02  0.10566000000E+00 0. -1.
         22   -1    0    0    0    0 -0.00000000000E+00 -0.00000000000E+00 -0.59895419822E+02  0.59895419822E+02  0.00000000000E+00 0.  1.
         13    1    1    2    0    0  0.21606937391E+02  0.88760098320E+01 -0.49457037825E+02  0.54696005781E+02  0.10566000000E+00 0.  1.
        996    1    1    2    0    0 -0.21606937391E+02 -0.88760098320E+01  0.89561562180E+02  0.10519941404E+03  0.50000000000E+02 0.  0.
<mgrwt>
<rscale>  0 0.55187347E+02</rscale>
<asrwt>0</asrwt>
<pdfrwt beam="1">  1       13 0.10000000E+01 0.55187347E+02</pdfrwt>
<pdfrwt beam="2">  1       22 0.59895431E+00 0.55187347E+02</pdfrwt>
<totfact> 0.63230269E-02</totfact>
</mgrwt>
</event>
<event>
 4    1  0.2437479E+000  0.6482833E+02  0.7957747E-01  0.1378618E+00
         13   -1    0    0    0    0  0.00000000000E+00  0.00000000000E+00  0.99999944178E+02  0.99999999998E+02  0.10566000000E+00 0.  1.
         22   -1    0    0    0    0 -0.00000000000E+00 -0.00000000000E+00 -0.34448715877E+02  0.34448715877E+02  0.00000000000E+00 0. -1.
         13    1    1    2    0    0  0.20068139375E+02  0.36055261872E+02 -0.13555612255E+01  0.41286327481E+02  0.10566000000E+00 0. -1.
        996    1    1    2    0    0 -0.20068139375E+02 -0.36055261872E+02  0.66906789526E+02  0.93162388394E+02  0.50000000000E+02 0.  0.
<mgrwt>
<rscale>  0 0.64828328E+02</rscale>
<asrwt>0</asrwt>
<pdfrwt beam="1">  1       13 0.10000000E+01 0.64828328E+02</pdfrwt>
<pdfrwt beam="2">  1       22 0.34448734E+00 0.64828328E+02</pdfrwt>
<totfact> 0.16353471E-01</totfact>
</mgrwt>
</event>
<event>
 4    1  0.2437479E+000  0.5690003E+02  0.7957747E-01  0.1411321E+00
         13   -1    0    0    0    0  0.00000000000E+00  0.00000000000E+00  0.99999944174E+02  0.99999999995E+02  0.10566000000E+00 0.  1.
         22   -1    0    0    0    0 -0.00000000000E+00 -0.00000000000E+00 -0.27768549149E+02  0.27768549149E+02  0.00000000000E+00 0. -1.
         13    1    1    2    0    0 -0.26106479700E+02 -0.74876408289E+01 -0.89819641052E+01  0.28605941529E+02  0.10566000000E+00 0. -1.
        996    1    1    2    0    0  0.26106479700E+02  0.74876408289E+01  0.81213359131E+02  0.99162607614E+02  0.50000000000E+02 0.  0.
<mgrwt>
<rscale>  0 0.56900027E+02</rscale>
<asrwt>0</asrwt>
<pdfrwt beam="1">  1       13 0.10000000E+01 0.56900027E+02</pdfrwt>
<pdfrwt beam="2">  1       22 0.27768569E+00 0.56900027E+02</pdfrwt>
<totfact> 0.24155140E-01</totfact>
</mgrwt>
</event>
<event>
 4    1  0.2437479E+000  0.5458659E+02  0.7957747E-01  0.1422064E+00
         13   -1    0    0    0    0  0.00000000000E+00  0.00000000000E+00  0.99999944182E+02  0.10000000000E+03  0.10566000000E+00 0.  1.
         22   -1    0    0    0    0 -0.00000000000E+00 -0.00000000000E+00 -0.14630970569E+02  0.14630970569E+02  0.00000000000E+00 0.  1.
         13    1    1    2    0    0  0.34146965870E+01  0.21634134100E+02  0.23526935408E+02  0.32143798232E+02  0.10566000000E+00 0. -1.
        996    1    1    2    0    0 -0.34146965870E+01 -0.21634134100E+02  0.61842038204E+02  0.82487172338E+02  0.50000000000E+02 0.  0.
<mgrwt>
<rscale>  0 0.54586591E+02</rscale>
<asrwt>0</asrwt>
<pdfrwt beam="1">  1       13 0.10000000E+01 0.54586591E+02</pdfrwt>
<pdfrwt beam="2">  1       22 0.14630994E+00 0.54586591E+02</pdfrwt>
<totfact> 0.78874064E-01</totfact>
</mgrwt>
</event>
<event>
 4    1  0.2437479E+000  0.5616490E+02  0.7957747E-01  0.1414669E+00
         13   -1    0    0    0    0  0.00000000000E+00  0.00000000000E+00  0.99999944178E+02  0.99999999998E+02  0.10566000000E+00 0.  1.
         22   -1    0    0    0    0 -0.00000000000E+00 -0.00000000000E+00 -0.17730564203E+02  0.17730564203E+02  0.00000000000E+00 0.  1.
         13    1    1    2    0    0 -0.16835447678E+02 -0.19263024382E+02  0.39813345551E+02  0.47324518538E+02  0.10566000000E+00 0. -1.
        996    1    1    2    0    0  0.16835447678E+02  0.19263024382E+02  0.42456034424E+02  0.70406045663E+02  0.50000000000E+02 0.  0.
<mgrwt>
<rscale>  0 0.56164904E+02</rscale>
<asrwt>0</asrwt>
<pdfrwt beam="1">  1       13 0.10000000E+01 0.56164904E+02</pdfrwt>
<pdfrwt beam="2">  1       22 0.17730587E+00 0.56164904E+02</pdfrwt>
<totfact> 0.56871902E-01</totfact>
</mgrwt>
</event>
<event>
 4    1  0.2437479E+000  0.5328485E+02  0.7957747E-01  0.1428388E+00
         13   -1    0    0    0    0  0.00000000000E+00  0.00000000000E+00  0.99999944180E+02  0.10000000000E+03  0.10566000000E+00 0. -1.
         22   -1    0    0    0    0 -0.00000000000E+00 -0.00000000000E+00 -0.35293246953E+02  0.35293246953E+02  0.00000000000E+00 0.  1.
         13    1    1    2    0    0  0.16220554013E+02  0.87274782898E+01 -0.24940864916E+02  0.31005373028E+02  0.10566000000E+00 0.  1.
        996    1    1    2    0    0 -0.16220554013E+02 -0.87274782898E+01  0.89647562142E+02  0.10428787393E+03  0.50000000000E+02 0.  0.
<mgrwt>
<rscale>  0 0.53284850E+02</rscale>
<asrwt>0</asrwt>
<pdfrwt beam="1">  1       13 0.10000000E+01 0.53284850E+02</pdfrwt>
<pdfrwt beam="2">  1       22 0.35293265E+00 0.53284850E+02</pdfrwt>
<totfact> 0.15507569E-01</totfact>
</mgrwt>
</event>
<event>
 4    1  0.2437479E+000  0.5099353E+02  0.7957747E-01  0.1440055E+00
         13   -1    0    0    0    0  0.00000000000E+00  0.00000000000E+00  0.99999944181E+02  0.10000000000E+03  0.10566000000E+00 0. -1.
         22   -1    0    0    0    0 -0.00000000000E+00 -0.00000000000E+00 -0.93300433061E+01  0.93300433061E+01  0.00000000000E+00 0. -1.
         13    1    1    2    0    0  0.93632731053E+01 -0.35594256985E+01  0.12902022815E+02  0.16334434527E+02  0.10566000000E+00 0.  1.
        996    1    1    2    0    0 -0.93632731053E+01  0.35594256985E+01  0.77767878060E+02  0.92995608780E+02  0.50000000000E+02 0.  0.
<mgrwt>
<rscale>  0 0.50993533E+02</rscale>
<asrwt>0</asrwt>
<pdfrwt beam="1">  1       13 0.10000000E+01 0.50993533E+02</pdfrwt>
<pdfrwt beam="2">  1       22 0.93300686E-01 0.50993533E+02</pdfrwt>
<totfact> 0.15534782E+00</totfact>
</mgrwt>
</event>
<event>
 4    1  0.2437479E+000  0.5396600E+02  0.7957747E-01  0.1425053E+00
         13   -1    0    0    0    0  0.00000000000E+00  0.00000000000E+00  0.99999944178E+02  0.99999999999E+02  0.10566000000E+00 0. -1.
         22   -1    0    0    0    0 -0.00000000000E+00 -0.00000000000E+00 -0.14245260806E+02  0.14245260806E+02  0.00000000000E+00 0. -1.
         13    1    1    2    0    0 -0.18242909199E+02  0.89176806664E+01  0.33197108835E+02  0.38915137974E+02  0.10566000000E+00 0.  1.
        996    1    1    2    0    0  0.18242909199E+02 -0.89176806664E+01  0.52557574537E+02  0.75330122831E+02  0.50000000000E+02 0.  0.
<mgrwt>
<rscale>  0 0.53965996E+02</rscale>
<asrwt>0</asrwt>
<pdfrwt beam="1">  1       13 0.10000000E+01 0.53965996E+02</pdfrwt>
<pdfrwt beam="2">  1       22 0.14245285E+00 0.53965996E+02</pdfrwt>
<totfact> 0.82309857E-01</totfact>
</mgrwt>
</event>
<event>
 4    1  0.2437479E+000  0.5667255E+02  0.7957747E-01  0.1412351E+00
         13   -1    0    0    0    0  0.00000000000E+00  0.00000000000E+00  0.99999944178E+02  0.99999999998E+02  0.10566000000E+00 0. -1.
         22   -1    0    0    0    0 -0.00000000000E+00 -0.00000000000E+00 -0.28971353772E+02  0.28971353772E+02  0.00000000000E+00 0.  1.
         13    1    1    2    0    0  0.28533439321E+01 -0.26526148231E+02 -0.11340122609E+02  0.28989440429E+02  0.10566000000E+00 0.  1.
        996    1    1    2    0    0 -0.28533439321E+01  0.26526148231E+02  0.82368713015E+02  0.99981913341E+02  0.50000000000E+02 0.  0.
<mgrwt>
<rscale>  0 0.56672552E+02</rscale>
<asrwt>0</asrwt>
<pdfrwt beam="1">  1       13 0.10000000E+01 0.56672552E+02</pdfrwt>
<pdfrwt beam="2">  1       22 0.28971374E+00 0.56672552E+02</pdfrwt>
<totfact> 0.22249365E-01</totfact>
</mgrwt>
</event>
<event>
 4    1  0.2437479E+000  0.5640436E+02  0.7957747E-01  0.1413572E+00
         13   -1    0    0    0    0  0.00000000000E+00  0.00000000000E+00  0.99999944175E+02  0.99999999995E+02  0.10566000000E+00 0. -1.
         22   -1    0    0    0    0 -0.00000000000E+00 -0.00000000000E+00 -0.17667439692E+02  0.17667439692E+02  0.00000000000E+00 0.  1.
         13    1    1    2    0    0 -0.16385894422E+02  0.20321279687E+02  0.16092970611E+02  0.30666705255E+02  0.10566000000E+00 0.  1.
        996    1    1    2    0    0  0.16385894422E+02 -0.20321279687E+02  0.66239533872E+02  0.87000734432E+02  0.50000000000E+02 0.  0.
<mgrwt>
<rscale>  0 0.56404361E+02</rscale>
<asrwt>0</asrwt>
<pdfrwt beam="1">  1       13 0.10000000E+01 0.56404361E+02</pdfrwt>
<pdfrwt beam="2">  1       22 0.17667463E+00 0.56404361E+02</pdfrwt>
<totfact> 0.57258927E-01</totfact>
</mgrwt>
</event>
<event>
 4    1  0.2437479E+000  0.5320114E+02  0.7957747E-01  0.1428802E+00
         13   -1    0    0    0    0  0.00000000000E+00  0.00000000000E+00  0.99999944176E+02  0.99999999996E+02  0.10566000000E+00 0. -1.
         22   -1    0    0    0    0 -0.00000000000E+00 -0.00000000000E+00 -0.15625007000E+02  0.15625007000E+02  0.00000000000E+00 0. -1.
         13    1    1    2    0    0 -0.18170652235E+02  0.43405777892E+00  0.30292398267E+01  0.18426840933E+02  0.10566000000E+00 0.  1.
        996    1    1    2    0    0  0.18170652235E+02 -0.43405777892E+00  0.81345697349E+02  0.97198166063E+02  0.50000000000E+02 0.  0.
<mgrwt>
<rscale>  0 0.53201137E+02</rscale>
<asrwt>0</asrwt>
<pdfrwt beam="1">  1       13 0.10000000E+01 0.53201137E+02</pdfrwt>
<pdfrwt beam="2">  1       22 0.15625031E+00 0.53201137E+02</pdfrwt>
<totfact> 0.70472871E-01</totfact>
</mgrwt>
</event>
<event>
 4    1  0.2437479E+000  0.5196554E+02  0.7957747E-01  0.1435019E+00
         13   -1    0    0    0    0  0.00000000000E+00  0.00000000000E+00  0.99999944180E+02  0.10000000000E+03  0.10566000000E+00 0.  1.
         22   -1    0    0    0    0 -0.00000000000E+00 -0.00000000000E+00 -0.18665448808E+02  0.18665448808E+02  0.00000000000E+00 0. -1.
         13    1    1    2    0    0 -0.27807952444E+01 -0.13881101594E+02 -0.72940203378E+01  0.15925818672E+02  0.10566000000E+00 0. -1.
        996    1    1    2    0    0  0.27807952444E+01  0.13881101594E+02  0.88628515709E+02  0.10273963014E+03  0.50000000000E+02 0.  0.
<mgrwt>
<rscale>  0 0.51965544E+02</rscale>
<asrwt>0</asrwt>
<pdfrwt beam="1">  1       13 0.10000000E+01 0.51965544E+02</pdfrwt>
<pdfrwt beam="2">  1       22 0.18665472E+00 0.51965544E+02</pdfrwt>
<totfact> 0.51451189E-01</totfact>
</mgrwt>
</event>
<event>
 4    1  0.2437479E+000  0.5320853E+02  0.7957747E-01  0.1428766E+00
         13   -1    0    0    0    0  0.00000000000E+00  0.00000000000E+00  0.99999944181E+02  0.10000000000E+03  0.10566000000E+00 0.  1.
         22   -1    0    0    0    0 -0.00000000000E+00 -0.00000000000E+00 -0.55445365508E+02  0.55445365508E+02  0.00000000000E+00 0. -1.
         13    1    1    2    0    0  0.18560170783E+01 -0.18102576837E+02 -0.46527872849E+02  0.49960006039E+02  0.10566000000E+00 0. -1.
        996    1    1    2    0    0 -0.18560170783E+01  0.18102576837E+02  0.91082451521E+02  0.10548535947E+03  0.50000000000E+02 0.  0.
<mgrwt>
<rscale>  0 0.53208534E+02</rscale>
<asrwt>0</asrwt>
<pdfrwt beam="1">  1       13 0.10000000E+01 0.53208534E+02</pdfrwt>
<pdfrwt beam="2">  1       22 0.55445378E+00 0.53208534E+02</pdfrwt>
<totfact> 0.58857695E-02</totfact>
</mgrwt>
</event>
<event>
 4    1  0.2437479E+000  0.5192135E+02  0.7957747E-01  0.1435245E+00
         13   -1    0    0    0    0  0.00000000000E+00  0.00000000000E+00  0.99999944176E+02  0.99999999996E+02  0.10566000000E+00 0. -1.
         22   -1    0    0    0    0 -0.00000000000E+00 -0.00000000000E+00 -0.10866150486E+02  0.10866150486E+02  0.00000000000E+00 0. -1.
         13    1    1    2    0    0 -0.10292321856E+02  0.94812732306E+01  0.19805920300E+02  0.24251022128E+02  0.10566000000E+00 0.  1.
        996    1    1    2    0    0  0.10292321856E+02 -0.94812732306E+01  0.69327873389E+02  0.86615128355E+02  0.50000000000E+02 0.  0.
<mgrwt>
<rscale>  0 0.51921349E+02</rscale>
<asrwt>0</asrwt>
<pdfrwt beam="1">  1       13 0.10000000E+01 0.51921349E+02</pdfrwt>
<pdfrwt beam="2">  1       22 0.10866175E+00 0.51921349E+02</pdfrwt>
<totfact> 0.12479887E+00</totfact>
</mgrwt>
</event>
<event>
 4    1  0.2437479E+000  0.5313457E+02  0.7957747E-01  0.1429132E+00
         13   -1    0    0    0    0  0.00000000000E+00  0.00000000000E+00  0.99999944182E+02  0.10000000000E+03  0.10566000000E+00 0. -1.
         22   -1    0    0    0    0 -0.00000000000E+00 -0.00000000000E+00 -0.29241246541E+02  0.29241246541E+02  0.00000000000E+00 0.  1.
         13    1    1    2    0    0 -0.13955868828E+02 -0.11336485412E+02 -0.18224347030E+02  0.25601175070E+02  0.10566000000E+00 0.  1.
        996    1    1    2    0    0  0.13955868828E+02  0.11336485412E+02  0.88983044670E+02  0.10364007147E+03  0.50000000000E+02 0.  0.
<mgrwt>
<rscale>  0 0.53134567E+02</rscale>
<asrwt>0</asrwt>
<pdfrwt beam="1">  1       13 0.10000000E+01 0.53134567E+02</pdfrwt>
<pdfrwt beam="2">  1       22 0.29241266E+00 0.53134567E+02</pdfrwt>
<totfact> 0.21760012E-01</totfact>
</mgrwt>
</event>
<event>
 4    1  0.2437479E+000  0.5112363E+02  0.7957747E-01  0.1439374E+00
         13   -1    0    0    0    0  0.00000000000E+00  0.00000000000E+00  0.99999944177E+02  0.99999999997E+02  0.10566000000E+00 0.  1.
         22   -1    0    0    0    0 -0.00000000000E+00 -0.00000000000E+00 -0.31433130886E+02  0.31433130886E+02  0.00000000000E+00 0. -1.
         13    1    1    2    0    0 -0.39470398906E+01  0.99018155135E+01 -0.23679005358E+02  0.25967894276E+02  0.10566000000E+00 0. -1.
        996    1    1    2    0    0  0.39470398906E+01 -0.99018155135E+01  0.92245818648E+02  0.10546523661E+03  0.50000000000E+02 0.  0.
<mgrwt>
<rscale>  0 0.51123625E+02</rscale>
<asrwt>0</asrwt>
<pdfrwt beam="1">  1       13 0.10000000E+01 0.51123625E+02</pdfrwt>
<pdfrwt beam="2">  1       22 0.31433150E+00 0.51123625E+02</pdfrwt>
<totfact> 0.18979607E-01</totfact>
</mgrwt>
</event>
<event>
 4    1  0.2437479E+000  0.5474043E+02  0.7957747E-01  0.1421330E+00
         13   -1    0    0    0    0  0.00000000000E+00  0.00000000000E+00  0.99999944186E+02  0.10000000001E+03  0.10566000000E+00 0. -1.
         22   -1    0    0    0    0 -0.00000000000E+00 -0.00000000000E+00 -0.50491804943E+02  0.50491804943E+02  0.00000000000E+00 0.  1.
         13    1    1    2    0    0 -0.28855006658E+01  0.22094989551E+02 -0.39874811155E+02  0.45678511425E+02  0.10566000000E+00 0.  1.
        996    1    1    2    0    0  0.28855006658E+01 -0.22094989551E+02  0.89382950398E+02  0.10481329352E+03  0.50000000000E+02 0.  0.
<mgrwt>
<rscale>  0 0.54740430E+02</rscale>
<asrwt>0</asrwt>
<pdfrwt beam="1">  1       13 0.10000000E+01 0.54740430E+02</pdfrwt>
<pdfrwt beam="2">  1       22 0.50491819E+00 0.54740430E+02</pdfrwt>
<totfact> 0.71749157E-02</totfact>
</mgrwt>
</event>
<event>
 4    1  0.2437479E+000  0.5193610E+02  0.7957747E-01  0.1435170E+00
         13   -1    0    0    0    0  0.00000000000E+00  0.00000000000E+00  0.99999944181E+02  0.10000000000E+03  0.10566000000E+00 0. -1.
         22   -1    0    0    0    0 -0.00000000000E+00 -0.00000000000E+00 -0.13623678849E+02  0.13623678849E+02  0.00000000000E+00 0. -1.
         13    1    1    2    0    0  0.99263842172E+01 -0.99410820501E+01  0.15140208015E+01  0.14130167691E+02  0.10566000000E+00 0.  1.
        996    1    1    2    0    0 -0.99263842172E+01  0.99410820501E+01  0.84862244530E+02  0.99493511159E+02  0.50000000000E+02 0.  0.
<mgrwt>
<rscale>  0 0.51936097E+02</rscale>
<asrwt>0</asrwt>
<pdfrwt beam="1">  1       13 0.10000000E+01 0.51936097E+02</pdfrwt>
<pdfrwt beam="2">  1       22 0.13623703E+00 0.51936097E+02</pdfrwt>
<totfact> 0.88102330E-01</totfact>
</mgrwt>
</event>
<event>
 4    1  0.2437479E+000  0.5258211E+02  0.7957747E-01  0.1431892E+00
         13   -1    0    0    0    0  0.00000000000E+00  0.00000000000E+00  0.99999944185E+02  0.10000000001E+03  0.10566000000E+00 0.  1.
         22   -1    0    0    0    0 -0.00000000000E+00 -0.00000000000E+00 -0.24561257218E+02  0.24561257218E+02  0.00000000000E+00 0. -1.
         13    1    1    2    0    0  0.53213422029E+01 -0.15380568136E+02 -0.13563883649E+02  0.21186520778E+02  0.10566000000E+00 0. -1.
        996    1    1    2    0    0 -0.53213422029E+01  0.15380568136E+02  0.89002570615E+02  0.10337473645E+03  0.50000000000E+02 0.  0.
<mgrwt>
<rscale>  0 0.52582113E+02</rscale>
<asrwt>0</asrwt>
<pdfrwt beam="1">  1       13 0.10000000E+01 0.52582113E+02</pdfrwt>
<pdfrwt beam="2">  1       22 0.24561278E+00 0.52582113E+02</pdfrwt>
<totfact> 0.30551608E-01</totfact>
</mgrwt>
</event>
<event>
 4    1  0.2437479E+000  0.5129775E+02  0.7957747E-01  0.1438465E+00
         13   -1    0    0    0    0  0.00000000000E+00  0.00000000000E+00  0.99999944181E+02  0.10000000000E+03  0.10566000000E+00 0.  1.
         22   -1    0    0    0    0 -0.00000000000E+00 -0.00000000000E+00 -0.17804573466E+02  0.17804573466E+02  0.00000000000E+00 0. -1.
         13    1    1    2    0    0 -0.11417512152E+02  0.10483872941E+01 -0.80422768829E+01  0.14005287615E+02  0.10566000000E+00 0. -1.
        996    1    1    2    0    0  0.11417512152E+02 -0.10483872941E+01  0.90237647598E+02  0.10379928585E+03  0.50000000000E+02 0.  0.
<mgrwt>
<rscale>  0 0.51297746E+02</rscale>
<asrwt>0</asrwt>
<pdfrwt beam="1">  1       13 0.10000000E+01 0.51297746E+02</pdfrwt>
<pdfrwt beam="2">  1       22 0.17804596E+00 0.51297746E+02</pdfrwt>
<totfact> 0.55948739E-01</totfact>
</mgrwt>
</event>
<event>
 4    1  0.2437479E+000  0.5119414E+02  0.7957747E-01  0.1439005E+00
         13   -1    0    0    0    0  0.00000000000E+00  0.00000000000E+00  0.99999944178E+02  0.99999999998E+02  0.10566000000E+00 0. -1.
         22   -1    0    0    0    0 -0.00000000000E+00 -0.00000000000E+00 -0.10128839447E+02  0.10128839447E+02  0.00000000000E+00 0. -1.
         13    1    1    2    0    0 -0.10157950333E+02 -0.42019151212E+01  0.26313117468E+02  0.28517211655E+02  0.10566000000E+00 0.  1.
        996    1    1    2    0    0  0.10157950333E+02  0.42019151212E+01  0.63557987263E+02  0.81611627790E+02  0.50000000000E+02 0.  0.
<mgrwt>
<rscale>  0 0.51194141E+02</rscale>
<asrwt>0</asrwt>
<pdfrwt beam="1">  1       13 0.10000000E+01 0.51194141E+02</pdfrwt>
<pdfrwt beam="2">  1       22 0.10128865E+00 0.51194141E+02</pdfrwt>
<totfact> 0.13811558E+00</totfact>
</mgrwt>
</event>
<event>
 4    1  0.2437479E+000  0.5186227E+02  0.7957747E-01  0.1435548E+00
         13   -1    0    0    0    0  0.00000000000E+00  0.00000000000E+00  0.99999944187E+02  0.10000000001E+03  0.10566000000E+00 0. -1.
         22   -1    0    0    0    0 -0.00000000000E+00 -0.00000000000E+00 -0.18360431624E+02  0.18360431624E+02  0.00000000000E+00 0. -1.
         13    1    1    2    0    0 -0.24504080363E+01  0.13553231216E+02 -0.71616059884E+01  0.15523992408E+02  0.10566000000E+00 0.  1.
        996    1    1    2    0    0  0.24504080363E+01 -0.13553231216E+02  0.88801118552E+02  0.10283643922E+03  0.50000000000E+02 0.  0.
<mgrwt>
<rscale>  0 0.51862265E+02</rscale>
<asrwt>0</asrwt>
<pdfrwt beam="1">  1       13 0.10000000E+01 0.51862265E+02</pdfrwt>
<pdfrwt beam="2">  1       22 0.18360454E+00 0.51862265E+02</pdfrwt>
<totfact> 0.53000726E-01</totfact>
</mgrwt>
</event>
<event>
 4    1  0.2437479E+000  0.5282367E+02  0.7957747E-01  0.1430680E+00
         13   -1    0    0    0    0  0.00000000000E+00  0.00000000000E+00  0.99999944177E+02  0.99999999997E+02  0.10566000000E+00 0. -1.
         22   -1    0    0    0    0 -0.00000000000E+00 -0.00000000000E+00 -0.12591922481E+02  0.12591922481E+02  0.00000000000E+00 0. -1.
         13    1    1    2    0    0 -0.89193581465E+01 -0.14518441364E+02  0.13458810275E+02  0.21713839538E+02  0.10566000000E+00 0.  1.
        996    1    1    2    0    0  0.89193581465E+01  0.14518441364E+02  0.73949211420E+02  0.90878082941E+02  0.50000000000E+02 0.  0.
<mgrwt>
<rscale>  0 0.52823670E+02</rscale>
<asrwt>0</asrwt>
<pdfrwt beam="1">  1       13 0.10000000E+01 0.52823670E+02</pdfrwt>
<pdfrwt beam="2">  1       22 0.12591947E+00 0.52823670E+02</pdfrwt>
<totfact> 0.99968505E-01</totfact>
</mgrwt>
</event>
<event>
 4    1  0.2437479E+000  0.5431713E+02  0.7957747E-01  0.1423356E+00
         13   -1    0    0    0    0  0.00000000000E+00  0.00000000000E+00  0.99999944183E+02  0.10000000000E+03  0.10566000000E+00 0.  1.
         22   -1    0    0    0    0 -0.00000000000E+00 -0.00000000000E+00 -0.30755182213E+02  0.30755182213E+02  0.00000000000E+00 0. -1.
         13    1    1    2    0    0 -0.11360824337E+02 -0.17924341719E+02 -0.18104372072E+02  0.27894978183E+02  0.10566000000E+00 0. -1.
        996    1    1    2    0    0  0.11360824337E+02  0.17924341719E+02  0.87349134042E+02  0.10286020403E+03  0.50000000000E+02 0.  0.
<mgrwt>
<rscale>  0 0.54317128E+02</rscale>
<asrwt>0</asrwt>
<pdfrwt beam="1">  1       13 0.10000000E+01 0.54317128E+02</pdfrwt>
<pdfrwt beam="2">  1       22 0.30755202E+00 0.54317128E+02</pdfrwt>
<totfact> 0.19828539E-01</totfact>
</mgrwt>
</event>
<event>
 4    1  0.2437479E+000  0.5143212E+02  0.7957747E-01  0.1437767E+00
         13   -1    0    0    0    0  0.00000000000E+00  0.00000000000E+00  0.99999944182E+02  0.10000000000E+03  0.10566000000E+00 0. -1.
         22   -1    0    0    0    0 -0.00000000000E+00 -0.00000000000E+00 -0.35913880381E+02  0.35913880381E+02  0.00000000000E+00 0.  1.
         13    1    1    2    0    0 -0.80077616949E-01  0.12052229634E+02 -0.27974473858E+02  0.30460548309E+02  0.10566000000E+00 0.  1.
        996    1    1    2    0    0  0.80077616949E-01 -0.12052229634E+02  0.92060537659E+02  0.10545333207E+03  0.50000000000E+02 0.  0.
<mgrwt>
<rscale>  0 0.51432117E+02</rscale>
<asrwt>0</asrwt>
<pdfrwt beam="1">  1       13 0.10000000E+01 0.51432117E+02</pdfrwt>
<pdfrwt beam="2">  1       22 0.35913898E+00 0.51432117E+02</pdfrwt>
<totfact> 0.15014767E-01</totfact>
</mgrwt>
</event>
<event>
 4    1  0.2437479E+000  0.5138149E+02  0.7957747E-01  0.1438029E+00
         13   -1    0    0    0    0  0.00000000000E+00  0.00000000000E+00  0.99999944177E+02  0.99999999997E+02  0.10566000000E+00 0.  1.
         22   -1    0    0    0    0 -0.00000000000E+00 -0.00000000000E+00 -0.12124272674E+02  0.12124272674E+02  0.00000000000E+00 0.  1.
         13    1    1    2    0    0  0.11296723198E+02  0.35272420331E+01  0.19308723709E+01  0.11991531326E+02  0.10566000000E+00 0. -1.
        996    1    1    2    0    0 -0.11296723198E+02 -0.35272420331E+01  0.85944799132E+02  0.10013274134E+03  0.50000000000E+02 0.  0.
<mgrwt>
<rscale>  0 0.51381489E+02</rscale>
<asrwt>0</asrwt>
<pdfrwt beam="1">  1       13 0.10000000E+01 0.51381489E+02</pdfrwt>
<pdfrwt beam="2">  1       22 0.12124297E+00 0.51381489E+02</pdfrwt>
<totfact> 0.10566137E+00</totfact>
</mgrwt>
</event>
<event>
 4    1  0.2437479E+000  0.5160519E+02  0.7957747E-01  0.1436871E+00
         13   -1    0    0    0    0  0.00000000000E+00  0.00000000000E+00  0.99999944173E+02  0.99999999993E+02  0.10566000000E+00 0. -1.
         22   -1    0    0    0    0 -0.00000000000E+00 -0.00000000000E+00 -0.24322553270E+02  0.24322553270E+02  0.00000000000E+00 0.  1.
         13    1    1    2    0    0  0.96081665283E+01  0.84130089935E+01 -0.15176774624E+02  0.19835353195E+02  0.10566000000E+00 0.  1.
        996    1    1    2    0    0 -0.96081665283E+01 -0.84130089935E+01  0.90854165527E+02  0.10448720007E+03  0.50000000000E+02 0.  0.
<mgrwt>
<rscale>  0 0.51605190E+02</rscale>
<asrwt>0</asrwt>
<pdfrwt beam="1">  1       13 0.10000000E+01 0.51605190E+02</pdfrwt>
<pdfrwt beam="2">  1       22 0.24322574E+00 0.51605190E+02</pdfrwt>
<totfact> 0.31094663E-01</totfact>
</mgrwt>
</event>
<event>
 4    1  0.2437479E+000  0.6335063E+02  0.7957747E-01  0.1384285E+00
         13   -1    0    0    0    0  0.00000000000E+00  0.00000000000E+00  0.99999944178E+02  0.99999999998E+02  0.10566000000E+00 0.  1.
         22   -1    0    0    0    0 -0.00000000000E+00 -0.00000000000E+00 -0.53778477871E+02  0.53778477871E+02  0.00000000000E+00 0. -1.
         13    1    1    2    0    0  0.21623966870E+01 -0.38841034173E+02 -0.33926356539E+02  0.51616961622E+02  0.10566000000E+00 0. -1.
        996    1    1    2    0    0 -0.21623966870E+01  0.38841034173E+02  0.80147822845E+02  0.10216151625E+03  0.50000000000E+02 0.  0.
<mgrwt>
<rscale>  0 0.63350627E+02</rscale>
<asrwt>0</asrwt>
<pdfrwt beam="1">  1       13 0.10000000E+01 0.63350627E+02</pdfrwt>
<pdfrwt beam="2">  1       22 0.53778491E+00 0.63350627E+02</pdfrwt>
<totfact> 0.61316440E-02</totfact>
</mgrwt>
</event>
<event>
 4    1  0.2437479E+000  0.5115172E+02  0.7957747E-01  0.1439227E+00
         13   -1    0    0    0    0  0.00000000000E+00  0.00000000000E+00  0.99999944172E+02  0.99999999993E+02  0.10566000000E+00 0.  1.
         22   -1    0    0    0    0 -0.00000000000E+00 -0.00000000000E+00 -0.35581985413E+02  0.35581985413E+02  0.00000000000E+00 0. -1.
         13    1    1    2    0    0  0.55110963797E+01 -0.92804095753E+01 -0.27969059944E+02  0.29979620801E+02  0.10566000000E+00 0. -1.
        996    1    1    2    0    0 -0.55110963797E+01  0.92804095753E+01  0.92387018703E+02  0.10560236460E+03  0.50000000000E+02 0.  0.
<mgrwt>
<rscale>  0 0.51151717E+02</rscale>
<asrwt>0</asrwt>
<pdfrwt beam="1">  1       13 0.10000000E+01 0.51151717E+02</pdfrwt>
<pdfrwt beam="2">  1       22 0.35582003E+00 0.51151717E+02</pdfrwt>
<totfact> 0.15255831E-01</totfact>
</mgrwt>
</event>
<event>
 4    1  0.2437479E+000  0.5326460E+02  0.7957747E-01  0.1428489E+00
         13   -1    0    0    0    0  0.00000000000E+00  0.00000000000E+00  0.99999944171E+02  0.99999999991E+02  0.10566000000E+00 0. -1.
         22   -1    0    0    0    0 -0.00000000000E+00 -0.00000000000E+00 -0.20976064578E+02  0.20976064578E+02  0.00000000000E+00 0. -1.
         13    1    1    2    0    0  0.16794361452E+02 -0.74206990977E+01 -0.71213409762E+01  0.19693704908E+02  0.10566000000E+00 0.  1.
        996    1    1    2    0    0 -0.16794361452E+02  0.74206990977E+01  0.86145220569E+02  0.10128235966E+03  0.50000000000E+02 0.  0.
<mgrwt>
<rscale>  0 0.53264598E+02</rscale>
<asrwt>0</asrwt>
<pdfrwt beam="1">  1       13 0.10000000E+01 0.53264598E+02</pdfrwt>
<pdfrwt beam="2">  1       22 0.20976087E+00 0.53264598E+02</pdfrwt>
<totfact> 0.41514921E-01</totfact>
</mgrwt>
</event>
<event>
 4    1  0.2437479E+000  0.5326602E+02  0.7957747E-01  0.1428482E+00
         13   -1    0    0    0    0  0.00000000000E+00  0.00000000000E+00  0.99999944177E+02  0.99999999997E+02  0.10566000000E+00 0. -1.
         22   -1    0    0    0    0 -0.00000000000E+00 -0.00000000000E+00 -0.15698651208E+02  0.15698651208E+02  0.00000000000E+00 0.  1.
         13    1    1    2    0    0 -0.18352926594E+02 -0.66266534854E+00  0.31587594820E+01  0.18634858879E+02  0.10566000000E+00 0.  1.
        996    1    1    2    0    0  0.18352926594E+02  0.66266534854E+00  0.81142533487E+02  0.97063792326E+02  0.50000000000E+02 0.  0.
<mgrwt>
<rscale>  0 0.53266021E+02</rscale>
<asrwt>0</asrwt>
<pdfrwt beam="1">  1       13 0.10000000E+01 0.53266021E+02</pdfrwt>
<pdfrwt beam="2">  1       22 0.15698675E+00 0.53266021E+02</pdfrwt>
<totfact> 0.69922030E-01</totfact>
</mgrwt>
</event>
<event>
 4    1  0.2437479E+000  0.5110966E+02  0.7957747E-01  0.1439447E+00
         13   -1    0    0    0    0  0.00000000000E+00  0.00000000000E+00  0.99999944176E+02  0.99999999996E+02  0.10566000000E+00 0. -1.
         22   -1    0    0    0    0 -0.00000000000E+00 -0.00000000000E+00 -0.12774583279E+02  0.12774583279E+02  0.00000000000E+00 0. -1.
         13    1    1    2    0    0 -0.70427262444E+01  0.79118545421E+01 -0.11800718216E+01  0.10658384905E+02  0.10566000000E+00 0.  1.
        996    1    1    2    0    0  0.70427262444E+01 -0.79118545421E+01  0.88405432719E+02  0.10211619837E+03  0.50000000000E+02 0.  0.
<mgrwt>
<rscale>  0 0.51109661E+02</rscale>
<asrwt>0</asrwt>
<pdfrwt beam="1">  1       13 0.10000000E+01 0.51109661E+02</pdfrwt>
<pdfrwt beam="2">  1       22 0.12774608E+00 0.51109661E+02</pdfrwt>
<totfact> 0.97379419E-01</totfact>
</mgrwt>
</event>
<event>
 4    1  0.2437479E+000  0.5169326E+02  0.7957747E-01  0.1436417E+00
         13   -1    0    0    0    0  0.00000000000E+00  0.00000000000E+00  0.99999944178E+02  0.99999999999E+02  0.10566000000E+00 0. -1.
         22   -1    0    0    0    0 -0.00000000000E+00 -0.00000000000E+00 -0.11335323761E+02  0.11335323761E+02  0.00000000000E+00 0. -1.
         13    1    1    2    0    0  0.14836611299E+01 -0.13038096721E+02  0.32255390034E+02  0.34822615737E+02  0.10566000000E+00 0.  1.
        996    1    1    2    0    0 -0.14836611299E+01  0.13038096721E+02  0.56409230384E+02  0.76512708022E+02  0.50000000000E+02 0.  0.
<mgrwt>
<rscale>  0 0.51693261E+02</rscale>
<asrwt>0</asrwt>
<pdfrwt beam="1">  1       13 0.10000000E+01 0.51693261E+02</pdfrwt>
<pdfrwt beam="2">  1       22 0.11335349E+00 0.51693261E+02</pdfrwt>
<totfact> 0.11711006E+00</totfact>
</mgrwt>
</event>
<event>
 4    1  0.2437479E+000  0.5845064E+02  0.7957747E-01  0.1404451E+00
         13   -1    0    0    0    0  0.00000000000E+00  0.00000000000E+00  0.99999944170E+02  0.99999999990E+02  0.10566000000E+00 0.  1.
         22   -1    0    0    0    0 -0.00000000000E+00 -0.00000000000E+00 -0.68659783054E+02  0.68659783054E+02  0.00000000000E+00 0. -1.
         13    1    1    2    0    0 -0.27293516994E+02  0.13097375757E+02 -0.55945323010E+02  0.63611065486E+02  0.10566000000E+00 0. -1.
        996    1    1    2    0    0  0.27293516994E+02 -0.13097375757E+02  0.87285484125E+02  0.10504871756E+03  0.50000000000E+02 0.  0.
<mgrwt>
<rscale>  0 0.58450640E+02</rscale>
<asrwt>0</asrwt>
<pdfrwt beam="1">  1       13 0.10000000E+01 0.58450640E+02</pdfrwt>
<pdfrwt beam="2">  1       22 0.68659792E+00 0.58450640E+02</pdfrwt>
<totfact> 0.80924939E-02</totfact>
</mgrwt>
</event>
<event>
 4    1  0.2437479E+000  0.5147255E+02  0.7957747E-01  0.1437557E+00
         13   -1    0    0    0    0  0.00000000000E+00  0.00000000000E+00  0.99999944181E+02  0.10000000000E+03  0.10566000000E+00 0.  1.
         22   -1    0    0    0    0 -0.00000000000E+00 -0.00000000000E+00 -0.12281996216E+02  0.12281996216E+02  0.00000000000E+00 0.  1.
         13    1    1    2    0    0  0.10746927175E+02 -0.58246620746E+01  0.21300535345E+01  0.12408522236E+02  0.10566000000E+00 0. -1.
        996    1    1    2    0    0 -0.10746927175E+02  0.58246620746E+01  0.85587894431E+02  0.99873473981E+02  0.50000000000E+02 0.  0.
<mgrwt>
<rscale>  0 0.51472547E+02</rscale>
<asrwt>0</asrwt>
<pdfrwt beam="1">  1       13 0.10000000E+01 0.51472547E+02</pdfrwt>
<pdfrwt beam="2">  1       22 0.12282021E+00 0.51472547E+02</pdfrwt>
<totfact> 0.10360001E+00</totfact>
</mgrwt>
</event>
<event>
 4    1  0.2437479E+000  0.5451116E+02  0.7957747E-01  0.1422425E+00
         13   -1    0    0    0    0  0.00000000000E+00  0.00000000000E+00  0.99999944179E+02  0.99999999999E+02  0.10566000000E+00 0. -1.
         22   -1    0    0    0    0 -0.00000000000E+00 -0.00000000000E+00 -0.15388201353E+02  0.15388201353E+02  0.00000000000E+00 0.  1.
         13    1    1    2    0    0 -0.78620225190E+01 -0.20239930931E+02  0.12713489982E+02  0.25161681060E+02  0.10566000000E+00 0.  1.
        996    1    1    2    0    0  0.78620225190E+01  0.20239930931E+02  0.71898252844E+02  0.90226520293E+02  0.50000000000E+02 0.  0.
<mgrwt>
<rscale>  0 0.54511157E+02</rscale>
<asrwt>0</asrwt>
<pdfrwt beam="1">  1       13 0.10000000E+01 0.54511157E+02</pdfrwt>
<pdfrwt beam="2">  1       22 0.15388225E+00 0.54511157E+02</pdfrwt>
<totfact> 0.72498526E-01</totfact>
</mgrwt>
</event>
<event>
 4    1  0.2437479E+000  0.5111843E+02  0.7957747E-01  0.1439401E+00
         13   -1    0    0    0    0  0.00000000000E+00  0.00000000000E+00  0.99999944182E+02  0.10000000000E+03  0.10566000000E+00 0. -1.
         22   -1    0    0    0    0 -0.00000000000E+00 -0.00000000000E+00 -0.95411274631E+01  0.95411274631E+01  0.00000000000E+00 0. -1.
         13    1    1    2    0    0  0.98140112540E+01  0.40961717127E+01  0.16755325295E+02  0.19845541801E+02  0.10566000000E+00 0.  1.
        996    1    1    2    0    0 -0.98140112540E+01 -0.40961717127E+01  0.73703491423E+02  0.89695585664E+02  0.50000000000E+02 0.  0.
<mgrwt>
<rscale>  0 0.51118426E+02</rscale>
<asrwt>0</asrwt>
<pdfrwt beam="1">  1       13 0.10000000E+01 0.51118426E+02</pdfrwt>
<pdfrwt beam="2">  1       22 0.95411527E-01 0.51118426E+02</pdfrwt>
<totfact> 0.15051638E+00</totfact>
</mgrwt>
</event>
<event>
 4    1  0.2437479E+000  0.5767707E+02  0.7957747E-01  0.1407847E+00
         13   -1    0    0    0    0  0.00000000000E+00  0.00000000000E+00  0.99999944174E+02  0.99999999995E+02  0.10566000000E+00 0.  1.
         22   -1    0    0    0    0 -0.00000000000E+00 -0.00000000000E+00 -0.18895293004E+02  0.18895293004E+02  0.00000000000E+00 0. -1.
         13    1    1    2    0    0  0.12090344275E+02  0.26085785982E+02  0.21082659023E+02  0.35652970852E+02  0.10566000000E+00 0. -1.
        996    1    1    2    0    0 -0.12090344275E+02 -0.26085785982E+02  0.60021992147E+02  0.83242322147E+02  0.50000000000E+02 0.  0.
<mgrwt>
<rscale>  0 0.57677072E+02</rscale>
<asrwt>0</asrwt>
<pdfrwt beam="1">  1       13 0.10000000E+01 0.57677072E+02</pdfrwt>
<pdfrwt beam="2">  1       22 0.18895316E+00 0.57677072E+02</pdfrwt>
<totfact> 0.50820199E-01</totfact>
</mgrwt>
</event>
<event>
 4    1  0.2437479E+000  0.5395386E+02  0.7957747E-01  0.1425112E+00
         13   -1    0    0    0    0  0.00000000000E+00  0.00000000000E+00  0.99999944185E+02  0.10000000001E+03  0.10566000000E+00 0.  1.
         22   -1    0    0    0    0 -0.00000000000E+00 -0.00000000000E+00 -0.23840999088E+02  0.23840999088E+02  0.00000000000E+00 0. -1.
         13    1    1    2    0    0 -0.11502247059E+02 -0.16694825982E+02 -0.96703318149E+01  0.22462087691E+02  0.10566000000E+00 0. -1.
        996    1    1    2    0    0  0.11502247059E+02  0.16694825982E+02  0.85829276912E+02  0.10137891140E+03  0.50000000000E+02 0.  0.
<mgrwt>
<rscale>  0 0.53953859E+02</rscale>
<asrwt>0</asrwt>
<pdfrwt beam="1">  1       13 0.10000000E+01 0.53953859E+02</pdfrwt>
<pdfrwt beam="2">  1       22 0.23841020E+00 0.53953859E+02</pdfrwt>
<totfact> 0.32458757E-01</totfact>
</mgrwt>
</event>
<event>
 4    1  0.2437479E+000  0.6236172E+02  0.7957747E-01  0.1388180E+00
         13   -1    0    0    0    0  0.00000000000E+00  0.00000000000E+00  0.99999944175E+02  0.99999999995E+02  0.10566000000E+00 0.  1.
         22   -1    0    0    0    0 -0.00000000000E+00 -0.00000000000E+00 -0.26468691748E+02  0.26468691748E+02  0.00000000000E+00 0. -1.
         13    1    1    2    0    0 -0.36422601242E+02 -0.78980135513E+01  0.12759449903E+02  0.39392882925E+02  0.10566000000E+00 0. -1.
        996    1    1    2    0    0  0.36422601242E+02  0.78980135513E+01  0.60771802524E+02  0.87075808818E+02  0.50000000000E+02 0.  0.
<mgrwt>
<rscale>  0 0.62361723E+02</rscale>
<asrwt>0</asrwt>
<pdfrwt beam="1">  1       13 0.10000000E+01 0.62361723E+02</pdfrwt>
<pdfrwt beam="2">  1       22 0.26468712E+00 0.62361723E+02</pdfrwt>
<totfact> 0.26722185E-01</totfact>
</mgrwt>
</event>
<event>
 4    1  0.2437479E+000  0.5132251E+02  0.7957747E-01  0.1438336E+00
         13   -1    0    0    0    0  0.00000000000E+00  0.00000000000E+00  0.99999944180E+02  0.10000000000E+03  0.10566000000E+00 0. -1.
         22   -1    0    0    0    0 -0.00000000000E+00 -0.00000000000E+00 -0.10396567228E+02  0.10396567228E+02  0.00000000000E+00 0. -1.
         13    1    1    2    0    0  0.88550942084E+01  0.74557080606E+01  0.82800624256E+01  0.14232739509E+02  0.10566000000E+00 0.  1.
        996    1    1    2    0    0 -0.88550942084E+01 -0.74557080606E+01  0.81323314527E+02  0.96163827720E+02  0.50000000000E+02 0.  0.
<mgrwt>
<rscale>  0 0.51322512E+02</rscale>
<asrwt>0</asrwt>
<pdfrwt beam="1">  1       13 0.10000000E+01 0.51322512E+02</pdfrwt>
<pdfrwt beam="2">  1       22 0.10396592E+00 0.51322512E+02</pdfrwt>
<totfact> 0.13300122E+00</totfact>
</mgrwt>
</event>
<event>
 4    1  0.2437479E+000  0.5326903E+02  0.7957747E-01  0.1428467E+00
         13   -1    0    0    0    0  0.00000000000E+00  0.00000000000E+00  0.99999944181E+02  0.10000000000E+03  0.10566000000E+00 0.  1.
         22   -1    0    0    0    0 -0.00000000000E+00 -0.00000000000E+00 -0.44534353216E+02  0.44534353216E+02  0.00000000000E+00 0. -1.
         13    1    1    2    0    0  0.76149991180E+01 -0.16721284893E+02 -0.35011870234E+02  0.39540255454E+02  0.10566000000E+00 0. -1.
        996    1    1    2    0    0 -0.76149991180E+01  0.16721284893E+02  0.90477461199E+02  0.10499409776E+03  0.50000000000E+02 0.  0.
<mgrwt>
<rscale>  0 0.53269030E+02</rscale>
<asrwt>0</asrwt>
<pdfrwt beam="1">  1       13 0.10000000E+01 0.53269030E+02</pdfrwt>
<pdfrwt beam="2">  1       22 0.44534369E+00 0.53269030E+02</pdfrwt>
<totfact> 0.99050110E-02</totfact>
</mgrwt>
</event>
<event>
 4    1  0.2437479E+000  0.5577939E+02  0.7957747E-01  0.1416449E+00
         13   -1    0    0    0    0  0.00000000000E+00  0.00000000000E+00  0.99999944175E+02  0.99999999996E+02  0.10566000000E+00 0.  1.
         22   -1    0    0    0    0 -0.00000000000E+00 -0.00000000000E+00 -0.57006027230E+02  0.57006027230E+02  0.00000000000E+00 0. -1.
         13    1    1    2    0    0 -0.10594975673E+02 -0.22340258779E+02 -0.45856554339E+02  0.52097748624E+02  0.10566000000E+00 0. -1.
        996    1    1    2    0    0  0.10594975673E+02  0.22340258779E+02  0.88850471284E+02  0.10490827860E+03  0.50000000000E+02 0.  0.
<mgrwt>
<rscale>  0 0.55779393E+02</rscale>
<asrwt>0</asrwt>
<pdfrwt beam="1">  1       13 0.10000000E+01 0.55779393E+02</pdfrwt>
<pdfrwt beam="2">  1       22 0.57006039E+00 0.55779393E+02</pdfrwt>
<totfact> 0.57870190E-02</totfact>
</mgrwt>
</event>
<event>
 4    1  0.2437479E+000  0.5316237E+02  0.7957747E-01  0.1428995E+00
         13   -1    0    0    0    0  0.00000000000E+00  0.00000000000E+00  0.99999944177E+02  0.99999999997E+02  0.10566000000E+00 0.  1.
         22   -1    0    0    0    0 -0.00000000000E+00 -0.00000000000E+00 -0.18755125261E+02  0.18755125261E+02  0.00000000000E+00 0. -1.
         13    1    1    2    0    0 -0.64696731323E-01 -0.18061922667E+02 -0.38033383651E+01  0.18458433922E+02  0.10566000000E+00 0. -1.
        996    1    1    2    0    0  0.64696731323E-01  0.18061922667E+02  0.85048157281E+02  0.10029669134E+03  0.50000000000E+02 0.  0.
<mgrwt>
<rscale>  0 0.53162367E+02</rscale>
<asrwt>0</asrwt>
<pdfrwt beam="1">  1       13 0.10000000E+01 0.53162367E+02</pdfrwt>
<pdfrwt beam="2">  1       22 0.18755148E+00 0.53162367E+02</pdfrwt>
<totfact> 0.51116263E-01</totfact>
</mgrwt>
</event>
<event>
 4    1  0.2437479E+000  0.5103085E+02  0.7957747E-01  0.1439859E+00
         13   -1    0    0    0    0  0.00000000000E+00  0.00000000000E+00  0.99999944179E+02  0.99999999999E+02  0.10566000000E+00 0. -1.
         22   -1    0    0    0    0 -0.00000000000E+00 -0.00000000000E+00 -0.12906657546E+02  0.12906657546E+02  0.00000000000E+00 0. -1.
         13    1    1    2    0    0 -0.49543544032E+01  0.89220083735E+01  0.46760885205E+02  0.47861669530E+02  0.10566000000E+00 0.  1.
        996    1    1    2    0    0  0.49543544032E+01 -0.89220083735E+01  0.40332401427E+02  0.65044988015E+02  0.50000000000E+02 0.  0.
<mgrwt>
<rscale>  0 0.51030852E+02</rscale>
<asrwt>0</asrwt>
<pdfrwt beam="1">  1       13 0.10000000E+01 0.51030852E+02</pdfrwt>
<pdfrwt beam="2">  1       22 0.12906682E+00 0.51030852E+02</pdfrwt>
<totfact> 0.95805044E-01</totfact>
</mgrwt>
</event>
<event>
 4    1  0.2437479E+000  0.5536109E+02  0.7957747E-01  0.1418399E+00
         13   -1    0    0    0    0  0.00000000000E+00  0.00000000000E+00  0.99999944170E+02  0.99999999990E+02  0.10566000000E+00 0.  1.
         22   -1    0    0    0    0 -0.00000000000E+00 -0.00000000000E+00 -0.34160904898E+02  0.34160904898E+02  0.00000000000E+00 0. -1.
         13    1    1    2    0    0 -0.23744355247E+02  0.10275707281E+01 -0.20640919732E+02  0.31478707711E+02  0.10566000000E+00 0. -1.
        996    1    1    2    0    0  0.23744355247E+02 -0.10275707281E+01  0.86479959004E+02  0.10268219718E+03  0.50000000000E+02 0.  0.
<mgrwt>
<rscale>  0 0.55361090E+02</rscale>
<asrwt>0</asrwt>
<pdfrwt beam="1">  1       13 0.10000000E+01 0.55361090E+02</pdfrwt>
<pdfrwt beam="2">  1       22 0.34160923E+00 0.55361090E+02</pdfrwt>
<totfact> 0.16451721E-01</totfact>
</mgrwt>
</event>
<event>
 4    1  0.2437479E+000  0.5388549E+02  0.7957747E-01  0.1425444E+00
         13   -1    0    0    0    0  0.00000000000E+00  0.00000000000E+00  0.99999944175E+02  0.99999999996E+02  0.10566000000E+00 0. -1.
         22   -1    0    0    0    0 -0.00000000000E+00 -0.00000000000E+00 -0.23680992832E+02  0.23680992832E+02  0.00000000000E+00 0.  1.
         13    1    1    2    0    0  0.84645791823E+01 -0.18220775978E+02 -0.95965157754E+01  0.22265445359E+02  0.10566000000E+00 0.  1.
        996    1    1    2    0    0 -0.84645791823E+01  0.18220775978E+02  0.85915467119E+02  0.10141554747E+03  0.50000000000E+02 0.  0.
<mgrwt>
<rscale>  0 0.53885488E+02</rscale>
<asrwt>0</asrwt>
<pdfrwt beam="1">  1       13 0.10000000E+01 0.53885488E+02</pdfrwt>
<pdfrwt beam="2">  1       22 0.23681014E+00 0.53885488E+02</pdfrwt>
<totfact> 0.32886030E-01</totfact>
</mgrwt>
</event>
<event>
 4    1  0.2437479E+000  0.5281605E+02  0.7957747E-01  0.1430719E+00
         13   -1    0    0    0    0  0.00000000000E+00  0.00000000000E+00  0.99999944183E+02  0.10000000000E+03  0.10566000000E+00 0. -1.
         22   -1    0    0    0    0 -0.00000000000E+00 -0.00000000000E+00 -0.22304527987E+02  0.22304527987E+02  0.00000000000E+00 0.  1.
         13    1    1    2    0    0 -0.16458031206E+02 -0.43206865521E+01 -0.10143193241E+02  0.19809862610E+02  0.10566000000E+00 0.  1.
        996    1    1    2    0    0  0.16458031206E+02  0.43206865521E+01  0.87838609438E+02  0.10249466538E+03  0.50000000000E+02 0.  0.
<mgrwt>
<rscale>  0 0.52816050E+02</rscale>
<asrwt>0</asrwt>
<pdfrwt beam="1">  1       13 0.10000000E+01 0.52816050E+02</pdfrwt>
<pdfrwt beam="2">  1       22 0.22304550E+00 0.52816050E+02</pdfrwt>
<totfact> 0.36883221E-01</totfact>
</mgrwt>
</event>
<event>
 4    1  0.2437479E+000  0.5904605E+02  0.7957747E-01  0.1401879E+00
         13   -1    0    0    0    0  0.00000000000E+00  0.00000000000E+00  0.99999944181E+02  0.10000000000E+03  0.10566000000E+00 0.  1.
         22   -1    0    0    0    0 -0.00000000000E+00 -0.00000000000E+00 -0.43879480722E+02  0.43879480722E+02  0.00000000000E+00 0. -1.
         13    1    1    2    0    0 -0.60733418030E+01  0.30814776369E+02 -0.27342474576E+02  0.41642022085E+02  0.10566000000E+00 0. -1.
        996    1    1    2    0    0  0.60733418030E+01 -0.30814776369E+02  0.83462938035E+02  0.10223745864E+03  0.50000000000E+02 0.  0.
<mgrwt>
<rscale>  0 0.59046049E+02</rscale>
<asrwt>0</asrwt>
<pdfrwt beam="1">  1       13 0.10000000E+01 0.59046049E+02</pdfrwt>
<pdfrwt beam="2">  1       22 0.43879496E+00 0.59046049E+02</pdfrwt>
<totfact> 0.10276716E-01</totfact>
</mgrwt>
</event>
<event>
 4    1  0.2437479E+000  0.5495311E+02  0.7957747E-01  0.1420321E+00
         13   -1    0    0    0    0  0.00000000000E+00  0.00000000000E+00  0.99999944175E+02  0.99999999995E+02  0.10566000000E+00 0. -1.
         22   -1    0    0    0    0 -0.00000000000E+00 -0.00000000000E+00 -0.16890210147E+02  0.16890210147E+02  0.00000000000E+00 0. -1.
         13    1    1    2    0    0  0.21055322971E+02 -0.87474252359E+01  0.87352440966E+01  0.24416382352E+02  0.10566000000E+00 0.  1.
        996    1    1    2    0    0 -0.21055322971E+02  0.87474252359E+01  0.74374489931E+02  0.92473827790E+02  0.50000000000E+02 0.  0.
<mgrwt>
<rscale>  0 0.54953108E+02</rscale>
<asrwt>0</asrwt>
<pdfrwt beam="1">  1       13 0.10000000E+01 0.54953108E+02</pdfrwt>
<pdfrwt beam="2">  1       22 0.16890233E+00 0.54953108E+02</pdfrwt>
<totfact> 0.61835064E-01</totfact>
</mgrwt>
</event>
<event>
 4    1  0.2437479E+000  0.5210866E+02  0.7957747E-01  0.1434289E+00
         13   -1    0    0    0    0  0.00000000000E+00  0.00000000000E+00  0.99999944173E+02  0.99999999993E+02  0.10566000000E+00 0.  1.
         22   -1    0    0    0    0 -0.00000000000E+00 -0.00000000000E+00 -0.19573587125E+02  0.19573587125E+02  0.00000000000E+00 0. -1.
         13    1    1    2    0    0 -0.69443315676E+00  0.14657080614E+02 -0.81657046014E+01  0.16792919496E+02  0.10566000000E+00 0. -1.
        996    1    1    2    0    0  0.69443315676E+00 -0.14657080614E+02  0.88592061649E+02  0.10278066762E+03  0.50000000000E+02 0.  0.
<mgrwt>
<rscale>  0 0.52108658E+02</rscale>
<asrwt>0</asrwt>
<pdfrwt beam="1">  1       13 0.10000000E+01 0.52108658E+02</pdfrwt>
<pdfrwt beam="2">  1       22 0.19573610E+00 0.52108658E+02</pdfrwt>
<totfact> 0.47168478E-01</totfact>
</mgrwt>
</event>
<event>
 4    1  0.2437479E+000  0.5147705E+02  0.7957747E-01  0.1437534E+00
         13   -1    0    0    0    0  0.00000000000E+00  0.00000000000E+00  0.99999944172E+02  0.99999999993E+02  0.10566000000E+00 0. -1.
         22   -1    0    0    0    0 -0.00000000000E+00 -0.00000000000E+00 -0.12482827309E+02  0.12482827309E+02  0.00000000000E+00 0. -1.
         13    1    1    2    0    0 -0.62957601954E+01 -0.10500021474E+02  0.16311365592E+01  0.12351470273E+02  0.10566000000E+00 0.  1.
        996    1    1    2    0    0  0.62957601954E+01  0.10500021474E+02  0.85885980305E+02  0.10013135703E+03  0.50000000000E+02 0.  0.
<mgrwt>
<rscale>  0 0.51477054E+02</rscale>
<asrwt>0</asrwt>
<pdfrwt beam="1">  1       13 0.10000000E+01 0.51477054E+02</pdfrwt>
<pdfrwt beam="2">  1       22 0.12482852E+00 0.51477054E+02</pdfrwt>
<totfact> 0.10103227E+00</totfact>
</mgrwt>
</event>
<event>
 4    1  0.2437479E+000  0.5360161E+02  0.7957747E-01  0.1426830E+00
         13   -1    0    0    0    0  0.00000000000E+00  0.00000000000E+00  0.99999944173E+02  0.99999999993E+02  0.10566000000E+00 0.  1.
         22   -1    0    0    0    0 -0.00000000000E+00 -0.00000000000E+00 -0.14343766682E+02  0.14343766682E+02  0.00000000000E+00 0. -1.
         13    1    1    2    0    0 -0.18846331471E+02 -0.42365288249E+01  0.10366933983E+02  0.21922975862E+02  0.10566000000E+00 0. -1.
        996    1    1    2    0    0  0.18846331471E+02  0.42365288249E+01  0.75289243509E+02  0.92420790813E+02  0.50000000000E+02 0.  0.
<mgrwt>
<rscale>  0 0.53601608E+02</rscale>
<asrwt>0</asrwt>
<pdfrwt beam="1">  1       13 0.10000000E+01 0.53601608E+02</pdfrwt>
<pdfrwt beam="2">  1       22 0.14343791E+00 0.53601608E+02</pdfrwt>
<totfact> 0.81327979E-01</totfact>
</mgrwt>
</event>
<event>
 4    1  0.2437479E+000  0.5534678E+02  0.7957747E-01  0.1418466E+00
         13   -1    0    0    0    0  0.00000000000E+00  0.00000000000E+00  0.99999944181E+02  0.10000000000E+03  0.10566000000E+00 0.  1.
         22   -1    0    0    0    0 -0.00000000000E+00 -0.00000000000E+00 -0.18420750624E+02  0.18420750624E+02  0.00000000000E+00 0. -1.
         13    1    1    2    0    0  0.14934341654E+02  0.18445368662E+02  0.55396295282E+01  0.24371393991E+02  0.10566000000E+00 0. -1.
        996    1    1    2    0    0 -0.14934341654E+02 -0.18445368662E+02  0.76039564029E+02  0.94049356635E+02  0.50000000000E+02 0.  0.
<mgrwt>
<rscale>  0 0.55346781E+02</rscale>
<asrwt>0</asrwt>
<pdfrwt beam="1">  1       13 0.10000000E+01 0.55346781E+02</pdfrwt>
<pdfrwt beam="2">  1       22 0.18420773E+00 0.55346781E+02</pdfrwt>
<totfact> 0.53020527E-01</totfact>
</mgrwt>
</event>
<event>
 4    1  0.2437479E+000  0.5364583E+02  0.7957747E-01  0.1426614E+00
         13   -1    0    0    0    0  0.00000000000E+00  0.00000000000E+00  0.99999944181E+02  0.10000000000E+03  0.10566000000E+00 0.  1.
         22   -1    0    0    0    0 -0.00000000000E+00 -0.00000000000E+00 -0.13398938220E+02  0.13398938220E+02  0.00000000000E+00 0.  1.
         13    1    1    2    0    0  0.16160921341E+02 -0.10802764022E+02  0.26020041528E+02  0.32479667706E+02  0.10566000000E+00 0. -1.
        996    1    1    2    0    0 -0.16160921341E+02  0.10802764022E+02  0.60580964433E+02  0.80919270515E+02  0.50000000000E+02 0.  0.
<mgrwt>
<rscale>  0 0.53645830E+02</rscale>
<asrwt>0</asrwt>
<pdfrwt beam="1">  1       13 0.10000000E+01 0.53645830E+02</pdfrwt>
<pdfrwt beam="2">  1       22 0.13398962E+00 0.53645830E+02</pdfrwt>
<totfact> 0.90801856E-01</totfact>
</mgrwt>
</event>
<event>
 4    1  0.2437479E+000  0.5186206E+02  0.7957747E-01  0.1435549E+00
         13   -1    0    0    0    0  0.00000000000E+00  0.00000000000E+00  0.99999944175E+02  0.99999999995E+02  0.10566000000E+00 0.  1.
         22   -1    0    0    0    0 -0.00000000000E+00 -0.00000000000E+00 -0.45048949341E+02  0.45048949341E+02  0.00000000000E+00 0. -1.
         13    1    1    2    0    0 -0.13318963005E+02 -0.35039968164E+01 -0.37000284607E+02  0.39480438122E+02  0.10566000000E+00 0. -1.
        996    1    1    2    0    0  0.13318963005E+02  0.35039968164E+01  0.91951279441E+02  0.10556851121E+03  0.50000000000E+02 0.  0.
<mgrwt>
<rscale>  0 0.51862055E+02</rscale>
<asrwt>0</asrwt>
<pdfrwt beam="1">  1       13 0.10000000E+01 0.51862055E+02</pdfrwt>
<pdfrwt beam="2">  1       22 0.45048965E+00 0.51862055E+02</pdfrwt>
<totfact> 0.96366528E-02</totfact>
</mgrwt>
</event>
<event>
 4    1  0.2437479E+000  0.5118601E+02  0.7957747E-01  0.1439048E+00
         13   -1    0    0    0    0  0.00000000000E+00  0.00000000000E+00  0.99999944175E+02  0.99999999995E+02  0.10566000000E+00 0.  1.
         22   -1    0    0    0    0 -0.00000000000E+00 -0.00000000000E+00 -0.13115191620E+02  0.13115191620E+02  0.00000000000E+00 0. -1.
         13    1    1    2    0    0 -0.37081981837E+01 -0.10308086868E+02 -0.14209397407E+01  0.11047063973E+02  0.10566000000E+00 0. -1.
        996    1    1    2    0    0  0.37081981837E+01  0.10308086868E+02  0.88305692295E+02  0.10206812764E+03  0.50000000000E+02 0.  0.
<mgrwt>
<rscale>  0 0.51186008E+02</rscale>
<asrwt>0</asrwt>
<pdfrwt beam="1">  1       13 0.10000000E+01 0.51186008E+02</pdfrwt>
<pdfrwt beam="2">  1       22 0.13115216E+00 0.51186008E+02</pdfrwt>
<totfact> 0.93448494E-01</totfact>
</mgrwt>
</event>
<event>
 4    1  0.2437479E+000  0.5133256E+02  0.7957747E-01  0.1438284E+00
         13   -1    0    0    0    0  0.00000000000E+00  0.00000000000E+00  0.99999944175E+02  0.99999999996E+02  0.10566000000E+00 0. -1.
         22   -1    0    0    0    0 -0.00000000000E+00 -0.00000000000E+00 -0.18179936613E+02  0.18179936613E+02  0.00000000000E+00 0.  1.
         13    1    1    2    0    0  0.22523343470E+01  0.11399939418E+02 -0.84274227984E+01  0.14354938098E+02  0.10566000000E+00 0.  1.
        996    1    1    2    0    0 -0.22523343470E+01 -0.11399939418E+02  0.90247430361E+02  0.10382499851E+03  0.50000000000E+02 0.  0.
<mgrwt>
<rscale>  0 0.51332559E+02</rscale>
<asrwt>0</asrwt>
<pdfrwt beam="1">  1       13 0.10000000E+01 0.51332559E+02</pdfrwt>
<pdfrwt beam="2">  1       22 0.18179959E+00 0.51332559E+02</pdfrwt>
<totfact> 0.53899279E-01</totfact>
</mgrwt>
</event>
<event>
 4    1  0.2437479E+000  0.5431723E+02  0.7957747E-01  0.1423356E+00
         13   -1    0    0    0    0  0.00000000000E+00  0.00000000000E+00  0.99999944183E+02  0.10000000000E+03  0.10566000000E+00 0.  1.
         22   -1    0    0    0    0 -0.00000000000E+00 -0.00000000000E+00 -0.16267573736E+02  0.16267573736E+02  0.00000000000E+00 0. -1.
         13    1    1    2    0    0 -0.37488113401E+01  0.20887985967E+02  0.71821239772E+01  0.22404365938E+02  0.10566000000E+00 0. -1.
        996    1    1    2    0    0  0.37488113401E+01 -0.20887985967E+02  0.76550246470E+02  0.93863207802E+02  0.50000000000E+02 0.  0.
<mgrwt>
<rscale>  0 0.54317231E+02</rscale>
<asrwt>0</asrwt>
<pdfrwt beam="1">  1       13 0.10000000E+01 0.54317231E+02</pdfrwt>
<pdfrwt beam="2">  1       22 0.16267597E+00 0.54317231E+02</pdfrwt>
<totfact> 0.65924792E-01</totfact>
</mgrwt>
</event>
<event>
 4    1  0.2437479E+000  0.5762469E+02  0.7957747E-01  0.1408079E+00
         13   -1    0    0    0    0  0.00000000000E+00  0.00000000000E+00  0.99999944179E+02  0.99999999999E+02  0.10566000000E+00 0.  1.
         22   -1    0    0    0    0 -0.00000000000E+00 -0.00000000000E+00 -0.28682610783E+02  0.28682610783E+02  0.00000000000E+00 0. -1.
         13    1    1    2    0    0 -0.25429240105E+02 -0.13189318241E+02 -0.88241262446E+01  0.29974668239E+02  0.10566000000E+00 0. -1.
        996    1    1    2    0    0  0.25429240105E+02  0.13189318241E+02  0.80141459640E+02  0.98707942544E+02  0.50000000000E+02 0.  0.
<mgrwt>
<rscale>  0 0.57624685E+02</rscale>
<asrwt>0</asrwt>
<pdfrwt beam="1">  1       13 0.10000000E+01 0.57624685E+02</pdfrwt>
<pdfrwt beam="2">  1       22 0.28682631E+00 0.57624685E+02</pdfrwt>
<totfact> 0.22707935E-01</totfact>
</mgrwt>
</event>
<event>
 4    1  0.2437479E+000  0.5110045E+02  0.7957747E-01  0.1439495E+00
         13   -1    0    0    0    0  0.00000000000E+00  0.00000000000E+00  0.99999944180E+02  0.10000000000E+03  0.10566000000E+00 0.  1.
         22   -1    0    0    0    0 -0.00000000000E+00 -0.00000000000E+00 -0.17941120057E+02  0.17941120057E+02  0.00000000000E+00 0. -1.
         13    1    1    2    0    0 -0.81478923304E+01  0.66983418957E+01 -0.87743002265E+01  0.13720621053E+02  0.10566000000E+00 0. -1.
        996    1    1    2    0    0  0.81478923304E+01 -0.66983418957E+01  0.90833124350E+02  0.10422049900E+03  0.50000000000E+02 0.  0.
<mgrwt>
<rscale>  0 0.51100449E+02</rscale>
<asrwt>0</asrwt>
<pdfrwt beam="1">  1       13 0.10000000E+01 0.51100449E+02</pdfrwt>
<pdfrwt beam="2">  1       22 0.17941143E+00 0.51100449E+02</pdfrwt>
<totfact> 0.55169064E-01</totfact>
</mgrwt>
</event>
<event>
 4    1  0.2437479E+000  0.5254473E+02  0.7957747E-01  0.1432080E+00
         13   -1    0    0    0    0  0.00000000000E+00  0.00000000000E+00  0.99999944173E+02  0.99999999993E+02  0.10566000000E+00 0. -1.
         22   -1    0    0    0    0 -0.00000000000E+00 -0.00000000000E+00 -0.16943684297E+02  0.16943684297E+02  0.00000000000E+00 0.  1.
         13    1    1    2    0    0 -0.52762832077E+01  0.15267919667E+02 -0.26917199487E+01  0.16376967234E+02  0.10566000000E+00 0.  1.
        996    1    1    2    0    0  0.52762832077E+01 -0.15267919667E+02  0.85747979825E+02  0.10056671706E+03  0.50000000000E+02 0.  0.
<mgrwt>
<rscale>  0 0.52544729E+02</rscale>
<asrwt>0</asrwt>
<pdfrwt beam="1">  1       13 0.10000000E+01 0.52544729E+02</pdfrwt>
<pdfrwt beam="2">  1       22 0.16943707E+00 0.52544729E+02</pdfrwt>
<totfact> 0.61217069E-01</totfact>
</mgrwt>
</event>
<event>
 4    1  0.2437479E+000  0.5292378E+02  0.7957747E-01  0.1430181E+00
         13   -1    0    0    0    0  0.00000000000E+00  0.00000000000E+00  0.99999944171E+02  0.99999999991E+02  0.10566000000E+00 0. -1.
         22   -1    0    0    0    0 -0.00000000000E+00 -0.00000000000E+00 -0.12451272576E+02  0.12451272576E+02  0.00000000000E+00 0. -1.
         13    1    1    2    0    0 -0.14235120941E+02 -0.99140007327E+01  0.17318092694E+02  0.24512314809E+02  0.10566000000E+00 0.  1.
        996    1    1    2    0    0  0.14235120941E+02  0.99140007327E+01  0.70230578901E+02  0.87938957758E+02  0.50000000000E+02 0.  0.
<mgrwt>
<rscale>  0 0.52923776E+02</rscale>
<asrwt>0</asrwt>
<pdfrwt beam="1">  1       13 0.10000000E+01 0.52923776E+02</pdfrwt>
<pdfrwt beam="2">  1       22 0.12451297E+00 0.52923776E+02</pdfrwt>
<totfact> 0.10175228E+00</totfact>
</mgrwt>
</event>
<event>
 4    1  0.2437479E+000  0.5274038E+02  0.7957747E-01  0.1431097E+00
         13   -1    0    0    0    0  0.00000000000E+00  0.00000000000E+00  0.99999944178E+02  0.99999999998E+02  0.10566000000E+00 0. -1.
         22   -1    0    0    0    0 -0.00000000000E+00 -0.00000000000E+00 -0.17560655055E+02  0.17560655055E+02  0.00000000000E+00 0. -1.
         13    1    1    2    0    0  0.39571399754E+01 -0.16306091883E+02 -0.31054274778E+01  0.17064654498E+02  0.10566000000E+00 0.  1.
        996    1    1    2    0    0 -0.39571399754E+01  0.16306091883E+02  0.85544716601E+02  0.10049600056E+03  0.50000000000E+02 0.  0.
<mgrwt>
<rscale>  0 0.52740379E+02</rscale>
<asrwt>0</asrwt>
<pdfrwt beam="1">  1       13 0.10000000E+01 0.52740379E+02</pdfrwt>
<pdfrwt beam="2">  1       22 0.17560678E+00 0.52740379E+02</pdfrwt>
<totfact> 0.57497363E-01</totfact>
</mgrwt>
</event>
<event>
 4    1  0.2437479E+000  0.5428686E+02  0.7957747E-01  0.1423502E+00
         13   -1    0    0    0    0  0.00000000000E+00  0.00000000000E+00  0.99999944183E+02  0.10000000000E+03  0.10566000000E+00 0.  1.
         22   -1    0    0    0    0 -0.00000000000E+00 -0.00000000000E+00 -0.59965632171E+02  0.59965632171E+02  0.00000000000E+00 0. -1.
         13    1    1    2    0    0  0.17117116078E+02 -0.12412393701E+02 -0.50306079858E+02  0.54569002326E+02  0.10566000000E+00 0. -1.
        996    1    1    2    0    0 -0.17117116078E+02  0.12412393701E+02  0.90340391869E+02  0.10539662985E+03  0.50000000000E+02 0.  0.
<mgrwt>
<rscale>  0 0.54286860E+02</rscale>
<asrwt>0</asrwt>
<pdfrwt beam="1">  1       13 0.10000000E+01 0.54286860E+02</pdfrwt>
<pdfrwt beam="2">  1       22 0.59965643E+00 0.54286860E+02</pdfrwt>
<totfact> 0.63468434E-02</totfact>
</mgrwt>
</event>
<event>
 4    1  0.2437479E+000  0.5191272E+02  0.7957747E-01  0.1435290E+00
         13   -1    0    0    0    0  0.00000000000E+00  0.00000000000E+00  0.99999944190E+02  0.10000000001E+03  0.10566000000E+00 0.  1.
         22   -1    0    0    0    0 -0.00000000000E+00 -0.00000000000E+00 -0.72668755582E+02  0.72668755582E+02  0.00000000000E+00 0. -1.
         13    1    1    2    0    0 -0.67315509510E+01 -0.12231805077E+02 -0.65141496133E+02  0.66620991558E+02  0.10566000000E+00 0. -1.
        996    1    1    2    0    0  0.67315509510E+01  0.12231805077E+02  0.92472684740E+02  0.10604776403E+03  0.50000000000E+02 0.  0.
<mgrwt>
<rscale>  0 0.51912723E+02</rscale>
<asrwt>0</asrwt>
<pdfrwt beam="1">  1       13 0.10000000E+01 0.51912723E+02</pdfrwt>
<pdfrwt beam="2">  1       22 0.72668763E+00 0.51912723E+02</pdfrwt>
<totfact> 0.60496370E-02</totfact>
</mgrwt>
</event>
<event>
 4    1  0.2437479E+000  0.5124810E+02  0.7957747E-01  0.1438724E+00
         13   -1    0    0    0    0  0.00000000000E+00  0.00000000000E+00  0.99999944186E+02  0.10000000001E+03  0.10566000000E+00 0. -1.
         22   -1    0    0    0    0 -0.00000000000E+00 -0.00000000000E+00 -0.21657422253E+02  0.21657422253E+02  0.00000000000E+00 0.  1.
         13    1    1    2    0    0  0.25625672256E+01 -0.10945354955E+02 -0.12836381205E+02  0.17063158921E+02  0.10566000000E+00 0.  1.
        996    1    1    2    0    0 -0.25625672256E+01  0.10945354955E+02  0.91178903138E+02  0.10459426334E+03  0.50000000000E+02 0.  0.
<mgrwt>
<rscale>  0 0.51248098E+02</rscale>
<asrwt>0</asrwt>
<pdfrwt beam="1">  1       13 0.10000000E+01 0.51248098E+02</pdfrwt>
<pdfrwt beam="2">  1       22 0.21657444E+00 0.51248098E+02</pdfrwt>
<totfact> 0.38926231E-01</totfact>
</mgrwt>
</event>
<event>
 4    1  0.2437479E+000  0.5334695E+02  0.7957747E-01  0.1428082E+00
         13   -1    0    0    0    0  0.00000000000E+00  0.00000000000E+00  0.99999944175E+02  0.99999999996E+02  0.10566000000E+00 0.  1.
         22   -1    0    0    0    0 -0.00000000000E+00 -0.00000000000E+00 -0.22721769397E+02  0.22721769397E+02  0.00000000000E+00 0. -1.
         13    1    1    2    0    0  0.17578685485E+02 -0.60734489431E+01 -0.94793369561E+01  0.20875007991E+02  0.10566000000E+00 0. -1.
        996    1    1    2    0    0 -0.17578685485E+02  0.60734489431E+01  0.86757511735E+02  0.10184676140E+03  0.50000000000E+02 0.  0.
<mgrwt>
<rscale>  0 0.53346949E+02</rscale>
<asrwt>0</asrwt>
<pdfrwt beam="1">  1       13 0.10000000E+01 0.53346949E+02</pdfrwt>
<pdfrwt beam="2">  1       22 0.22721791E+00 0.53346949E+02</pdfrwt>
<totfact> 0.35614956E-01</totfact>
</mgrwt>
</event>
<event>
 4    1  0.2437479E+000  0.5368846E+02  0.7957747E-01  0.1426405E+00
         13   -1    0    0    0    0  0.00000000000E+00  0.00000000000E+00  0.99999944176E+02  0.99999999996E+02  0.10566000000E+00 0.  1.
         22   -1    0    0    0    0 -0.00000000000E+00 -0.00000000000E+00 -0.18431985549E+02  0.18431985549E+02  0.00000000000E+00 0. -1.
         13    1    1    2    0    0 -0.63602740241E+01 -0.18493179235E+02 -0.14017103037E+01  0.19606802893E+02  0.10566000000E+00 0. -1.
        996    1    1    2    0    0  0.63602740241E+01  0.18493179235E+02  0.82969668930E+02  0.98825182652E+02  0.50000000000E+02 0.  0.
<mgrwt>
<rscale>  0 0.53688460E+02</rscale>
<asrwt>0</asrwt>
<pdfrwt beam="1">  1       13 0.10000000E+01 0.53688460E+02</pdfrwt>
<pdfrwt beam="2">  1       22 0.18432008E+00 0.53688460E+02</pdfrwt>
<totfact> 0.52806337E-01</totfact>
</mgrwt>
</event>
<event>
 4    1  0.2437479E+000  0.6865024E+02  0.7957747E-01  0.1364744E+00
         13   -1    0    0    0    0  0.00000000000E+00  0.00000000000E+00  0.99999944184E+02  0.10000000000E+03  0.10566000000E+00 0.  1.
         22   -1    0    0    0    0 -0.00000000000E+00 -0.00000000000E+00 -0.57843099365E+02  0.57843099365E+02  0.00000000000E+00 0. -1.
         13    1    1    2    0    0  0.40490141917E+02  0.23945848682E+02 -0.31918751180E+02  0.56847806488E+02  0.10566000000E+00 0. -1.
        996    1    1    2    0    0 -0.40490141917E+02 -0.23945848682E+02  0.74075595999E+02  0.10099529288E+03  0.50000000000E+02 0.  0.
<mgrwt>
<rscale>  0 0.68650239E+02</rscale>
<asrwt>0</asrwt>
<pdfrwt beam="1">  1       13 0.10000000E+01 0.68650239E+02</pdfrwt>
<pdfrwt beam="2">  1       22 0.57843111E+00 0.68650239E+02</pdfrwt>
<totfact> 0.58261797E-02</totfact>
</mgrwt>
</event>
<event>
 4    1  0.2437479E+000  0.6044726E+02  0.7957747E-01  0.1395964E+00
         13   -1    0    0    0    0  0.00000000000E+00  0.00000000000E+00  0.99999944185E+02  0.10000000001E+03  0.10566000000E+00 0.  1.
         22   -1    0    0    0    0 -0.00000000000E+00 -0.00000000000E+00 -0.23394233292E+02  0.23394233292E+02  0.00000000000E+00 0. -1.
         13    1    1    2    0    0 -0.31940199058E+02 -0.11562666670E+02  0.40985623587E+02  0.53232547199E+02  0.10566000000E+00 0. -1.
        996    1    1    2    0    0  0.31940199058E+02  0.11562666670E+02  0.35620087306E+02  0.70161686098E+02  0.50000000000E+02 0.  0.
<mgrwt>
<rscale>  0 0.60447263E+02</rscale>
<asrwt>0</asrwt>
<pdfrwt beam="1">  1       13 0.10000000E+01 0.60447263E+02</pdfrwt>
<pdfrwt beam="2">  1       22 0.23394255E+00 0.60447263E+02</pdfrwt>
<totfact> 0.34008468E-01</totfact>
</mgrwt>
</event>
<event>
 4    1  0.2437479E+000  0.5517640E+02  0.7957747E-01  0.1419267E+00
         13   -1    0    0    0    0  0.00000000000E+00  0.00000000000E+00  0.99999944175E+02  0.99999999995E+02  0.10566000000E+00 0.  1.
         22   -1    0    0    0    0 -0.00000000000E+00 -0.00000000000E+00 -0.15820493309E+02  0.15820493309E+02  0.00000000000E+00 0. -1.
         13    1    1    2    0    0 -0.19979566613E+02 -0.12052075823E+02  0.16907918224E+02  0.28815351401E+02  0.10566000000E+00 0. -1.
        996    1    1    2    0    0  0.19979566613E+02  0.12052075823E+02  0.67271532642E+02  0.87005141904E+02  0.50000000000E+02 0.  0.
<mgrwt>
<rscale>  0 0.55176405E+02</rscale>
<asrwt>0</asrwt>
<pdfrwt beam="1">  1       13 0.10000000E+01 0.55176405E+02</pdfrwt>
<pdfrwt beam="2">  1       22 0.15820517E+00 0.55176405E+02</pdfrwt>
<totfact> 0.69261167E-01</totfact>
</mgrwt>
</event>
<event>
 4    1  0.2437479E+000  0.5582503E+02  0.7957747E-01  0.1416237E+00
         13   -1    0    0    0    0  0.00000000000E+00  0.00000000000E+00  0.99999944183E+02  0.10000000000E+03  0.10566000000E+00 0. -1.
         22   -1    0    0    0    0 -0.00000000000E+00 -0.00000000000E+00 -0.19079538998E+02  0.19079538998E+02  0.00000000000E+00 0. -1.
         13    1    1    2    0    0 -0.20734876038E+01  0.24741360108E+02  0.58165010019E+01  0.25500531343E+02  0.10566000000E+00 0.  1.
        996    1    1    2    0    0  0.20734876038E+01 -0.24741360108E+02  0.75103904183E+02  0.93579007658E+02  0.50000000000E+02 0.  0.
<mgrwt>
<rscale>  0 0.55825032E+02</rscale>
<asrwt>0</asrwt>
<pdfrwt beam="1">  1       13 0.10000000E+01 0.55825032E+02</pdfrwt>
<pdfrwt beam="2">  1       22 0.19079562E+00 0.55825032E+02</pdfrwt>
<totfact> 0.49769005E-01</totfact>
</mgrwt>
</event>
<event>
 4    1  0.2437479E+000  0.6124356E+02  0.7957747E-01  0.1392686E+00
         13   -1    0    0    0    0  0.00000000000E+00  0.00000000000E+00  0.99999944178E+02  0.99999999999E+02  0.10566000000E+00 0.  1.
         22   -1    0    0    0    0 -0.00000000000E+00 -0.00000000000E+00 -0.23614307483E+02  0.23614307483E+02  0.00000000000E+00 0.  1.
         13    1    1    2    0    0 -0.33860978115E+02 -0.10208224009E+02  0.21590143326E+02  0.41435722863E+02  0.10566000000E+00 0. -1.
        996    1    1    2    0    0  0.33860978115E+02  0.10208224009E+02  0.54795493369E+02  0.82178584618E+02  0.50000000000E+02 0.  0.
<mgrwt>
<rscale>  0 0.61243560E+02</rscale>
<asrwt>0</asrwt>
<pdfrwt beam="1">  1       13 0.10000000E+01 0.61243560E+02</pdfrwt>
<pdfrwt beam="2">  1       22 0.23614329E+00 0.61243560E+02</pdfrwt>
<totfact> 0.33426562E-01</totfact>
</mgrwt>
</event>
<event>
 4    1  0.2437479E+000  0.5159168E+02  0.7957747E-01  0.1436941E+00
         13   -1    0    0    0    0  0.00000000000E+00  0.00000000000E+00  0.99999944178E+02  0.99999999998E+02  0.10566000000E+00 0.  1.
         22   -1    0    0    0    0 -0.00000000000E+00 -0.00000000000E+00 -0.11030786123E+02  0.11030786123E+02  0.00000000000E+00 0.  1.
         13    1    1    2    0    0  0.28188121308E+01  0.12399840000E+02  0.30553984292E+02  0.33094695255E+02  0.10566000000E+00 0. -1.
        996    1    1    2    0    0 -0.28188121308E+01 -0.12399840000E+02  0.58415173763E+02  0.77936090867E+02  0.50000000000E+02 0.  0.
<mgrwt>
<rscale>  0 0.51591683E+02</rscale>
<asrwt>0</asrwt>
<pdfrwt beam="1">  1       13 0.10000000E+01 0.51591683E+02</pdfrwt>
<pdfrwt beam="2">  1       22 0.11030811E+00 0.51591683E+02</pdfrwt>
<totfact> 0.12194809E+00</totfact>
</mgrwt>
</event>
<event>
 4    1  0.2437479E+000  0.5254353E+02  0.7957747E-01  0.1432086E+00
         13   -1    0    0    0    0  0.00000000000E+00  0.00000000000E+00  0.99999944174E+02  0.99999999994E+02  0.10566000000E+00 0.  1.
         22   -1    0    0    0    0 -0.00000000000E+00 -0.00000000000E+00 -0.11879048228E+02  0.11879048228E+02  0.00000000000E+00 0.  1.
         13    1    1    2    0    0  0.80580571554E+01 -0.13996088761E+02  0.16932930148E+02  0.23399958828E+02  0.10566000000E+00 0. -1.
        996    1    1    2    0    0 -0.80580571554E+01  0.13996088761E+02  0.71187965797E+02  0.88479089395E+02  0.50000000000E+02 0.  0.
<mgrwt>
<rscale>  0 0.52543532E+02</rscale>
<asrwt>0</asrwt>
<pdfrwt beam="1">  1       13 0.10000000E+01 0.52543532E+02</pdfrwt>
<pdfrwt beam="2">  1       22 0.11879073E+00 0.52543532E+02</pdfrwt>
<totfact> 0.10930467E+00</totfact>
</mgrwt>
</event>
<event>
 4    1  0.2437479E+000  0.5120616E+02  0.7957747E-01  0.1438942E+00
         13   -1    0    0    0    0  0.00000000000E+00  0.00000000000E+00  0.99999944180E+02  0.10000000000E+03  0.10566000000E+00 0.  1.
         22   -1    0    0    0    0 -0.00000000000E+00 -0.00000000000E+00 -0.10393289265E+02  0.10393289265E+02  0.00000000000E+00 0.  1.
         13    1    1    2    0    0  0.41488514695E+01  0.10240022933E+02  0.66216237830E+01  0.12881308308E+02  0.10566000000E+00 0. -1.
        996    1    1    2    0    0 -0.41488514695E+01 -0.10240022933E+02  0.82985031131E+02  0.97511980957E+02  0.50000000000E+02 0.  0.
<mgrwt>
<rscale>  0 0.51206162E+02</rscale>
<asrwt>0</asrwt>
<pdfrwt beam="1">  1       13 0.10000000E+01 0.51206162E+02</pdfrwt>
<pdfrwt beam="2">  1       22 0.10393314E+00 0.51206162E+02</pdfrwt>
<totfact> 0.13302551E+00</totfact>
</mgrwt>
</event>
<event>
 4    1  0.2437479E+000  0.6401535E+02  0.7957747E-01  0.1381714E+00
         13   -1    0    0    0    0  0.00000000000E+00  0.00000000000E+00  0.99999944173E+02  0.99999999993E+02  0.10566000000E+00 0.  1.
         22   -1    0    0    0    0 -0.00000000000E+00 -0.00000000000E+00 -0.29671496777E+02  0.29671496777E+02  0.00000000000E+00 0.  1.
         13    1    1    2    0    0  0.23380659046E+02 -0.32423911853E+02  0.89062956438E+01  0.40954835409E+02  0.10566000000E+00 0. -1.
        996    1    1    2    0    0 -0.23380659046E+02  0.32423911853E+02  0.61422151751E+02  0.88716661361E+02  0.50000000000E+02 0.  0.
<mgrwt>
<rscale>  0 0.64015352E+02</rscale>
<asrwt>0</asrwt>
<pdfrwt beam="1">  1       13 0.10000000E+01 0.64015352E+02</pdfrwt>
<pdfrwt beam="2">  1       22 0.29671516E+00 0.64015352E+02</pdfrwt>
<totfact> 0.21440736E-01</totfact>
</mgrwt>
</event>
<event>
 4    1  0.2437479E+000  0.5141530E+02  0.7957747E-01  0.1437854E+00
         13   -1    0    0    0    0  0.00000000000E+00  0.00000000000E+00  0.99999944185E+02  0.10000000001E+03  0.10566000000E+00 0. -1.
         22   -1    0    0    0    0 -0.00000000000E+00 -0.00000000000E+00 -0.15285673334E+02  0.15285673334E+02  0.00000000000E+00 0.  1.
         13    1    1    2    0    0 -0.77944570255E+01  0.90983172986E+01 -0.40995284737E+01  0.12662947356E+02  0.10566000000E+00 0.  1.
        996    1    1    2    0    0  0.77944570255E+01 -0.90983172986E+01  0.88813799324E+02  0.10262272598E+03  0.50000000000E+02 0.  0.
<mgrwt>
<rscale>  0 0.51415299E+02</rscale>
<asrwt>0</asrwt>
<pdfrwt beam="1">  1       13 0.10000000E+01 0.51415299E+02</pdfrwt>
<pdfrwt beam="2">  1       22 0.15285697E+00 0.51415299E+02</pdfrwt>
<totfact> 0.72868431E-01</totfact>
</mgrwt>
</event>
<event>
 4    1  0.2437479E+000  0.5225554E+02  0.7957747E-01  0.1433542E+00
         13   -1    0    0    0    0  0.00000000000E+00  0.00000000000E+00  0.99999944176E+02  0.99999999996E+02  0.10566000000E+00 0. -1.
         22   -1    0    0    0    0 -0.00000000000E+00 -0.00000000000E+00 -0.13552447153E+02  0.13552447153E+02  0.00000000000E+00 0. -1.
         13    1    1    2    0    0  0.62771857040E+01  0.13828911015E+02  0.36104269354E+01  0.15610515267E+02  0.10566000000E+00 0.  1.
        996    1    1    2    0    0 -0.62771857040E+01 -0.13828911015E+02  0.82837070087E+02  0.97941931882E+02  0.50000000000E+02 0.  0.
<mgrwt>
<rscale>  0 0.52255544E+02</rscale>
<asrwt>0</asrwt>
<pdfrwt beam="1">  1       13 0.10000000E+01 0.52255544E+02</pdfrwt>
<pdfrwt beam="2">  1       22 0.13552471E+00 0.52255544E+02</pdfrwt>
<totfact> 0.88905450E-01</totfact>
</mgrwt>
</event>
<event>
 4    1  0.2437479E+000  0.5452719E+02  0.7957747E-01  0.1422348E+00
         13   -1    0    0    0    0  0.00000000000E+00  0.00000000000E+00  0.99999944188E+02  0.10000000001E+03  0.10566000000E+00 0. -1.
         22   -1    0    0    0    0 -0.00000000000E+00 -0.00000000000E+00 -0.18024312879E+02  0.18024312879E+02  0.00000000000E+00 0.  1.
         13    1    1    2    0    0 -0.52872216223E+01  0.21101187869E+02  0.28636551648E+01  0.21941434021E+02  0.10566000000E+00 0.  1.
        996    1    1    2    0    0  0.52872216223E+01 -0.21101187869E+02  0.79111976143E+02  0.96082878866E+02  0.50000000000E+02 0.  0.
<mgrwt>
<rscale>  0 0.54527194E+02</rscale>
<asrwt>0</asrwt>
<pdfrwt beam="1">  1       13 0.10000000E+01 0.54527194E+02</pdfrwt>
<pdfrwt beam="2">  1       22 0.18024336E+00 0.54527194E+02</pdfrwt>
<totfact> 0.55062954E-01</totfact>
</mgrwt>
</event>
<event>
 4    1  0.2437479E+000  0.5510746E+02  0.7957747E-01  0.1419591E+00
         13   -1    0    0    0    0  0.00000000000E+00  0.00000000000E+00  0.99999944180E+02  0.10000000000E+03  0.10566000000E+00 0.  1.
         22   -1    0    0    0    0 -0.00000000000E+00 -0.00000000000E+00 -0.36276161890E+02  0.36276161890E+02  0.00000000000E+00 0. -1.
         13    1    1    2    0    0 -0.18686076734E+02  0.13699005234E+02 -0.23564829066E+02  0.33047610217E+02  0.10566000000E+00 0. -1.
        996    1    1    2    0    0  0.18686076734E+02 -0.13699005234E+02  0.87288611356E+02  0.10322855167E+03  0.50000000000E+02 0.  0.
<mgrwt>
<rscale>  0 0.55107461E+02</rscale>
<asrwt>0</asrwt>
<pdfrwt beam="1">  1       13 0.10000000E+01 0.55107461E+02</pdfrwt>
<pdfrwt beam="2">  1       22 0.36276180E+00 0.55107461E+02</pdfrwt>
<totfact> 0.14804549E-01</totfact>
</mgrwt>
</event>
<event>
 4    1  0.2437479E+000  0.5360816E+02  0.7957747E-01  0.1426798E+00
         13   -1    0    0    0    0  0.00000000000E+00  0.00000000000E+00  0.99999944180E+02  0.10000000000E+03  0.10566000000E+00 0. -1.
         22   -1    0    0    0    0 -0.00000000000E+00 -0.00000000000E+00 -0.13313121820E+02  0.13313121820E+02  0.00000000000E+00 0. -1.
         13    1    1    2    0    0  0.63047772500E+01 -0.18277992126E+02  0.21535379691E+02  0.28941647410E+02  0.10566000000E+00 0.  1.
        996    1    1    2    0    0 -0.63047772500E+01  0.18277992126E+02  0.65151442669E+02  0.84371474410E+02  0.50000000000E+02 0.  0.
<mgrwt>
<rscale>  0 0.53608164E+02</rscale>
<asrwt>0</asrwt>
<pdfrwt beam="1">  1       13 0.10000000E+01 0.53608164E+02</pdfrwt>
<pdfrwt beam="2">  1       22 0.13313146E+00 0.53608164E+02</pdfrwt>
<totfact> 0.91728617E-01</totfact>
</mgrwt>
</event>
<event>
 4    1  0.2437479E+000  0.5134148E+02  0.7957747E-01  0.1438237E+00
         13   -1    0    0    0    0  0.00000000000E+00  0.00000000000E+00  0.99999944173E+02  0.99999999994E+02  0.10566000000E+00 0. -1.
         22   -1    0    0    0    0 -0.00000000000E+00 -0.00000000000E+00 -0.52438651863E+02  0.52438651863E+02  0.00000000000E+00 0.  1.
         13    1    1    2    0    0  0.71595241958E+01 -0.92026670680E+01 -0.45057394414E+02  0.46541678346E+02  0.10566000000E+00 0.  1.
        996    1    1    2    0    0 -0.71595241958E+01  0.92026670680E+01  0.92618686725E+02  0.10589697351E+03  0.50000000000E+02 0.  0.
<mgrwt>
<rscale>  0 0.51341483E+02</rscale>
<asrwt>0</asrwt>
<pdfrwt beam="1">  1       13 0.10000000E+01 0.51341483E+02</pdfrwt>
<pdfrwt beam="2">  1       22 0.52438665E+00 0.51341483E+02</pdfrwt>
<totfact> 0.64857529E-02</totfact>
</mgrwt>
</event>
<event>
 4    1  0.2437479E+000  0.5241713E+02  0.7957747E-01  0.1432724E+00
         13   -1    0    0    0    0  0.00000000000E+00  0.00000000000E+00  0.99999944176E+02  0.99999999996E+02  0.10566000000E+00 0.  1.
         22   -1    0    0    0    0 -0.00000000000E+00 -0.00000000000E+00 -0.11675564212E+02  0.11675564212E+02  0.00000000000E+00 0.  1.
         13    1    1    2    0    0 -0.13221807752E+02 -0.85287374441E+01  0.17032372069E+02  0.23187678301E+02  0.10566000000E+00 0. -1.
        996    1    1    2    0    0  0.13221807752E+02  0.85287374441E+01  0.71292007895E+02  0.88487885907E+02  0.50000000000E+02 0.  0.
<mgrwt>
<rscale>  0 0.52417130E+02</rscale>
<asrwt>0</asrwt>
<pdfrwt beam="1">  1       13 0.10000000E+01 0.52417130E+02</pdfrwt>
<pdfrwt beam="2">  1       22 0.11675589E+00 0.52417130E+02</pdfrwt>
<totfact> 0.11218368E+00</totfact>
</mgrwt>
</event>
<event>
 4    1  0.2437479E+000  0.5651795E+02  0.7957747E-01  0.1413054E+00
         13   -1    0    0    0    0  0.00000000000E+00  0.00000000000E+00  0.99999944178E+02  0.99999999998E+02  0.10566000000E+00 0.  1.
         22   -1    0    0    0    0 -0.00000000000E+00 -0.00000000000E+00 -0.53655488389E+02  0.53655488389E+02  0.00000000000E+00 0. -1.
         13    1    1    2    0    0 -0.12705765547E+02  0.23083383148E+02 -0.41524794138E+02  0.49179251193E+02  0.10566000000E+00 0. -1.
        996    1    1    2    0    0  0.12705765547E+02 -0.23083383148E+02  0.87869249926E+02  0.10447623719E+03  0.50000000000E+02 0.  0.
<mgrwt>
<rscale>  0 0.56517953E+02</rscale>
<asrwt>0</asrwt>
<pdfrwt beam="1">  1       13 0.10000000E+01 0.56517953E+02</pdfrwt>
<pdfrwt beam="2">  1       22 0.53655501E+00 0.56517953E+02</pdfrwt>
<totfact> 0.61483905E-02</totfact>
</mgrwt>
</event>
<event>
 4    1  0.2437479E+000  0.5234369E+02  0.7957747E-01  0.1433095E+00
         13   -1    0    0    0    0  0.00000000000E+00  0.00000000000E+00  0.99999944177E+02  0.99999999997E+02  0.10566000000E+00 0. -1.
         22   -1    0    0    0    0 -0.00000000000E+00 -0.00000000000E+00 -0.63310883583E+02  0.63310883583E+02  0.00000000000E+00 0.  1.
         13    1    1    2    0    0  0.81692338479E+01 -0.13157736020E+02 -0.55324121514E+02  0.57451126918E+02  0.10566000000E+00 0.  1.
        996    1    1    2    0    0 -0.81692338479E+01  0.13157736020E+02  0.92013182108E+02  0.10585975666E+03  0.50000000000E+02 0.  0.
<mgrwt>
<rscale>  0 0.52343695E+02</rscale>
<asrwt>0</asrwt>
<pdfrwt beam="1">  1       13 0.10000000E+01 0.52343695E+02</pdfrwt>
<pdfrwt beam="2">  1       22 0.63310894E+00 0.52343695E+02</pdfrwt>
<totfact> 0.80360092E-02</totfact>
</mgrwt>
</event>
<event>
 4    1  0.2437479E+000  0.5184747E+02  0.7957747E-01  0.1435624E+00
         13   -1    0    0    0    0  0.00000000000E+00  0.00000000000E+00  0.99999944180E+02  0.10000000000E+03  0.10566000000E+00 0. -1.
         22   -1    0    0    0    0 -0.00000000000E+00 -0.00000000000E+00 -0.24806010379E+02  0.24806010379E+02  0.00000000000E+00 0.  1.
         13    1    1    2    0    0  0.46449563312E-01  0.13717062884E+02 -0.15276838173E+02  0.20531753952E+02  0.10566000000E+00 0.  1.
        996    1    1    2    0    0 -0.46449563312E-01 -0.13717062884E+02  0.90470771974E+02  0.10427425643E+03  0.50000000000E+02 0.  0.
<mgrwt>
<rscale>  0 0.51847468E+02</rscale>
<asrwt>0</asrwt>
<pdfrwt beam="1">  1       13 0.10000000E+01 0.51847468E+02</pdfrwt>
<pdfrwt beam="2">  1       22 0.24806031E+00 0.51847468E+02</pdfrwt>
<totfact> 0.29927210E-01</totfact>
</mgrwt>
</event>
<event>
 4    1  0.2437479E+000  0.5513247E+02  0.7957747E-01  0.1419473E+00
         13   -1    0    0    0    0  0.00000000000E+00  0.00000000000E+00  0.99999944177E+02  0.99999999997E+02  0.10566000000E+00 0.  1.
         22   -1    0    0    0    0 -0.00000000000E+00 -0.00000000000E+00 -0.15397608376E+02  0.15397608376E+02  0.00000000000E+00 0.  1.
         13    1    1    2    0    0 -0.14079240459E+02  0.18476054874E+02  0.28018834383E+02  0.36395822011E+02  0.10566000000E+00 0. -1.
        996    1    1    2    0    0  0.14079240459E+02 -0.18476054874E+02  0.56583501418E+02  0.79001786362E+02  0.50000000000E+02 0.  0.
<mgrwt>
<rscale>  0 0.55132473E+02</rscale>
<asrwt>0</asrwt>
<pdfrwt beam="1">  1       13 0.10000000E+01 0.55132473E+02</pdfrwt>
<pdfrwt beam="2">  1       22 0.15397632E+00 0.55132473E+02</pdfrwt>
<totfact> 0.72509829E-01</totfact>
</mgrwt>
</event>
<event>
 4    1  0.2437479E+000  0.5232655E+02  0.7957747E-01  0.1433182E+00
         13   -1    0    0    0    0  0.00000000000E+00  0.00000000000E+00  0.99999944182E+02  0.10000000000E+03  0.10566000000E+00 0. -1.
         22   -1    0    0    0    0 -0.00000000000E+00 -0.00000000000E+00 -0.12110329212E+02  0.12110329212E+02  0.00000000000E+00 0. -1.
         13    1    1    2    0    0  0.94972441778E+01  0.12160193223E+02  0.10398604470E+02  0.18606721505E+02  0.10566000000E+00 0.  1.
        996    1    1    2    0    0 -0.94972441778E+01 -0.12160193223E+02  0.77491010500E+02  0.93503607709E+02  0.50000000000E+02 0.  0.
<mgrwt>
<rscale>  0 0.52326551E+02</rscale>
<asrwt>0</asrwt>
<pdfrwt beam="1">  1       13 0.10000000E+01 0.52326551E+02</pdfrwt>
<pdfrwt beam="2">  1       22 0.12110354E+00 0.52326551E+02</pdfrwt>
<totfact> 0.10607200E+00</totfact>
</mgrwt>
</event>
<event>
 4    1  0.2437479E+000  0.5963426E+02  0.7957747E-01  0.1399373E+00
         13   -1    0    0    0    0  0.00000000000E+00  0.00000000000E+00  0.99999944186E+02  0.10000000001E+03  0.10566000000E+00 0. -1.
         22   -1    0    0    0    0 -0.00000000000E+00 -0.00000000000E+00 -0.21816737137E+02  0.21816737137E+02  0.00000000000E+00 0.  1.
         13    1    1    2    0    0  0.15793005699E+02  0.28404675442E+02  0.18268501181E+02  0.37282622164E+02  0.10566000000E+00 0.  1.
        996    1    1    2    0    0 -0.15793005699E+02 -0.28404675442E+02  0.59914705869E+02  0.84534114979E+02  0.50000000000E+02 0.  0.
<mgrwt>
<rscale>  0 0.59634257E+02</rscale>
<asrwt>0</asrwt>
<pdfrwt beam="1">  1       13 0.10000000E+01 0.59634257E+02</pdfrwt>
<pdfrwt beam="2">  1       22 0.21816759E+00 0.59634257E+02</pdfrwt>
<totfact> 0.38902988E-01</totfact>
</mgrwt>
</event>
<event>
 4    1  0.2437479E+000  0.5312587E+02  0.7957747E-01  0.1429175E+00
         13   -1    0    0    0    0  0.00000000000E+00  0.00000000000E+00  0.99999944185E+02  0.10000000001E+03  0.10566000000E+00 0. -1.
         22   -1    0    0    0    0 -0.00000000000E+00 -0.00000000000E+00 -0.47668351577E+02  0.47668351577E+02  0.00000000000E+00 0.  1.
         13    1    1    2    0    0  0.11662951427E+00  0.17953942416E+02 -0.38477663904E+02  0.42460563283E+02  0.10566000000E+00 0.  1.
        996    1    1    2    0    0 -0.11662951427E+00 -0.17953942416E+02  0.90809256512E+02  0.10520778830E+03  0.50000000000E+02 0.  0.
<mgrwt>
<rscale>  0 0.53125866E+02</rscale>
<asrwt>0</asrwt>
<pdfrwt beam="1">  1       13 0.10000000E+01 0.53125866E+02</pdfrwt>
<pdfrwt beam="2">  1       22 0.47668366E+00 0.53125866E+02</pdfrwt>
<totfact> 0.83815755E-02</totfact>
</mgrwt>
</event>
<event>
 4    1  0.2437479E+000  0.5120490E+02  0.7957747E-01  0.1438949E+00
         13   -1    0    0    0    0  0.00000000000E+00  0.00000000000E+00  0.99999944183E+02  0.10000000000E+03  0.10566000000E+00 0.  1.
         22   -1    0    0    0    0 -0.00000000000E+00 -0.00000000000E+00 -0.10776670332E+02  0.10776670332E+02  0.00000000000E+00 0.  1.
         13    1    1    2    0    0 -0.44575044630E+01  0.10103093413E+02  0.48061997634E+01  0.12043776931E+02  0.10566000000E+00 0. -1.
        996    1    1    2    0    0  0.44575044630E+01 -0.10103093413E+02  0.84417074088E+02  0.98732893405E+02  0.50000000000E+02 0.  0.
<mgrwt>
<rscale>  0 0.51204901E+02</rscale>
<asrwt>0</asrwt>
<pdfrwt beam="1">  1       13 0.10000000E+01 0.51204901E+02</pdfrwt>
<pdfrwt beam="2">  1       22 0.10776695E+00 0.51204901E+02</pdfrwt>
<totfact> 0.12612383E+00</totfact>
</mgrwt>
</event>
<event>
 4    1  0.2437479E+000  0.5814599E+02  0.7957747E-01  0.1405781E+00
         13   -1    0    0    0    0  0.00000000000E+00  0.00000000000E+00  0.99999944182E+02  0.10000000000E+03  0.10566000000E+00 0. -1.
         22   -1    0    0    0    0 -0.00000000000E+00 -0.00000000000E+00 -0.19297374115E+02  0.19297374115E+02  0.00000000000E+00 0. -1.
         13    1    1    2    0    0 -0.25194309672E+02 -0.15690837928E+02  0.25794808811E+02  0.39323516633E+02  0.10566000000E+00 0.  1.
        996    1    1    2    0    0  0.25194309672E+02  0.15690837928E+02  0.54907761256E+02  0.79973857484E+02  0.50000000000E+02 0.  0.
<mgrwt>
<rscale>  0 0.58145986E+02</rscale>
<asrwt>0</asrwt>
<pdfrwt beam="1">  1       13 0.10000000E+01 0.58145986E+02</pdfrwt>
<pdfrwt beam="2">  1       22 0.19297397E+00 0.58145986E+02</pdfrwt>
<totfact> 0.48927262E-01</totfact>
</mgrwt>
</event>
<event>
 4    1  0.2437479E+000  0.5450086E+02  0.7957747E-01  0.1422474E+00
         13   -1    0    0    0    0  0.00000000000E+00  0.00000000000E+00  0.99999944178E+02  0.99999999998E+02  0.10566000000E+00 0.  1.
         22   -1    0    0    0    0 -0.00000000000E+00 -0.00000000000E+00 -0.26115715870E+02  0.26115715870E+02  0.00000000000E+00 0. -1.
         13    1    1    2    0    0 -0.16319743516E+02 -0.14283193000E+02 -0.11706887460E+02  0.24645608305E+02  0.10566000000E+00 0. -1.
        996    1    1    2    0    0  0.16319743516E+02  0.14283193000E+02  0.85591115768E+02  0.10147010756E+03  0.50000000000E+02 0.  0.
<mgrwt>
<rscale>  0 0.54500859E+02</rscale>
<asrwt>0</asrwt>
<pdfrwt beam="1">  1       13 0.10000000E+01 0.54500859E+02</pdfrwt>
<pdfrwt beam="2">  1       22 0.26115737E+00 0.54500859E+02</pdfrwt>
<totfact> 0.27152949E-01</totfact>
</mgrwt>
</event>
<event>
 4    1  0.2437479E+000  0.5329768E+02  0.7957747E-01  0.1428325E+00
         13   -1    0    0    0    0  0.00000000000E+00  0.00000000000E+00  0.99999944179E+02  0.10000000000E+03  0.10566000000E+00 0.  1.
         22   -1    0    0    0    0 -0.00000000000E+00 -0.00000000000E+00 -0.21738309647E+02  0.21738309647E+02  0.00000000000E+00 0.  1.
         13    1    1    2    0    0  0.16904254323E+02 -0.74087101828E+01 -0.81784754060E+01  0.20187655257E+02  0.10566000000E+00 0. -1.
        996    1    1    2    0    0 -0.16904254323E+02  0.74087101828E+01  0.86440109938E+02  0.10155065439E+03  0.50000000000E+02 0.  0.
<mgrwt>
<rscale>  0 0.53297681E+02</rscale>
<asrwt>0</asrwt>
<pdfrwt beam="1">  1       13 0.10000000E+01 0.53297681E+02</pdfrwt>
<pdfrwt beam="2">  1       22 0.21738332E+00 0.53297681E+02</pdfrwt>
<totfact> 0.38784984E-01</totfact>
</mgrwt>
</event>
<event>
 4    1  0.2437479E+000  0.5181317E+02  0.7957747E-01  0.1435800E+00
         13   -1    0    0    0    0  0.00000000000E+00  0.00000000000E+00  0.99999944168E+02  0.99999999988E+02  0.10566000000E+00 0. -1.
         22   -1    0    0    0    0 -0.00000000000E+00 -0.00000000000E+00 -0.48304916613E+02  0.48304916613E+02  0.00000000000E+00 0.  1.
         13    1    1    2    0    0 -0.11499316627E+02  0.72367055832E+01 -0.40406325355E+02  0.42629643247E+02  0.10566000000E+00 0.  1.
        996    1    1    2    0    0  0.11499316627E+02 -0.72367055832E+01  0.92101352910E+02  0.10567527335E+03  0.50000000000E+02 0.  0.
<mgrwt>
<rscale>  0 0.51813166E+02</rscale>
<asrwt>0</asrwt>
<pdfrwt beam="1">  1       13 0.10000000E+01 0.51813166E+02</pdfrwt>
<pdfrwt beam="2">  1       22 0.48304931E+00 0.51813166E+02</pdfrwt>
<totfact> 0.80876844E-02</totfact>
</mgrwt>
</event>
<event>
 4    1  0.2437479E+000  0.6926290E+02  0.7957747E-01  0.1362618E+00
         13   -1    0    0    0    0  0.00000000000E+00  0.00000000000E+00  0.99999944175E+02  0.99999999995E+02  0.10566000000E+00 0.  1.
         22   -1    0    0    0    0 -0.00000000000E+00 -0.00000000000E+00 -0.67116258861E+02  0.67116258861E+02  0.00000000000E+00 0. -1.
         13    1    1    2    0    0 -0.31739724360E+02 -0.35915726432E+02 -0.42988027768E+02  0.64384246544E+02  0.10566000000E+00 0. -1.
        996    1    1    2    0    0  0.31739724360E+02  0.35915726432E+02  0.75871713083E+02  0.10273201231E+03  0.50000000000E+02 0.  0.
<mgrwt>
<rscale>  0 0.69262901E+02</rscale>
<asrwt>0</asrwt>
<pdfrwt beam="1">  1       13 0.10000000E+01 0.69262901E+02</pdfrwt>
<pdfrwt beam="2">  1       22 0.67116268E+00 0.69262901E+02</pdfrwt>
<totfact> 0.86021002E-02</totfact>
</mgrwt>
</event>
<event>
 4    1  0.2437479E+000  0.5220788E+02  0.7957747E-01  0.1433784E+00
         13   -1    0    0    0    0  0.00000000000E+00  0.00000000000E+00  0.99999944190E+02  0.10000000001E+03  0.10566000000E+00 0.  1.
         22   -1    0    0    0    0 -0.00000000000E+00 -0.00000000000E+00 -0.20983205450E+02  0.20983205450E+02  0.00000000000E+00 0. -1.
         13    1    1    2    0    0  0.92249813211E+01 -0.11855921224E+02 -0.98157370097E+01  0.17944999457E+02  0.10566000000E+00 0. -1.
        996    1    1    2    0    0 -0.92249813211E+01  0.11855921224E+02  0.88832475749E+02  0.10303820600E+03  0.50000000000E+02 0.  0.
<mgrwt>
<rscale>  0 0.52207884E+02</rscale>
<asrwt>0</asrwt>
<pdfrwt beam="1">  1       13 0.10000000E+01 0.52207884E+02</pdfrwt>
<pdfrwt beam="2">  1       22 0.20983228E+00 0.52207884E+02</pdfrwt>
<totfact> 0.41412539E-01</totfact>
</mgrwt>
</event>
<event>
 4    1  0.2437479E+000  0.5486025E+02  0.7957747E-01  0.1420761E+00
         13   -1    0    0    0    0  0.00000000000E+00  0.00000000000E+00  0.99999944180E+02  0.10000000000E+03  0.10566000000E+00 0. -1.
         22   -1    0    0    0    0 -0.00000000000E+00 -0.00000000000E+00 -0.42206388250E+02  0.42206388250E+02  0.00000000000E+00 0.  1.
         13    1    1    2    0    0 -0.14477041672E+02  0.17322304610E+02 -0.30688144572E+02  0.38097511125E+02  0.10566000000E+00 0.  1.
        996    1    1    2    0    0  0.14477041672E+02 -0.17322304610E+02  0.88481700502E+02  0.10410887713E+03  0.50000000000E+02 0.  0.
<mgrwt>
<rscale>  0 0.54860249E+02</rscale>
<asrwt>0</asrwt>
<pdfrwt beam="1">  1       13 0.10000000E+01 0.54860249E+02</pdfrwt>
<pdfrwt beam="2">  1       22 0.42206404E+00 0.54860249E+02</pdfrwt>
<totfact> 0.11144215E-01</totfact>
</mgrwt>
</event>
<event>
 4    1  0.2437479E+000  0.5151473E+02  0.7957747E-01  0.1437339E+00
         13   -1    0    0    0    0  0.00000000000E+00  0.00000000000E+00  0.99999944173E+02  0.99999999993E+02  0.10566000000E+00 0.  1.
         22   -1    0    0    0    0 -0.00000000000E+00 -0.00000000000E+00 -0.22760737662E+02  0.22760737662E+02  0.00000000000E+00 0. -1.
         13    1    1    2    0    0 -0.86342173037E+01  0.89004172814E+01 -0.13554205544E+02  0.18371031223E+02  0.10566000000E+00 0. -1.
        996    1    1    2    0    0  0.86342173037E+01 -0.89004172814E+01  0.90793412055E+02  0.10438970643E+03  0.50000000000E+02 0.  0.
<mgrwt>
<rscale>  0 0.51514727E+02</rscale>
<asrwt>0</asrwt>
<pdfrwt beam="1">  1       13 0.10000000E+01 0.51514727E+02</pdfrwt>
<pdfrwt beam="2">  1       22 0.22760759E+00 0.51514727E+02</pdfrwt>
<totfact> 0.35389104E-01</totfact>
</mgrwt>
</event>
<event>
 4    1  0.2437479E+000  0.5129354E+02  0.7957747E-01  0.1438487E+00
         13   -1    0    0    0    0  0.00000000000E+00  0.00000000000E+00  0.99999944174E+02  0.99999999994E+02  0.10566000000E+00 0. -1.
         22   -1    0    0    0    0 -0.00000000000E+00 -0.00000000000E+00 -0.14707336862E+02  0.14707336862E+02  0.00000000000E+00 0. -1.
         13    1    1    2    0    0  0.96198874722E+00 -0.11406208884E+02 -0.36662120364E+01  0.12019954168E+02  0.10566000000E+00 0.  1.
        996    1    1    2    0    0 -0.96198874722E+00  0.11406208884E+02  0.88958819348E+02  0.10268738269E+03  0.50000000000E+02 0.  0.
<mgrwt>
<rscale>  0 0.51293538E+02</rscale>
<asrwt>0</asrwt>
<pdfrwt beam="1">  1       13 0.10000000E+01 0.51293538E+02</pdfrwt>
<pdfrwt beam="2">  1       22 0.14707361E+00 0.51293538E+02</pdfrwt>
<totfact> 0.77679695E-01</totfact>
</mgrwt>
</event>
<event>
 4    1  0.2437479E+000  0.5143706E+02  0.7957747E-01  0.1437741E+00
         13   -1    0    0    0    0  0.00000000000E+00  0.00000000000E+00  0.99999944174E+02  0.99999999994E+02  0.10566000000E+00 0. -1.
         22   -1    0    0    0    0 -0.00000000000E+00 -0.00000000000E+00 -0.30752545409E+02  0.30752545409E+02  0.00000000000E+00 0.  1.
         13    1    1    2    0    0  0.98725740531E+01 -0.69500688114E+01 -0.22520034368E+02  0.25552578869E+02  0.10566000000E+00 0.  1.
        996    1    1    2    0    0 -0.98725740531E+01  0.69500688114E+01  0.91767433132E+02  0.10519996653E+03  0.50000000000E+02 0.  0.
<mgrwt>
<rscale>  0 0.51437060E+02</rscale>
<asrwt>0</asrwt>
<pdfrwt beam="1">  1       13 0.10000000E+01 0.51437060E+02</pdfrwt>
<pdfrwt beam="2">  1       22 0.30752565E+00 0.51437060E+02</pdfrwt>
<totfact> 0.19760113E-01</totfact>
</mgrwt>
</event>
<event>
 4    1  0.2437479E+000  0.5130796E+02  0.7957747E-01  0.1438412E+00
         13   -1    0    0    0    0  0.00000000000E+00  0.00000000000E+00  0.99999944178E+02  0.99999999998E+02  0.10566000000E+00 0.  1.
         22   -1    0    0    0    0 -0.00000000000E+00 -0.00000000000E+00 -0.98809463843E+01  0.98809463843E+01  0.00000000000E+00 0.  1.
         13    1    1    2    0    0 -0.88167837124E+01  0.74007691883E+01  0.14889482692E+02  0.18820598250E+02  0.10566000000E+00 0. -1.
        996    1    1    2    0    0  0.88167837124E+01 -0.74007691883E+01  0.75229515101E+02  0.91060348133E+02  0.50000000000E+02 0.  0.
<mgrwt>
<rscale>  0 0.51307963E+02</rscale>
<asrwt>0</asrwt>
<pdfrwt beam="1">  1       13 0.10000000E+01 0.51307963E+02</pdfrwt>
<pdfrwt beam="2">  1       22 0.98809715E-01 0.51307963E+02</pdfrwt>
<totfact> 0.14320146E+00</totfact>
</mgrwt>
</event>
<event>
 4    1  0.2437479E+000  0.5281342E+02  0.7957747E-01  0.1430732E+00
         13   -1    0    0    0    0  0.00000000000E+00  0.00000000000E+00  0.99999944177E+02  0.99999999997E+02  0.10566000000E+00 0. -1.
         22   -1    0    0    0    0 -0.00000000000E+00 -0.00000000000E+00 -0.12188330764E+02  0.12188330764E+02  0.00000000000E+00 0. -1.
         13    1    1    2    0    0 -0.84038782831E+01 -0.14786217954E+02  0.21785260880E+02  0.27638128866E+02  0.10566000000E+00 0.  1.
        996    1    1    2    0    0  0.84038782831E+01  0.14786217954E+02  0.66026352534E+02  0.84550201895E+02  0.50000000000E+02 0.  0.
<mgrwt>
<rscale>  0 0.52813421E+02</rscale>
<asrwt>0</asrwt>
<pdfrwt beam="1">  1       13 0.10000000E+01 0.52813421E+02</pdfrwt>
<pdfrwt beam="2">  1       22 0.12188355E+00 0.52813421E+02</pdfrwt>
<totfact> 0.10514169E+00</totfact>
</mgrwt>
</event>
<event>
 4    1  0.2437479E+000  0.5367092E+02  0.7957747E-01  0.1426491E+00
         13   -1    0    0    0    0  0.00000000000E+00  0.00000000000E+00  0.99999944172E+02  0.99999999993E+02  0.10566000000E+00 0.  1.
         22   -1    0    0    0    0 -0.00000000000E+00 -0.00000000000E+00 -0.15491849132E+02  0.15491849132E+02  0.00000000000E+00 0.  1.
         13    1    1    2    0    0 -0.15801784355E+02 -0.11439901168E+02  0.60354793531E+01  0.20420722382E+02  0.10566000000E+00 0. -1.
        996    1    1    2    0    0  0.15801784355E+02  0.11439901168E+02  0.78472615687E+02  0.95071126743E+02  0.50000000000E+02 0.  0.
<mgrwt>
<rscale>  0 0.53670921E+02</rscale>
<asrwt>0</asrwt>
<pdfrwt beam="1">  1       13 0.10000000E+01 0.53670921E+02</pdfrwt>
<pdfrwt beam="2">  1       22 0.15491873E+00 0.53670921E+02</pdfrwt>
<totfact> 0.71566102E-01</totfact>
</mgrwt>
</event>
<event>
 4    1  0.2437479E+000  0.5155785E+02  0.7957747E-01  0.1437116E+00
         13   -1    0    0    0    0  0.00000000000E+00  0.00000000000E+00  0.99999944183E+02  0.10000000000E+03  0.10566000000E+00 0.  1.
         22   -1    0    0    0    0 -0.00000000000E+00 -0.00000000000E+00 -0.11152243911E+02  0.11152243911E+02  0.00000000000E+00 0.  1.
         13    1    1    2    0    0 -0.11964402435E+02  0.38813391378E+01  0.32122119446E+02  0.34497151200E+02  0.10566000000E+00 0. -1.
        996    1    1    2    0    0  0.11964402435E+02 -0.38813391378E+01  0.56725580826E+02  0.76655092715E+02  0.50000000000E+02 0.  0.
<mgrwt>
<rscale>  0 0.51557848E+02</rscale>
<asrwt>0</asrwt>
<pdfrwt beam="1">  1       13 0.10000000E+01 0.51557848E+02</pdfrwt>
<pdfrwt beam="2">  1       22 0.11152269E+00 0.51557848E+02</pdfrwt>
<totfact> 0.11996335E+00</totfact>
</mgrwt>
</event>
<event>
 4    1  0.2437479E+000  0.5138394E+02  0.7957747E-01  0.1438017E+00
         13   -1    0    0    0    0  0.00000000000E+00  0.00000000000E+00  0.99999944181E+02  0.10000000000E+03  0.10566000000E+00 0. -1.
         22   -1    0    0    0    0 -0.00000000000E+00 -0.00000000000E+00 -0.12325185399E+02  0.12325185399E+02  0.00000000000E+00 0. -1.
         13    1    1    2    0    0  0.36937404533E+01  0.11254561205E+02  0.14273787520E+01  0.11931363736E+02  0.10566000000E+00 0.  1.
        996    1    1    2    0    0 -0.36937404533E+01 -0.11254561205E+02  0.86247380029E+02  0.10039382166E+03  0.50000000000E+02 0.  0.
<mgrwt>
<rscale>  0 0.51383936E+02</rscale>
<asrwt>0</asrwt>
<pdfrwt beam="1">  1       13 0.10000000E+01 0.51383936E+02</pdfrwt>
<pdfrwt beam="2">  1       22 0.12325210E+00 0.51383936E+02</pdfrwt>
<totfact> 0.10301940E+00</totfact>
</mgrwt>
</event>
<event>
 4    1  0.2437479E+000  0.5135884E+02  0.7957747E-01  0.1438147E+00
         13   -1    0    0    0    0  0.00000000000E+00  0.00000000000E+00  0.99999944177E+02  0.99999999997E+02  0.10566000000E+00 0.  1.
         22   -1    0    0    0    0 -0.00000000000E+00 -0.00000000000E+00 -0.21646580535E+02  0.21646580535E+02  0.00000000000E+00 0. -1.
         13    1    1    2    0    0  0.81682277114E+01 -0.84267982030E+01 -0.12584538738E+02  0.17207924081E+02  0.10566000000E+00 0. -1.
        996    1    1    2    0    0 -0.81682277114E+01  0.84267982030E+01  0.90937902380E+02  0.10443865645E+03  0.50000000000E+02 0.  0.
<mgrwt>
<rscale>  0 0.51358844E+02</rscale>
<asrwt>0</asrwt>
<pdfrwt beam="1">  1       13 0.10000000E+01 0.51358844E+02</pdfrwt>
<pdfrwt beam="2">  1       22 0.21646602E+00 0.51358844E+02</pdfrwt>
<totfact> 0.38971073E-01</totfact>
</mgrwt>
</event>
<event>
 4    1  0.2437479E+000  0.5297540E+02  0.7957747E-01  0.1429923E+00
         13   -1    0    0    0    0  0.00000000000E+00  0.00000000000E+00  0.99999944182E+02  0.10000000000E+03  0.10566000000E+00 0.  1.
         22   -1    0    0    0    0 -0.00000000000E+00 -0.00000000000E+00 -0.12432501691E+02  0.12432501691E+02  0.00000000000E+00 0.  1.
         13    1    1    2    0    0  0.17494793019E+02 -0.57065413456E+00  0.20141923450E+02  0.26685233243E+02  0.10566000000E+00 0. -1.
        996    1    1    2    0    0 -0.17494793019E+02  0.57065413456E+00  0.67425519041E+02  0.85747268451E+02  0.50000000000E+02 0.  0.
<mgrwt>
<rscale>  0 0.52975404E+02</rscale>
<asrwt>0</asrwt>
<pdfrwt beam="1">  1       13 0.10000000E+01 0.52975404E+02</pdfrwt>
<pdfrwt beam="2">  1       22 0.12432526E+00 0.52975404E+02</pdfrwt>
<totfact> 0.10200216E+00</totfact>
</mgrwt>
</event>
<event>
 4    1  0.2437479E+000  0.5271702E+02  0.7957747E-01  0.1431214E+00
         13   -1    0    0    0    0  0.00000000000E+00  0.00000000000E+00  0.99999944176E+02  0.99999999996E+02  0.10566000000E+00 0. -1.
         22   -1    0    0    0    0 -0.00000000000E+00 -0.00000000000E+00 -0.12969837652E+02  0.12969837652E+02  0.00000000000E+00 0. -1.
         13    1    1    2    0    0  0.16504574067E+02  0.25852950112E+01  0.95106712083E+01  0.19223650702E+02  0.10566000000E+00 0.  1.
        996    1    1    2    0    0 -0.16504574067E+02 -0.25852950112E+01  0.77519435315E+02  0.93746186947E+02  0.50000000000E+02 0.  0.
<mgrwt>
<rscale>  0 0.52717025E+02</rscale>
<asrwt>0</asrwt>
<pdfrwt beam="1">  1       13 0.10000000E+01 0.52717025E+02</pdfrwt>
<pdfrwt beam="2">  1       22 0.12969862E+00 0.52717025E+02</pdfrwt>
<totfact> 0.95421479E-01</totfact>
</mgrwt>
</event>
<event>
 4    1  0.2437479E+000  0.5276819E+02  0.7957747E-01  0.1430958E+00
         13   -1    0    0    0    0  0.00000000000E+00  0.00000000000E+00  0.99999944179E+02  0.10000000000E+03  0.10566000000E+00 0.  1.
         22   -1    0    0    0    0 -0.00000000000E+00 -0.00000000000E+00 -0.15374366849E+02  0.15374366849E+02  0.00000000000E+00 0.  1.
         13    1    1    2    0    0  0.16732723951E+02  0.21207625151E+01  0.15251322749E+01  0.16935727825E+02  0.10566000000E+00 0. -1.
        996    1    1    2    0    0 -0.16732723951E+02 -0.21207625151E+01  0.83100445055E+02  0.98438639024E+02  0.50000000000E+02 0.  0.
<mgrwt>
<rscale>  0 0.52768188E+02</rscale>
<asrwt>0</asrwt>
<pdfrwt beam="1">  1       13 0.10000000E+01 0.52768188E+02</pdfrwt>
<pdfrwt beam="2">  1       22 0.15374390E+00 0.52768188E+02</pdfrwt>
<totfact> 0.72361338E-01</totfact>
</mgrwt>
</event>
<event>
 4    1  0.2437479E+000  0.5125814E+02  0.7957747E-01  0.1438671E+00
         13   -1    0    0    0    0  0.00000000000E+00  0.00000000000E+00  0.99999944185E+02  0.10000000001E+03  0.10566000000E+00 0. -1.
         22   -1    0    0    0    0 -0.00000000000E+00 -0.00000000000E+00 -0.99056300443E+01  0.99056300443E+01  0.00000000000E+00 0. -1.
         13    1    1    2    0    0  0.32486187578E+01  0.10809391658E+02  0.11841277817E+02  0.16359202187E+02  0.10566000000E+00 0.  1.
        996    1    1    2    0    0 -0.32486187578E+01 -0.10809391658E+02  0.78253036324E+02  0.93546427862E+02  0.50000000000E+02 0.  0.
<mgrwt>
<rscale>  0 0.51258136E+02</rscale>
<asrwt>0</asrwt>
<pdfrwt beam="1">  1       13 0.10000000E+01 0.51258136E+02</pdfrwt>
<pdfrwt beam="2">  1       22 0.99056552E-01 0.51258136E+02</pdfrwt>
<totfact> 0.14266911E+00</totfact>
</mgrwt>
</event>
<event>
 4    1  0.2437479E+000  0.5244701E+02  0.7957747E-01  0.1432573E+00
         13   -1    0    0    0    0  0.00000000000E+00  0.00000000000E+00  0.99999944192E+02  0.10000000001E+03  0.10566000000E+00 0. -1.
         22   -1    0    0    0    0 -0.00000000000E+00 -0.00000000000E+00 -0.72423377569E+02  0.72423377569E+02  0.00000000000E+00 0.  1.
         13    1    1    2    0    0 -0.14575319312E+02 -0.61845334249E+01 -0.64523067926E+02  0.66437382890E+02  0.10566000000E+00 0.  1.
        996    1    1    2    0    0  0.14575319312E+02  0.61845334249E+01  0.92099634549E+02  0.10598599469E+03  0.50000000000E+02 0.  0.
<mgrwt>
<rscale>  0 0.52447006E+02</rscale>
<asrwt>0</asrwt>
<pdfrwt beam="1">  1       13 0.10000000E+01 0.52447006E+02</pdfrwt>
<pdfrwt beam="2">  1       22 0.72423385E+00 0.52447006E+02</pdfrwt>
<totfact> 0.61784890E-02</totfact>
</mgrwt>
</event>
<event>
 4    1  0.2437479E+000  0.5100967E+02  0.7957747E-01  0.1439971E+00
         13   -1    0    0    0    0  0.00000000000E+00  0.00000000000E+00  0.99999944182E+02  0.10000000000E+03  0.10566000000E+00 0. -1.
         22   -1    0    0    0    0 -0.00000000000E+00 -0.00000000000E+00 -0.14906755432E+02  0.14906755432E+02  0.00000000000E+00 0.  1.
         13    1    1    2    0    0 -0.96420418604E+01  0.30029036909E+01 -0.50804561414E+01  0.11305246590E+02  0.10566000000E+00 0.  1.
        996    1    1    2    0    0  0.96420418604E+01 -0.30029036909E+01  0.90173644891E+02  0.10360150884E+03  0.50000000000E+02 0.  0.
<mgrwt>
<rscale>  0 0.51009670E+02</rscale>
<asrwt>0</asrwt>
<pdfrwt beam="1">  1       13 0.10000000E+01 0.51009670E+02</pdfrwt>
<pdfrwt beam="2">  1       22 0.14906779E+00 0.51009670E+02</pdfrwt>
<totfact> 0.75921533E-01</totfact>
</mgrwt>
</event>
<event>
 4    1  0.2437479E+000  0.5271971E+02  0.7957747E-01  0.1431201E+00
         13   -1    0    0    0    0  0.00000000000E+00  0.00000000000E+00  0.99999944176E+02  0.99999999996E+02  0.10566000000E+00 0. -1.
         22   -1    0    0    0    0 -0.00000000000E+00 -0.00000000000E+00 -0.28916459357E+02  0.28916459357E+02  0.00000000000E+00 0.  1.
         13    1    1    2    0    0  0.16189051754E+02 -0.41572540962E+01 -0.18524272825E+02  0.24950511138E+02  0.10566000000E+00 0.  1.
        996    1    1    2    0    0 -0.16189051754E+02  0.41572540962E+01  0.89607757644E+02  0.10396594822E+03  0.50000000000E+02 0.  0.
<mgrwt>
<rscale>  0 0.52719713E+02</rscale>
<asrwt>0</asrwt>
<pdfrwt beam="1">  1       13 0.10000000E+01 0.52719713E+02</pdfrwt>
<pdfrwt beam="2">  1       22 0.28916479E+00 0.52719713E+02</pdfrwt>
<totfact> 0.22215359E-01</totfact>
</mgrwt>
</event>
<event>
 4    1  0.2437479E+000  0.5659754E+02  0.7957747E-01  0.1412692E+00
         13   -1    0    0    0    0  0.00000000000E+00  0.00000000000E+00  0.99999944179E+02  0.99999999999E+02  0.10566000000E+00 0. -1.
         22   -1    0    0    0    0 -0.00000000000E+00 -0.00000000000E+00 -0.28542839778E+02  0.28542839778E+02  0.00000000000E+00 0.  1.
         13    1    1    2    0    0 -0.15268035409E+02  0.21683382397E+02 -0.10850685318E+02  0.28653630020E+02  0.10566000000E+00 0.  1.
        996    1    1    2    0    0  0.15268035409E+02 -0.21683382397E+02  0.82307789719E+02  0.99889209757E+02  0.50000000000E+02 0.  0.
<mgrwt>
<rscale>  0 0.56597544E+02</rscale>
<asrwt>0</asrwt>
<pdfrwt beam="1">  1       13 0.10000000E+01 0.56597544E+02</pdfrwt>
<pdfrwt beam="2">  1       22 0.28542860E+00 0.56597544E+02</pdfrwt>
<totfact> 0.22892757E-01</totfact>
</mgrwt>
</event>
<event>
 4    1  0.2437479E+000  0.5348278E+02  0.7957747E-01  0.1427413E+00
         13   -1    0    0    0    0  0.00000000000E+00  0.00000000000E+00  0.99999944173E+02  0.99999999993E+02  0.10566000000E+00 0. -1.
         22   -1    0    0    0    0 -0.00000000000E+00 -0.00000000000E+00 -0.19268928549E+02  0.19268928549E+02  0.00000000000E+00 0.  1.
         13    1    1    2    0    0 -0.18953639318E+02 -0.10803878779E+01 -0.36826476839E+01  0.19338581628E+02  0.10566000000E+00 0.  1.
        996    1    1    2    0    0  0.18953639318E+02  0.10803878779E+01  0.84413663308E+02  0.99930346914E+02  0.50000000000E+02 0.  0.
<mgrwt>
<rscale>  0 0.53482779E+02</rscale>
<asrwt>0</asrwt>
<pdfrwt beam="1">  1       13 0.10000000E+01 0.53482779E+02</pdfrwt>
<pdfrwt beam="2">  1       22 0.19268951E+00 0.53482779E+02</pdfrwt>
<totfact> 0.48674497E-01</totfact>
</mgrwt>
</event>
<event>
 4    1  0.2437479E+000  0.5232970E+02  0.7957747E-01  0.1433166E+00
         13   -1    0    0    0    0  0.00000000000E+00  0.00000000000E+00  0.99999944178E+02  0.99999999998E+02  0.10566000000E+00 0. -1.
         22   -1    0    0    0    0 -0.00000000000E+00 -0.00000000000E+00 -0.13117842039E+02  0.13117842039E+02  0.00000000000E+00 0. -1.
         13    1    1    2    0    0 -0.15394014198E+02 -0.11922493055E+01  0.55545843597E+01  0.16409195684E+02  0.10566000000E+00 0.  1.
        996    1    1    2    0    0  0.15394014198E+02  0.11922493055E+01  0.81327517779E+02  0.96708646354E+02  0.50000000000E+02 0.  0.
<mgrwt>
<rscale>  0 0.52329696E+02</rscale>
<asrwt>0</asrwt>
<pdfrwt beam="1">  1       13 0.10000000E+01 0.52329696E+02</pdfrwt>
<pdfrwt beam="2">  1       22 0.13117866E+00 0.52329696E+02</pdfrwt>
<totfact> 0.93650639E-01</totfact>
</mgrwt>
</event>
<event>
 4    1  0.2437479E+000  0.5835402E+02  0.7957747E-01  0.1404872E+00
         13   -1    0    0    0    0  0.00000000000E+00  0.00000000000E+00  0.99999944176E+02  0.99999999996E+02  0.10566000000E+00 0. -1.
         22   -1    0    0    0    0 -0.00000000000E+00 -0.00000000000E+00 -0.44630479388E+02  0.44630479388E+02  0.00000000000E+00 0.  1.
         13    1    1    2    0    0 -0.26883360981E+02  0.13508394551E+02 -0.29170823781E+02  0.41906323450E+02  0.10566000000E+00 0.  1.
        996    1    1    2    0    0  0.26883360981E+02 -0.13508394551E+02  0.84540288569E+02  0.10272415593E+03  0.50000000000E+02 0.  0.
<mgrwt>
<rscale>  0 0.58354021E+02</rscale>
<asrwt>0</asrwt>
<pdfrwt beam="1">  1       13 0.10000000E+01 0.58354021E+02</pdfrwt>
<pdfrwt beam="2">  1       22 0.44630495E+00 0.58354021E+02</pdfrwt>
<totfact> 0.98844157E-02</totfact>
</mgrwt>
</event>
<event>
 4    1  0.2437479E+000  0.5691554E+02  0.7957747E-01  0.1411251E+00
         13   -1    0    0    0    0  0.00000000000E+00  0.00000000000E+00  0.99999944174E+02  0.99999999994E+02  0.10566000000E+00 0. -1.
         22   -1    0    0    0    0 -0.00000000000E+00 -0.00000000000E+00 -0.43991026098E+02  0.43991026098E+02  0.00000000000E+00 0.  1.
         13    1    1    2    0    0 -0.15831222860E+02 -0.22107722196E+02 -0.30232305828E+02  0.40661806129E+02  0.10566000000E+00 0.  1.
        996    1    1    2    0    0  0.15831222860E+02  0.22107722196E+02  0.86241223904E+02  0.10332921996E+03  0.50000000000E+02 0.  0.
<mgrwt>
<rscale>  0 0.56915543E+02</rscale>
<asrwt>0</asrwt>
<pdfrwt beam="1">  1       13 0.10000000E+01 0.56915543E+02</pdfrwt>
<pdfrwt beam="2">  1       22 0.43991042E+00 0.56915543E+02</pdfrwt>
<totfact> 0.10206211E-01</totfact>
</mgrwt>
</event>
<event>
 4    1  0.2437479E+000  0.5134669E+02  0.7957747E-01  0.1438210E+00
         13   -1    0    0    0    0  0.00000000000E+00  0.00000000000E+00  0.99999944178E+02  0.99999999998E+02  0.10566000000E+00 0.  1.
         22   -1    0    0    0    0 -0.00000000000E+00 -0.00000000000E+00 -0.14421104795E+02  0.14421104795E+02  0.00000000000E+00 0. -1.
         13    1    1    2    0    0  0.41103483093E+01 -0.10935599516E+02 -0.29766507458E+01  0.12056281089E+02  0.10566000000E+00 0. -1.
        996    1    1    2    0    0 -0.41103483093E+01  0.10935599516E+02  0.88555490128E+02  0.10236482370E+03  0.50000000000E+02 0.  0.
<mgrwt>
<rscale>  0 0.51346687E+02</rscale>
<asrwt>0</asrwt>
<pdfrwt beam="1">  1       13 0.10000000E+01 0.51346687E+02</pdfrwt>
<pdfrwt beam="2">  1       22 0.14421129E+00 0.51346687E+02</pdfrwt>
<totfact> 0.80241314E-01</totfact>
</mgrwt>
</event>
<event>
 4    1  0.2437479E+000  0.5383050E+02  0.7957747E-01  0.1425712E+00
         13   -1    0    0    0    0  0.00000000000E+00  0.00000000000E+00  0.99999944180E+02  0.10000000000E+03  0.10566000000E+00 0. -1.
         22   -1    0    0    0    0 -0.00000000000E+00 -0.00000000000E+00 -0.14137559019E+02  0.14137559019E+02  0.00000000000E+00 0.  1.
         13    1    1    2    0    0  0.71066399683E+01 -0.18633793731E+02  0.14077105218E+02  0.24411035533E+02  0.10566000000E+00 0.  1.
        996    1    1    2    0    0 -0.71066399683E+01  0.18633793731E+02  0.71785279942E+02  0.89726523486E+02  0.50000000000E+02 0.  0.
<mgrwt>
<rscale>  0 0.53830499E+02</rscale>
<asrwt>0</asrwt>
<pdfrwt beam="1">  1       13 0.10000000E+01 0.53830499E+02</pdfrwt>
<pdfrwt beam="2">  1       22 0.14137583E+00 0.53830499E+02</pdfrwt>
<totfact> 0.83312166E-01</totfact>
</mgrwt>
</event>
<event>
 4    1  0.2437479E+000  0.5423322E+02  0.7957747E-01  0.1423760E+00
         13   -1    0    0    0    0  0.00000000000E+00  0.00000000000E+00  0.99999944174E+02  0.99999999994E+02  0.10566000000E+00 0. -1.
         22   -1    0    0    0    0 -0.00000000000E+00 -0.00000000000E+00 -0.19307664281E+02  0.19307664281E+02  0.00000000000E+00 0.  1.
         13    1    1    2    0    0 -0.10169320975E+02 -0.18380073071E+02 -0.12507263727E+01  0.21043233014E+02  0.10566000000E+00 0.  1.
        996    1    1    2    0    0  0.10169320975E+02  0.18380073071E+02  0.81943006265E+02  0.98264431261E+02  0.50000000000E+02 0.  0.
<mgrwt>
<rscale>  0 0.54233220E+02</rscale>
<asrwt>0</asrwt>
<pdfrwt beam="1">  1       13 0.10000000E+01 0.54233220E+02</pdfrwt>
<pdfrwt beam="2">  1       22 0.19307687E+00 0.54233220E+02</pdfrwt>
<totfact> 0.48558804E-01</totfact>
</mgrwt>
</event>
<event>
 4    1  0.2437479E+000  0.5138512E+02  0.7957747E-01  0.1438011E+00
         13   -1    0    0    0    0  0.00000000000E+00  0.00000000000E+00  0.99999944181E+02  0.10000000000E+03  0.10566000000E+00 0.  1.
         22   -1    0    0    0    0 -0.00000000000E+00 -0.00000000000E+00 -0.12294619406E+02  0.12294619406E+02  0.00000000000E+00 0.  1.
         13    1    1    2    0    0  0.91951366361E+01 -0.74752828448E+01  0.15123319255E+01  0.11946911871E+02  0.10566000000E+00 0. -1.
        996    1    1    2    0    0 -0.91951366361E+01  0.74752828448E+01  0.86192992850E+02  0.10034770754E+03  0.50000000000E+02 0.  0.
<mgrwt>
<rscale>  0 0.51385118E+02</rscale>
<asrwt>0</asrwt>
<pdfrwt beam="1">  1       13 0.10000000E+01 0.51385118E+02</pdfrwt>
<pdfrwt beam="2">  1       22 0.12294644E+00 0.51385118E+02</pdfrwt>
<totfact> 0.10341558E+00</totfact>
</mgrwt>
</event>
<event>
 4    1  0.2437479E+000  0.5105583E+02  0.7957747E-01  0.1439729E+00
         13   -1    0    0    0    0  0.00000000000E+00  0.00000000000E+00  0.99999944172E+02  0.99999999993E+02  0.10566000000E+00 0. -1.
         22   -1    0    0    0    0 -0.00000000000E+00 -0.00000000000E+00 -0.31977817172E+02  0.31977817172E+02  0.00000000000E+00 0.  1.
         13    1    1    2    0    0 -0.98185741884E+01  0.32082951087E+01 -0.24341288868E+02  0.26442523790E+02  0.10566000000E+00 0.  1.
        996    1    1    2    0    0  0.98185741884E+01 -0.32082951087E+01  0.92363415869E+02  0.10553529337E+03  0.50000000000E+02 0.  0.
<mgrwt>
<rscale>  0 0.51055828E+02</rscale>
<asrwt>0</asrwt>
<pdfrwt beam="1">  1       13 0.10000000E+01 0.51055828E+02</pdfrwt>
<pdfrwt beam="2">  1       22 0.31977836E+00 0.51055828E+02</pdfrwt>
<totfact> 0.18399849E-01</totfact>
</mgrwt>
</event>
<event>
 4    1  0.2437479E+000  0.5294318E+02  0.7957747E-01  0.1430084E+00
         13   -1    0    0    0    0  0.00000000000E+00  0.00000000000E+00  0.99999944185E+02  0.10000000001E+03  0.10566000000E+00 0. -1.
         22   -1    0    0    0    0 -0.00000000000E+00 -0.00000000000E+00 -0.31374233066E+02  0.31374233066E+02  0.00000000000E+00 0.  1.
         13    1    1    2    0    0 -0.82145760697E+01  0.15346045826E+02 -0.21001915080E+02  0.27277682885E+02  0.10566000000E+00 0.  1.
        996    1    1    2    0    0  0.82145760697E+01 -0.15346045826E+02  0.89627626200E+02  0.10409655019E+03  0.50000000000E+02 0.  0.
<mgrwt>
<rscale>  0 0.52943181E+02</rscale>
<asrwt>0</asrwt>
<pdfrwt beam="1">  1       13 0.10000000E+01 0.52943181E+02</pdfrwt>
<pdfrwt beam="2">  1       22 0.31374252E+00 0.52943181E+02</pdfrwt>
<totfact> 0.19087255E-01</totfact>
</mgrwt>
</event>
<event>
 4    1  0.2437479E+000  0.5101553E+02  0.7957747E-01  0.1439940E+00
         13   -1    0    0    0    0  0.00000000000E+00  0.00000000000E+00  0.99999944179E+02  0.99999999999E+02  0.10566000000E+00 0. -1.
         22   -1    0    0    0    0 -0.00000000000E+00 -0.00000000000E+00 -0.52767068690E+02  0.52767068690E+02  0.00000000000E+00 0.  1.
         13    1    1    2    0    0 -0.48174591017E+01 -0.89093476253E+01 -0.45669450868E+02  0.46779207923E+02  0.10566000000E+00 0.  1.
        996    1    1    2    0    0  0.48174591017E+01  0.89093476253E+01  0.92902326357E+02  0.10598786077E+03  0.50000000000E+02 0.  0.
<mgrwt>
<rscale>  0 0.51015531E+02</rscale>
<asrwt>0</asrwt>
<pdfrwt beam="1">  1       13 0.10000000E+01 0.51015531E+02</pdfrwt>
<pdfrwt beam="2">  1       22 0.52767082E+00 0.51015531E+02</pdfrwt>
<totfact> 0.63817511E-02</totfact>
</mgrwt>
</event>
<event>
 4    1  0.2437479E+000  0.5205369E+02  0.7957747E-01  0.1434569E+00
         13   -1    0    0    0    0  0.00000000000E+00  0.00000000000E+00  0.99999944173E+02  0.99999999994E+02  0.10566000000E+00 0. -1.
         22   -1    0    0    0    0 -0.00000000000E+00 -0.00000000000E+00 -0.11143339715E+02  0.11143339715E+02  0.00000000000E+00 0. -1.
         13    1    1    2    0    0  0.13262329552E+02 -0.58049112281E+01  0.15682276399E+02  0.21343180096E+02  0.10566000000E+00 0.  1.
        996    1    1    2    0    0 -0.13262329552E+02  0.58049112281E+01  0.73174328060E+02  0.89800159613E+02  0.50000000000E+02 0.  0.
<mgrwt>
<rscale>  0 0.52053687E+02</rscale>
<asrwt>0</asrwt>
<pdfrwt beam="1">  1       13 0.10000000E+01 0.52053687E+02</pdfrwt>
<pdfrwt beam="2">  1       22 0.11143365E+00 0.52053687E+02</pdfrwt>
<totfact> 0.12024412E+00</totfact>
</mgrwt>
</event>
<event>
 4    1  0.2437479E+000  0.5105176E+02  0.7957747E-01  0.1439750E+00
         13   -1    0    0    0    0  0.00000000000E+00  0.00000000000E+00  0.99999944187E+02  0.10000000001E+03  0.10566000000E+00 0.  1.
         22   -1    0    0    0    0 -0.00000000000E+00 -0.00000000000E+00 -0.18342790112E+02  0.18342790112E+02  0.00000000000E+00 0. -1.
         13    1    1    2    0    0  0.58327554536E+01  0.85006447789E+01 -0.93993439134E+01  0.13951373691E+02  0.10566000000E+00 0. -1.
        996    1    1    2    0    0 -0.58327554536E+01 -0.85006447789E+01  0.91056497988E+02  0.10439141643E+03  0.50000000000E+02 0.  0.
<mgrwt>
<rscale>  0 0.51051758E+02</rscale>
<asrwt>0</asrwt>
<pdfrwt beam="1">  1       13 0.10000000E+01 0.51051758E+02</pdfrwt>
<pdfrwt beam="2">  1       22 0.18342813E+00 0.51051758E+02</pdfrwt>
<totfact> 0.53011465E-01</totfact>
</mgrwt>
</event>
<event>
 4    1  0.2437479E+000  0.5101692E+02  0.7957747E-01  0.1439932E+00
         13   -1    0    0    0    0  0.00000000000E+00  0.00000000000E+00  0.99999944178E+02  0.99999999998E+02  0.10566000000E+00 0. -1.
         22   -1    0    0    0    0 -0.00000000000E+00 -0.00000000000E+00 -0.93959289203E+01  0.93959289203E+01  0.00000000000E+00 0. -1.
         13    1    1    2    0    0  0.80748329087E+01  0.61256411749E+01  0.12292411011E+02  0.15932386476E+02  0.10566000000E+00 0.  1.
        996    1    1    2    0    0 -0.80748329087E+01 -0.61256411749E+01  0.78311604247E+02  0.93463542443E+02  0.50000000000E+02 0.  0.
<mgrwt>
<rscale>  0 0.51016923E+02</rscale>
<asrwt>0</asrwt>
<pdfrwt beam="1">  1       13 0.10000000E+01 0.51016923E+02</pdfrwt>
<pdfrwt beam="2">  1       22 0.93959542E-01 0.51016923E+02</pdfrwt>
<totfact> 0.15380864E+00</totfact>
</mgrwt>
</event>
<event>
 4    1  0.2437479E+000  0.5135912E+02  0.7957747E-01  0.1438146E+00
         13   -1    0    0    0    0  0.00000000000E+00  0.00000000000E+00  0.99999944186E+02  0.10000000001E+03  0.10566000000E+00 0. -1.
         22   -1    0    0    0    0 -0.00000000000E+00 -0.00000000000E+00 -0.12755366851E+02  0.12755366851E+02  0.00000000000E+00 0. -1.
         13    1    1    2    0    0 -0.31161978877E+01  0.11315845418E+02  0.26034960883E+00  0.11740442613E+02  0.10566000000E+00 0.  1.
        996    1    1    2    0    0  0.31161978877E+01 -0.11315845418E+02  0.86984227727E+02  0.10101492424E+03  0.50000000000E+02 0.  0.
<mgrwt>
<rscale>  0 0.51359118E+02</rscale>
<asrwt>0</asrwt>
<pdfrwt beam="1">  1       13 0.10000000E+01 0.51359118E+02</pdfrwt>
<pdfrwt beam="2">  1       22 0.12755391E+00 0.51359118E+02</pdfrwt>
<totfact> 0.97662997E-01</totfact>
</mgrwt>
</event>
<event>
 4    1  0.2437479E+000  0.5789986E+02  0.7957747E-01  0.1406862E+00
         13   -1    0    0    0    0  0.00000000000E+00  0.00000000000E+00  0.99999944167E+02  0.99999999987E+02  0.10566000000E+00 0.  1.
         22   -1    0    0    0    0 -0.00000000000E+00 -0.00000000000E+00 -0.19252585713E+02  0.19252585713E+02  0.00000000000E+00 0.  1.
         13    1    1    2    0    0  0.20515043125E+02 -0.20773227492E+02  0.20370882822E+02  0.35600252890E+02  0.10566000000E+00 0. -1.
        996    1    1    2    0    0 -0.20515043125E+02  0.20773227492E+02  0.60376475632E+02  0.83652332810E+02  0.50000000000E+02 0.  0.
<mgrwt>
<rscale>  0 0.57899862E+02</rscale>
<asrwt>0</asrwt>
<pdfrwt beam="1">  1       13 0.10000000E+01 0.57899862E+02</pdfrwt>
<pdfrwt beam="2">  1       22 0.19252608E+00 0.57899862E+02</pdfrwt>
<totfact> 0.49117920E-01</totfact>
</mgrwt>
</event>
<event>
 4    1  0.2437479E+000  0.5353718E+02  0.7957747E-01  0.1427146E+00
         13   -1    0    0    0    0  0.00000000000E+00  0.00000000000E+00  0.99999944176E+02  0.99999999996E+02  0.10566000000E+00 0. -1.
         22   -1    0    0    0    0 -0.00000000000E+00 -0.00000000000E+00 -0.31585615878E+02  0.31585615878E+02  0.00000000000E+00 0.  1.
         13    1    1    2    0    0  0.33073787512E+01  0.18849171509E+02 -0.20344265904E+02  0.27930813450E+02  0.10566000000E+00 0.  1.
        996    1    1    2    0    0 -0.33073787512E+01 -0.18849171509E+02  0.88758594202E+02  0.10365480242E+03  0.50000000000E+02 0.  0.
<mgrwt>
<rscale>  0 0.53537184E+02</rscale>
<asrwt>0</asrwt>
<pdfrwt beam="1">  1       13 0.10000000E+01 0.53537184E+02</pdfrwt>
<pdfrwt beam="2">  1       22 0.31585635E+00 0.53537184E+02</pdfrwt>
<totfact> 0.18869900E-01</totfact>
</mgrwt>
</event>
<event>
 4    1  0.2437479E+000  0.5467597E+02  0.7957747E-01  0.1421638E+00
         13   -1    0    0    0    0  0.00000000000E+00  0.00000000000E+00  0.99999944181E+02  0.10000000000E+03  0.10566000000E+00 0.  1.
         22   -1    0    0    0    0 -0.00000000000E+00 -0.00000000000E+00 -0.59901839053E+02  0.59901839053E+02  0.00000000000E+00 0. -1.
         13    1    1    2    0    0  0.22031867372E+02 -0.20144860202E+01 -0.49906959957E+02  0.54590998801E+02  0.10566000000E+00 0. -1.
        996    1    1    2    0    0 -0.22031867372E+02  0.20144860202E+01  0.90005065085E+02  0.10531084025E+03  0.50000000000E+02 0.  0.
<mgrwt>
<rscale>  0 0.54675967E+02</rscale>
<asrwt>0</asrwt>
<pdfrwt beam="1">  1       13 0.10000000E+01 0.54675967E+02</pdfrwt>
<pdfrwt beam="2">  1       22 0.59901850E+00 0.54675967E+02</pdfrwt>
<totfact> 0.63248413E-02</totfact>
</mgrwt>
</event>
<event>
 4    1  0.2437479E+000  0.5296102E+02  0.7957747E-01  0.1429995E+00
         13   -1    0    0    0    0  0.00000000000E+00  0.00000000000E+00  0.99999944169E+02  0.99999999989E+02  0.10566000000E+00 0. -1.
         22   -1    0    0    0    0 -0.00000000000E+00 -0.00000000000E+00 -0.78024361476E+02  0.78024361476E+02  0.00000000000E+00 0.  1.
         13    1    1    2    0    0 -0.11396963610E+02  0.13227940131E+02 -0.69861560842E+02  0.72010541082E+02  0.10566000000E+00 0.  1.
        996    1    1    2    0    0  0.11396963610E+02 -0.13227940131E+02  0.91837143535E+02  0.10601382038E+03  0.50000000000E+02 0.  0.
<mgrwt>
<rscale>  0 0.52961016E+02</rscale>
<asrwt>0</asrwt>
<pdfrwt beam="1">  1       13 0.10000000E+01 0.52961016E+02</pdfrwt>
<pdfrwt beam="2">  1       22 0.78024368E+00 0.52961016E+02</pdfrwt>
<totfact> 0.37026269E-02</totfact>
</mgrwt>
</event>
<event>
 4    1  0.2437479E+000  0.5312039E+02  0.7957747E-01  0.1429203E+00
         13   -1    0    0    0    0  0.00000000000E+00  0.00000000000E+00  0.99999944185E+02  0.10000000001E+03  0.10566000000E+00 0.  1.
         22   -1    0    0    0    0 -0.00000000000E+00 -0.00000000000E+00 -0.20060098763E+02  0.20060098763E+02  0.00000000000E+00 0.  1.
         13    1    1    2    0    0 -0.53670119378E+01  0.17116405456E+02 -0.60965517254E+01  0.18946114637E+02  0.10566000000E+00 0. -1.
        996    1    1    2    0    0  0.53670119378E+01 -0.17116405456E+02  0.86036397147E+02  0.10111398413E+03  0.50000000000E+02 0.  0.
<mgrwt>
<rscale>  0 0.53120393E+02</rscale>
<asrwt>0</asrwt>
<pdfrwt beam="1">  1       13 0.10000000E+01 0.53120393E+02</pdfrwt>
<pdfrwt beam="2">  1       22 0.20060121E+00 0.53120393E+02</pdfrwt>
<totfact> 0.45144448E-01</totfact>
</mgrwt>
</event>
<event>
 4    1  0.2437479E+000  0.5347486E+02  0.7957747E-01  0.1427452E+00
         13   -1    0    0    0    0  0.00000000000E+00  0.00000000000E+00  0.99999944182E+02  0.10000000000E+03  0.10566000000E+00 0. -1.
         22   -1    0    0    0    0 -0.00000000000E+00 -0.00000000000E+00 -0.13261709322E+02  0.13261709322E+02  0.00000000000E+00 0.  1.
         13    1    1    2    0    0  0.18754710490E+02 -0.27967287942E+01  0.17736402129E+02  0.25964436871E+02  0.10566000000E+00 0.  1.
        996    1    1    2    0    0 -0.18754710490E+02  0.27967287942E+01  0.69001832731E+02  0.87297272453E+02  0.50000000000E+02 0.  0.
<mgrwt>
<rscale>  0 0.53474862E+02</rscale>
<asrwt>0</asrwt>
<pdfrwt beam="1">  1       13 0.10000000E+01 0.53474862E+02</pdfrwt>
<pdfrwt beam="2">  1       22 0.13261734E+00 0.53474862E+02</pdfrwt>
<totfact> 0.92268912E-01</totfact>
</mgrwt>
</event>
<event>
 4    1  0.2437479E+000  0.5470192E+02  0.7957747E-01  0.1421514E+00
         13   -1    0    0    0    0  0.00000000000E+00  0.00000000000E+00  0.99999944176E+02  0.99999999996E+02  0.10566000000E+00 0. -1.
         22   -1    0    0    0    0 -0.00000000000E+00 -0.00000000000E+00 -0.72533881374E+02  0.72533881374E+02  0.00000000000E+00 0.  1.
         13    1    1    2    0    0  0.18683623721E+02  0.11967567610E+02 -0.63012392660E+02  0.66804739822E+02  0.10566000000E+00 0.  1.
        996    1    1    2    0    0 -0.18683623721E+02 -0.11967567610E+02  0.90478455461E+02  0.10572914155E+03  0.50000000000E+02 0.  0.
<mgrwt>
<rscale>  0 0.54701924E+02</rscale>
<asrwt>0</asrwt>
<pdfrwt beam="1">  1       13 0.10000000E+01 0.54701924E+02</pdfrwt>
<pdfrwt beam="2">  1       22 0.72533889E+00 0.54701924E+02</pdfrwt>
<totfact> 0.61199007E-02</totfact>
</mgrwt>
</event>
<event>
 4    1  0.2437479E+000  0.6039399E+02  0.7957747E-01  0.1396186E+00
         13   -1    0    0    0    0  0.00000000000E+00  0.00000000000E+00  0.99999944171E+02  0.99999999991E+02  0.10566000000E+00 0.  1.
         22   -1    0    0    0    0 -0.00000000000E+00 -0.00000000000E+00 -0.24040825853E+02  0.24040825853E+02  0.00000000000E+00 0.  1.
         13    1    1    2    0    0 -0.20577752180E+02  0.26907070620E+02  0.44555921003E+02  0.55970309938E+02  0.10566000000E+00 0. -1.
        996    1    1    2    0    0  0.20577752180E+02 -0.26907070620E+02  0.31403197315E+02  0.68070515906E+02  0.50000000000E+02 0.  0.
<mgrwt>
<rscale>  0 0.60393993E+02</rscale>
<asrwt>0</asrwt>
<pdfrwt beam="1">  1       13 0.10000000E+01 0.60393993E+02</pdfrwt>
<pdfrwt beam="2">  1       22 0.24040847E+00 0.60393993E+02</pdfrwt>
<totfact> 0.32233424E-01</totfact>
</mgrwt>
</event>
<event>
 4    1  0.2437479E+000  0.5982637E+02  0.7957747E-01  0.1398562E+00
         13   -1    0    0    0    0  0.00000000000E+00  0.00000000000E+00  0.99999944176E+02  0.99999999996E+02  0.10566000000E+00 0.  1.
         22   -1    0    0    0    0 -0.00000000000E+00 -0.00000000000E+00 -0.61208279177E+02  0.61208279177E+02  0.00000000000E+00 0. -1.
         13    1    1    2    0    0  0.16064353417E+02 -0.28655394455E+02 -0.46556622129E+02  0.56980043087E+02  0.10566000000E+00 0. -1.
        996    1    1    2    0    0 -0.16064353417E+02  0.28655394455E+02  0.85348287127E+02  0.10422823609E+03  0.50000000000E+02 0.  0.
<mgrwt>
<rscale>  0 0.59826374E+02</rscale>
<asrwt>0</asrwt>
<pdfrwt beam="1">  1       13 0.10000000E+01 0.59826374E+02</pdfrwt>
<pdfrwt beam="2">  1       22 0.61208290E+00 0.59826374E+02</pdfrwt>
<totfact> 0.68607688E-02</totfact>
</mgrwt>
</event>
<event>
 4    1  0.2437479E+000  0.5164021E+02  0.7957747E-01  0.1436690E+00
         13   -1    0    0    0    0  0.00000000000E+00  0.00000000000E+00  0.99999944166E+02  0.99999999986E+02  0.10566000000E+00 0.  1.
         22   -1    0    0    0    0 -0.00000000000E+00 -0.00000000000E+00 -0.21826816006E+02  0.21826816006E+02  0.00000000000E+00 0. -1.
         13    1    1    2    0    0 -0.12909078383E+02 -0.25925595198E+00 -0.12184668659E+02  0.17753558311E+02  0.10566000000E+00 0. -1.
        996    1    1    2    0    0  0.12909078383E+02  0.25925595198E+00  0.90357796818E+02  0.10407325768E+03  0.50000000000E+02 0.  0.
<mgrwt>
<rscale>  0 0.51640212E+02</rscale>
<asrwt>0</asrwt>
<pdfrwt beam="1">  1       13 0.10000000E+01 0.51640212E+02</pdfrwt>
<pdfrwt beam="2">  1       22 0.21826838E+00 0.51640212E+02</pdfrwt>
<totfact> 0.38375683E-01</totfact>
</mgrwt>
</event>
<event>
 4    1  0.2437479E+000  0.5117453E+02  0.7957747E-01  0.1439108E+00
         13   -1    0    0    0    0  0.00000000000E+00  0.00000000000E+00  0.99999944177E+02  0.99999999997E+02  0.10566000000E+00 0. -1.
         22   -1    0    0    0    0 -0.00000000000E+00 -0.00000000000E+00 -0.10488054303E+02  0.10488054303E+02  0.00000000000E+00 0. -1.
         13    1    1    2    0    0 -0.23470583525E+01  0.10645344251E+02  0.30435128633E+02  0.32328629047E+02  0.10566000000E+00 0.  1.
        996    1    1    2    0    0  0.23470583525E+01 -0.10645344251E+02  0.59076761241E+02  0.78159425253E+02  0.50000000000E+02 0.  0.
<mgrwt>
<rscale>  0 0.51174525E+02</rscale>
<asrwt>0</asrwt>
<pdfrwt beam="1">  1       13 0.10000000E+01 0.51174525E+02</pdfrwt>
<pdfrwt beam="2">  1       22 0.10488079E+00 0.51174525E+02</pdfrwt>
<totfact> 0.13125833E+00</totfact>
</mgrwt>
</event>
<event>
 4    1  0.2437479E+000  0.5471622E+02  0.7957747E-01  0.1421446E+00
         13   -1    0    0    0    0  0.00000000000E+00  0.00000000000E+00  0.99999944178E+02  0.99999999999E+02  0.10566000000E+00 0. -1.
         22   -1    0    0    0    0 -0.00000000000E+00 -0.00000000000E+00 -0.16123704364E+02  0.16123704364E+02  0.00000000000E+00 0. -1.
         13    1    1    2    0    0 -0.10642896512E+02 -0.19508809913E+02  0.10463601900E+02  0.24563449252E+02  0.10566000000E+00 0.  1.
        996    1    1    2    0    0  0.10642896512E+02  0.19508809913E+02  0.73412637914E+02  0.91560255111E+02  0.50000000000E+02 0.  0.
<mgrwt>
<rscale>  0 0.54716222E+02</rscale>
<asrwt>0</asrwt>
<pdfrwt beam="1">  1       13 0.10000000E+01 0.54716222E+02</pdfrwt>
<pdfrwt beam="2">  1       22 0.16123728E+00 0.54716222E+02</pdfrwt>
<totfact> 0.66990080E-01</totfact>
</mgrwt>
</event>
<event>
 4    1  0.2437479E+000  0.5292042E+02  0.7957747E-01  0.1430197E+00
         13   -1    0    0    0    0  0.00000000000E+00  0.00000000000E+00  0.99999944180E+02  0.10000000000E+03  0.10566000000E+00 0.  1.
         22   -1    0    0    0    0 -0.00000000000E+00 -0.00000000000E+00 -0.43706184154E+02  0.43706184154E+02  0.00000000000E+00 0. -1.
         13    1    1    2    0    0  0.80499973978E+01 -0.15354743372E+02 -0.34502325884E+02  0.38613368897E+02  0.10566000000E+00 0. -1.
        996    1    1    2    0    0 -0.80499973978E+01  0.15354743372E+02  0.90796085911E+02  0.10509281526E+03  0.50000000000E+02 0.  0.
<mgrwt>
<rscale>  0 0.52920418E+02</rscale>
<asrwt>0</asrwt>
<pdfrwt beam="1">  1       13 0.10000000E+01 0.52920418E+02</pdfrwt>
<pdfrwt beam="2">  1       22 0.43706200E+00 0.52920418E+02</pdfrwt>
<totfact> 0.10330075E-01</totfact>
</mgrwt>
</event>
<event>
 4    1  0.2437479E+000  0.5124915E+02  0.7957747E-01  0.1438718E+00
         13   -1    0    0    0    0  0.00000000000E+00  0.00000000000E+00  0.99999944186E+02  0.10000000001E+03  0.10566000000E+00 0.  1.
         22   -1    0    0    0    0 -0.00000000000E+00 -0.00000000000E+00 -0.58934707957E+02  0.58934707957E+02  0.00000000000E+00 0. -1.
         13    1    1    2    0    0  0.52935856572E+01 -0.99223846522E+01 -0.51724333149E+02  0.52932915753E+02  0.10566000000E+00 0. -1.
        996    1    1    2    0    0 -0.52935856572E+01  0.99223846522E+01  0.92789569379E+02  0.10600179221E+03  0.50000000000E+02 0.  0.
<mgrwt>
<rscale>  0 0.51249154E+02</rscale>
<asrwt>0</asrwt>
<pdfrwt beam="1">  1       13 0.10000000E+01 0.51249154E+02</pdfrwt>
<pdfrwt beam="2">  1       22 0.58934719E+00 0.51249154E+02</pdfrwt>
<totfact> 0.60233599E-02</totfact>
</mgrwt>
</event>
<event>
 4    1  0.2437479E+000  0.5172838E+02  0.7957747E-01  0.1436236E+00
         13   -1    0    0    0    0  0.00000000000E+00  0.00000000000E+00  0.99999944179E+02  0.10000000000E+03  0.10566000000E+00 0.  1.
         22   -1    0    0    0    0 -0.00000000000E+00 -0.00000000000E+00 -0.15020593274E+02  0.15020593274E+02  0.00000000000E+00 0.  1.
         13    1    1    2    0    0 -0.12446042785E+02  0.45739284164E+01 -0.24017941470E+01  0.13476074403E+02  0.10566000000E+00 0. -1.
        996    1    1    2    0    0  0.12446042785E+02 -0.45739284164E+01  0.87381145052E+02  0.10154451887E+03  0.50000000000E+02 0.  0.
<mgrwt>
<rscale>  0 0.51728375E+02</rscale>
<asrwt>0</asrwt>
<pdfrwt beam="1">  1       13 0.10000000E+01 0.51728375E+02</pdfrwt>
<pdfrwt beam="2">  1       22 0.15020617E+00 0.51728375E+02</pdfrwt>
<totfact> 0.75078803E-01</totfact>
</mgrwt>
</event>
<event>
 4    1  0.2437479E+000  0.5351219E+02  0.7957747E-01  0.1427269E+00
         13   -1    0    0    0    0  0.00000000000E+00  0.00000000000E+00  0.99999944189E+02  0.10000000001E+03  0.10566000000E+00 0.  1.
         22   -1    0    0    0    0 -0.00000000000E+00 -0.00000000000E+00 -0.30832184616E+02  0.30832184616E+02  0.00000000000E+00 0. -1.
         13    1    1    2    0    0  0.18999135665E+02  0.16085408076E+01 -0.19496870567E+02  0.27270747799E+02  0.10566000000E+00 0. -1.
        996    1    1    2    0    0 -0.18999135665E+02 -0.16085408076E+01  0.88664630140E+02  0.10356143683E+03  0.50000000000E+02 0.  0.
<mgrwt>
<rscale>  0 0.53512191E+02</rscale>
<asrwt>0</asrwt>
<pdfrwt beam="1">  1       13 0.10000000E+01 0.53512191E+02</pdfrwt>
<pdfrwt beam="2">  1       22 0.30832204E+00 0.53512191E+02</pdfrwt>
<totfact> 0.19718116E-01</totfact>
</mgrwt>
</event>
<event>
 4    1  0.2437479E+000  0.5352542E+02  0.7957747E-01  0.1427204E+00
         13   -1    0    0    0    0  0.00000000000E+00  0.00000000000E+00  0.99999944173E+02  0.99999999993E+02  0.10566000000E+00 0. -1.
         22   -1    0    0    0    0 -0.00000000000E+00 -0.00000000000E+00 -0.15727306861E+02  0.15727306861E+02  0.00000000000E+00 0.  1.
         13    1    1    2    0    0  0.15731885959E+01 -0.19039331301E+02  0.44433473414E+01  0.19614422203E+02  0.10566000000E+00 0.  1.
        996    1    1    2    0    0 -0.15731885959E+01  0.19039331301E+02  0.79829289970E+02  0.96112884651E+02  0.50000000000E+02 0.  0.
<mgrwt>
<rscale>  0 0.53525424E+02</rscale>
<asrwt>0</asrwt>
<pdfrwt beam="1">  1       13 0.10000000E+01 0.53525424E+02</pdfrwt>
<pdfrwt beam="2">  1       22 0.15727330E+00 0.53525424E+02</pdfrwt>
<totfact> 0.69741040E-01</totfact>
</mgrwt>
</event>
<event>
 4    1  0.2437479E+000  0.5342280E+02  0.7957747E-01  0.1427708E+00
         13   -1    0    0    0    0  0.00000000000E+00  0.00000000000E+00  0.99999944179E+02  0.99999999999E+02  0.10566000000E+00 0.  1.
         22   -1    0    0    0    0 -0.00000000000E+00 -0.00000000000E+00 -0.31365761325E+02  0.31365761325E+02  0.00000000000E+00 0. -1.
         13    1    1    2    0    0 -0.79553716180E+01 -0.17050138938E+02 -0.20262942403E+02  0.27651277986E+02  0.10566000000E+00 0. -1.
        996    1    1    2    0    0  0.79553716180E+01  0.17050138938E+02  0.88897125256E+02  0.10371448334E+03  0.50000000000E+02 0.  0.
<mgrwt>
<rscale>  0 0.53422796E+02</rscale>
<asrwt>0</asrwt>
<pdfrwt beam="1">  1       13 0.10000000E+01 0.53422796E+02</pdfrwt>
<pdfrwt beam="2">  1       22 0.31365780E+00 0.53422796E+02</pdfrwt>
<totfact> 0.19107736E-01</totfact>
</mgrwt>
</event>
<event>
 4    1  0.2437479E+000  0.5209602E+02  0.7957747E-01  0.1434353E+00
         13   -1    0    0    0    0  0.00000000000E+00  0.00000000000E+00  0.99999944177E+02  0.99999999997E+02  0.10566000000E+00 0. -1.
         22   -1    0    0    0    0 -0.00000000000E+00 -0.00000000000E+00 -0.20831902609E+02  0.20831902609E+02  0.00000000000E+00 0.  1.
         13    1    1    2    0    0  0.14619453779E+02  0.51673298350E+00 -0.98881056667E+01  0.17657328209E+02  0.10566000000E+00 0.  1.
        996    1    1    2    0    0 -0.14619453779E+02 -0.51673298350E+00  0.89056147234E+02  0.10317457440E+03  0.50000000000E+02 0.  0.
<mgrwt>
<rscale>  0 0.52096021E+02</rscale>
<asrwt>0</asrwt>
<pdfrwt beam="1">  1       13 0.10000000E+01 0.52096021E+02</pdfrwt>
<pdfrwt beam="2">  1       22 0.20831925E+00 0.52096021E+02</pdfrwt>
<totfact> 0.41975767E-01</totfact>
</mgrwt>
</event>
<event>
 4    1  0.2437479E+000  0.6241537E+02  0.7957747E-01  0.1387966E+00
         13   -1    0    0    0    0  0.00000000000E+00  0.00000000000E+00  0.99999944176E+02  0.99999999996E+02  0.10566000000E+00 0.  1.
         22   -1    0    0    0    0 -0.00000000000E+00 -0.00000000000E+00 -0.43196574516E+02  0.43196574516E+02  0.00000000000E+00 0. -1.
         13    1    1    2    0    0 -0.30671845815E+02  0.21328762604E+02 -0.21466702410E+02  0.43087222193E+02  0.10566000000E+00 0. -1.
        996    1    1    2    0    0  0.30671845815E+02 -0.21328762604E+02  0.78270072069E+02  0.10010935232E+03  0.50000000000E+02 0.  0.
<mgrwt>
<rscale>  0 0.62415369E+02</rscale>
<asrwt>0</asrwt>
<pdfrwt beam="1">  1       13 0.10000000E+01 0.62415369E+02</pdfrwt>
<pdfrwt beam="2">  1       22 0.43196590E+00 0.62415369E+02</pdfrwt>
<totfact> 0.10657850E-01</totfact>
</mgrwt>
</event>
<event>
 4    1  0.2437479E+000  0.5262340E+02  0.7957747E-01  0.1431684E+00
         13   -1    0    0    0    0  0.00000000000E+00  0.00000000000E+00  0.99999944177E+02  0.99999999998E+02  0.10566000000E+00 0. -1.
         22   -1    0    0    0    0 -0.00000000000E+00 -0.00000000000E+00 -0.11925920000E+02  0.11925920000E+02  0.00000000000E+00 0. -1.
         13    1    1    2    0    0  0.14437612124E+02  0.77959889503E+01  0.19416227444E+02  0.25420919334E+02  0.10566000000E+00 0.  1.
        996    1    1    2    0    0 -0.14437612124E+02 -0.77959889503E+01  0.68657796733E+02  0.86505000664E+02  0.50000000000E+02 0.  0.
<mgrwt>
<rscale>  0 0.52623399E+02</rscale>
<asrwt>0</asrwt>
<pdfrwt beam="1">  1       13 0.10000000E+01 0.52623399E+02</pdfrwt>
<pdfrwt beam="2">  1       22 0.11925945E+00 0.52623399E+02</pdfrwt>
<totfact> 0.10866810E+00</totfact>
</mgrwt>
</event>
<event>
 4    1  0.2437479E+000  0.5778623E+02  0.7957747E-01  0.1407364E+00
         13   -1    0    0    0    0  0.00000000000E+00  0.00000000000E+00  0.99999944182E+02  0.10000000000E+03  0.10566000000E+00 0.  1.
         22   -1    0    0    0    0 -0.00000000000E+00 -0.00000000000E+00 -0.26646753057E+02  0.26646753057E+02  0.00000000000E+00 0. -1.
         13    1    1    2    0    0  0.19612503849E+02  0.21321294904E+02 -0.48879884788E+01  0.29379440413E+02  0.10566000000E+00 0. -1.
        996    1    1    2    0    0 -0.19612503849E+02 -0.21321294904E+02  0.78241179604E+02  0.97267312646E+02  0.50000000000E+02 0.  0.
<mgrwt>
<rscale>  0 0.57786226E+02</rscale>
<asrwt>0</asrwt>
<pdfrwt beam="1">  1       13 0.10000000E+01 0.57786226E+02</pdfrwt>
<pdfrwt beam="2">  1       22 0.26646774E+00 0.57786226E+02</pdfrwt>
<totfact> 0.26217192E-01</totfact>
</mgrwt>
</event>
<event>
 4    1  0.2437479E+000  0.5155716E+02  0.7957747E-01  0.1437119E+00
         13   -1    0    0    0    0  0.00000000000E+00  0.00000000000E+00  0.99999944177E+02  0.99999999997E+02  0.10566000000E+00 0. -1.
         22   -1    0    0    0    0 -0.00000000000E+00 -0.00000000000E+00 -0.10323907933E+02  0.10323907933E+02  0.00000000000E+00 0. -1.
         13    1    1    2    0    0 -0.90326465655E+01  0.87494026093E+01  0.14919063676E+02  0.19512313420E+02  0.10566000000E+00 0.  1.
        996    1    1    2    0    0  0.90326465655E+01 -0.87494026093E+01  0.74756972567E+02  0.90811594510E+02  0.50000000000E+02 0.  0.
<mgrwt>
<rscale>  0 0.51557160E+02</rscale>
<asrwt>0</asrwt>
<pdfrwt beam="1">  1       13 0.10000000E+01 0.51557160E+02</pdfrwt>
<pdfrwt beam="2">  1       22 0.10323933E+00 0.51557160E+02</pdfrwt>
<totfact> 0.13444748E+00</totfact>
</mgrwt>
</event>
<event>
 4    1  0.2437479E+000  0.5161726E+02  0.7957747E-01  0.1436809E+00
         13   -1    0    0    0    0  0.00000000000E+00  0.00000000000E+00  0.99999944176E+02  0.99999999996E+02  0.10566000000E+00 0. -1.
         22   -1    0    0    0    0 -0.00000000000E+00 -0.00000000000E+00 -0.32430975414E+02  0.32430975414E+02  0.00000000000E+00 0.  1.
         13    1    1    2    0    0 -0.12766455468E+02  0.11659950872E+01 -0.24060613185E+02  0.27262908881E+02  0.10566000000E+00 0.  1.
        996    1    1    2    0    0  0.12766455468E+02 -0.11659950872E+01  0.91629581947E+02  0.10516806653E+03  0.50000000000E+02 0.  0.
<mgrwt>
<rscale>  0 0.51617264E+02</rscale>
<asrwt>0</asrwt>
<pdfrwt beam="1">  1       13 0.10000000E+01 0.51617264E+02</pdfrwt>
<pdfrwt beam="2">  1       22 0.32430994E+00 0.51617264E+02</pdfrwt>
<totfact> 0.17955721E-01</totfact>
</mgrwt>
</event>
<event>
 4    1  0.2437479E+000  0.5447185E+02  0.7957747E-01  0.1422613E+00
         13   -1    0    0    0    0  0.00000000000E+00  0.00000000000E+00  0.99999944172E+02  0.99999999992E+02  0.10566000000E+00 0. -1.
         22   -1    0    0    0    0 -0.00000000000E+00 -0.00000000000E+00 -0.23793635927E+02  0.23793635927E+02  0.00000000000E+00 0.  1.
         13    1    1    2    0    0 -0.70308658074E+01  0.20438916979E+02 -0.83825611725E+01  0.23183202909E+02  0.10566000000E+00 0.  1.
        996    1    1    2    0    0  0.70308658074E+01 -0.20438916979E+02  0.84588869417E+02  0.10061043301E+03  0.50000000000E+02 0.  0.
<mgrwt>
<rscale>  0 0.54471850E+02</rscale>
<asrwt>0</asrwt>
<pdfrwt beam="1">  1       13 0.10000000E+01 0.54471850E+02</pdfrwt>
<pdfrwt beam="2">  1       22 0.23793657E+00 0.54471850E+02</pdfrwt>
<totfact> 0.32611679E-01</totfact>
</mgrwt>
</event>
<event>
 4    1  0.2437479E+000  0.5139784E+02  0.7957747E-01  0.1437945E+00
         13   -1    0    0    0    0  0.00000000000E+00  0.00000000000E+00  0.99999944174E+02  0.99999999994E+02  0.10566000000E+00 0.  1.
         22   -1    0    0    0    0 -0.00000000000E+00 -0.00000000000E+00 -0.13818046128E+02  0.13818046128E+02  0.00000000000E+00 0.  1.
         13    1    1    2    0    0 -0.18835053948E+01 -0.11755440722E+02 -0.16830329701E+01  0.12024214867E+02  0.10566000000E+00 0. -1.
        996    1    1    2    0    0  0.18835053948E+01  0.11755440722E+02  0.87864931016E+02  0.10179383125E+03  0.50000000000E+02 0.  0.
<mgrwt>
<rscale>  0 0.51397840E+02</rscale>
<asrwt>0</asrwt>
<pdfrwt beam="1">  1       13 0.10000000E+01 0.51397840E+02</pdfrwt>
<pdfrwt beam="2">  1       22 0.13818070E+00 0.51397840E+02</pdfrwt>
<totfact> 0.86019694E-01</totfact>
</mgrwt>
</event>
<event>
 4    1  0.2437479E+000  0.5645319E+02  0.7957747E-01  0.1413349E+00
         13   -1    0    0    0    0  0.00000000000E+00  0.00000000000E+00  0.99999944176E+02  0.99999999996E+02  0.10566000000E+00 0.  1.
         22   -1    0    0    0    0 -0.00000000000E+00 -0.00000000000E+00 -0.24637268248E+02  0.24637268248E+02  0.00000000000E+00 0. -1.
         13    1    1    2    0    0 -0.25767180060E+02  0.47974368727E+01 -0.47449963108E+01  0.26636237024E+02  0.10566000000E+00 0. -1.
        996    1    1    2    0    0  0.25767180060E+02 -0.47974368727E+01  0.80107672238E+02  0.98001031220E+02  0.50000000000E+02 0.  0.
<mgrwt>
<rscale>  0 0.56453193E+02</rscale>
<asrwt>0</asrwt>
<pdfrwt beam="1">  1       13 0.10000000E+01 0.56453193E+02</pdfrwt>
<pdfrwt beam="2">  1       22 0.24637289E+00 0.56453193E+02</pdfrwt>
<totfact> 0.30544556E-01</totfact>
</mgrwt>
</event>
<event>
 4    1  0.2437479E+000  0.5246932E+02  0.7957747E-01  0.1432460E+00
         13   -1    0    0    0    0  0.00000000000E+00  0.00000000000E+00  0.99999944178E+02  0.99999999998E+02  0.10566000000E+00 0. -1.
         22   -1    0    0    0    0 -0.00000000000E+00 -0.00000000000E+00 -0.14347215541E+02  0.14347215541E+02  0.00000000000E+00 0.  1.
         13    1    1    2    0    0  0.88462695435E+01  0.13220189850E+02  0.26139575990E+01  0.16120603055E+02  0.10566000000E+00 0.  1.
        996    1    1    2    0    0 -0.88462695435E+01 -0.13220189850E+02  0.83038771039E+02  0.98226612484E+02  0.50000000000E+02 0.  0.
<mgrwt>
<rscale>  0 0.52469323E+02</rscale>
<asrwt>0</asrwt>
<pdfrwt beam="1">  1       13 0.10000000E+01 0.52469323E+02</pdfrwt>
<pdfrwt beam="2">  1       22 0.14347239E+00 0.52469323E+02</pdfrwt>
<totfact> 0.81108643E-01</totfact>
</mgrwt>
</event>
<event>
 4    1  0.2437479E+000  0.5113919E+02  0.7957747E-01  0.1439292E+00
         13   -1    0    0    0    0  0.00000000000E+00  0.00000000000E+00  0.99999944181E+02  0.10000000000E+03  0.10566000000E+00 0.  1.
         22   -1    0    0    0    0 -0.00000000000E+00 -0.00000000000E+00 -0.23506928576E+02  0.23506928576E+02  0.00000000000E+00 0. -1.
         13    1    1    2    0    0 -0.16933132063E+01 -0.10599485949E+02 -0.15146153017E+02  0.18564307885E+02  0.10566000000E+00 0. -1.
        996    1    1    2    0    0  0.16933132063E+01  0.10599485949E+02  0.91639168622E+02  0.10494262069E+03  0.50000000000E+02 0.  0.
<mgrwt>
<rscale>  0 0.51139187E+02</rscale>
<asrwt>0</asrwt>
<pdfrwt beam="1">  1       13 0.10000000E+01 0.51139187E+02</pdfrwt>
<pdfrwt beam="2">  1       22 0.23506950E+00 0.51139187E+02</pdfrwt>
<totfact> 0.33215659E-01</totfact>
</mgrwt>
</event>
<event>
 4    1  0.2437479E+000  0.5822592E+02  0.7957747E-01  0.1405431E+00
         13   -1    0    0    0    0  0.00000000000E+00  0.00000000000E+00  0.99999944176E+02  0.99999999996E+02  0.10566000000E+00 0.  1.
         22   -1    0    0    0    0 -0.00000000000E+00 -0.00000000000E+00 -0.60676408391E+02  0.60676408391E+02  0.00000000000E+00 0. -1.
         13    1    1    2    0    0  0.29756172530E+02  0.21972350969E+01 -0.47525456249E+02  0.56115397187E+02  0.10566000000E+00 0. -1.
        996    1    1    2    0    0 -0.29756172530E+02 -0.21972350969E+01  0.86848992035E+02  0.10456101120E+03  0.50000000000E+02 0.  0.
<mgrwt>
<rscale>  0 0.58225919E+02</rscale>
<asrwt>0</asrwt>
<pdfrwt beam="1">  1       13 0.10000000E+01 0.58225919E+02</pdfrwt>
<pdfrwt beam="2">  1       22 0.60676419E+00 0.58225919E+02</pdfrwt>
<totfact> 0.66239646E-02</totfact>
</mgrwt>
</event>
<event>
 4    1  0.2437479E+000  0.5108944E+02  0.7957747E-01  0.1439552E+00
         13   -1    0    0    0    0  0.00000000000E+00  0.00000000000E+00  0.99999944181E+02  0.10000000000E+03  0.10566000000E+00 0. -1.
         22   -1    0    0    0    0 -0.00000000000E+00 -0.00000000000E+00 -0.11701689099E+02  0.11701689099E+02  0.00000000000E+00 0. -1.
         13    1    1    2    0    0  0.60313629085E+01 -0.85879971235E+01  0.98659304219E+00  0.10541136703E+02  0.10566000000E+00 0.  1.
        996    1    1    2    0    0 -0.60313629085E+01  0.85879971235E+01  0.87311662040E+02  0.10116055240E+03  0.50000000000E+02 0.  0.
<mgrwt>
<rscale>  0 0.51089442E+02</rscale>
<asrwt>0</asrwt>
<pdfrwt beam="1">  1       13 0.10000000E+01 0.51089442E+02</pdfrwt>
<pdfrwt beam="2">  1       22 0.11701714E+00 0.51089442E+02</pdfrwt>
<totfact> 0.11146781E+00</totfact>
</mgrwt>
</event>
<event>
 4    1  0.2437479E+000  0.6200499E+02  0.7957747E-01  0.1389605E+00
         13   -1    0    0    0    0  0.00000000000E+00  0.00000000000E+00  0.99999944188E+02  0.10000000001E+03  0.10566000000E+00 0. -1.
         22   -1    0    0    0    0 -0.00000000000E+00 -0.00000000000E+00 -0.49957271056E+02  0.49957271056E+02  0.00000000000E+00 0.  1.
         13    1    1    2    0    0  0.33512615194E+01  0.36515577438E+02 -0.30929463036E+02  0.47971462320E+02  0.10566000000E+00 0.  1.
        996    1    1    2    0    0 -0.33512615194E+01 -0.36515577438E+02  0.80972136168E+02  0.10198580874E+03  0.50000000000E+02 0.  0.
<mgrwt>
<rscale>  0 0.62004986E+02</rscale>
<asrwt>0</asrwt>
<pdfrwt beam="1">  1       13 0.10000000E+01 0.62004986E+02</pdfrwt>
<pdfrwt beam="2">  1       22 0.49957285E+00 0.62004986E+02</pdfrwt>
<totfact> 0.74090852E-02</totfact>
</mgrwt>
</event>
<event>
 4    1  0.2437479E+000  0.5146516E+02  0.7957747E-01  0.1437595E+00
         13   -1    0    0    0    0  0.00000000000E+00  0.00000000000E+00  0.99999944180E+02  0.10000000000E+03  0.10566000000E+00 0. -1.
         22   -1    0    0    0    0 -0.00000000000E+00 -0.00000000000E+00 -0.13286036982E+02  0.13286036982E+02  0.00000000000E+00 0. -1.
         13    1    1    2    0    0  0.52023846647E+01  0.11027165040E+02 -0.29402413734E+00  0.12196753226E+02  0.10566000000E+00 0.  1.
        996    1    1    2    0    0 -0.52023846647E+01 -0.11027165040E+02  0.87007931336E+02  0.10108928376E+03  0.50000000000E+02 0.  0.
<mgrwt>
<rscale>  0 0.51465165E+02</rscale>
<asrwt>0</asrwt>
<pdfrwt beam="1">  1       13 0.10000000E+01 0.51465165E+02</pdfrwt>
<pdfrwt beam="2">  1       22 0.13286061E+00 0.51465165E+02</pdfrwt>
<totfact> 0.91608320E-01</totfact>
</mgrwt>
</event>
<event>
 4    1  0.2437479E+000  0.5207083E+02  0.7957747E-01  0.1434482E+00
         13   -1    0    0    0    0  0.00000000000E+00  0.00000000000E+00  0.99999944184E+02  0.10000000000E+03  0.10566000000E+00 0.  1.
         22   -1    0    0    0    0 -0.00000000000E+00 -0.00000000000E+00 -0.11099929920E+02  0.11099929920E+02  0.00000000000E+00 0.  1.
         13    1    1    2    0    0 -0.12213127541E+02 -0.78873750183E+01  0.18206385525E+02  0.23299244772E+02  0.10566000000E+00 0. -1.
        996    1    1    2    0    0  0.12213127541E+02  0.78873750183E+01  0.70693628739E+02  0.87800685153E+02  0.50000000000E+02 0.  0.
<mgrwt>
<rscale>  0 0.52070828E+02</rscale>
<asrwt>0</asrwt>
<pdfrwt beam="1">  1       13 0.10000000E+01 0.52070828E+02</pdfrwt>
<pdfrwt beam="2">  1       22 0.11099955E+00 0.52070828E+02</pdfrwt>
<totfact> 0.12095162E+00</totfact>
</mgrwt>
</event>
<event>
 4    1  0.2437479E+000  0.5156081E+02  0.7957747E-01  0.1437100E+00
         13   -1    0    0    0    0  0.00000000000E+00  0.00000000000E+00  0.99999944183E+02  0.10000000000E+03  0.10566000000E+00 0. -1.
         22   -1    0    0    0    0 -0.00000000000E+00 -0.00000000000E+00 -0.18669830951E+02  0.18669830951E+02  0.00000000000E+00 0.  1.
         13    1    1    2    0    0  0.38920422835E+01  0.11973672385E+02 -0.84316278018E+01  0.15153228532E+02  0.10566000000E+00 0.  1.
        996    1    1    2    0    0 -0.38920422835E+01 -0.11973672385E+02  0.89761741034E+02  0.10351660242E+03  0.50000000000E+02 0.  0.
<mgrwt>
<rscale>  0 0.51560807E+02</rscale>
<asrwt>0</asrwt>
<pdfrwt beam="1">  1       13 0.10000000E+01 0.51560807E+02</pdfrwt>
<pdfrwt beam="2">  1       22 0.18669854E+00 0.51560807E+02</pdfrwt>
<totfact> 0.51390410E-01</totfact>
</mgrwt>
</event>
<event>
 4    1  0.2437479E+000  0.5142706E+02  0.7957747E-01  0.1437793E+00
         13   -1    0    0    0    0  0.00000000000E+00  0.00000000000E+00  0.99999944184E+02  0.10000000000E+03  0.10566000000E+00 0.  1.
         22   -1    0    0    0    0 -0.00000000000E+00 -0.00000000000E+00 -0.20526070337E+02  0.20526070337E+02  0.00000000000E+00 0. -1.
         13    1    1    2    0    0 -0.29733290374E+01  0.11657707310E+02 -0.11100619367E+02  0.16370025647E+02  0.10566000000E+00 0. -1.
        996    1    1    2    0    0  0.29733290374E+01 -0.11657707310E+02  0.90574493214E+02  0.10415604469E+03  0.50000000000E+02 0.  0.
<mgrwt>
<rscale>  0 0.51427063E+02</rscale>
<asrwt>0</asrwt>
<pdfrwt beam="1">  1       13 0.10000000E+01 0.51427063E+02</pdfrwt>
<pdfrwt beam="2">  1       22 0.20526093E+00 0.51427063E+02</pdfrwt>
<totfact> 0.43112289E-01</totfact>
</mgrwt>
</event>
<event>
 4    1  0.2437479E+000  0.5130599E+02  0.7957747E-01  0.1438422E+00
         13   -1    0    0    0    0  0.00000000000E+00  0.00000000000E+00  0.99999944173E+02  0.99999999994E+02  0.10566000000E+00 0. -1.
         22   -1    0    0    0    0 -0.00000000000E+00 -0.00000000000E+00 -0.11508798292E+02  0.11508798292E+02  0.00000000000E+00 0. -1.
         13    1    1    2    0    0 -0.98897869672E+01 -0.58734104697E+01  0.31394868568E+01  0.11923605938E+02  0.10566000000E+00 0.  1.
        996    1    1    2    0    0  0.98897869672E+01  0.58734104697E+01  0.85351659024E+02  0.99585192348E+02  0.50000000000E+02 0.  0.
<mgrwt>
<rscale>  0 0.51305992E+02</rscale>
<asrwt>0</asrwt>
<pdfrwt beam="1">  1       13 0.10000000E+01 0.51305992E+02</pdfrwt>
<pdfrwt beam="2">  1       22 0.11508823E+00 0.51305992E+02</pdfrwt>
<totfact> 0.11436198E+00</totfact>
</mgrwt>
</event>
<event>
 4    1  0.2437479E+000  0.5335320E+02  0.7957747E-01  0.1428051E+00
         13   -1    0    0    0    0  0.00000000000E+00  0.00000000000E+00  0.99999944179E+02  0.99999999999E+02  0.10566000000E+00 0. -1.
         22   -1    0    0    0    0 -0.00000000000E+00 -0.00000000000E+00 -0.46621877184E+02  0.46621877184E+02  0.00000000000E+00 0.  1.
         13    1    1    2    0    0 -0.13122526878E+02 -0.13204676545E+02 -0.37143107993E+02  0.41547392575E+02  0.10566000000E+00 0.  1.
        996    1    1    2    0    0  0.13122526878E+02  0.13204676545E+02  0.90521174989E+02  0.10507448461E+03  0.50000000000E+02 0.  0.
<mgrwt>
<rscale>  0 0.53353202E+02</rscale>
<asrwt>0</asrwt>
<pdfrwt beam="1">  1       13 0.10000000E+01 0.53353202E+02</pdfrwt>
<pdfrwt beam="2">  1       22 0.46621892E+00 0.53353202E+02</pdfrwt>
<totfact> 0.88737668E-02</totfact>
</mgrwt>
</event>
<event>
 4    1  0.2437479E+000  0.5143577E+02  0.7957747E-01  0.1437748E+00
         13   -1    0    0    0    0  0.00000000000E+00  0.00000000000E+00  0.99999944175E+02  0.99999999995E+02  0.10566000000E+00 0. -1.
         22   -1    0    0    0    0 -0.00000000000E+00 -0.00000000000E+00 -0.20913670953E+02  0.20913670953E+02  0.00000000000E+00 0. -1.
         13    1    1    2    0    0  0.12068027429E+02 -0.28070752022E-01 -0.11546643703E+02  0.16702521332E+02  0.10566000000E+00 0.  1.
        996    1    1    2    0    0 -0.12068027429E+02  0.28070752022E-01  0.90632916925E+02  0.10421114962E+03  0.50000000000E+02 0.  0.
<mgrwt>
<rscale>  0 0.51435766E+02</rscale>
<asrwt>0</asrwt>
<pdfrwt beam="1">  1       13 0.10000000E+01 0.51435766E+02</pdfrwt>
<pdfrwt beam="2">  1       22 0.20913693E+00 0.51435766E+02</pdfrwt>
<totfact> 0.41617223E-01</totfact>
</mgrwt>
</event>
<event>
 4    1  0.2437479E+000  0.5118343E+02  0.7957747E-01  0.1439061E+00
         13   -1    0    0    0    0  0.00000000000E+00  0.00000000000E+00  0.99999944182E+02  0.10000000000E+03  0.10566000000E+00 0.  1.
         22   -1    0    0    0    0 -0.00000000000E+00 -0.00000000000E+00 -0.17632351719E+02  0.17632351719E+02  0.00000000000E+00 0.  1.
         13    1    1    2    0    0  0.25089186566E+01 -0.10651212545E+02 -0.81508618751E+01  0.13645171851E+02  0.10566000000E+00 0. -1.
        996    1    1    2    0    0 -0.25089186566E+01  0.10651212545E+02  0.90518454338E+02  0.10398717987E+03  0.50000000000E+02 0.  0.
<mgrwt>
<rscale>  0 0.51183425E+02</rscale>
<asrwt>0</asrwt>
<pdfrwt beam="1">  1       13 0.10000000E+01 0.51183425E+02</pdfrwt>
<pdfrwt beam="2">  1       22 0.17632375E+00 0.51183425E+02</pdfrwt>
<totfact> 0.56913154E-01</totfact>
</mgrwt>
</event>
<event>
 4    1  0.2437479E+000  0.5123001E+02  0.7957747E-01  0.1438818E+00
         13   -1    0    0    0    0  0.00000000000E+00  0.00000000000E+00  0.99999944178E+02  0.99999999998E+02  0.10566000000E+00 0. -1.
         22   -1    0    0    0    0 -0.00000000000E+00 -0.00000000000E+00 -0.11018941730E+02  0.11018941730E+02  0.00000000000E+00 0. -1.
         13    1    1    2    0    0  0.53866688268E+01  0.97723004680E+01  0.41241535143E+01  0.11896800567E+02  0.10566000000E+00 0.  1.
        996    1    1    2    0    0 -0.53866688268E+01 -0.97723004680E+01  0.84856848933E+02  0.99122141161E+02  0.50000000000E+02 0.  0.
<mgrwt>
<rscale>  0 0.51230011E+02</rscale>
<asrwt>0</asrwt>
<pdfrwt beam="1">  1       13 0.10000000E+01 0.51230011E+02</pdfrwt>
<pdfrwt beam="2">  1       22 0.11018967E+00 0.51230011E+02</pdfrwt>
<totfact> 0.12204009E+00</totfact>
</mgrwt>
</event>
<event>
 4    1  0.2437479E+000  0.5812446E+02  0.7957747E-01  0.1405875E+00
         13   -1    0    0    0    0  0.00000000000E+00  0.00000000000E+00  0.99999944180E+02  0.10000000000E+03  0.10566000000E+00 0. -1.
         22   -1    0    0    0    0 -0.00000000000E+00 -0.00000000000E+00 -0.21935774941E+02  0.21935774941E+02  0.00000000000E+00 0.  1.
         13    1    1    2    0    0 -0.95183869208E+01 -0.28068723249E+02  0.48211331823E+02  0.56593255735E+02  0.10566000000E+00 0.  1.
        996    1    1    2    0    0  0.95183869208E+01  0.28068723249E+02  0.29852837416E+02  0.65342519206E+02  0.50000000000E+02 0.  0.
<mgrwt>
<rscale>  0 0.58124461E+02</rscale>
<asrwt>0</asrwt>
<pdfrwt beam="1">  1       13 0.10000000E+01 0.58124461E+02</pdfrwt>
<pdfrwt beam="2">  1       22 0.21935797E+00 0.58124461E+02</pdfrwt>
<totfact> 0.38410607E-01</totfact>
</mgrwt>
</event>
<event>
 4    1  0.2437479E+000  0.5550309E+02  0.7957747E-01  0.1417735E+00
         13   -1    0    0    0    0  0.00000000000E+00  0.00000000000E+00  0.99999944180E+02  0.10000000000E+03  0.10566000000E+00 0. -1.
         22   -1    0    0    0    0 -0.00000000000E+00 -0.00000000000E+00 -0.17225113214E+02  0.17225113214E+02  0.00000000000E+00 0. -1.
         13    1    1    2    0    0  0.11826601563E+02 -0.20993440189E+02  0.10984783713E+02  0.26481496800E+02  0.10566000000E+00 0.  1.
        996    1    1    2    0    0 -0.11826601563E+02  0.20993440189E+02  0.71790047252E+02  0.90743616414E+02  0.50000000000E+02 0.  0.
<mgrwt>
<rscale>  0 0.55503090E+02</rscale>
<asrwt>0</asrwt>
<pdfrwt beam="1">  1       13 0.10000000E+01 0.55503090E+02</pdfrwt>
<pdfrwt beam="2">  1       22 0.17225136E+00 0.55503090E+02</pdfrwt>
<totfact> 0.59797596E-01</totfact>
</mgrwt>
</event>
<event>
 4    1  0.2437479E+000  0.5487613E+02  0.7957747E-01  0.1420686E+00
         13   -1    0    0    0    0  0.00000000000E+00  0.00000000000E+00  0.99999944187E+02  0.10000000001E+03  0.10566000000E+00 0. -1.
         22   -1    0    0    0    0 -0.00000000000E+00 -0.00000000000E+00 -0.18114014496E+02  0.18114014496E+02  0.00000000000E+00 0. -1.
         13    1    1    2    0    0  0.18611760058E+02  0.12844928235E+02  0.41998929309E+01  0.23000870820E+02  0.10566000000E+00 0.  1.
        996    1    1    2    0    0 -0.18611760058E+02 -0.12844928235E+02  0.77686036761E+02  0.95113143684E+02  0.50000000000E+02 0.  0.
<mgrwt>
<rscale>  0 0.54876131E+02</rscale>
<asrwt>0</asrwt>
<pdfrwt beam="1">  1       13 0.10000000E+01 0.54876131E+02</pdfrwt>
<pdfrwt beam="2">  1       22 0.18114037E+00 0.54876131E+02</pdfrwt>
<totfact> 0.54607681E-01</totfact>
</mgrwt>
</event>
<event>
 4    1  0.2437479E+000  0.5618330E+02  0.7957747E-01  0.1414584E+00
         13   -1    0    0    0    0  0.00000000000E+00  0.00000000000E+00  0.99999944184E+02  0.10000000000E+03  0.10566000000E+00 0. -1.
         22   -1    0    0    0    0 -0.00000000000E+00 -0.00000000000E+00 -0.18519071533E+02  0.18519071533E+02  0.00000000000E+00 0.  1.
         13    1    1    2    0    0  0.94605064346E+01 -0.23813060128E+02  0.97768604118E+01  0.27425557026E+02  0.10566000000E+00 0.  1.
        996    1    1    2    0    0 -0.94605064346E+01  0.23813060128E+02  0.71704012239E+02  0.91093514510E+02  0.50000000000E+02 0.  0.
<mgrwt>
<rscale>  0 0.56183298E+02</rscale>
<asrwt>0</asrwt>
<pdfrwt beam="1">  1       13 0.10000000E+01 0.56183298E+02</pdfrwt>
<pdfrwt beam="2">  1       22 0.18519094E+00 0.56183298E+02</pdfrwt>
<totfact> 0.52586962E-01</totfact>
</mgrwt>
</event>
<event>
 4    1  0.2437479E+000  0.5293385E+02  0.7957747E-01  0.1430130E+00
         13   -1    0    0    0    0  0.00000000000E+00  0.00000000000E+00  0.99999944172E+02  0.99999999992E+02  0.10566000000E+00 0. -1.
         22   -1    0    0    0    0 -0.00000000000E+00 -0.00000000000E+00 -0.12607494633E+02  0.12607494633E+02  0.00000000000E+00 0.  1.
         13    1    1    2    0    0 -0.12137045347E+02 -0.12437237235E+02  0.15198366493E+02  0.23086668185E+02  0.10566000000E+00 0.  1.
        996    1    1    2    0    0  0.12137045347E+02  0.12437237235E+02  0.72194083045E+02  0.89520826440E+02  0.50000000000E+02 0.  0.
<mgrwt>
<rscale>  0 0.52933852E+02</rscale>
<asrwt>0</asrwt>
<pdfrwt beam="1">  1       13 0.10000000E+01 0.52933852E+02</pdfrwt>
<pdfrwt beam="2">  1       22 0.12607519E+00 0.52933852E+02</pdfrwt>
<totfact> 0.99799782E-01</totfact>
</mgrwt>
</event>
<event>
 4    1  0.2437479E+000  0.5275237E+02  0.7957747E-01  0.1431037E+00
         13   -1    0    0    0    0  0.00000000000E+00  0.00000000000E+00  0.99999944174E+02  0.99999999995E+02  0.10566000000E+00 0. -1.
         22   -1    0    0    0    0 -0.00000000000E+00 -0.00000000000E+00 -0.26359539430E+02  0.26359539430E+02  0.00000000000E+00 0.  1.
         13    1    1    2    0    0 -0.77201981936E+01  0.14940247217E+02 -0.15440618764E+02  0.22830600494E+02  0.10566000000E+00 0.  1.
        996    1    1    2    0    0  0.77201981936E+01 -0.14940247217E+02  0.89081023508E+02  0.10352893893E+03  0.50000000000E+02 0.  0.
<mgrwt>
<rscale>  0 0.52752369E+02</rscale>
<asrwt>0</asrwt>
<pdfrwt beam="1">  1       13 0.10000000E+01 0.52752369E+02</pdfrwt>
<pdfrwt beam="2">  1       22 0.26359560E+00 0.52752369E+02</pdfrwt>
<totfact> 0.26593022E-01</totfact>
</mgrwt>
</event>
<event>
 4    1  0.2437479E+000  0.5411833E+02  0.7957747E-01  0.1424315E+00
         13   -1    0    0    0    0  0.00000000000E+00  0.00000000000E+00  0.99999944183E+02  0.10000000000E+03  0.10566000000E+00 0. -1.
         22   -1    0    0    0    0 -0.00000000000E+00 -0.00000000000E+00 -0.16008142838E+02  0.16008142838E+02  0.00000000000E+00 0.  1.
         13    1    1    2    0    0 -0.72462672566E+01  0.19398076946E+02  0.69194517143E+01  0.21833088522E+02  0.10566000000E+00 0.  1.
        996    1    1    2    0    0  0.72462672566E+01 -0.19398076946E+02  0.77072349630E+02  0.94175054318E+02  0.50000000000E+02 0.  0.
<mgrwt>
<rscale>  0 0.54118331E+02</rscale>
<asrwt>0</asrwt>
<pdfrwt beam="1">  1       13 0.10000000E+01 0.54118331E+02</pdfrwt>
<pdfrwt beam="2">  1       22 0.16008166E+00 0.54118331E+02</pdfrwt>
<totfact> 0.67744734E-01</totfact>
</mgrwt>
</event>
<event>
 4    1  0.2437479E+000  0.5322368E+02  0.7957747E-01  0.1428691E+00
         13   -1    0    0    0    0  0.00000000000E+00  0.00000000000E+00  0.99999944180E+02  0.10000000000E+03  0.10566000000E+00 0.  1.
         22   -1    0    0    0    0 -0.00000000000E+00 -0.00000000000E+00 -0.17797334974E+02  0.17797334974E+02  0.00000000000E+00 0. -1.
         13    1    1    2    0    0 -0.16944681489E+01 -0.18162852148E+02 -0.18235966776E+01  0.18332950918E+02  0.10566000000E+00 0. -1.
        996    1    1    2    0    0  0.16944681489E+01  0.18162852148E+02  0.84026205884E+02  0.99464384056E+02  0.50000000000E+02 0.  0.
<mgrwt>
<rscale>  0 0.53223683E+02</rscale>
<asrwt>0</asrwt>
<pdfrwt beam="1">  1       13 0.10000000E+01 0.53223683E+02</pdfrwt>
<pdfrwt beam="2">  1       22 0.17797358E+00 0.53223683E+02</pdfrwt>
<totfact> 0.56193356E-01</totfact>
</mgrwt>
</event>
<event>
 4    1  0.2437479E+000  0.5238615E+02  0.7957747E-01  0.1432880E+00
         13   -1    0    0    0    0  0.00000000000E+00  0.00000000000E+00  0.99999944178E+02  0.99999999998E+02  0.10566000000E+00 0. -1.
         22   -1    0    0    0    0 -0.00000000000E+00 -0.00000000000E+00 -0.15556531792E+02  0.15556531792E+02  0.00000000000E+00 0. -1.
         13    1    1    2    0    0  0.15365182549E+02  0.28671155454E+01 -0.63466257192E+00  0.15643629596E+02  0.10566000000E+00 0.  1.
        996    1    1    2    0    0 -0.15365182549E+02 -0.28671155454E+01  0.85078074958E+02  0.99912902194E+02  0.50000000000E+02 0.  0.
<mgrwt>
<rscale>  0 0.52386155E+02</rscale>
<asrwt>0</asrwt>
<pdfrwt beam="1">  1       13 0.10000000E+01 0.52386155E+02</pdfrwt>
<pdfrwt beam="2">  1       22 0.15556555E+00 0.52386155E+02</pdfrwt>
<totfact> 0.70884237E-01</totfact>
</mgrwt>
</event>
<event>
 4    1  0.2437479E+000  0.5192925E+02  0.7957747E-01  0.1435205E+00
         13   -1    0    0    0    0  0.00000000000E+00  0.00000000000E+00  0.99999944178E+02  0.99999999998E+02  0.10566000000E+00 0. -1.
         22   -1    0    0    0    0 -0.00000000000E+00 -0.00000000000E+00 -0.15513679681E+02  0.15513679681E+02  0.00000000000E+00 0. -1.
         13    1    1    2    0    0  0.13919208687E+02 -0.17036930937E+01 -0.24625908600E+01  0.14238063717E+02  0.10566000000E+00 0.  1.
        996    1    1    2    0    0 -0.13919208687E+02  0.17036930937E+01  0.86948855357E+02  0.10127561596E+03  0.50000000000E+02 0.  0.
<mgrwt>
<rscale>  0 0.51929249E+02</rscale>
<asrwt>0</asrwt>
<pdfrwt beam="1">  1       13 0.10000000E+01 0.51929249E+02</pdfrwt>
<pdfrwt beam="2">  1       22 0.15513703E+00 0.51929249E+02</pdfrwt>
<totfact> 0.71150006E-01</totfact>
</mgrwt>
</event>
<event>
 4    1  0.2437479E+000  0.5516365E+02  0.7957747E-01  0.1419327E+00
         13   -1    0    0    0    0  0.00000000000E+00  0.00000000000E+00  0.99999944182E+02  0.10000000000E+03  0.10566000000E+00 0. -1.
         22   -1    0    0    0    0 -0.00000000000E+00 -0.00000000000E+00 -0.19826881036E+02  0.19826881036E+02  0.00000000000E+00 0.  1.
         13    1    1    2    0    0  0.38626093283E+00  0.23299772030E+02  0.99149804960E+00  0.23324296486E+02  0.10566000000E+00 0.  1.
        996    1    1    2    0    0 -0.38626093283E+00 -0.23299772030E+02  0.79181565096E+02  0.96502584552E+02  0.50000000000E+02 0.  0.
<mgrwt>
<rscale>  0 0.55163653E+02</rscale>
<asrwt>0</asrwt>
<pdfrwt beam="1">  1       13 0.10000000E+01 0.55163653E+02</pdfrwt>
<pdfrwt beam="2">  1       22 0.19826903E+00 0.55163653E+02</pdfrwt>
<totfact> 0.46302667E-01</totfact>
</mgrwt>
</event>
<event>
 4    1  0.2437479E+000  0.5908332E+02  0.7957747E-01  0.1401719E+00
         13   -1    0    0    0    0  0.00000000000E+00  0.00000000000E+00  0.99999944176E+02  0.99999999996E+02  0.10566000000E+00 0.  1.
         22   -1    0    0    0    0 -0.00000000000E+00 -0.00000000000E+00 -0.30290946896E+02  0.30290946896E+02  0.00000000000E+00 0. -1.
         13    1    1    2    0    0  0.29525982464E+02  0.10911209523E+02 -0.81848240042E+01  0.32524462205E+02  0.10566000000E+00 0. -1.
        996    1    1    2    0    0 -0.29525982464E+02 -0.10911209523E+02  0.77893821284E+02  0.97766484686E+02  0.50000000000E+02 0.  0.
<mgrwt>
<rscale>  0 0.59083315E+02</rscale>
<asrwt>0</asrwt>
<pdfrwt beam="1">  1       13 0.10000000E+01 0.59083315E+02</pdfrwt>
<pdfrwt beam="2">  1       22 0.30290966E+00 0.59083315E+02</pdfrwt>
<totfact> 0.20510070E-01</totfact>
</mgrwt>
</event>
<event>
 4    1  0.2437479E+000  0.5768799E+02  0.7957747E-01  0.1407798E+00
         13   -1    0    0    0    0  0.00000000000E+00  0.00000000000E+00  0.99999944170E+02  0.99999999990E+02  0.10566000000E+00 0.  1.
         22   -1    0    0    0    0 -0.00000000000E+00 -0.00000000000E+00 -0.31628811041E+02  0.31628811041E+02  0.00000000000E+00 0. -1.
         13    1    1    2    0    0 -0.27989515350E+02  0.66701754750E+01 -0.13251244570E+02  0.31678239489E+02  0.10566000000E+00 0. -1.
        996    1    1    2    0    0  0.27989515350E+02 -0.66701754750E+01  0.81622377698E+02  0.99950571542E+02  0.50000000000E+02 0.  0.
<mgrwt>
<rscale>  0 0.57687990E+02</rscale>
<asrwt>0</asrwt>
<pdfrwt beam="1">  1       13 0.10000000E+01 0.57687990E+02</pdfrwt>
<pdfrwt beam="2">  1       22 0.31628830E+00 0.57687990E+02</pdfrwt>
<totfact> 0.18912936E-01</totfact>
</mgrwt>
</event>
<event>
 4    1  0.2437479E+000  0.5186777E+02  0.7957747E-01  0.1435520E+00
         13   -1    0    0    0    0  0.00000000000E+00  0.00000000000E+00  0.99999944178E+02  0.99999999998E+02  0.10566000000E+00 0.  1.
         22   -1    0    0    0    0 -0.00000000000E+00 -0.00000000000E+00 -0.43144215673E+02  0.43144215673E+02  0.00000000000E+00 0. -1.
         13    1    1    2    0    0 -0.13464771279E+02  0.29943033215E+01 -0.35019953507E+02  0.37638733051E+02  0.10566000000E+00 0. -1.
        996    1    1    2    0    0  0.13464771279E+02 -0.29943033215E+01  0.91875682012E+02  0.10550548262E+03  0.50000000000E+02 0.  0.
<mgrwt>
<rscale>  0 0.51867773E+02</rscale>
<asrwt>0</asrwt>
<pdfrwt beam="1">  1       13 0.10000000E+01 0.51867773E+02</pdfrwt>
<pdfrwt beam="2">  1       22 0.43144232E+00 0.51867773E+02</pdfrwt>
<totfact> 0.10618547E-01</totfact>
</mgrwt>
</event>
<event>
 4    1  0.2437479E+000  0.5236041E+02  0.7957747E-01  0.1433011E+00
         13   -1    0    0    0    0  0.00000000000E+00  0.00000000000E+00  0.99999944177E+02  0.99999999997E+02  0.10566000000E+00 0. -1.
         22   -1    0    0    0    0 -0.00000000000E+00 -0.00000000000E+00 -0.11531533375E+02  0.11531533375E+02  0.00000000000E+00 0. -1.
         13    1    1    2    0    0 -0.10329101991E+02 -0.11615596240E+02  0.21127362202E+02  0.26229544823E+02  0.10566000000E+00 0.  1.
        996    1    1    2    0    0  0.10329101991E+02  0.11615596240E+02  0.67341048600E+02  0.85301988549E+02  0.50000000000E+02 0.  0.
<mgrwt>
<rscale>  0 0.52360409E+02</rscale>
<asrwt>0</asrwt>
<pdfrwt beam="1">  1       13 0.10000000E+01 0.52360409E+02</pdfrwt>
<pdfrwt beam="2">  1       22 0.11531558E+00 0.52360409E+02</pdfrwt>
<totfact> 0.11429611E+00</totfact>
</mgrwt>
</event>
<event>
 4    1  0.2437479E+000  0.5437408E+02  0.7957747E-01  0.1423082E+00
         13   -1    0    0    0    0  0.00000000000E+00  0.00000000000E+00  0.99999944177E+02  0.99999999997E+02  0.10566000000E+00 0. -1.
         22   -1    0    0    0    0 -0.00000000000E+00 -0.00000000000E+00 -0.14376581497E+02  0.14376581497E+02  0.00000000000E+00 0. -1.
         13    1    1    2    0    0 -0.15942446118E+02 -0.14225983148E+02  0.26733391995E+02  0.34223173382E+02  0.10566000000E+00 0.  1.
        996    1    1    2    0    0  0.15942446118E+02  0.14225983148E+02  0.58889970685E+02  0.80153408112E+02  0.50000000000E+02 0.  0.
<mgrwt>
<rscale>  0 0.54374076E+02</rscale>
<asrwt>0</asrwt>
<pdfrwt beam="1">  1       13 0.10000000E+01 0.54374076E+02</pdfrwt>
<pdfrwt beam="2">  1       22 0.14376605E+00 0.54374076E+02</pdfrwt>
<totfact> 0.81149151E-01</totfact>
</mgrwt>
</event>
<event>
 4    1  0.2437479E+000  0.5712394E+02  0.7957747E-01  0.1410313E+00
         13   -1    0    0    0    0  0.00000000000E+00  0.00000000000E+00  0.99999944180E+02  0.10000000000E+03  0.10566000000E+00 0. -1.
         22   -1    0    0    0    0 -0.00000000000E+00 -0.00000000000E+00 -0.33016872857E+02  0.33016872857E+02  0.00000000000E+00 0.  1.
         13    1    1    2    0    0 -0.26143189968E+02 -0.89262883536E+01 -0.16262530518E+02  0.32056607250E+02  0.10566000000E+00 0.  1.
        996    1    1    2    0    0  0.26143189968E+02  0.89262883536E+01  0.83245601841E+02  0.10096026561E+03  0.50000000000E+02 0.  0.
<mgrwt>
<rscale>  0 0.57123944E+02</rscale>
<asrwt>0</asrwt>
<pdfrwt beam="1">  1       13 0.10000000E+01 0.57123944E+02</pdfrwt>
<pdfrwt beam="2">  1       22 0.33016892E+00 0.57123944E+02</pdfrwt>
<totfact> 0.17500868E-01</totfact>
</mgrwt>
</event>
<event>
 4    1  0.2437479E+000  0.5610398E+02  0.7957747E-01  0.1414949E+00
         13   -1    0    0    0    0  0.00000000000E+00  0.00000000000E+00  0.99999944186E+02  0.10000000001E+03  0.10566000000E+00 0. -1.
         22   -1    0    0    0    0 -0.00000000000E+00 -0.00000000000E+00 -0.41397821077E+02  0.41397821077E+02  0.00000000000E+00 0.  1.
         13    1    1    2    0    0  0.23457170028E+02  0.98700420644E+01 -0.28236115029E+02  0.38012444173E+02  0.10566000000E+00 0.  1.
        996    1    1    2    0    0 -0.23457170028E+02 -0.98700420644E+01  0.86838238137E+02  0.10338537691E+03  0.50000000000E+02 0.  0.
<mgrwt>
<rscale>  0 0.56103980E+02</rscale>
<asrwt>0</asrwt>
<pdfrwt beam="1">  1       13 0.10000000E+01 0.56103980E+02</pdfrwt>
<pdfrwt beam="2">  1       22 0.41397837E+00 0.56103980E+02</pdfrwt>
<totfact> 0.11601642E-01</totfact>
</mgrwt>
</event>
<event>
 4    1  0.2437479E+000  0.5293295E+02  0.7957747E-01  0.1430135E+00
         13   -1    0    0    0    0  0.00000000000E+00  0.00000000000E+00  0.99999944174E+02  0.99999999994E+02  0.10566000000E+00 0.  1.
         22   -1    0    0    0    0 -0.00000000000E+00 -0.00000000000E+00 -0.26628338771E+02  0.26628338771E+02  0.00000000000E+00 0. -1.
         13    1    1    2    0    0  0.27379884861E+01 -0.17158108824E+02 -0.15436319026E+02  0.23241953198E+02  0.10566000000E+00 0. -1.
        996    1    1    2    0    0 -0.27379884861E+01  0.17158108824E+02  0.88807924429E+02  0.10338638557E+03  0.50000000000E+02 0.  0.
<mgrwt>
<rscale>  0 0.52932951E+02</rscale>
<asrwt>0</asrwt>
<pdfrwt beam="1">  1       13 0.10000000E+01 0.52932951E+02</pdfrwt>
<pdfrwt beam="2">  1       22 0.26628359E+00 0.52932951E+02</pdfrwt>
<totfact> 0.26075490E-01</totfact>
</mgrwt>
</event>
<event>
 4    1  0.2437479E+000  0.5109101E+02  0.7957747E-01  0.1439544E+00
         13   -1    0    0    0    0  0.00000000000E+00  0.00000000000E+00  0.99999944175E+02  0.99999999995E+02  0.10566000000E+00 0. -1.
         22   -1    0    0    0    0 -0.00000000000E+00 -0.00000000000E+00 -0.20296142546E+02  0.20296142546E+02  0.00000000000E+00 0.  1.
         13    1    1    2    0    0 -0.79470877462E+00 -0.10471840930E+02 -0.11613449474E+02  0.15658045447E+02  0.10566000000E+00 0.  1.
        996    1    1    2    0    0  0.79470877462E+00  0.10471840930E+02  0.91317251103E+02  0.10463809709E+03  0.50000000000E+02 0.  0.
<mgrwt>
<rscale>  0 0.51091007E+02</rscale>
<asrwt>0</asrwt>
<pdfrwt beam="1">  1       13 0.10000000E+01 0.51091007E+02</pdfrwt>
<pdfrwt beam="2">  1       22 0.20296165E+00 0.51091007E+02</pdfrwt>
<totfact> 0.44007340E-01</totfact>
</mgrwt>
</event>
<event>
 4    1  0.2437479E+000  0.5213685E+02  0.7957747E-01  0.1434145E+00
         13   -1    0    0    0    0  0.00000000000E+00  0.00000000000E+00  0.99999944179E+02  0.99999999999E+02  0.10566000000E+00 0. -1.
         22   -1    0    0    0    0 -0.00000000000E+00 -0.00000000000E+00 -0.12796073065E+02  0.12796073065E+02  0.00000000000E+00 0. -1.
         13    1    1    2    0    0 -0.53191857540E+01 -0.13782506492E+02  0.52796333332E+01  0.15688751207E+02  0.10566000000E+00 0.  1.
        996    1    1    2    0    0  0.53191857540E+01  0.13782506492E+02  0.81924237780E+02  0.97107321857E+02  0.50000000000E+02 0.  0.
<mgrwt>
<rscale>  0 0.52136851E+02</rscale>
<asrwt>0</asrwt>
<pdfrwt beam="1">  1       13 0.10000000E+01 0.52136851E+02</pdfrwt>
<pdfrwt beam="2">  1       22 0.12796097E+00 0.52136851E+02</pdfrwt>
<totfact> 0.97342869E-01</totfact>
</mgrwt>
</event>
<event>
 4    1  0.2437479E+000  0.8238571E+02  0.7957747E-01  0.1322414E+00
         13   -1    0    0    0    0  0.00000000000E+00  0.00000000000E+00  0.99999944189E+02  0.10000000001E+03  0.10566000000E+00 0. -1.
         22   -1    0    0    0    0 -0.00000000000E+00 -0.00000000000E+00 -0.72769401264E+02  0.72769401264E+02  0.00000000000E+00 0.  1.
         13    1    1    2    0    0  0.65372859461E+02  0.37140467195E+01 -0.30436396933E+02  0.72206580860E+02  0.10566000000E+00 0.  1.
        996    1    1    2    0    0 -0.65372859461E+02 -0.37140467195E+01  0.57666939858E+02  0.10056282041E+03  0.50000000000E+02 0.  0.
<mgrwt>
<rscale>  0 0.82385708E+02</rscale>
<asrwt>0</asrwt>
<pdfrwt beam="1">  1       13 0.10000000E+01 0.82385708E+02</pdfrwt>
<pdfrwt beam="2">  1       22 0.72769409E+00 0.82385708E+02</pdfrwt>
<totfact> 0.59935016E-02</totfact>
</mgrwt>
</event>
<event>
 4    1  0.2437479E+000  0.6631707E+02  0.7957747E-01  0.1373085E+00
         13   -1    0    0    0    0  0.00000000000E+00  0.00000000000E+00  0.99999944178E+02  0.99999999999E+02  0.10566000000E+00 0. -1.
         22   -1    0    0    0    0 -0.00000000000E+00 -0.00000000000E+00 -0.43917163257E+02  0.43917163257E+02  0.00000000000E+00 0. -1.
         13    1    1    2    0    0 -0.38391031597E+02  0.20593278122E+02 -0.15589110112E+02  0.46270789155E+02  0.10566000000E+00 0.  1.
        996    1    1    2    0    0  0.38391031597E+02 -0.20593278122E+02  0.71671891033E+02  0.97646374101E+02  0.50000000000E+02 0.  0.
<mgrwt>
<rscale>  0 0.66317075E+02</rscale>
<asrwt>0</asrwt>
<pdfrwt beam="1">  1       13 0.10000000E+01 0.66317075E+02</pdfrwt>
<pdfrwt beam="2">  1       22 0.43917179E+00 0.66317075E+02</pdfrwt>
<totfact> 0.10295975E-01</totfact>
</mgrwt>
</event>
<event>
 4    1  0.2437479E+000  0.5986596E+02  0.7957747E-01  0.1398395E+00
         13   -1    0    0    0    0  0.00000000000E+00  0.00000000000E+00  0.99999944178E+02  0.99999999999E+02  0.10566000000E+00 0. -1.
         22   -1    0    0    0    0 -0.00000000000E+00 -0.00000000000E+00 -0.23125207344E+02  0.23125207344E+02  0.00000000000E+00 0.  1.
         13    1    1    2    0    0 -0.32323684852E+02  0.62540492362E+01  0.12501239705E+02  0.35216841035E+02  0.10566000000E+00 0.  1.
        996    1    1    2    0    0  0.32323684852E+02 -0.62540492362E+01  0.64373497129E+02  0.87908366308E+02  0.50000000000E+02 0.  0.
<mgrwt>
<rscale>  0 0.59865965E+02</rscale>
<asrwt>0</asrwt>
<pdfrwt beam="1">  1       13 0.10000000E+01 0.59865965E+02</pdfrwt>
<pdfrwt beam="2">  1       22 0.23125229E+00 0.59865965E+02</pdfrwt>
<totfact> 0.34758238E-01</totfact>
</mgrwt>
</event>
<event>
 4    1  0.2437479E+000  0.5222865E+02  0.7957747E-01  0.1433679E+00
         13   -1    0    0    0    0  0.00000000000E+00  0.00000000000E+00  0.99999944179E+02  0.99999999999E+02  0.10566000000E+00 0. -1.
         22   -1    0    0    0    0 -0.00000000000E+00 -0.00000000000E+00 -0.11341533232E+02  0.11341533232E+02  0.00000000000E+00 0. -1.
         13    1    1    2    0    0 -0.92668792387E+01  0.11914579317E+02  0.21317093620E+02  0.26120143483E+02  0.10566000000E+00 0.  1.
        996    1    1    2    0    0  0.92668792387E+01 -0.11914579317E+02  0.67341317327E+02  0.85221389747E+02  0.50000000000E+02 0.  0.
<mgrwt>
<rscale>  0 0.52228654E+02</rscale>
<asrwt>0</asrwt>
<pdfrwt beam="1">  1       13 0.10000000E+01 0.52228654E+02</pdfrwt>
<pdfrwt beam="2">  1       22 0.11341558E+00 0.52228654E+02</pdfrwt>
<totfact> 0.11715713E+00</totfact>
</mgrwt>
</event>
<event>
 4    1  0.2437479E+000  0.5696133E+02  0.7957747E-01  0.1411045E+00
         13   -1    0    0    0    0  0.00000000000E+00  0.00000000000E+00  0.99999944178E+02  0.99999999999E+02  0.10566000000E+00 0.  1.
         22   -1    0    0    0    0 -0.00000000000E+00 -0.00000000000E+00 -0.33876796908E+02  0.33876796908E+02  0.00000000000E+00 0. -1.
         13    1    1    2    0    0 -0.66214034432E+01  0.26471676824E+02 -0.17704379486E+02  0.32527663218E+02  0.10566000000E+00 0. -1.
        996    1    1    2    0    0  0.66214034432E+01 -0.26471676824E+02  0.83827526756E+02  0.10134913369E+03  0.50000000000E+02 0.  0.
<mgrwt>
<rscale>  0 0.56961326E+02</rscale>
<asrwt>0</asrwt>
<pdfrwt beam="1">  1       13 0.10000000E+01 0.56961326E+02</pdfrwt>
<pdfrwt beam="2">  1       22 0.33876815E+00 0.56961326E+02</pdfrwt>
<totfact> 0.16721762E-01</totfact>
</mgrwt>
</event>
<event>
 4    1  0.2437479E+000  0.5103719E+02  0.7957747E-01  0.1439826E+00
         13   -1    0    0    0    0  0.00000000000E+00  0.00000000000E+00  0.99999944182E+02  0.10000000000E+03  0.10566000000E+00 0. -1.
         22   -1    0    0    0    0 -0.00000000000E+00 -0.00000000000E+00 -0.95142746465E+01  0.95142746465E+01  0.00000000000E+00 0. -1.
         13    1    1    2    0    0  0.78532873437E+01  0.65666037388E+01  0.10761733212E+02  0.14853298372E+02  0.10566000000E+00 0.  1.
        996    1    1    2    0    0 -0.78532873437E+01 -0.65666037388E+01  0.79723936324E+02  0.94660976277E+02  0.50000000000E+02 0.  0.
<mgrwt>
<rscale>  0 0.51037187E+02</rscale>
<asrwt>0</asrwt>
<pdfrwt beam="1">  1       13 0.10000000E+01 0.51037187E+02</pdfrwt>
<pdfrwt beam="2">  1       22 0.95142999E-01 0.51037187E+02</pdfrwt>
<totfact> 0.15109361E+00</totfact>
</mgrwt>
</event>
<event>
 4    1  0.2437479E+000  0.5731604E+02  0.7957747E-01  0.1409453E+00
         13   -1    0    0    0    0  0.00000000000E+00  0.00000000000E+00  0.99999944185E+02  0.10000000001E+03  0.10566000000E+00 0. -1.
         22   -1    0    0    0    0 -0.00000000000E+00 -0.00000000000E+00 -0.47612042983E+02  0.47612042983E+02  0.00000000000E+00 0.  1.
         13    1    1    2    0    0 -0.10674674433E+02 -0.25907136586E+02 -0.33925913740E+02  0.44001218022E+02  0.10566000000E+00 0.  1.
        996    1    1    2    0    0  0.10674674433E+02  0.25907136586E+02  0.86313814942E+02  0.10361082497E+03  0.50000000000E+02 0.  0.
<mgrwt>
<rscale>  0 0.57316040E+02</rscale>
<asrwt>0</asrwt>
<pdfrwt beam="1">  1       13 0.10000000E+01 0.57316040E+02</pdfrwt>
<pdfrwt beam="2">  1       22 0.47612058E+00 0.57316040E+02</pdfrwt>
<totfact> 0.84245599E-02</totfact>
</mgrwt>
</event>
<event>
 4    1  0.2437479E+000  0.5337842E+02  0.7957747E-01  0.1427927E+00
         13   -1    0    0    0    0  0.00000000000E+00  0.00000000000E+00  0.99999944174E+02  0.99999999994E+02  0.10566000000E+00 0. -1.
         22   -1    0    0    0    0 -0.00000000000E+00 -0.00000000000E+00 -0.14300042083E+02  0.14300042083E+02  0.00000000000E+00 0.  1.
         13    1    1    2    0    0  0.96028417265E+01  0.16032503107E+02  0.87167887147E+01  0.20621573525E+02  0.10566000000E+00 0.  1.
        996    1    1    2    0    0 -0.96028417265E+01 -0.16032503107E+02  0.76983113377E+02  0.93678468552E+02  0.50000000000E+02 0.  0.
<mgrwt>
<rscale>  0 0.53378420E+02</rscale>
<asrwt>0</asrwt>
<pdfrwt beam="1">  1       13 0.10000000E+01 0.53378420E+02</pdfrwt>
<pdfrwt beam="2">  1       22 0.14300066E+00 0.53378420E+02</pdfrwt>
<totfact> 0.81698423E-01</totfact>
</mgrwt>
</event>
<event>
 4    1  0.2437479E+000  0.5147426E+02  0.7957747E-01  0.1437548E+00
         13   -1    0    0    0    0  0.00000000000E+00  0.00000000000E+00  0.99999944174E+02  0.99999999994E+02  0.10566000000E+00 0.  1.
         22   -1    0    0    0    0 -0.00000000000E+00 -0.00000000000E+00 -0.11579349555E+02  0.11579349555E+02  0.00000000000E+00 0. -1.
         13    1    1    2    0    0 -0.33918722759E+01  0.11751372118E+02  0.43112530016E+01  0.12969102153E+02  0.10566000000E+00 0. -1.
        996    1    1    2    0    0  0.33918722759E+01 -0.11751372118E+02  0.84109341617E+02  0.98610247396E+02  0.50000000000E+02 0.  0.
<mgrwt>
<rscale>  0 0.51474261E+02</rscale>
<asrwt>0</asrwt>
<pdfrwt beam="1">  1       13 0.10000000E+01 0.51474261E+02</pdfrwt>
<pdfrwt beam="2">  1       22 0.11579374E+00 0.51474261E+02</pdfrwt>
<totfact> 0.11335541E+00</totfact>
</mgrwt>
</event>
<event>
 4    1  0.2437479E+000  0.5506985E+02  0.7957747E-01  0.1419769E+00
         13   -1    0    0    0    0  0.00000000000E+00  0.00000000000E+00  0.99999944183E+02  0.10000000000E+03  0.10566000000E+00 0. -1.
         22   -1    0    0    0    0 -0.00000000000E+00 -0.00000000000E+00 -0.22845916841E+02  0.22845916841E+02  0.00000000000E+00 0. -1.
         13    1    1    2    0    0 -0.34801410736E+01 -0.22816166812E+02 -0.53111019473E+01  0.23683492517E+02  0.10566000000E+00 0.  1.
        996    1    1    2    0    0  0.34801410736E+01  0.22816166812E+02  0.82465129289E+02  0.99162424327E+02  0.50000000000E+02 0.  0.
<mgrwt>
<rscale>  0 0.55069854E+02</rscale>
<asrwt>0</asrwt>
<pdfrwt beam="1">  1       13 0.10000000E+01 0.55069854E+02</pdfrwt>
<pdfrwt beam="2">  1       22 0.22845938E+00 0.55069854E+02</pdfrwt>
<totfact> 0.35337264E-01</totfact>
</mgrwt>
</event>
<event>
 4    1  0.2437479E+000  0.5416240E+02  0.7957747E-01  0.1424102E+00
         13   -1    0    0    0    0  0.00000000000E+00  0.00000000000E+00  0.99999944179E+02  0.99999999999E+02  0.10566000000E+00 0. -1.
         22   -1    0    0    0    0 -0.00000000000E+00 -0.00000000000E+00 -0.14196531990E+02  0.14196531990E+02  0.00000000000E+00 0. -1.
         13    1    1    2    0    0  0.19369566666E+02 -0.76410499613E+01  0.29094234039E+02  0.35777805630E+02  0.10566000000E+00 0.  1.
        996    1    1    2    0    0 -0.19369566666E+02  0.76410499613E+01  0.56709178150E+02  0.78418726359E+02  0.50000000000E+02 0.  0.
<mgrwt>
<rscale>  0 0.54162402E+02</rscale>
<asrwt>0</asrwt>
<pdfrwt beam="1">  1       13 0.10000000E+01 0.54162402E+02</pdfrwt>
<pdfrwt beam="2">  1       22 0.14196556E+00 0.54162402E+02</pdfrwt>
<totfact> 0.82804035E-01</totfact>
</mgrwt>
</event>
<event>
 4    1  0.2437479E+000  0.5388285E+02  0.7957747E-01  0.1425457E+00
         13   -1    0    0    0    0  0.00000000000E+00  0.00000000000E+00  0.99999944167E+02  0.99999999987E+02  0.10566000000E+00 0.  1.
         22   -1    0    0    0    0 -0.00000000000E+00 -0.00000000000E+00 -0.67670684716E+02  0.67670684716E+02  0.00000000000E+00 0. -1.
         13    1    1    2    0    0  0.19565589964E+02  0.45331031073E+01 -0.58616166263E+02  0.61961499706E+02  0.10566000000E+00 0. -1.
        996    1    1    2    0    0 -0.19565589964E+02 -0.45331031073E+01  0.90945425714E+02  0.10570918500E+03  0.50000000000E+02 0.  0.
<mgrwt>
<rscale>  0 0.53882848E+02</rscale>
<asrwt>0</asrwt>
<pdfrwt beam="1">  1       13 0.10000000E+01 0.53882848E+02</pdfrwt>
<pdfrwt beam="2">  1       22 0.67670694E+00 0.53882848E+02</pdfrwt>
<totfact> 0.84551845E-02</totfact>
</mgrwt>
</event>
<event>
 4    1  0.2437479E+000  0.5131808E+02  0.7957747E-01  0.1438359E+00
         13   -1    0    0    0    0  0.00000000000E+00  0.00000000000E+00  0.99999944184E+02  0.10000000000E+03  0.10566000000E+00 0. -1.
         22   -1    0    0    0    0 -0.00000000000E+00 -0.00000000000E+00 -0.10096882970E+02  0.10096882970E+02  0.00000000000E+00 0. -1.
         13    1    1    2    0    0 -0.49299625529E+01  0.10451846686E+02  0.10877418078E+02  0.15870570815E+02  0.10566000000E+00 0.  1.
        996    1    1    2    0    0  0.49299625529E+01 -0.10451846686E+02  0.79025643136E+02  0.94226312159E+02  0.50000000000E+02 0.  0.
<mgrwt>
<rscale>  0 0.51318083E+02</rscale>
<asrwt>0</asrwt>
<pdfrwt beam="1">  1       13 0.10000000E+01 0.51318083E+02</pdfrwt>
<pdfrwt beam="2">  1       22 0.10096908E+00 0.51318083E+02</pdfrwt>
<totfact> 0.13879256E+00</totfact>
</mgrwt>
</event>
<event>
 4    1  0.2437479E+000  0.5902806E+02  0.7957747E-01  0.1401956E+00
         13   -1    0    0    0    0  0.00000000000E+00  0.00000000000E+00  0.99999944182E+02  0.10000000000E+03  0.10566000000E+00 0.  1.
         22   -1    0    0    0    0 -0.00000000000E+00 -0.00000000000E+00 -0.58062899723E+02  0.58062899723E+02  0.00000000000E+00 0. -1.
         13    1    1    2    0    0  0.30811565677E+02  0.59125941280E+01 -0.43857164176E+02  0.53923773629E+02  0.10566000000E+00 0. -1.
        996    1    1    2    0    0 -0.30811565677E+02 -0.59125941280E+01  0.85794208635E+02  0.10413912610E+03  0.50000000000E+02 0.  0.
<mgrwt>
<rscale>  0 0.59028056E+02</rscale>
<asrwt>0</asrwt>
<pdfrwt beam="1">  1       13 0.10000000E+01 0.59028056E+02</pdfrwt>
<pdfrwt beam="2">  1       22 0.58062911E+00 0.59028056E+02</pdfrwt>
<totfact> 0.58475501E-02</totfact>
</mgrwt>
</event>
<event>
 4    1  0.2437479E+000  0.5255757E+02  0.7957747E-01  0.1432015E+00
         13   -1    0    0    0    0  0.00000000000E+00  0.00000000000E+00  0.99999944179E+02  0.10000000000E+03  0.10566000000E+00 0.  1.
         22   -1    0    0    0    0 -0.00000000000E+00 -0.00000000000E+00 -0.12593223831E+02  0.12593223831E+02  0.00000000000E+00 0.  1.
         13    1    1    2    0    0 -0.15750837994E+02  0.37694675284E+01  0.10015012895E+02  0.19042306328E+02  0.10566000000E+00 0. -1.
        996    1    1    2    0    0  0.15750837994E+02 -0.37694675284E+01  0.77391707453E+02  0.93550917502E+02  0.50000000000E+02 0.  0.
<mgrwt>
<rscale>  0 0.52557566E+02</rscale>
<asrwt>0</asrwt>
<pdfrwt beam="1">  1       13 0.10000000E+01 0.52557566E+02</pdfrwt>
<pdfrwt beam="2">  1       22 0.12593248E+00 0.52557566E+02</pdfrwt>
<totfact> 0.99894921E-01</totfact>
</mgrwt>
</event>
<event>
 4    1  0.2437479E+000  0.6428761E+02  0.7957747E-01  0.1380671E+00
         13   -1    0    0    0    0  0.00000000000E+00  0.00000000000E+00  0.99999944172E+02  0.99999999993E+02  0.10566000000E+00 0. -1.
         22   -1    0    0    0    0 -0.00000000000E+00 -0.00000000000E+00 -0.30916084610E+02  0.30916084610E+02  0.00000000000E+00 0. -1.
         13    1    1    2    0    0 -0.31045014743E+02  0.25867030089E+02  0.60098059202E+01  0.40853703838E+02  0.10566000000E+00 0.  1.
        996    1    1    2    0    0  0.31045014743E+02 -0.25867030089E+02  0.63074053642E+02  0.90062380764E+02  0.50000000000E+02 0.  0.
<mgrwt>
<rscale>  0 0.64287605E+02</rscale>
<asrwt>0</asrwt>
<pdfrwt beam="1">  1       13 0.10000000E+01 0.64287605E+02</pdfrwt>
<pdfrwt beam="2">  1       22 0.30916104E+00 0.64287605E+02</pdfrwt>
<totfact> 0.19857057E-01</totfact>
</mgrwt>
</event>
<event>
 4    1  0.2437479E+000  0.5135821E+02  0.7957747E-01  0.1438150E+00
         13   -1    0    0    0    0  0.00000000000E+00  0.00000000000E+00  0.99999944180E+02  0.10000000000E+03  0.10566000000E+00 0. -1.
         22   -1    0    0    0    0 -0.00000000000E+00 -0.00000000000E+00 -0.10044187889E+02  0.10044187889E+02  0.00000000000E+00 0. -1.
         13    1    1    2    0    0  0.10964714413E+02 -0.41762430587E+01  0.12863205271E+02  0.17410892628E+02  0.10566000000E+00 0.  1.
        996    1    1    2    0    0 -0.10964714413E+02  0.41762430587E+01  0.77092551020E+02  0.92633295262E+02  0.50000000000E+02 0.  0.
<mgrwt>
<rscale>  0 0.51358212E+02</rscale>
<asrwt>0</asrwt>
<pdfrwt beam="1">  1       13 0.10000000E+01 0.51358212E+02</pdfrwt>
<pdfrwt beam="2">  1       22 0.10044213E+00 0.51358212E+02</pdfrwt>
<totfact> 0.13986381E+00</totfact>
</mgrwt>
</event>
<event>
 4    1  0.2437479E+000  0.5633517E+02  0.7957747E-01  0.1413888E+00
         13   -1    0    0    0    0  0.00000000000E+00  0.00000000000E+00  0.99999944181E+02  0.10000000000E+03  0.10566000000E+00 0.  1.
         22   -1    0    0    0    0 -0.00000000000E+00 -0.00000000000E+00 -0.19309181675E+02  0.19309181675E+02  0.00000000000E+00 0. -1.
         13    1    1    2    0    0 -0.22976712725E+02 -0.12071556349E+02  0.76339876341E+01  0.27054403182E+02  0.10566000000E+00 0. -1.
        996    1    1    2    0    0  0.22976712725E+02  0.12071556349E+02  0.73056774872E+02  0.92254778494E+02  0.50000000000E+02 0.  0.
<mgrwt>
<rscale>  0 0.56335174E+02</rscale>
<asrwt>0</asrwt>
<pdfrwt beam="1">  1       13 0.10000000E+01 0.56335174E+02</pdfrwt>
<pdfrwt beam="2">  1       22 0.19309204E+00 0.56335174E+02</pdfrwt>
<totfact> 0.48726579E-01</totfact>
</mgrwt>
</event>
<event>
 4    1  0.2437479E+000  0.5137654E+02  0.7957747E-01  0.1438055E+00
         13   -1    0    0    0    0  0.00000000000E+00  0.00000000000E+00  0.99999944178E+02  0.99999999998E+02  0.10566000000E+00 0.  1.
         22   -1    0    0    0    0 -0.00000000000E+00 -0.00000000000E+00 -0.24737937308E+02  0.24737937308E+02  0.00000000000E+00 0. -1.
         13    1    1    2    0    0  0.72624139801E+01  0.93169753513E+01 -0.16071326981E+02  0.19946112440E+02  0.10566000000E+00 0. -1.
        996    1    1    2    0    0 -0.72624139801E+01 -0.93169753513E+01  0.91333333851E+02  0.10479182487E+03  0.50000000000E+02 0.  0.
<mgrwt>
<rscale>  0 0.51376538E+02</rscale>
<asrwt>0</asrwt>
<pdfrwt beam="1">  1       13 0.10000000E+01 0.51376538E+02</pdfrwt>
<pdfrwt beam="2">  1       22 0.24737958E+00 0.51376538E+02</pdfrwt>
<totfact> 0.30066746E-01</totfact>
</mgrwt>
</event>
<event>
 4    1  0.2437479E+000  0.5251678E+02  0.7957747E-01  0.1432221E+00
         13   -1    0    0    0    0  0.00000000000E+00  0.00000000000E+00  0.99999944179E+02  0.99999999999E+02  0.10566000000E+00 0. -1.
         22   -1    0    0    0    0 -0.00000000000E+00 -0.00000000000E+00 -0.14716361181E+02  0.14716361181E+02  0.00000000000E+00 0. -1.
         13    1    1    2    0    0  0.90111479006E+01 -0.13297058731E+02  0.19031579928E+01  0.16175466972E+02  0.10566000000E+00 0.  1.
        996    1    1    2    0    0 -0.90111479006E+01  0.13297058731E+02  0.83380425005E+02  0.98540894208E+02  0.50000000000E+02 0.  0.
<mgrwt>
<rscale>  0 0.52516784E+02</rscale>
<asrwt>0</asrwt>
<pdfrwt beam="1">  1       13 0.10000000E+01 0.52516784E+02</pdfrwt>
<pdfrwt beam="2">  1       22 0.14716385E+00 0.52516784E+02</pdfrwt>
<totfact> 0.77797189E-01</totfact>
</mgrwt>
</event>
<event>
 4    1  0.2437479E+000  0.5609011E+02  0.7957747E-01  0.1415013E+00
         13   -1    0    0    0    0  0.00000000000E+00  0.00000000000E+00  0.99999944174E+02  0.99999999994E+02  0.10566000000E+00 0. -1.
         22   -1    0    0    0    0 -0.00000000000E+00 -0.00000000000E+00 -0.41487382563E+02  0.41487382563E+02  0.00000000000E+00 0.  1.
         13    1    1    2    0    0 -0.15053438186E+02 -0.20481560893E+02 -0.28357833518E+02  0.38082518610E+02  0.10566000000E+00 0.  1.
        996    1    1    2    0    0  0.15053438186E+02  0.20481560893E+02  0.86870395129E+02  0.10340486395E+03  0.50000000000E+02 0.  0.
<mgrwt>
<rscale>  0 0.56090109E+02</rscale>
<asrwt>0</asrwt>
<pdfrwt beam="1">  1       13 0.10000000E+01 0.56090109E+02</pdfrwt>
<pdfrwt beam="2">  1       22 0.41487399E+00 0.56090109E+02</pdfrwt>
<totfact> 0.11551276E-01</totfact>
</mgrwt>
</event>
<event>
 4    1  0.2437479E+000  0.5337305E+02  0.7957747E-01  0.1427953E+00
         13   -1    0    0    0    0  0.00000000000E+00  0.00000000000E+00  0.99999944174E+02  0.99999999994E+02  0.10566000000E+00 0. -1.
         22   -1    0    0    0    0 -0.00000000000E+00 -0.00000000000E+00 -0.18291425936E+02  0.18291425936E+02  0.00000000000E+00 0.  1.
         13    1    1    2    0    0 -0.18213655296E+02 -0.41164820939E+01 -0.22455907837E+01  0.18807884146E+02  0.10566000000E+00 0.  1.
        996    1    1    2    0    0  0.18213655296E+02  0.41164820939E+01  0.83954109022E+02  0.99483541783E+02  0.50000000000E+02 0.  0.
<mgrwt>
<rscale>  0 0.53373052E+02</rscale>
<asrwt>0</asrwt>
<pdfrwt beam="1">  1       13 0.10000000E+01 0.53373052E+02</pdfrwt>
<pdfrwt beam="2">  1       22 0.18291449E+00 0.53373052E+02</pdfrwt>
<totfact> 0.53511757E-01</totfact>
</mgrwt>
</event>
<event>
 4    1  0.2437479E+000  0.5380224E+02  0.7957747E-01  0.1425850E+00
         13   -1    0    0    0    0  0.00000000000E+00  0.00000000000E+00  0.99999944181E+02  0.10000000000E+03  0.10566000000E+00 0.  1.
         22   -1    0    0    0    0 -0.00000000000E+00 -0.00000000000E+00 -0.48406649258E+02  0.48406649258E+02  0.00000000000E+00 0. -1.
         13    1    1    2    0    0  0.19734627826E+02 -0.22859260648E+01 -0.38584316989E+02  0.43398636786E+02  0.10566000000E+00 0. -1.
        996    1    1    2    0    0 -0.19734627826E+02  0.22859260648E+01  0.90177611912E+02  0.10500801247E+03  0.50000000000E+02 0.  0.
<mgrwt>
<rscale>  0 0.53802240E+02</rscale>
<asrwt>0</asrwt>
<pdfrwt beam="1">  1       13 0.10000000E+01 0.53802240E+02</pdfrwt>
<pdfrwt beam="2">  1       22 0.48406664E+00 0.53802240E+02</pdfrwt>
<totfact> 0.80501279E-02</totfact>
</mgrwt>
</event>
<event>
 4    1  0.2437479E+000  0.5324395E+02  0.7957747E-01  0.1428591E+00
         13   -1    0    0    0    0  0.00000000000E+00  0.00000000000E+00  0.99999944184E+02  0.10000000000E+03  0.10566000000E+00 0. -1.
         22   -1    0    0    0    0 -0.00000000000E+00 -0.00000000000E+00 -0.24144056248E+02  0.24144056248E+02  0.00000000000E+00 0.  1.
         13    1    1    2    0    0 -0.96527951632E+01  0.15548038623E+02 -0.11663019500E+02  0.21701501040E+02  0.10566000000E+00 0.  1.
        996    1    1    2    0    0  0.96527951632E+01 -0.15548038623E+02  0.87518907436E+02  0.10244255521E+03  0.50000000000E+02 0.  0.
<mgrwt>
<rscale>  0 0.53243948E+02</rscale>
<asrwt>0</asrwt>
<pdfrwt beam="1">  1       13 0.10000000E+01 0.53243948E+02</pdfrwt>
<pdfrwt beam="2">  1       22 0.24144077E+00 0.53243948E+02</pdfrwt>
<totfact> 0.31629669E-01</totfact>
</mgrwt>
</event>
<event>
 4    1  0.2437479E+000  0.5219045E+02  0.7957747E-01  0.1433873E+00
         13   -1    0    0    0    0  0.00000000000E+00  0.00000000000E+00  0.99999944183E+02  0.10000000000E+03  0.10566000000E+00 0. -1.
         22   -1    0    0    0    0 -0.00000000000E+00 -0.00000000000E+00 -0.15633814725E+02  0.15633814725E+02  0.00000000000E+00 0.  1.
         13    1    1    2    0    0 -0.14834164447E+02 -0.19468343070E+01 -0.16190155258E+01  0.15049085487E+02  0.10566000000E+00 0.  1.
        996    1    1    2    0    0  0.14834164447E+02  0.19468343070E+01  0.85985144984E+02  0.10058472924E+03  0.50000000000E+02 0.  0.
<mgrwt>
<rscale>  0 0.52190445E+02</rscale>
<asrwt>0</asrwt>
<pdfrwt beam="1">  1       13 0.10000000E+01 0.52190445E+02</pdfrwt>
<pdfrwt beam="2">  1       22 0.15633838E+00 0.52190445E+02</pdfrwt>
<totfact> 0.70264833E-01</totfact>
</mgrwt>
</event>
<event>
 4    1  0.2437479E+000  0.5592729E+02  0.7957747E-01  0.1415764E+00
         13   -1    0    0    0    0  0.00000000000E+00  0.00000000000E+00  0.99999944182E+02  0.10000000000E+03  0.10566000000E+00 0.  1.
         22   -1    0    0    0    0 -0.00000000000E+00 -0.00000000000E+00 -0.16440819701E+02  0.16440819701E+02  0.00000000000E+00 0.  1.
         13    1    1    2    0    0  0.66647697391E+01  0.24154547405E+02  0.28699625520E+02  0.38099094281E+02  0.10566000000E+00 0. -1.
        996    1    1    2    0    0 -0.66647697391E+01 -0.24154547405E+02  0.54859498961E+02  0.78341725423E+02  0.50000000000E+02 0.  0.
<mgrwt>
<rscale>  0 0.55927286E+02</rscale>
<asrwt>0</asrwt>
<pdfrwt beam="1">  1       13 0.10000000E+01 0.55927286E+02</pdfrwt>
<pdfrwt beam="2">  1       22 0.16440843E+00 0.55927286E+02</pdfrwt>
<totfact> 0.64922360E-01</totfact>
</mgrwt>
</event>
<event>
 4    1  0.2437479E+000  0.5279445E+02  0.7957747E-01  0.1430827E+00
         13   -1    0    0    0    0  0.00000000000E+00  0.00000000000E+00  0.99999944179E+02  0.10000000000E+03  0.10566000000E+00 0.  1.
         22   -1    0    0    0    0 -0.00000000000E+00 -0.00000000000E+00 -0.22012754708E+02  0.22012754708E+02  0.00000000000E+00 0. -1.
         13    1    1    2    0    0  0.15384957127E+02  0.71103355104E+01 -0.97963995200E+01  0.19576373118E+02  0.10566000000E+00 0. -1.
        996    1    1    2    0    0 -0.15384957127E+02 -0.71103355104E+01  0.87783588991E+02  0.10243638159E+03  0.50000000000E+02 0.  0.
<mgrwt>
<rscale>  0 0.52794448E+02</rscale>
<asrwt>0</asrwt>
<pdfrwt beam="1">  1       13 0.10000000E+01 0.52794448E+02</pdfrwt>
<pdfrwt beam="2">  1       22 0.22012776E+00 0.52794448E+02</pdfrwt>
<totfact> 0.37829726E-01</totfact>
</mgrwt>
</event>
<event>
 4    1  0.2437479E+000  0.5142739E+02  0.7957747E-01  0.1437791E+00
         13   -1    0    0    0    0  0.00000000000E+00  0.00000000000E+00  0.99999944188E+02  0.10000000001E+03  0.10566000000E+00 0. -1.
         22   -1    0    0    0    0 -0.00000000000E+00 -0.00000000000E+00 -0.18843704381E+02  0.18843704381E+02  0.00000000000E+00 0.  1.
         13    1    1    2    0    0 -0.11643736810E+02 -0.30330473405E+01 -0.90168901646E+01  0.15036337830E+02  0.10566000000E+00 0.  1.
        996    1    1    2    0    0  0.11643736810E+02  0.30330473405E+01  0.90173129972E+02  0.10380736656E+03  0.50000000000E+02 0.  0.
<mgrwt>
<rscale>  0 0.51427386E+02</rscale>
<asrwt>0</asrwt>
<pdfrwt beam="1">  1       13 0.10000000E+01 0.51427386E+02</pdfrwt>
<pdfrwt beam="2">  1       22 0.18843727E+00 0.51427386E+02</pdfrwt>
<totfact> 0.50517380E-01</totfact>
</mgrwt>
</event>
<event>
 4    1  0.2437479E+000  0.5174524E+02  0.7957747E-01  0.1436149E+00
         13   -1    0    0    0    0  0.00000000000E+00  0.00000000000E+00  0.99999944175E+02  0.99999999995E+02  0.10566000000E+00 0.  1.
         22   -1    0    0    0    0 -0.00000000000E+00 -0.00000000000E+00 -0.11062154717E+02  0.11062154717E+02  0.00000000000E+00 0.  1.
         13    1    1    2    0    0 -0.62969329809E+01 -0.11743851792E+02  0.28753491876E+02  0.31691384933E+02  0.10566000000E+00 0. -1.
        996    1    1    2    0    0  0.62969329809E+01  0.11743851792E+02  0.60184297582E+02  0.79370769779E+02  0.50000000000E+02 0.  0.
<mgrwt>
<rscale>  0 0.51745236E+02</rscale>
<asrwt>0</asrwt>
<pdfrwt beam="1">  1       13 0.10000000E+01 0.51745236E+02</pdfrwt>
<pdfrwt beam="2">  1       22 0.11062180E+00 0.51745236E+02</pdfrwt>
<totfact> 0.12147665E+00</totfact>
</mgrwt>
</event>
<event>
 4    1  0.2437479E+000  0.5402516E+02  0.7957747E-01  0.1424766E+00
         13   -1    0    0    0    0  0.00000000000E+00  0.00000000000E+00  0.99999944182E+02  0.10000000000E+03  0.10566000000E+00 0.  1.
         22   -1    0    0    0    0 -0.00000000000E+00 -0.00000000000E+00 -0.18500127166E+02  0.18500127166E+02  0.00000000000E+00 0. -1.
         13    1    1    2    0    0 -0.24646547824E+01  0.20313636505E+02 -0.30565732484E+00  0.20465164102E+02  0.10566000000E+00 0. -1.
        996    1    1    2    0    0  0.24646547824E+01 -0.20313636505E+02  0.81805474341E+02  0.98034963066E+02  0.50000000000E+02 0.  0.
<mgrwt>
<rscale>  0 0.54025164E+02</rscale>
<asrwt>0</asrwt>
<pdfrwt beam="1">  1       13 0.10000000E+01 0.54025164E+02</pdfrwt>
<pdfrwt beam="2">  1       22 0.18500150E+00 0.54025164E+02</pdfrwt>
<totfact> 0.52486074E-01</totfact>
</mgrwt>
</event>
<event>
 4    1  0.2437479E+000  0.5117945E+02  0.7957747E-01  0.1439082E+00
         13   -1    0    0    0    0  0.00000000000E+00  0.00000000000E+00  0.99999944182E+02  0.10000000000E+03  0.10566000000E+00 0.  1.
         22   -1    0    0    0    0 -0.00000000000E+00 -0.00000000000E+00 -0.10843501470E+02  0.10843501470E+02  0.00000000000E+00 0.  1.
         13    1    1    2    0    0  0.99471961861E+01  0.45155078423E+01  0.42849194646E+01  0.11734914652E+02  0.10566000000E+00 0. -1.
        996    1    1    2    0    0 -0.99471961861E+01 -0.45155078423E+01  0.84871523248E+02  0.99108586820E+02  0.50000000000E+02 0.  0.
<mgrwt>
<rscale>  0 0.51179454E+02</rscale>
<asrwt>0</asrwt>
<pdfrwt beam="1">  1       13 0.10000000E+01 0.51179454E+02</pdfrwt>
<pdfrwt beam="2">  1       22 0.10843526E+00 0.51179454E+02</pdfrwt>
<totfact> 0.12496784E+00</totfact>
</mgrwt>
</event>
<event>
 4    1  0.2437479E+000  0.5264834E+02  0.7957747E-01  0.1431559E+00
         13   -1    0    0    0    0  0.00000000000E+00  0.00000000000E+00  0.99999944185E+02  0.10000000001E+03  0.10566000000E+00 0.  1.
         22   -1    0    0    0    0 -0.00000000000E+00 -0.00000000000E+00 -0.18329077962E+02  0.18329077962E+02  0.00000000000E+00 0. -1.
         13    1    1    2    0    0 -0.20891922739E+01  0.16354898138E+02 -0.47282756553E+01  0.17152701600E+02  0.10566000000E+00 0. -1.
        996    1    1    2    0    0  0.20891922739E+01 -0.16354898138E+02  0.86399141878E+02  0.10117637637E+03  0.50000000000E+02 0.  0.
<mgrwt>
<rscale>  0 0.52648337E+02</rscale>
<asrwt>0</asrwt>
<pdfrwt beam="1">  1       13 0.10000000E+01 0.52648337E+02</pdfrwt>
<pdfrwt beam="2">  1       22 0.18329101E+00 0.52648337E+02</pdfrwt>
<totfact> 0.53242541E-01</totfact>
</mgrwt>
</event>
<event>
 4    1  0.2437479E+000  0.5552030E+02  0.7957747E-01  0.1417654E+00
         13   -1    0    0    0    0  0.00000000000E+00  0.00000000000E+00  0.99999944171E+02  0.99999999992E+02  0.10566000000E+00 0.  1.
         22   -1    0    0    0    0 -0.00000000000E+00 -0.00000000000E+00 -0.55139803269E+02  0.55139803269E+02  0.00000000000E+00 0. -1.
         13    1    1    2    0    0  0.81735924135E+01 -0.22708934775E+02 -0.44102046927E+02  0.50274297994E+02  0.10566000000E+00 0. -1.
        996    1    1    2    0    0 -0.81735924135E+01  0.22708934775E+02  0.88962187829E+02  0.10486550527E+03  0.50000000000E+02 0.  0.
<mgrwt>
<rscale>  0 0.55520297E+02</rscale>
<asrwt>0</asrwt>
<pdfrwt beam="1">  1       13 0.10000000E+01 0.55520297E+02</pdfrwt>
<pdfrwt beam="2">  1       22 0.55139816E+00 0.55520297E+02</pdfrwt>
<totfact> 0.59145229E-02</totfact>
</mgrwt>
</event>
<event>
 4    1  0.2437479E+000  0.5357907E+02  0.7957747E-01  0.1426941E+00
         13   -1    0    0    0    0  0.00000000000E+00  0.00000000000E+00  0.99999944179E+02  0.99999999999E+02  0.10566000000E+00 0. -1.
         22   -1    0    0    0    0 -0.00000000000E+00 -0.00000000000E+00 -0.24154430476E+02  0.24154430476E+02  0.00000000000E+00 0.  1.
         13    1    1    2    0    0 -0.87593739478E+01  0.17146135434E+02 -0.10952515273E+02  0.22151418625E+02  0.10566000000E+00 0.  1.
        996    1    1    2    0    0  0.87593739478E+01 -0.17146135434E+02  0.86798028976E+02  0.10200301185E+03  0.50000000000E+02 0.  0.
<mgrwt>
<rscale>  0 0.53579069E+02</rscale>
<asrwt>0</asrwt>
<pdfrwt beam="1">  1       13 0.10000000E+01 0.53579069E+02</pdfrwt>
<pdfrwt beam="2">  1       22 0.24154452E+00 0.53579069E+02</pdfrwt>
<totfact> 0.31619587E-01</totfact>
</mgrwt>
</event>
<event>
 4    1  0.2437479E+000  0.5930626E+02  0.7957747E-01  0.1400766E+00
         13   -1    0    0    0    0  0.00000000000E+00  0.00000000000E+00  0.99999944175E+02  0.99999999995E+02  0.10566000000E+00 0.  1.
         22   -1    0    0    0    0 -0.00000000000E+00 -0.00000000000E+00 -0.28407844150E+02  0.28407844150E+02  0.00000000000E+00 0. -1.
         13    1    1    2    0    0  0.31815324939E+02 -0.22399982462E+01 -0.42006973996E+01  0.32169698721E+02  0.10566000000E+00 0. -1.
        996    1    1    2    0    0 -0.31815324939E+02  0.22399982462E+01  0.75792797424E+02  0.96238145424E+02  0.50000000000E+02 0.  0.
<mgrwt>
<rscale>  0 0.59306260E+02</rscale>
<asrwt>0</asrwt>
<pdfrwt beam="1">  1       13 0.10000000E+01 0.59306260E+02</pdfrwt>
<pdfrwt beam="2">  1       22 0.28407864E+00 0.59306260E+02</pdfrwt>
<totfact> 0.23181272E-01</totfact>
</mgrwt>
</event>
<event>
 4    1  0.2437479E+000  0.5438354E+02  0.7957747E-01  0.1423037E+00
         13   -1    0    0    0    0  0.00000000000E+00  0.00000000000E+00  0.99999944179E+02  0.10000000000E+03  0.10566000000E+00 0. -1.
         22   -1    0    0    0    0 -0.00000000000E+00 -0.00000000000E+00 -0.19714921376E+02  0.19714921376E+02  0.00000000000E+00 0.  1.
         13    1    1    2    0    0 -0.20504127281E+02  0.60950949438E+01 -0.15612484631E+01  0.21448032048E+02  0.10566000000E+00 0.  1.
        996    1    1    2    0    0  0.20504127281E+02 -0.60950949438E+01  0.81846271267E+02  0.98266889328E+02  0.50000000000E+02 0.  0.
<mgrwt>
<rscale>  0 0.54383540E+02</rscale>
<asrwt>0</asrwt>
<pdfrwt beam="1">  1       13 0.10000000E+01 0.54383540E+02</pdfrwt>
<pdfrwt beam="2">  1       22 0.19714944E+00 0.54383540E+02</pdfrwt>
<totfact> 0.46730724E-01</totfact>
</mgrwt>
</event>
<event>
 4    1  0.2437479E+000  0.5484816E+02  0.7957747E-01  0.1420818E+00
         13   -1    0    0    0    0  0.00000000000E+00  0.00000000000E+00  0.99999944175E+02  0.99999999995E+02  0.10566000000E+00 0. -1.
         22   -1    0    0    0    0 -0.00000000000E+00 -0.00000000000E+00 -0.22017970955E+02  0.22017970955E+02  0.00000000000E+00 0. -1.
         13    1    1    2    0    0 -0.24904916918E+01  0.22407981187E+02 -0.44742892405E+01  0.22985878229E+02  0.10566000000E+00 0.  1.
        996    1    1    2    0    0  0.24904916918E+01 -0.22407981187E+02  0.82456262461E+02  0.99032092721E+02  0.50000000000E+02 0.  0.
<mgrwt>
<rscale>  0 0.54848156E+02</rscale>
<asrwt>0</asrwt>
<pdfrwt beam="1">  1       13 0.10000000E+01 0.54848156E+02</pdfrwt>
<pdfrwt beam="2">  1       22 0.22017993E+00 0.54848156E+02</pdfrwt>
<totfact> 0.37940327E-01</totfact>
</mgrwt>
</event>
<event>
 4    1  0.2437479E+000  0.5176883E+02  0.7957747E-01  0.1436028E+00
         13   -1    0    0    0    0  0.00000000000E+00  0.00000000000E+00  0.99999944179E+02  0.99999999999E+02  0.10566000000E+00 0.  1.
         22   -1    0    0    0    0 -0.00000000000E+00 -0.00000000000E+00 -0.11396479731E+02  0.11396479731E+02  0.00000000000E+00 0.  1.
         13    1    1    2    0    0 -0.81800091862E+01 -0.10634804243E+02  0.80642213508E+01  0.15654214819E+02  0.10566000000E+00 0. -1.
        996    1    1    2    0    0  0.81800091862E+01  0.10634804243E+02  0.80539243097E+02  0.95742264911E+02  0.50000000000E+02 0.  0.
<mgrwt>
<rscale>  0 0.51768829E+02</rscale>
<asrwt>0</asrwt>
<pdfrwt beam="1">  1       13 0.10000000E+01 0.51768829E+02</pdfrwt>
<pdfrwt beam="2">  1       22 0.11396504E+00 0.51768829E+02</pdfrwt>
<totfact> 0.11618713E+00</totfact>
</mgrwt>
</event>
<event>
 4    1  0.2437479E+000  0.5301739E+02  0.7957747E-01  0.1429714E+00
         13   -1    0    0    0    0  0.00000000000E+00  0.00000000000E+00  0.99999944180E+02  0.10000000000E+03  0.10566000000E+00 0. -1.
         22   -1    0    0    0    0 -0.00000000000E+00 -0.00000000000E+00 -0.18837792818E+02  0.18837792818E+02  0.00000000000E+00 0.  1.
         13    1    1    2    0    0  0.17590691603E+02 -0.11878422038E+01 -0.44087100914E+01  0.18173917818E+02  0.10566000000E+00 0.  1.
        996    1    1    2    0    0 -0.17590691603E+02  0.11878422038E+01  0.85570861454E+02  0.10066387500E+03  0.50000000000E+02 0.  0.
<mgrwt>
<rscale>  0 0.53017388E+02</rscale>
<asrwt>0</asrwt>
<pdfrwt beam="1">  1       13 0.10000000E+01 0.53017388E+02</pdfrwt>
<pdfrwt beam="2">  1       22 0.18837815E+00 0.53017388E+02</pdfrwt>
<totfact> 0.50694476E-01</totfact>
</mgrwt>
</event>
<event>
 4    1  0.2437479E+000  0.5225481E+02  0.7957747E-01  0.1433546E+00
         13   -1    0    0    0    0  0.00000000000E+00  0.00000000000E+00  0.99999944177E+02  0.99999999998E+02  0.10566000000E+00 0.  1.
         22   -1    0    0    0    0 -0.00000000000E+00 -0.00000000000E+00 -0.11372202229E+02  0.11372202229E+02  0.00000000000E+00 0.  1.
         13    1    1    2    0    0 -0.11295086825E+02  0.10148229178E+02  0.19344479733E+02  0.24592389107E+02  0.10566000000E+00 0. -1.
        996    1    1    2    0    0  0.11295086825E+02 -0.10148229178E+02  0.69283262215E+02  0.86779813119E+02  0.50000000000E+02 0.  0.
<mgrwt>
<rscale>  0 0.52254814E+02</rscale>
<asrwt>0</asrwt>
<pdfrwt beam="1">  1       13 0.10000000E+01 0.52254814E+02</pdfrwt>
<pdfrwt beam="2">  1       22 0.11372227E+00 0.52254814E+02</pdfrwt>
<totfact> 0.11668959E+00</totfact>
</mgrwt>
</event>
<event>
 4    1  0.2437479E+000  0.5673517E+02  0.7957747E-01  0.1412067E+00
         13   -1    0    0    0    0  0.00000000000E+00  0.00000000000E+00  0.99999944186E+02  0.10000000001E+03  0.10566000000E+00 0. -1.
         22   -1    0    0    0    0 -0.00000000000E+00 -0.00000000000E+00 -0.23945303853E+02  0.23945303853E+02  0.00000000000E+00 0.  1.
         13    1    1    2    0    0 -0.23879585958E+02 -0.12192016063E+02 -0.26283936383E+01  0.26940666257E+02  0.10566000000E+00 0.  1.
        996    1    1    2    0    0  0.23879585958E+02  0.12192016063E+02  0.78683033972E+02  0.97004637602E+02  0.50000000000E+02 0.  0.
<mgrwt>
<rscale>  0 0.56735173E+02</rscale>
<asrwt>0</asrwt>
<pdfrwt beam="1">  1       13 0.10000000E+01 0.56735173E+02</pdfrwt>
<pdfrwt beam="2">  1       22 0.23945325E+00 0.56735173E+02</pdfrwt>
<totfact> 0.32318043E-01</totfact>
</mgrwt>
</event>
<event>
 4    1  0.2437479E+000  0.5272839E+02  0.7957747E-01  0.1431157E+00
         13   -1    0    0    0    0  0.00000000000E+00  0.00000000000E+00  0.99999944171E+02  0.99999999991E+02  0.10566000000E+00 0. -1.
         22   -1    0    0    0    0 -0.00000000000E+00 -0.00000000000E+00 -0.16877806269E+02  0.16877806269E+02  0.00000000000E+00 0. -1.
         13    1    1    2    0    0  0.11527877137E+02 -0.12140493760E+02 -0.18824410339E+01  0.16847500951E+02  0.10566000000E+00 0.  1.
        996    1    1    2    0    0 -0.11527877137E+02  0.12140493760E+02  0.85004578936E+02  0.10003030531E+03  0.50000000000E+02 0.  0.
<mgrwt>
<rscale>  0 0.52728394E+02</rscale>
<asrwt>0</asrwt>
<pdfrwt beam="1">  1       13 0.10000000E+01 0.52728394E+02</pdfrwt>
<pdfrwt beam="2">  1       22 0.16877829E+00 0.52728394E+02</pdfrwt>
<totfact> 0.61657300E-01</totfact>
</mgrwt>
</event>
<event>
 4    1  0.2437479E+000  0.5109488E+02  0.7957747E-01  0.1439524E+00
         13   -1    0    0    0    0  0.00000000000E+00  0.00000000000E+00  0.99999944176E+02  0.99999999997E+02  0.10566000000E+00 0. -1.
         22   -1    0    0    0    0 -0.00000000000E+00 -0.00000000000E+00 -0.10494409905E+02  0.10494409905E+02  0.00000000000E+00 0. -1.
         13    1    1    2    0    0 -0.39836336670E+01  0.97374039324E+01  0.47838216826E+01  0.11557788995E+02  0.10566000000E+00 0.  1.
        996    1    1    2    0    0  0.39836336670E+01 -0.97374039324E+01  0.84721712588E+02  0.98936620907E+02  0.50000000000E+02 0.  0.
<mgrwt>
<rscale>  0 0.51094876E+02</rscale>
<asrwt>0</asrwt>
<pdfrwt beam="1">  1       13 0.10000000E+01 0.51094876E+02</pdfrwt>
<pdfrwt beam="2">  1       22 0.10494435E+00 0.51094876E+02</pdfrwt>
<totfact> 0.13111672E+00</totfact>
</mgrwt>
</event>
<event>
 4    1  0.2437479E+000  0.5623031E+02  0.7957747E-01  0.1414369E+00
         13   -1    0    0    0    0  0.00000000000E+00  0.00000000000E+00  0.99999944181E+02  0.10000000000E+03  0.10566000000E+00 0. -1.
         22   -1    0    0    0    0 -0.00000000000E+00 -0.00000000000E+00 -0.44491683270E+02  0.44491683270E+02  0.00000000000E+00 0.  1.
         13    1    1    2    0    0 -0.16973096780E+02 -0.19332916682E+02 -0.31638802810E+02  0.40778336026E+02  0.10566000000E+00 0.  1.
        996    1    1    2    0    0  0.16973096780E+02  0.19332916682E+02  0.87147063721E+02  0.10371334725E+03  0.50000000000E+02 0.  0.
<mgrwt>
<rscale>  0 0.56230309E+02</rscale>
<asrwt>0</asrwt>
<pdfrwt beam="1">  1       13 0.10000000E+01 0.56230309E+02</pdfrwt>
<pdfrwt beam="2">  1       22 0.44491699E+00 0.56230309E+02</pdfrwt>
<totfact> 0.99438368E-02</totfact>
</mgrwt>
</event>
<event>
 4    1  0.2437479E+000  0.5142168E+02  0.7957747E-01  0.1437821E+00
         13   -1    0    0    0    0  0.00000000000E+00  0.00000000000E+00  0.99999944175E+02  0.99999999995E+02  0.10566000000E+00 0.  1.
         22   -1    0    0    0    0 -0.00000000000E+00 -0.00000000000E+00 -0.26514418147E+02  0.26514418147E+02  0.00000000000E+00 0. -1.
         13    1    1    2    0    0 -0.67792106918E+01 -0.99111809796E+01 -0.17958826872E+02  0.21603699514E+02  0.10566000000E+00 0. -1.
        996    1    1    2    0    0  0.67792106918E+01  0.99111809796E+01  0.91444352900E+02  0.10491071863E+03  0.50000000000E+02 0.  0.
<mgrwt>
<rscale>  0 0.51421680E+02</rscale>
<asrwt>0</asrwt>
<pdfrwt beam="1">  1       13 0.10000000E+01 0.51421680E+02</pdfrwt>
<pdfrwt beam="2">  1       22 0.26514439E+00 0.51421680E+02</pdfrwt>
<totfact> 0.26236502E-01</totfact>
</mgrwt>
</event>
<event>
 4    1  0.2437479E+000  0.5495633E+02  0.7957747E-01  0.1420306E+00
         13   -1    0    0    0    0  0.00000000000E+00  0.00000000000E+00  0.99999944173E+02  0.99999999993E+02  0.10566000000E+00 0. -1.
         22   -1    0    0    0    0 -0.00000000000E+00 -0.00000000000E+00 -0.73913468518E+02  0.73913468518E+02  0.00000000000E+00 0.  1.
         13    1    1    2    0    0 -0.21857457521E+02 -0.65153401729E+01 -0.64247532882E+02  0.68175910352E+02  0.10566000000E+00 0.  1.
        996    1    1    2    0    0  0.21857457521E+02  0.65153401729E+01  0.90334008537E+02  0.10573755816E+03  0.50000000000E+02 0.  0.
<mgrwt>
<rscale>  0 0.54956329E+02</rscale>
<asrwt>0</asrwt>
<pdfrwt beam="1">  1       13 0.10000000E+01 0.54956329E+02</pdfrwt>
<pdfrwt beam="2">  1       22 0.73913476E+00 0.54956329E+02</pdfrwt>
<totfact> 0.54154202E-02</totfact>
</mgrwt>
</event>
<event>
 4    1  0.2437479E+000  0.5200052E+02  0.7957747E-01  0.1434841E+00
         13   -1    0    0    0    0  0.00000000000E+00  0.00000000000E+00  0.99999944178E+02  0.99999999999E+02  0.10566000000E+00 0.  1.
         22   -1    0    0    0    0 -0.00000000000E+00 -0.00000000000E+00 -0.11339919175E+02  0.11339919175E+02  0.00000000000E+00 0.  1.
         13    1    1    2    0    0  0.75071998000E+01  0.12153033991E+02  0.11731715743E+02  0.18485091353E+02  0.10566000000E+00 0. -1.
        996    1    1    2    0    0 -0.75071998000E+01 -0.12153033991E+02  0.76928309260E+02  0.92854827821E+02  0.50000000000E+02 0.  0.
<mgrwt>
<rscale>  0 0.52000522E+02</rscale>
<asrwt>0</asrwt>
<pdfrwt beam="1">  1       13 0.10000000E+01 0.52000522E+02</pdfrwt>
<pdfrwt beam="2">  1       22 0.11339944E+00 0.52000522E+02</pdfrwt>
<totfact> 0.11712125E+00</totfact>
</mgrwt>
</event>
<event>
 4    1  0.2437479E+000  0.5114969E+02  0.7957747E-01  0.1439237E+00
         13   -1    0    0    0    0  0.00000000000E+00  0.00000000000E+00  0.99999944175E+02  0.99999999995E+02  0.10566000000E+00 0.  1.
         22   -1    0    0    0    0 -0.00000000000E+00 -0.00000000000E+00 -0.96503579020E+01  0.96503579020E+01  0.00000000000E+00 0.  1.
         13    1    1    2    0    0 -0.99681064266E+01 -0.41142841629E+01  0.12608853951E+02  0.16591710035E+02  0.10566000000E+00 0. -1.
        996    1    1    2    0    0  0.99681064266E+01  0.41142841629E+01  0.77740732323E+02  0.93058647862E+02  0.50000000000E+02 0.  0.
<mgrwt>
<rscale>  0 0.51149687E+02</rscale>
<asrwt>0</asrwt>
<pdfrwt beam="1">  1       13 0.10000000E+01 0.51149687E+02</pdfrwt>
<pdfrwt beam="2">  1       22 0.96503831E-01 0.51149687E+02</pdfrwt>
<totfact> 0.14809350E+00</totfact>
</mgrwt>
</event>
<event>
 4    1  0.2437479E+000  0.5197684E+02  0.7957747E-01  0.1434962E+00
         13   -1    0    0    0    0  0.00000000000E+00  0.00000000000E+00  0.99999944190E+02  0.10000000001E+03  0.10566000000E+00 0. -1.
         22   -1    0    0    0    0 -0.00000000000E+00 -0.00000000000E+00 -0.21660130884E+02  0.21660130884E+02  0.00000000000E+00 0.  1.
         13    1    1    2    0    0 -0.13931771013E+02  0.27382149795E+01 -0.11229187389E+02  0.18102427414E+02  0.10566000000E+00 0.  1.
        996    1    1    2    0    0  0.13931771013E+02 -0.27382149795E+01  0.89569000694E+02  0.10355770348E+03  0.50000000000E+02 0.  0.
<mgrwt>
<rscale>  0 0.51976842E+02</rscale>
<asrwt>0</asrwt>
<pdfrwt beam="1">  1       13 0.10000000E+01 0.51976842E+02</pdfrwt>
<pdfrwt beam="2">  1       22 0.21660153E+00 0.51976842E+02</pdfrwt>
<totfact> 0.38966135E-01</totfact>
</mgrwt>
</event>
<event>
 4    1  0.2437479E+000  0.5793542E+02  0.7957747E-01  0.1406706E+00
         13   -1    0    0    0    0  0.00000000000E+00  0.00000000000E+00  0.99999944173E+02  0.99999999993E+02  0.10566000000E+00 0.  1.
         22   -1    0    0    0    0 -0.00000000000E+00 -0.00000000000E+00 -0.61039953536E+02  0.61039953536E+02  0.00000000000E+00 0. -1.
         13    1    1    2    0    0  0.16221092632E+02 -0.24359571874E+02 -0.48195365678E+02  0.56385432737E+02  0.10566000000E+00 0. -1.
        996    1    1    2    0    0 -0.16221092632E+02  0.24359571874E+02  0.87155356314E+02  0.10465452079E+03  0.50000000000E+02 0.  0.
<mgrwt>
<rscale>  0 0.57935417E+02</rscale>
<asrwt>0</asrwt>
<pdfrwt beam="1">  1       13 0.10000000E+01 0.57935417E+02</pdfrwt>
<pdfrwt beam="2">  1       22 0.61039964E+00 0.57935417E+02</pdfrwt>
<totfact> 0.67822094E-02</totfact>
</mgrwt>
</event>
<event>
 4    1  0.2437479E+000  0.5413354E+02  0.7957747E-01  0.1424241E+00
         13   -1    0    0    0    0  0.00000000000E+00  0.00000000000E+00  0.99999944178E+02  0.99999999999E+02  0.10566000000E+00 0.  1.
         22   -1    0    0    0    0 -0.00000000000E+00 -0.00000000000E+00 -0.14406316854E+02  0.14406316854E+02  0.00000000000E+00 0. -1.
         13    1    1    2    0    0  0.12805645051E+02  0.16323451474E+02  0.15793727103E+02  0.26074750105E+02  0.10566000000E+00 0. -1.
        996    1    1    2    0    0 -0.12805645051E+02 -0.16323451474E+02  0.69799900221E+02  0.88331566748E+02  0.50000000000E+02 0.  0.
<mgrwt>
<rscale>  0 0.54133535E+02</rscale>
<asrwt>0</asrwt>
<pdfrwt beam="1">  1       13 0.10000000E+01 0.54133535E+02</pdfrwt>
<pdfrwt beam="2">  1       22 0.14406341E+00 0.54133535E+02</pdfrwt>
<totfact> 0.80836060E-01</totfact>
</mgrwt>
</event>
<event>
 4    1  0.2437479E+000  0.5515743E+02  0.7957747E-01  0.1419356E+00
         13   -1    0    0    0    0  0.00000000000E+00  0.00000000000E+00  0.99999944188E+02  0.10000000001E+03  0.10566000000E+00 0.  1.
         22   -1    0    0    0    0 -0.00000000000E+00 -0.00000000000E+00 -0.45874359885E+02  0.45874359885E+02  0.00000000000E+00 0. -1.
         13    1    1    2    0    0  0.20617560471E+02 -0.10828594516E+02 -0.34417667256E+02  0.41556338173E+02  0.10566000000E+00 0. -1.
        996    1    1    2    0    0 -0.20617560471E+02  0.10828594516E+02  0.88543251559E+02  0.10431802172E+03  0.50000000000E+02 0.  0.
<mgrwt>
<rscale>  0 0.55157432E+02</rscale>
<asrwt>0</asrwt>
<pdfrwt beam="1">  1       13 0.10000000E+01 0.55157432E+02</pdfrwt>
<pdfrwt beam="2">  1       22 0.45874375E+00 0.55157432E+02</pdfrwt>
<totfact> 0.92444337E-02</totfact>
</mgrwt>
</event>
<event>
 4    1  0.2437479E+000  0.5390733E+02  0.7957747E-01  0.1425338E+00
         13   -1    0    0    0    0  0.00000000000E+00  0.00000000000E+00  0.99999944176E+02  0.99999999996E+02  0.10566000000E+00 0. -1.
         22   -1    0    0    0    0 -0.00000000000E+00 -0.00000000000E+00 -0.27588331428E+02  0.27588331428E+02  0.00000000000E+00 0.  1.
         13    1    1    2    0    0 -0.11555733179E+02 -0.16506531435E+02 -0.14841509477E+02  0.25025629201E+02  0.10566000000E+00 0.  1.
        996    1    1    2    0    0  0.11555733179E+02  0.16506531435E+02  0.87253122225E+02  0.10256270222E+03  0.50000000000E+02 0.  0.
<mgrwt>
<rscale>  0 0.53907333E+02</rscale>
<asrwt>0</asrwt>
<pdfrwt beam="1">  1       13 0.10000000E+01 0.53907333E+02</pdfrwt>
<pdfrwt beam="2">  1       22 0.27588352E+00 0.53907333E+02</pdfrwt>
<totfact> 0.24364981E-01</totfact>
</mgrwt>
</event>
<event>
 4    1  0.2437479E+000  0.5230156E+02  0.7957747E-01  0.1433309E+00
         13   -1    0    0    0    0  0.00000000000E+00  0.00000000000E+00  0.99999944179E+02  0.10000000000E+03  0.10566000000E+00 0.  1.
         22   -1    0    0    0    0 -0.00000000000E+00 -0.00000000000E+00 -0.12575266467E+02  0.12575266467E+02  0.00000000000E+00 0. -1.
         13    1    1    2    0    0  0.11555642910E+02 -0.10095568335E+02  0.75527773493E+01  0.17102894281E+02  0.10566000000E+00 0. -1.
        996    1    1    2    0    0 -0.11555642910E+02  0.10095568335E+02  0.79871900363E+02  0.95472372185E+02  0.50000000000E+02 0.  0.
<mgrwt>
<rscale>  0 0.52301562E+02</rscale>
<asrwt>0</asrwt>
<pdfrwt beam="1">  1       13 0.10000000E+01 0.52301562E+02</pdfrwt>
<pdfrwt beam="2">  1       22 0.12575291E+00 0.52301562E+02</pdfrwt>
<totfact> 0.10006148E+00</totfact>
</mgrwt>
</event>
<event>
 4    1  0.2437479E+000  0.5276497E+02  0.7957747E-01  0.1430974E+00
         13   -1    0    0    0    0  0.00000000000E+00  0.00000000000E+00  0.99999944177E+02  0.99999999997E+02  0.10566000000E+00 0.  1.
         22   -1    0    0    0    0 -0.00000000000E+00 -0.00000000000E+00 -0.17637452129E+02  0.17637452129E+02  0.00000000000E+00 0. -1.
         13    1    1    2    0    0 -0.96585836491E+01  0.13814995181E+02 -0.31570768869E+01  0.17149945436E+02  0.10566000000E+00 0. -1.
        996    1    1    2    0    0  0.96585836491E+01 -0.13814995181E+02  0.85519568935E+02  0.10048750669E+03  0.50000000000E+02 0.  0.
<mgrwt>
<rscale>  0 0.52764973E+02</rscale>
<asrwt>0</asrwt>
<pdfrwt beam="1">  1       13 0.10000000E+01 0.52764973E+02</pdfrwt>
<pdfrwt beam="2">  1       22 0.17637475E+00 0.52764973E+02</pdfrwt>
<totfact> 0.57055744E-01</totfact>
</mgrwt>
</event>
<event>
 4    1  0.2437479E+000  0.5471021E+02  0.7957747E-01  0.1421474E+00
         13   -1    0    0    0    0  0.00000000000E+00  0.00000000000E+00  0.99999944175E+02  0.99999999995E+02  0.10566000000E+00 0.  1.
         22   -1    0    0    0    0 -0.00000000000E+00 -0.00000000000E+00 -0.32204010866E+02  0.32204010866E+02  0.00000000000E+00 0. -1.
         13    1    1    2    0    0  0.12488773344E+02 -0.18364027146E+02 -0.19251585531E+02  0.29391183408E+02  0.10566000000E+00 0. -1.
        996    1    1    2    0    0 -0.12488773344E+02  0.18364027146E+02  0.87047518840E+02  0.10281282745E+03  0.50000000000E+02 0.  0.
<mgrwt>
<rscale>  0 0.54710209E+02</rscale>
<asrwt>0</asrwt>
<pdfrwt beam="1">  1       13 0.10000000E+01 0.54710209E+02</pdfrwt>
<pdfrwt beam="2">  1       22 0.32204030E+00 0.54710209E+02</pdfrwt>
<totfact> 0.18247625E-01</totfact>
</mgrwt>
</event>
<event>
 4    1  0.2437479E+000  0.7236146E+02  0.7957747E-01  0.1352242E+00
         13   -1    0    0    0    0  0.00000000000E+00  0.00000000000E+00  0.99999944181E+02  0.10000000000E+03  0.10566000000E+00 0. -1.
         22   -1    0    0    0    0 -0.00000000000E+00 -0.00000000000E+00 -0.40365637683E+02  0.40365637683E+02  0.00000000000E+00 0.  1.
         13    1    1    2    0    0  0.48683036781E+02  0.19134868537E+02  0.11800472065E+02  0.53623162618E+02  0.10566000000E+00 0.  1.
        996    1    1    2    0    0 -0.48683036781E+02 -0.19134868537E+02  0.47833834433E+02  0.86742475067E+02  0.50000000000E+02 0.  0.
<mgrwt>
<rscale>  0 0.72361463E+02</rscale>
<asrwt>0</asrwt>
<pdfrwt beam="1">  1       13 0.10000000E+01 0.72361463E+02</pdfrwt>
<pdfrwt beam="2">  1       22 0.40365654E+00 0.72361463E+02</pdfrwt>
<totfact> 0.12315800E-01</totfact>
</mgrwt>
</event>
<event>
 4    1  0.2437479E+000  0.5185869E+02  0.7957747E-01  0.1435567E+00
         13   -1    0    0    0    0  0.00000000000E+00  0.00000000000E+00  0.99999944177E+02  0.99999999998E+02  0.10566000000E+00 0.  1.
         22   -1    0    0    0    0 -0.00000000000E+00 -0.00000000000E+00 -0.21404849646E+02  0.21404849646E+02  0.00000000000E+00 0. -1.
         13    1    1    2    0    0  0.10046995838E+02  0.94011512348E+01 -0.11179138192E+02  0.17728735563E+02  0.10566000000E+00 0. -1.
        996    1    1    2    0    0 -0.10046995838E+02 -0.94011512348E+01  0.89774232723E+02  0.10367611408E+03  0.50000000000E+02 0.  0.
<mgrwt>
<rscale>  0 0.51858690E+02</rscale>
<asrwt>0</asrwt>
<pdfrwt beam="1">  1       13 0.10000000E+01 0.51858690E+02</pdfrwt>
<pdfrwt beam="2">  1       22 0.21404872E+00 0.51858690E+02</pdfrwt>
<totfact> 0.39850766E-01</totfact>
</mgrwt>
</event>
<event>
 4    1  0.2437479E+000  0.5121696E+02  0.7957747E-01  0.1438886E+00
         13   -1    0    0    0    0  0.00000000000E+00  0.00000000000E+00  0.99999944179E+02  0.99999999999E+02  0.10566000000E+00 0.  1.
         22   -1    0    0    0    0 -0.00000000000E+00 -0.00000000000E+00 -0.10051205154E+02  0.10051205154E+02  0.00000000000E+00 0.  1.
         13    1    1    2    0    0 -0.97079498256E+01  0.53789180508E+01  0.91368333442E+01  0.14376019505E+02  0.10566000000E+00 0. -1.
        996    1    1    2    0    0  0.97079498256E+01 -0.53789180508E+01  0.80811905680E+02  0.95675185649E+02  0.50000000000E+02 0.  0.
<mgrwt>
<rscale>  0 0.51216961E+02</rscale>
<asrwt>0</asrwt>
<pdfrwt beam="1">  1       13 0.10000000E+01 0.51216961E+02</pdfrwt>
<pdfrwt beam="2">  1       22 0.10051230E+00 0.51216961E+02</pdfrwt>
<totfact> 0.13967438E+00</totfact>
</mgrwt>
</event>
<event>
 4    1  0.2437479E+000  0.5231326E+02  0.7957747E-01  0.1433249E+00
         13   -1    0    0    0    0  0.00000000000E+00  0.00000000000E+00  0.99999944171E+02  0.99999999991E+02  0.10566000000E+00 0.  1.
         22   -1    0    0    0    0 -0.00000000000E+00 -0.00000000000E+00 -0.14097267526E+02  0.14097267526E+02  0.00000000000E+00 0. -1.
         13    1    1    2    0    0  0.14775395925E+02 -0.42854256564E+01  0.24139176801E+01  0.15572904687E+02  0.10566000000E+00 0. -1.
        996    1    1    2    0    0 -0.14775395925E+02  0.42854256564E+01  0.83488758964E+02  0.98524362831E+02  0.50000000000E+02 0.  0.
<mgrwt>
<rscale>  0 0.52313260E+02</rscale>
<asrwt>0</asrwt>
<pdfrwt beam="1">  1       13 0.10000000E+01 0.52313260E+02</pdfrwt>
<pdfrwt beam="2">  1       22 0.14097292E+00 0.52313260E+02</pdfrwt>
<totfact> 0.83440019E-01</totfact>
</mgrwt>
</event>
<event>
 4    1  0.2437479E+000  0.5305184E+02  0.7957747E-01  0.1429543E+00
         13   -1    0    0    0    0  0.00000000000E+00  0.00000000000E+00  0.99999944181E+02  0.10000000000E+03  0.10566000000E+00 0.  1.
         22   -1    0    0    0    0 -0.00000000000E+00 -0.00000000000E+00 -0.27126207502E+02  0.27126207502E+02  0.00000000000E+00 0. -1.
         13    1    1    2    0    0 -0.13197626473E+02  0.11845673708E+02 -0.15827740114E+02  0.23770272427E+02  0.10566000000E+00 0. -1.
        996    1    1    2    0    0  0.13197626473E+02 -0.11845673708E+02  0.88701476793E+02  0.10335593508E+03  0.50000000000E+02 0.  0.
<mgrwt>
<rscale>  0 0.53051836E+02</rscale>
<asrwt>0</asrwt>
<pdfrwt beam="1">  1       13 0.10000000E+01 0.53051836E+02</pdfrwt>
<pdfrwt beam="2">  1       22 0.27126228E+00 0.53051836E+02</pdfrwt>
<totfact> 0.25150956E-01</totfact>
</mgrwt>
</event>
<event>
 4    1  0.2437479E+000  0.5235152E+02  0.7957747E-01  0.1433056E+00
         13   -1    0    0    0    0  0.00000000000E+00  0.00000000000E+00  0.99999944178E+02  0.99999999998E+02  0.10566000000E+00 0.  1.
         22   -1    0    0    0    0 -0.00000000000E+00 -0.00000000000E+00 -0.13387394165E+02  0.13387394165E+02  0.00000000000E+00 0.  1.
         13    1    1    2    0    0 -0.67583653476E+00 -0.15499181622E+02  0.47654974130E+01  0.16229680083E+02  0.10566000000E+00 0. -1.
        996    1    1    2    0    0  0.67583653476E+00  0.15499181622E+02  0.81847052600E+02  0.97157714080E+02  0.50000000000E+02 0.  0.
<mgrwt>
<rscale>  0 0.52351518E+02</rscale>
<asrwt>0</asrwt>
<pdfrwt beam="1">  1       13 0.10000000E+01 0.52351518E+02</pdfrwt>
<pdfrwt beam="2">  1       22 0.13387418E+00 0.52351518E+02</pdfrwt>
<totfact> 0.90680286E-01</totfact>
</mgrwt>
</event>
<event>
 4    1  0.2437479E+000  0.5215570E+02  0.7957747E-01  0.1434049E+00
         13   -1    0    0    0    0  0.00000000000E+00  0.00000000000E+00  0.99999944179E+02  0.99999999999E+02  0.10566000000E+00 0. -1.
         22   -1    0    0    0    0 -0.00000000000E+00 -0.00000000000E+00 -0.27989640687E+02  0.27989640687E+02  0.00000000000E+00 0.  1.
         13    1    1    2    0    0  0.10082287940E+02  0.10888726002E+02 -0.18385081408E+02  0.23627087558E+02  0.10566000000E+00 0.  1.
        996    1    1    2    0    0 -0.10082287940E+02 -0.10888726002E+02  0.90395384901E+02  0.10436255313E+03  0.50000000000E+02 0.  0.
<mgrwt>
<rscale>  0 0.52155698E+02</rscale>
<asrwt>0</asrwt>
<pdfrwt beam="1">  1       13 0.10000000E+01 0.52155698E+02</pdfrwt>
<pdfrwt beam="2">  1       22 0.27989661E+00 0.52155698E+02</pdfrwt>
<totfact> 0.23632961E-01</totfact>
</mgrwt>
</event>
<event>
 4    1  0.2437479E+000  0.5333748E+02  0.7957747E-01  0.1428129E+00
         13   -1    0    0    0    0  0.00000000000E+00  0.00000000000E+00  0.99999944182E+02  0.10000000000E+03  0.10566000000E+00 0.  1.
         22   -1    0    0    0    0 -0.00000000000E+00 -0.00000000000E+00 -0.13223932629E+02  0.13223932629E+02  0.00000000000E+00 0. -1.
         13    1    1    2    0    0  0.23951855143E+01  0.18416015995E+02  0.15433107072E+02  0.24147018795E+02  0.10566000000E+00 0. -1.
        996    1    1    2    0    0 -0.23951855143E+01 -0.18416015995E+02  0.71342904481E+02  0.89076913836E+02  0.50000000000E+02 0.  0.
<mgrwt>
<rscale>  0 0.53337478E+02</rscale>
<asrwt>0</asrwt>
<pdfrwt beam="1">  1       13 0.10000000E+01 0.53337478E+02</pdfrwt>
<pdfrwt beam="2">  1       22 0.13223957E+00 0.53337478E+02</pdfrwt>
<totfact> 0.92661087E-01</totfact>
</mgrwt>
</event>
<event>
 4    1  0.2437479E+000  0.5106054E+02  0.7957747E-01  0.1439704E+00
         13   -1    0    0    0    0  0.00000000000E+00  0.00000000000E+00  0.99999944184E+02  0.10000000000E+03  0.10566000000E+00 0.  1.
         22   -1    0    0    0    0 -0.00000000000E+00 -0.00000000000E+00 -0.10579933414E+02  0.10579933414E+02  0.00000000000E+00 0.  1.
         13    1    1    2    0    0 -0.86535882298E+01 -0.56828367645E+01  0.40743657321E+01  0.11126133340E+02  0.10566000000E+00 0. -1.
        996    1    1    2    0    0  0.86535882298E+01  0.56828367645E+01  0.85345645038E+02  0.99453800078E+02  0.50000000000E+02 0.  0.
<mgrwt>
<rscale>  0 0.51060545E+02</rscale>
<asrwt>0</asrwt>
<pdfrwt beam="1">  1       13 0.10000000E+01 0.51060545E+02</pdfrwt>
<pdfrwt beam="2">  1       22 0.10579958E+00 0.51060545E+02</pdfrwt>
<totfact> 0.12955233E+00</totfact>
</mgrwt>
</event>
<event>
 4    1  0.2437479E+000  0.7262296E+02  0.7957747E-01  0.1351394E+00
         13   -1    0    0    0    0  0.00000000000E+00  0.00000000000E+00  0.99999944173E+02  0.99999999993E+02  0.10566000000E+00 0. -1.
         22   -1    0    0    0    0 -0.00000000000E+00 -0.00000000000E+00 -0.41068863329E+02  0.41068863329E+02  0.00000000000E+00 0.  1.
         13    1    1    2    0    0 -0.41939367240E+02  0.31861939375E+02  0.10301069790E+02  0.53667652344E+02  0.10566000000E+00 0.  1.
        996    1    1    2    0    0  0.41939367240E+02 -0.31861939375E+02  0.48630011054E+02  0.87401210978E+02  0.50000000000E+02 0.  0.
<mgrwt>
<rscale>  0 0.72622956E+02</rscale>
<asrwt>0</asrwt>
<pdfrwt beam="1">  1       13 0.10000000E+01 0.72622956E+02</pdfrwt>
<pdfrwt beam="2">  1       22 0.41068880E+00 0.72622956E+02</pdfrwt>
<totfact> 0.11904422E-01</totfact>
</mgrwt>
</event>
<event>
 4    1  0.2437479E+000  0.5152806E+02  0.7957747E-01  0.1437270E+00
         13   -1    0    0    0    0  0.00000000000E+00  0.00000000000E+00  0.99999944182E+02  0.10000000000E+03  0.10566000000E+00 0. -1.
         22   -1    0    0    0    0 -0.00000000000E+00 -0.00000000000E+00 -0.26130576740E+02  0.26130576740E+02  0.00000000000E+00 0.  1.
         13    1    1    2    0    0  0.11544783833E+02 -0.46753026712E+01 -0.17353205168E+02  0.21360837588E+02  0.10566000000E+00 0.  1.
        996    1    1    2    0    0 -0.11544783833E+02  0.46753026712E+01  0.91222572611E+02  0.10476973915E+03  0.50000000000E+02 0.  0.
<mgrwt>
<rscale>  0 0.51528055E+02</rscale>
<asrwt>0</asrwt>
<pdfrwt beam="1">  1       13 0.10000000E+01 0.51528055E+02</pdfrwt>
<pdfrwt beam="2">  1       22 0.26130597E+00 0.51528055E+02</pdfrwt>
<totfact> 0.27002978E-01</totfact>
</mgrwt>
</event>
<event>
 4    1  0.2437479E+000  0.5444413E+02  0.7957747E-01  0.1422746E+00
         13   -1    0    0    0    0  0.00000000000E+00  0.00000000000E+00  0.99999944183E+02  0.10000000000E+03  0.10566000000E+00 0. -1.
         22   -1    0    0    0    0 -0.00000000000E+00 -0.00000000000E+00 -0.15323386143E+02  0.15323386143E+02  0.00000000000E+00 0. -1.
         13    1    1    2    0    0  0.85408534050E+01 -0.19779202082E+02  0.37663048782E+02  0.43389853877E+02  0.10566000000E+00 0.  1.
        996    1    1    2    0    0 -0.85408534050E+01  0.19779202082E+02  0.47013509258E+02  0.71933532268E+02  0.50000000000E+02 0.  0.
<mgrwt>
<rscale>  0 0.54444127E+02</rscale>
<asrwt>0</asrwt>
<pdfrwt beam="1">  1       13 0.10000000E+01 0.54444127E+02</pdfrwt>
<pdfrwt beam="2">  1       22 0.15323410E+00 0.54444127E+02</pdfrwt>
<totfact> 0.73005909E-01</totfact>
</mgrwt>
</event>
<event>
 4    1  0.2437479E+000  0.5149180E+02  0.7957747E-01  0.1437457E+00
         13   -1    0    0    0    0  0.00000000000E+00  0.00000000000E+00  0.99999944170E+02  0.99999999990E+02  0.10566000000E+00 0.  1.
         22   -1    0    0    0    0 -0.00000000000E+00 -0.00000000000E+00 -0.10562410918E+02  0.10562410918E+02  0.00000000000E+00 0.  1.
         13    1    1    2    0    0 -0.72690787060E+01  0.99280518640E+01  0.98121962681E+01  0.15738363279E+02  0.10566000000E+00 0. -1.
        996    1    1    2    0    0  0.72690787060E+01 -0.99280518640E+01  0.79625336984E+02  0.94824047630E+02  0.50000000000E+02 0.  0.
<mgrwt>
<rscale>  0 0.51491802E+02</rscale>
<asrwt>0</asrwt>
<pdfrwt beam="1">  1       13 0.10000000E+01 0.51491802E+02</pdfrwt>
<pdfrwt beam="2">  1       22 0.10562436E+00 0.51491802E+02</pdfrwt>
<totfact> 0.13000185E+00</totfact>
</mgrwt>
</event>
<event>
 4    1  0.2437479E+000  0.5736484E+02  0.7957747E-01  0.1409235E+00
         13   -1    0    0    0    0  0.00000000000E+00  0.00000000000E+00  0.99999944173E+02  0.99999999993E+02  0.10566000000E+00 0. -1.
         22   -1    0    0    0    0 -0.00000000000E+00 -0.00000000000E+00 -0.66760270763E+02  0.66760270763E+02  0.00000000000E+00 0.  1.
         13    1    1    2    0    0  0.20949576900E+02 -0.18757399678E+02 -0.54850413215E+02  0.61638492915E+02  0.10566000000E+00 0.  1.
        996    1    1    2    0    0 -0.20949576900E+02  0.18757399678E+02  0.88090086624E+02  0.10512177784E+03  0.50000000000E+02 0.  0.
<mgrwt>
<rscale>  0 0.57364840E+02</rscale>
<asrwt>0</asrwt>
<pdfrwt beam="1">  1       13 0.10000000E+01 0.57364840E+02</pdfrwt>
<pdfrwt beam="2">  1       22 0.66760280E+00 0.57364840E+02</pdfrwt>
<totfact> 0.86679738E-02</totfact>
</mgrwt>
</event>
<event>
 4    1  0.2437479E+000  0.5101246E+02  0.7957747E-01  0.1439956E+00
         13   -1    0    0    0    0  0.00000000000E+00  0.00000000000E+00  0.99999944185E+02  0.10000000000E+03  0.10566000000E+00 0. -1.
         22   -1    0    0    0    0 -0.00000000000E+00 -0.00000000000E+00 -0.94984044370E+01  0.94984044370E+01  0.00000000000E+00 0. -1.
         13    1    1    2    0    0 -0.89291730588E+01 -0.47476946808E+01  0.10201409528E+02  0.14364910605E+02  0.10566000000E+00 0.  1.
        996    1    1    2    0    0  0.89291730588E+01  0.47476946808E+01  0.80300130220E+02  0.95133493837E+02  0.50000000000E+02 0.  0.
<mgrwt>
<rscale>  0 0.51012457E+02</rscale>
<asrwt>0</asrwt>
<pdfrwt beam="1">  1       13 0.10000000E+01 0.51012457E+02</pdfrwt>
<pdfrwt beam="2">  1       22 0.94984297E-01 0.51012457E+02</pdfrwt>
<totfact> 0.15144513E+00</totfact>
</mgrwt>
</event>
<event>
 4    1  0.2437479E+000  0.5430945E+02  0.7957747E-01  0.1423393E+00
         13   -1    0    0    0    0  0.00000000000E+00  0.00000000000E+00  0.99999944175E+02  0.99999999995E+02  0.10566000000E+00 0. -1.
         22   -1    0    0    0    0 -0.00000000000E+00 -0.00000000000E+00 -0.15017561738E+02  0.15017561738E+02  0.00000000000E+00 0. -1.
         13    1    1    2    0    0 -0.10263378886E+02  0.18552072781E+02  0.13089745325E+02  0.24917241969E+02  0.10566000000E+00 0.  1.
        996    1    1    2    0    0  0.10263378886E+02 -0.18552072781E+02  0.71892637112E+02  0.90100319764E+02  0.50000000000E+02 0.  0.
<mgrwt>
<rscale>  0 0.54309450E+02</rscale>
<asrwt>0</asrwt>
<pdfrwt beam="1">  1       13 0.10000000E+01 0.54309450E+02</pdfrwt>
<pdfrwt beam="2">  1       22 0.15017585E+00 0.54309450E+02</pdfrwt>
<totfact> 0.75492863E-01</totfact>
</mgrwt>
</event>
<event>
 4    1  0.2437479E+000  0.5140741E+02  0.7957747E-01  0.1437895E+00
         13   -1    0    0    0    0  0.00000000000E+00  0.00000000000E+00  0.99999944182E+02  0.10000000000E+03  0.10566000000E+00 0. -1.
         22   -1    0    0    0    0 -0.00000000000E+00 -0.00000000000E+00 -0.23223183026E+02  0.23223183026E+02  0.00000000000E+00 0.  1.
         13    1    1    2    0    0 -0.44016969576E+01 -0.11106154700E+02 -0.14303551440E+02  0.18636640152E+02  0.10566000000E+00 0.  1.
        996    1    1    2    0    0  0.44016969576E+01  0.11106154700E+02  0.91080312596E+02  0.10458654288E+03  0.50000000000E+02 0.  0.
<mgrwt>
<rscale>  0 0.51407408E+02</rscale>
<asrwt>0</asrwt>
<pdfrwt beam="1">  1       13 0.10000000E+01 0.51407408E+02</pdfrwt>
<pdfrwt beam="2">  1       22 0.23223204E+00 0.51407408E+02</pdfrwt>
<totfact> 0.34026565E-01</totfact>
</mgrwt>
</event>
<event>
 4    1  0.2437479E+000  0.5415544E+02  0.7957747E-01  0.1424136E+00
         13   -1    0    0    0    0  0.00000000000E+00  0.00000000000E+00  0.99999944181E+02  0.10000000000E+03  0.10566000000E+00 0.  1.
         22   -1    0    0    0    0 -0.00000000000E+00 -0.00000000000E+00 -0.15293208666E+02  0.15293208666E+02  0.00000000000E+00 0.  1.
         13    1    1    2    0    0 -0.14628978692E+02  0.14792042377E+02  0.10162302735E+02  0.23153727479E+02  0.10566000000E+00 0. -1.
        996    1    1    2    0    0  0.14628978692E+02 -0.14792042377E+02  0.74544432780E+02  0.92139481189E+02  0.50000000000E+02 0.  0.
<mgrwt>
<rscale>  0 0.54155439E+02</rscale>
<asrwt>0</asrwt>
<pdfrwt beam="1">  1       13 0.10000000E+01 0.54155439E+02</pdfrwt>
<pdfrwt beam="2">  1       22 0.15293232E+00 0.54155439E+02</pdfrwt>
<totfact> 0.73207320E-01</totfact>
</mgrwt>
</event>
<event>
 4    1  0.2437479E+000  0.5190404E+02  0.7957747E-01  0.1435334E+00
         13   -1    0    0    0    0  0.00000000000E+00  0.00000000000E+00  0.99999944183E+02  0.10000000000E+03  0.10566000000E+00 0. -1.
         22   -1    0    0    0    0 -0.00000000000E+00 -0.00000000000E+00 -0.11584190078E+02  0.11584190078E+02  0.00000000000E+00 0. -1.
         13    1    1    2    0    0  0.13735849322E+02  0.23141779670E+01  0.85828543715E+01  0.16361709247E+02  0.10566000000E+00 0.  1.
        996    1    1    2    0    0 -0.13735849322E+02 -0.23141779670E+01  0.79832899734E+02  0.95222480834E+02  0.50000000000E+02 0.  0.
<mgrwt>
<rscale>  0 0.51904036E+02</rscale>
<asrwt>0</asrwt>
<pdfrwt beam="1">  1       13 0.10000000E+01 0.51904036E+02</pdfrwt>
<pdfrwt beam="2">  1       22 0.11584215E+00 0.51904036E+02</pdfrwt>
<totfact> 0.11339486E+00</totfact>
</mgrwt>
</event>
<event>
 4    1  0.2437479E+000  0.5382883E+02  0.7957747E-01  0.1425720E+00
         13   -1    0    0    0    0  0.00000000000E+00  0.00000000000E+00  0.99999944172E+02  0.99999999993E+02  0.10566000000E+00 0.  1.
         22   -1    0    0    0    0 -0.00000000000E+00 -0.00000000000E+00 -0.33789537240E+02  0.33789537240E+02  0.00000000000E+00 0. -1.
         13    1    1    2    0    0  0.19918593910E+02 -0.89053452237E+00 -0.22476080760E+02  0.30045445669E+02  0.10566000000E+00 0. -1.
        996    1    1    2    0    0 -0.19918593910E+02  0.89053452237E+00  0.88686487692E+02  0.10374409156E+03  0.50000000000E+02 0.  0.
<mgrwt>
<rscale>  0 0.53828835E+02</rscale>
<asrwt>0</asrwt>
<pdfrwt beam="1">  1       13 0.10000000E+01 0.53828835E+02</pdfrwt>
<pdfrwt beam="2">  1       22 0.33789556E+00 0.53828835E+02</pdfrwt>
<totfact> 0.16743400E-01</totfact>
</mgrwt>
</event>
<event>
 4    1  0.2437479E+000  0.5451090E+02  0.7957747E-01  0.1422426E+00
         13   -1    0    0    0    0  0.00000000000E+00  0.00000000000E+00  0.99999944182E+02  0.10000000000E+03  0.10566000000E+00 0.  1.
         22   -1    0    0    0    0 -0.00000000000E+00 -0.00000000000E+00 -0.21975834528E+02  0.21975834528E+02  0.00000000000E+00 0. -1.
         13    1    1    2    0    0  0.20652362399E+02  0.67020660567E+01 -0.53508439203E+01  0.22362478771E+02  0.10566000000E+00 0. -1.
        996    1    1    2    0    0 -0.20652362399E+02 -0.67020660567E+01  0.83374953574E+02  0.99613355759E+02  0.50000000000E+02 0.  0.
<mgrwt>
<rscale>  0 0.54510896E+02</rscale>
<asrwt>0</asrwt>
<pdfrwt beam="1">  1       13 0.10000000E+01 0.54510896E+02</pdfrwt>
<pdfrwt beam="2">  1       22 0.21975856E+00 0.54510896E+02</pdfrwt>
<totfact> 0.38059741E-01</totfact>
</mgrwt>
</event>
<event>
 4    1  0.2437479E+000  0.5104240E+02  0.7957747E-01  0.1439799E+00
         13   -1    0    0    0    0  0.00000000000E+00  0.00000000000E+00  0.99999944175E+02  0.99999999995E+02  0.10566000000E+00 0.  1.
         22   -1    0    0    0    0 -0.00000000000E+00 -0.00000000000E+00 -0.93959836358E+01  0.93959836358E+01  0.00000000000E+00 0.  1.
         13    1    1    2    0    0 -0.27420682642E+01  0.98897710868E+01  0.15149499769E+02  0.18298770937E+02  0.10566000000E+00 0. -1.
        996    1    1    2    0    0  0.27420682642E+01 -0.98897710868E+01  0.75454460770E+02  0.91097212694E+02  0.50000000000E+02 0.  0.
<mgrwt>
<rscale>  0 0.51042399E+02</rscale>
<asrwt>0</asrwt>
<pdfrwt beam="1">  1       13 0.10000000E+01 0.51042399E+02</pdfrwt>
<pdfrwt beam="2">  1       22 0.93960089E-01 0.51042399E+02</pdfrwt>
<totfact> 0.15381716E+00</totfact>
</mgrwt>
</event>
<event>
 4    1  0.2437479E+000  0.5540654E+02  0.7957747E-01  0.1418186E+00
         13   -1    0    0    0    0  0.00000000000E+00  0.00000000000E+00  0.99999944175E+02  0.99999999995E+02  0.10566000000E+00 0. -1.
         22   -1    0    0    0    0 -0.00000000000E+00 -0.00000000000E+00 -0.24253151811E+02  0.24253151811E+02  0.00000000000E+00 0.  1.
         13    1    1    2    0    0 -0.13528185793E+02 -0.19669084189E+02 -0.68122008760E+01  0.24825429070E+02  0.10566000000E+00 0.  1.
        996    1    1    2    0    0  0.13528185793E+02  0.19669084189E+02  0.82558993240E+02  0.99427722736E+02  0.50000000000E+02 0.  0.
<mgrwt>
<rscale>  0 0.55406540E+02</rscale>
<asrwt>0</asrwt>
<pdfrwt beam="1">  1       13 0.10000000E+01 0.55406540E+02</pdfrwt>
<pdfrwt beam="2">  1       22 0.24253173E+00 0.55406540E+02</pdfrwt>
<totfact> 0.31455048E-01</totfact>
</mgrwt>
</event>
<event>
 4    1  0.2437479E+000  0.5388082E+02  0.7957747E-01  0.1425467E+00
         13   -1    0    0    0    0  0.00000000000E+00  0.00000000000E+00  0.99999944184E+02  0.10000000000E+03  0.10566000000E+00 0.  1.
         22   -1    0    0    0    0 -0.00000000000E+00 -0.00000000000E+00 -0.29312305201E+02  0.29312305201E+02  0.00000000000E+00 0. -1.
         13    1    1    2    0    0  0.20001948395E+02 -0.17508121952E+01 -0.17056539093E+02  0.26345397564E+02  0.10566000000E+00 0. -1.
        996    1    1    2    0    0 -0.20001948395E+02  0.17508121952E+01  0.87744178076E+02  0.10296690764E+03  0.50000000000E+02 0.  0.
<mgrwt>
<rscale>  0 0.53880825E+02</rscale>
<asrwt>0</asrwt>
<pdfrwt beam="1">  1       13 0.10000000E+01 0.53880825E+02</pdfrwt>
<pdfrwt beam="2">  1       22 0.29312325E+00 0.53880825E+02</pdfrwt>
<totfact> 0.21681278E-01</totfact>
</mgrwt>
</event>
<event>
 4    1  0.2437479E+000  0.5341913E+02  0.7957747E-01  0.1427726E+00
         13   -1    0    0    0    0  0.00000000000E+00  0.00000000000E+00  0.99999944177E+02  0.99999999997E+02  0.10566000000E+00 0.  1.
         22   -1    0    0    0    0 -0.00000000000E+00 -0.00000000000E+00 -0.13626753654E+02  0.13626753654E+02  0.00000000000E+00 0.  1.
         13    1    1    2    0    0 -0.18756727066E+02  0.13374972265E+01  0.12971688334E+02  0.22844683656E+02  0.10566000000E+00 0. -1.
        996    1    1    2    0    0  0.18756727066E+02 -0.13374972265E+01  0.73401502189E+02  0.90782069995E+02  0.50000000000E+02 0.  0.
<mgrwt>
<rscale>  0 0.53419132E+02</rscale>
<asrwt>0</asrwt>
<pdfrwt beam="1">  1       13 0.10000000E+01 0.53419132E+02</pdfrwt>
<pdfrwt beam="2">  1       22 0.13626778E+00 0.53419132E+02</pdfrwt>
<totfact> 0.88344667E-01</totfact>
</mgrwt>
</event>
<event>
 4    1  0.2437479E+000  0.5211983E+02  0.7957747E-01  0.1434232E+00
         13   -1    0    0    0    0  0.00000000000E+00  0.00000000000E+00  0.99999944182E+02  0.10000000000E+03  0.10566000000E+00 0.  1.
         22   -1    0    0    0    0 -0.00000000000E+00 -0.00000000000E+00 -0.13420377483E+02  0.13420377483E+02  0.00000000000E+00 0.  1.
         13    1    1    2    0    0  0.14080019507E+01 -0.14645619003E+02  0.31470982903E+01  0.15046329026E+02  0.10566000000E+00 0. -1.
        996    1    1    2    0    0 -0.14080019507E+01  0.14645619003E+02  0.83432468409E+02  0.98374048460E+02  0.50000000000E+02 0.  0.
<mgrwt>
<rscale>  0 0.52119829E+02</rscale>
<asrwt>0</asrwt>
<pdfrwt beam="1">  1       13 0.10000000E+01 0.52119829E+02</pdfrwt>
<pdfrwt beam="2">  1       22 0.13420402E+00 0.52119829E+02</pdfrwt>
<totfact> 0.90280849E-01</totfact>
</mgrwt>
</event>
<event>
 4    1  0.2437479E+000  0.5118520E+02  0.7957747E-01  0.1439052E+00
         13   -1    0    0    0    0  0.00000000000E+00  0.00000000000E+00  0.99999944181E+02  0.10000000000E+03  0.10566000000E+00 0.  1.
         22   -1    0    0    0    0 -0.00000000000E+00 -0.00000000000E+00 -0.11876899311E+02  0.11876899311E+02  0.00000000000E+00 0.  1.
         13    1    1    2    0    0  0.31930661904E+01 -0.10475186530E+02  0.12187273207E+01  0.11019149916E+02  0.10566000000E+00 0. -1.
        996    1    1    2    0    0 -0.31930661904E+01  0.10475186530E+02  0.86904317550E+02  0.10085774940E+03  0.50000000000E+02 0.  0.
<mgrwt>
<rscale>  0 0.51185205E+02</rscale>
<asrwt>0</asrwt>
<pdfrwt beam="1">  1       13 0.10000000E+01 0.51185205E+02</pdfrwt>
<pdfrwt beam="2">  1       22 0.11876924E+00 0.51185205E+02</pdfrwt>
<totfact> 0.10900120E+00</totfact>
</mgrwt>
</event>
<event>
 4    1  0.2437479E+000  0.5183694E+02  0.7957747E-01  0.1435678E+00
         13   -1    0    0    0    0  0.00000000000E+00  0.00000000000E+00  0.99999944175E+02  0.99999999995E+02  0.10566000000E+00 0. -1.
         22   -1    0    0    0    0 -0.00000000000E+00 -0.00000000000E+00 -0.12190252271E+02  0.12190252271E+02  0.00000000000E+00 0. -1.
         13    1    1    2    0    0  0.12883030090E+02 -0.45930644248E+01  0.37652047831E+02  0.40059413064E+02  0.10566000000E+00 0.  1.
        996    1    1    2    0    0 -0.12883030090E+02  0.45930644248E+01  0.50157644072E+02  0.72130839202E+02  0.50000000000E+02 0.  0.
<mgrwt>
<rscale>  0 0.51836943E+02</rscale>
<asrwt>0</asrwt>
<pdfrwt beam="1">  1       13 0.10000000E+01 0.51836943E+02</pdfrwt>
<pdfrwt beam="2">  1       22 0.12190277E+00 0.51836943E+02</pdfrwt>
<totfact> 0.10488988E+00</totfact>
</mgrwt>
</event>
<event>
 4    1  0.2437479E+000  0.5168850E+02  0.7957747E-01  0.1436441E+00
         13   -1    0    0    0    0  0.00000000000E+00  0.00000000000E+00  0.99999944183E+02  0.10000000000E+03  0.10566000000E+00 0. -1.
         22   -1    0    0    0    0 -0.00000000000E+00 -0.00000000000E+00 -0.11683041451E+02  0.11683041451E+02  0.00000000000E+00 0. -1.
         13    1    1    2    0    0 -0.65030641268E-01  0.13103313870E+02  0.58366115961E+01  0.14344973417E+02  0.10566000000E+00 0.  1.
        996    1    1    2    0    0  0.65030641268E-01 -0.13103313870E+02  0.82480291137E+02  0.97338068038E+02  0.50000000000E+02 0.  0.
<mgrwt>
<rscale>  0 0.51688500E+02</rscale>
<asrwt>0</asrwt>
<pdfrwt beam="1">  1       13 0.10000000E+01 0.51688500E+02</pdfrwt>
<pdfrwt beam="2">  1       22 0.11683066E+00 0.51688500E+02</pdfrwt>
<totfact> 0.11189073E+00</totfact>
</mgrwt>
</event>
<event>
 4    1  0.2437479E+000  0.5102613E+02  0.7957747E-01  0.1439884E+00
         13   -1    0    0    0    0  0.00000000000E+00  0.00000000000E+00  0.99999944180E+02  0.10000000000E+03  0.10566000000E+00 0. -1.
         22   -1    0    0    0    0 -0.00000000000E+00 -0.00000000000E+00 -0.18613058970E+02  0.18613058970E+02  0.00000000000E+00 0.  1.
         13    1    1    2    0    0 -0.89753745194E+01 -0.48071507073E+01 -0.97925121190E+01  0.14126942462E+02  0.10566000000E+00 0.  1.
        996    1    1    2    0    0  0.89753745194E+01  0.48071507073E+01  0.91179397329E+02  0.10448611651E+03  0.50000000000E+02 0.  0.
<mgrwt>
<rscale>  0 0.51026131E+02</rscale>
<asrwt>0</asrwt>
<pdfrwt beam="1">  1       13 0.10000000E+01 0.51026131E+02</pdfrwt>
<pdfrwt beam="2">  1       22 0.18613082E+00 0.51026131E+02</pdfrwt>
<totfact> 0.51623518E-01</totfact>
</mgrwt>
</event>
<event>
 4    1  0.2437479E+000  0.5326340E+02  0.7957747E-01  0.1428495E+00
         13   -1    0    0    0    0  0.00000000000E+00  0.00000000000E+00  0.99999944184E+02  0.10000000000E+03  0.10566000000E+00 0. -1.
         22   -1    0    0    0    0 -0.00000000000E+00 -0.00000000000E+00 -0.13530521847E+02  0.13530521847E+02  0.00000000000E+00 0. -1.
         13    1    1    2    0    0 -0.16585566398E+02 -0.78681902984E+01  0.11844620820E+02  0.21847096780E+02  0.10566000000E+00 0.  1.
        996    1    1    2    0    0  0.16585566398E+02  0.78681902984E+01  0.74624801518E+02  0.91683425072E+02  0.50000000000E+02 0.  0.
<mgrwt>
<rscale>  0 0.53263397E+02</rscale>
<asrwt>0</asrwt>
<pdfrwt beam="1">  1       13 0.10000000E+01 0.53263397E+02</pdfrwt>
<pdfrwt beam="2">  1       22 0.13530546E+00 0.53263397E+02</pdfrwt>
<totfact> 0.89324722E-01</totfact>
</mgrwt>
</event>
<event>
 4    1  0.2437479E+000  0.5207385E+02  0.7957747E-01  0.1434466E+00
         13   -1    0    0    0    0  0.00000000000E+00  0.00000000000E+00  0.99999944185E+02  0.10000000001E+03  0.10566000000E+00 0. -1.
         22   -1    0    0    0    0 -0.00000000000E+00 -0.00000000000E+00 -0.65957830073E+02  0.65957830073E+02  0.00000000000E+00 0.  1.
         13    1    1    2    0    0  0.14338048327E+02  0.24711080844E+01 -0.58222162048E+02  0.60012643023E+02  0.10566000000E+00 0.  1.
        996    1    1    2    0    0 -0.14338048327E+02 -0.24711080844E+01  0.92264276160E+02  0.10594518706E+03  0.50000000000E+02 0.  0.
<mgrwt>
<rscale>  0 0.52073851E+02</rscale>
<asrwt>0</asrwt>
<pdfrwt beam="1">  1       13 0.10000000E+01 0.52073851E+02</pdfrwt>
<pdfrwt beam="2">  1       22 0.65957840E+00 0.52073851E+02</pdfrwt>
<totfact> 0.87268013E-02</totfact>
</mgrwt>
</event>
<event>
 4    1  0.2437479E+000  0.5117074E+02  0.7957747E-01  0.1439127E+00
         13   -1    0    0    0    0  0.00000000000E+00  0.00000000000E+00  0.99999944180E+02  0.10000000000E+03  0.10566000000E+00 0.  1.
         22   -1    0    0    0    0 -0.00000000000E+00 -0.00000000000E+00 -0.69086408077E+02  0.69086408077E+02  0.00000000000E+00 0. -1.
         13    1    1    2    0    0 -0.10545368976E+02  0.26907632063E+01 -0.62035406167E+02  0.62982916698E+02  0.10566000000E+00 0. -1.
        996    1    1    2    0    0  0.10545368976E+02 -0.26907632063E+01  0.92948942271E+02  0.10610349138E+03  0.50000000000E+02 0.  0.
<mgrwt>
<rscale>  0 0.51170744E+02</rscale>
<asrwt>0</asrwt>
<pdfrwt beam="1">  1       13 0.10000000E+01 0.51170744E+02</pdfrwt>
<pdfrwt beam="2">  1       22 0.69086417E+00 0.51170744E+02</pdfrwt>
<totfact> 0.79069779E-02</totfact>
</mgrwt>
</event>
<event>
 4    1  0.2437479E+000  0.5658474E+02  0.7957747E-01  0.1412750E+00
         13   -1    0    0    0    0  0.00000000000E+00  0.00000000000E+00  0.99999944175E+02  0.99999999995E+02  0.10566000000E+00 0.  1.
         22   -1    0    0    0    0 -0.00000000000E+00 -0.00000000000E+00 -0.33604034892E+02  0.33604034892E+02  0.00000000000E+00 0. -1.
         13    1    1    2    0    0  0.10968865976E+02  0.24114658573E+02 -0.17975348562E+02  0.32014951177E+02  0.10566000000E+00 0. -1.
        996    1    1    2    0    0 -0.10968865976E+02 -0.24114658573E+02  0.84371257845E+02  0.10158908371E+03  0.50000000000E+02 0.  0.
<mgrwt>
<rscale>  0 0.56584740E+02</rscale>
<asrwt>0</asrwt>
<pdfrwt beam="1">  1       13 0.10000000E+01 0.56584740E+02</pdfrwt>
<pdfrwt beam="2">  1       22 0.33604053E+00 0.56584740E+02</pdfrwt>
<totfact> 0.16954815E-01</totfact>
</mgrwt>
</event>
<event>
 4    1  0.2437479E+000  0.5170463E+02  0.7957747E-01  0.1436358E+00
         13   -1    0    0    0    0  0.00000000000E+00  0.00000000000E+00  0.99999944185E+02  0.10000000001E+03  0.10566000000E+00 0. -1.
         22   -1    0    0    0    0 -0.00000000000E+00 -0.00000000000E+00 -0.12136706952E+02  0.12136706952E+02  0.00000000000E+00 0. -1.
         13    1    1    2    0    0 -0.10400676707E+02 -0.80743221492E+01  0.42646785993E+01  0.13840787612E+02  0.10566000000E+00 0.  1.
        996    1    1    2    0    0  0.10400676707E+02  0.80743221492E+01  0.83598558634E+02  0.98295919345E+02  0.50000000000E+02 0.  0.
<mgrwt>
<rscale>  0 0.51704630E+02</rscale>
<asrwt>0</asrwt>
<pdfrwt beam="1">  1       13 0.10000000E+01 0.51704630E+02</pdfrwt>
<pdfrwt beam="2">  1       22 0.12136731E+00 0.51704630E+02</pdfrwt>
<totfact> 0.10557159E+00</totfact>
</mgrwt>
</event>
<event>
 4    1  0.2437479E+000  0.5308447E+02  0.7957747E-01  0.1429381E+00
         13   -1    0    0    0    0  0.00000000000E+00  0.00000000000E+00  0.99999944181E+02  0.10000000000E+03  0.10566000000E+00 0.  1.
         22   -1    0    0    0    0 -0.00000000000E+00 -0.00000000000E+00 -0.13423484031E+02  0.13423484031E+02  0.00000000000E+00 0. -1.
         13    1    1    2    0    0  0.43617827266E+01  0.17289763313E+02  0.10617147480E+02  0.20753217790E+02  0.10566000000E+00 0. -1.
        996    1    1    2    0    0 -0.43617827266E+01 -0.17289763313E+02  0.75959312670E+02  0.92670266242E+02  0.50000000000E+02 0.  0.
<mgrwt>
<rscale>  0 0.53084471E+02</rscale>
<asrwt>0</asrwt>
<pdfrwt beam="1">  1       13 0.10000000E+01 0.53084471E+02</pdfrwt>
<pdfrwt beam="2">  1       22 0.13423508E+00 0.53084471E+02</pdfrwt>
<totfact> 0.90431594E-01</totfact>
</mgrwt>
</event>
<event>
 4    1  0.2437479E+000  0.5114200E+02  0.7957747E-01  0.1439277E+00
         13   -1    0    0    0    0  0.00000000000E+00  0.00000000000E+00  0.99999944183E+02  0.10000000000E+03  0.10566000000E+00 0.  1.
         22   -1    0    0    0    0 -0.00000000000E+00 -0.00000000000E+00 -0.29317858565E+02  0.29317858565E+02  0.00000000000E+00 0. -1.
         13    1    1    2    0    0 -0.55612321506E+01  0.91965941717E+01 -0.21422355996E+02  0.23967335018E+02  0.10566000000E+00 0. -1.
        996    1    1    2    0    0  0.55612321506E+01 -0.91965941717E+01  0.92104441614E+02  0.10535052355E+03  0.50000000000E+02 0.  0.
<mgrwt>
<rscale>  0 0.51142005E+02</rscale>
<asrwt>0</asrwt>
<pdfrwt beam="1">  1       13 0.10000000E+01 0.51142005E+02</pdfrwt>
<pdfrwt beam="2">  1       22 0.29317878E+00 0.51142005E+02</pdfrwt>
<totfact> 0.21593991E-01</totfact>
</mgrwt>
</event>
<event>
 4    1  0.2437479E+000  0.5616475E+02  0.7957747E-01  0.1414670E+00
         13   -1    0    0    0    0  0.00000000000E+00  0.00000000000E+00  0.99999944187E+02  0.10000000001E+03  0.10566000000E+00 0.  1.
         22   -1    0    0    0    0 -0.00000000000E+00 -0.00000000000E+00 -0.16852308552E+02  0.16852308552E+02  0.00000000000E+00 0. -1.
         13    1    1    2    0    0 -0.96695083458E+01 -0.23685003990E+02  0.21115603473E+02  0.33171654763E+02  0.10566000000E+00 0. -1.
        996    1    1    2    0    0  0.96695083458E+01  0.23685003990E+02  0.62032032161E+02  0.83680653796E+02  0.50000000000E+02 0.  0.
<mgrwt>
<rscale>  0 0.56164747E+02</rscale>
<asrwt>0</asrwt>
<pdfrwt beam="1">  1       13 0.10000000E+01 0.56164747E+02</pdfrwt>
<pdfrwt beam="2">  1       22 0.16852332E+00 0.56164747E+02</pdfrwt>
<totfact> 0.62214769E-01</totfact>
</mgrwt>
</event>
<event>
 4    1  0.2437479E+000  0.5114415E+02  0.7957747E-01  0.1439266E+00
         13   -1    0    0    0    0  0.00000000000E+00  0.00000000000E+00  0.99999944173E+02  0.99999999994E+02  0.10566000000E+00 0. -1.
         22   -1    0    0    0    0 -0.00000000000E+00 -0.00000000000E+00 -0.95938295620E+01  0.95938295620E+01  0.00000000000E+00 0. -1.
         13    1    1    2    0    0 -0.16549177009E+01 -0.10629438400E+02  0.17351626976E+02  0.20416019104E+02  0.10566000000E+00 0.  1.
        996    1    1    2    0    0  0.16549177009E+01  0.10629438400E+02  0.73054487636E+02  0.89177810452E+02  0.50000000000E+02 0.  0.
<mgrwt>
<rscale>  0 0.51144146E+02</rscale>
<asrwt>0</asrwt>
<pdfrwt beam="1">  1       13 0.10000000E+01 0.51144146E+02</pdfrwt>
<pdfrwt beam="2">  1       22 0.95938548E-01 0.51144146E+02</pdfrwt>
<totfact> 0.14934384E+00</totfact>
</mgrwt>
</event>
<event>
 4    1  0.2437479E+000  0.5106916E+02  0.7957747E-01  0.1439659E+00
         13   -1    0    0    0    0  0.00000000000E+00  0.00000000000E+00  0.99999944178E+02  0.99999999998E+02  0.10566000000E+00 0.  1.
         22   -1    0    0    0    0 -0.00000000000E+00 -0.00000000000E+00 -0.62957149680E+02  0.62957149680E+02  0.00000000000E+00 0. -1.
         13    1    1    2    0    0 -0.98028568370E+01 -0.34587501123E+01 -0.55926661195E+02  0.56884633698E+02  0.10566000000E+00 0. -1.
        996    1    1    2    0    0  0.98028568370E+01  0.34587501123E+01  0.92969455693E+02  0.10607251598E+03  0.50000000000E+02 0.  0.
<mgrwt>
<rscale>  0 0.51069159E+02</rscale>
<asrwt>0</asrwt>
<pdfrwt beam="1">  1       13 0.10000000E+01 0.51069159E+02</pdfrwt>
<pdfrwt beam="2">  1       22 0.62957160E+00 0.51069159E+02</pdfrwt>
<totfact> 0.78469715E-02</totfact>
</mgrwt>
</event>
<event>
 4    1  0.2437479E+000  0.5108406E+02  0.7957747E-01  0.1439581E+00
         13   -1    0    0    0    0  0.00000000000E+00  0.00000000000E+00  0.99999944182E+02  0.10000000000E+03  0.10566000000E+00 0.  1.
         22   -1    0    0    0    0 -0.00000000000E+00 -0.00000000000E+00 -0.95169897886E+01  0.95169897886E+01  0.00000000000E+00 0.  1.
         13    1    1    2    0    0  0.93684541250E+01  0.46704409178E+01  0.18370921945E+02  0.21144334660E+02  0.10566000000E+00 0. -1.
        996    1    1    2    0    0 -0.93684541250E+01 -0.46704409178E+01  0.72112032448E+02  0.88372655131E+02  0.50000000000E+02 0.  0.
<mgrwt>
<rscale>  0 0.51084058E+02</rscale>
<asrwt>0</asrwt>
<pdfrwt beam="1">  1       13 0.10000000E+01 0.51084058E+02</pdfrwt>
<pdfrwt beam="2">  1       22 0.95170150E-01 0.51084058E+02</pdfrwt>
<totfact> 0.15104961E+00</totfact>
</mgrwt>
</event>
<event>
 4    1  0.2437479E+000  0.5117374E+02  0.7957747E-01  0.1439112E+00
         13   -1    0    0    0    0  0.00000000000E+00  0.00000000000E+00  0.99999944176E+02  0.99999999997E+02  0.10566000000E+00 0. -1.
         22   -1    0    0    0    0 -0.00000000000E+00 -0.00000000000E+00 -0.67944603582E+02  0.67944603582E+02  0.00000000000E+00 0.  1.
         13    1    1    2    0    0 -0.16676504151E+01 -0.10768967030E+02 -0.60882089827E+02  0.61849751290E+02  0.10566000000E+00 0.  1.
        996    1    1    2    0    0  0.16676504151E+01  0.10768967030E+02  0.92937430422E+02  0.10609485229E+03  0.50000000000E+02 0.  0.
<mgrwt>
<rscale>  0 0.51173740E+02</rscale>
<asrwt>0</asrwt>
<pdfrwt beam="1">  1       13 0.10000000E+01 0.51173740E+02</pdfrwt>
<pdfrwt beam="2">  1       22 0.67944613E+00 0.51173740E+02</pdfrwt>
<totfact> 0.83666063E-02</totfact>
</mgrwt>
</event>
<event>
 4    1  0.2437479E+000  0.5119783E+02  0.7957747E-01  0.1438986E+00
         13   -1    0    0    0    0  0.00000000000E+00  0.00000000000E+00  0.99999944186E+02  0.10000000001E+03  0.10566000000E+00 0. -1.
         22   -1    0    0    0    0 -0.00000000000E+00 -0.00000000000E+00 -0.99665344985E+01  0.99665344985E+01  0.00000000000E+00 0. -1.
         13    1    1    2    0    0  0.11712211369E+01 -0.10947404813E+02  0.95293305509E+01  0.14561481239E+02  0.10566000000E+00 0.  1.
        996    1    1    2    0    0 -0.11712211369E+01  0.10947404813E+02  0.80504079137E+02  0.95405053266E+02  0.50000000000E+02 0.  0.
<mgrwt>
<rscale>  0 0.51197826E+02</rscale>
<asrwt>0</asrwt>
<pdfrwt beam="1">  1       13 0.10000000E+01 0.51197826E+02</pdfrwt>
<pdfrwt beam="2">  1       22 0.99665596E-01 0.51197826E+02</pdfrwt>
<totfact> 0.14138968E+00</totfact>
</mgrwt>
</event>
<event>
 4    1  0.2437479E+000  0.5160230E+02  0.7957747E-01  0.1436886E+00
         13   -1    0    0    0    0  0.00000000000E+00  0.00000000000E+00  0.99999944186E+02  0.10000000001E+03  0.10566000000E+00 0. -1.
         22   -1    0    0    0    0 -0.00000000000E+00 -0.00000000000E+00 -0.32214283734E+02  0.32214283734E+02  0.00000000000E+00 0.  1.
         13    1    1    2    0    0 -0.12544123951E+02 -0.23329342964E+01 -0.23849760064E+02  0.27048472180E+02  0.10566000000E+00 0.  1.
        996    1    1    2    0    0  0.12544123951E+02  0.23329342964E+01  0.91635420515E+02  0.10516581156E+03  0.50000000000E+02 0.  0.
<mgrwt>
<rscale>  0 0.51602303E+02</rscale>
<asrwt>0</asrwt>
<pdfrwt beam="1">  1       13 0.10000000E+01 0.51602303E+02</pdfrwt>
<pdfrwt beam="2">  1       22 0.32214303E+00 0.51602303E+02</pdfrwt>
<totfact> 0.18171133E-01</totfact>
</mgrwt>
</event>
<event>
 4    1  0.2437479E+000  0.5348159E+02  0.7957747E-01  0.1427419E+00
         13   -1    0    0    0    0  0.00000000000E+00  0.00000000000E+00  0.99999944180E+02  0.10000000000E+03  0.10566000000E+00 0. -1.
         22   -1    0    0    0    0 -0.00000000000E+00 -0.00000000000E+00 -0.27552797417E+02  0.27552797417E+02  0.00000000000E+00 0.  1.
         13    1    1    2    0    0 -0.17189206845E+02 -0.80505447890E+01 -0.15577240478E+02  0.24554870969E+02  0.10566000000E+00 0.  1.
        996    1    1    2    0    0  0.17189206845E+02  0.80505447890E+01  0.88024387241E+02  0.10299792645E+03  0.50000000000E+02 0.  0.
<mgrwt>
<rscale>  0 0.53481587E+02</rscale>
<asrwt>0</asrwt>
<pdfrwt beam="1">  1       13 0.10000000E+01 0.53481587E+02</pdfrwt>
<pdfrwt beam="2">  1       22 0.27552818E+00 0.53481587E+02</pdfrwt>
<totfact> 0.24411680E-01</totfact>
</mgrwt>
</event>
<event>
 4    1  0.2437479E+000  0.5262052E+02  0.7957747E-01  0.1431699E+00
         13   -1    0    0    0    0  0.00000000000E+00  0.00000000000E+00  0.99999944179E+02  0.10000000000E+03  0.10566000000E+00 0. -1.
         22   -1    0    0    0    0 -0.00000000000E+00 -0.00000000000E+00 -0.15630680070E+02  0.15630680070E+02  0.00000000000E+00 0. -1.
         13    1    1    2    0    0 -0.15137656896E+02  0.63064181770E+01  0.24058174741E+00  0.16400872237E+02  0.10566000000E+00 0.  1.
        996    1    1    2    0    0  0.15137656896E+02 -0.63064181770E+01  0.84128682362E+02  0.99229807833E+02  0.50000000000E+02 0.  0.
<mgrwt>
<rscale>  0 0.52620524E+02</rscale>
<asrwt>0</asrwt>
<pdfrwt beam="1">  1       13 0.10000000E+01 0.52620524E+02</pdfrwt>
<pdfrwt beam="2">  1       22 0.15630704E+00 0.52620524E+02</pdfrwt>
<totfact> 0.70348962E-01</totfact>
</mgrwt>
</event>
<event>
 4    1  0.2437479E+000  0.5319683E+02  0.7957747E-01  0.1428824E+00
         13   -1    0    0    0    0  0.00000000000E+00  0.00000000000E+00  0.99999944180E+02  0.10000000000E+03  0.10566000000E+00 0.  1.
         22   -1    0    0    0    0 -0.00000000000E+00 -0.00000000000E+00 -0.16757015682E+02  0.16757015682E+02  0.00000000000E+00 0. -1.
         13    1    1    2    0    0  0.17687838390E+02 -0.41282941380E+01  0.23403211858E+00  0.18165031640E+02  0.10566000000E+00 0. -1.
        996    1    1    2    0    0 -0.17687838390E+02  0.41282941380E+01  0.83008896380E+02  0.98591984043E+02  0.50000000000E+02 0.  0.
<mgrwt>
<rscale>  0 0.53196827E+02</rscale>
<asrwt>0</asrwt>
<pdfrwt beam="1">  1       13 0.10000000E+01 0.53196827E+02</pdfrwt>
<pdfrwt beam="2">  1       22 0.16757039E+00 0.53196827E+02</pdfrwt>
<totfact> 0.62490949E-01</totfact>
</mgrwt>
</event>
<event>
 4    1  0.2437479E+000  0.5156595E+02  0.7957747E-01  0.1437074E+00
         13   -1    0    0    0    0  0.00000000000E+00  0.00000000000E+00  0.99999944178E+02  0.99999999998E+02  0.10566000000E+00 0.  1.
         22   -1    0    0    0    0 -0.00000000000E+00 -0.00000000000E+00 -0.14317138415E+02  0.14317138415E+02  0.00000000000E+00 0. -1.
         13    1    1    2    0    0  0.37704433772E+01 -0.12034564495E+02 -0.18279630834E+01  0.12743610121E+02  0.10566000000E+00 0. -1.
        996    1    1    2    0    0 -0.37704433772E+01  0.12034564495E+02  0.87510768846E+02  0.10157352829E+03  0.50000000000E+02 0.  0.
<mgrwt>
<rscale>  0 0.51565948E+02</rscale>
<asrwt>0</asrwt>
<pdfrwt beam="1">  1       13 0.10000000E+01 0.51565948E+02</pdfrwt>
<pdfrwt beam="2">  1       22 0.14317162E+00 0.51565948E+02</pdfrwt>
<totfact> 0.81234581E-01</totfact>
</mgrwt>
</event>
<event>
 4    1  0.2437479E+000  0.5155135E+02  0.7957747E-01  0.1437149E+00
         13   -1    0    0    0    0  0.00000000000E+00  0.00000000000E+00  0.99999944180E+02  0.10000000000E+03  0.10566000000E+00 0.  1.
         22   -1    0    0    0    0 -0.00000000000E+00 -0.00000000000E+00 -0.27545937087E+02  0.27545937087E+02  0.00000000000E+00 0. -1.
         13    1    1    2    0    0  0.38204808041E+01  0.11955983630E+02 -0.18877642474E+02  0.22669763288E+02  0.10566000000E+00 0. -1.
        996    1    1    2    0    0 -0.38204808041E+01 -0.11955983630E+02  0.91331649567E+02  0.10487617380E+03  0.50000000000E+02 0.  0.
<mgrwt>
<rscale>  0 0.51551349E+02</rscale>
<asrwt>0</asrwt>
<pdfrwt beam="1">  1       13 0.10000000E+01 0.51551349E+02</pdfrwt>
<pdfrwt beam="2">  1       22 0.27545957E+00 0.51551349E+02</pdfrwt>
<totfact> 0.24356085E-01</totfact>
</mgrwt>
</event>
<event>
 4    1  0.2437479E+000  0.5182324E+02  0.7957747E-01  0.1435748E+00
         13   -1    0    0    0    0  0.00000000000E+00  0.00000000000E+00  0.99999944184E+02  0.10000000000E+03  0.10566000000E+00 0. -1.
         22   -1    0    0    0    0 -0.00000000000E+00 -0.00000000000E+00 -0.11969365260E+02  0.11969365260E+02  0.00000000000E+00 0.  1.
         13    1    1    2    0    0  0.13551999100E+02 -0.14113942236E+01  0.58835451543E+01  0.14841697372E+02  0.10566000000E+00 0.  1.
        996    1    1    2    0    0 -0.13551999100E+02  0.14113942236E+01  0.82147033770E+02  0.97127667893E+02  0.50000000000E+02 0.  0.
<mgrwt>
<rscale>  0 0.51823245E+02</rscale>
<asrwt>0</asrwt>
<pdfrwt beam="1">  1       13 0.10000000E+01 0.51823245E+02</pdfrwt>
<pdfrwt beam="2">  1       22 0.11969390E+00 0.51823245E+02</pdfrwt>
<totfact> 0.10787273E+00</totfact>
</mgrwt>
</event>
<event>
 4    1  0.2437479E+000  0.5571535E+02  0.7957747E-01  0.1416746E+00
         13   -1    0    0    0    0  0.00000000000E+00  0.00000000000E+00  0.99999944179E+02  0.99999999999E+02  0.10566000000E+00 0.  1.
         22   -1    0    0    0    0 -0.00000000000E+00 -0.00000000000E+00 -0.18330319455E+02  0.18330319455E+02  0.00000000000E+00 0.  1.
         13    1    1    2    0    0  0.22827350221E+02  0.91165806311E+01  0.77667981204E+01  0.25778562365E+02  0.10566000000E+00 0. -1.
        996    1    1    2    0    0 -0.22827350221E+02 -0.91165806311E+01  0.73902826603E+02  0.92551757090E+02  0.50000000000E+02 0.  0.
<mgrwt>
<rscale>  0 0.55715348E+02</rscale>
<asrwt>0</asrwt>
<pdfrwt beam="1">  1       13 0.10000000E+01 0.55715348E+02</pdfrwt>
<pdfrwt beam="2">  1       22 0.18330342E+00 0.55715348E+02</pdfrwt>
<totfact> 0.53529377E-01</totfact>
</mgrwt>
</event>
<event>
 4    1  0.2437479E+000  0.5658520E+02  0.7957747E-01  0.1412748E+00
         13   -1    0    0    0    0  0.00000000000E+00  0.00000000000E+00  0.99999944183E+02  0.10000000000E+03  0.10566000000E+00 0.  1.
         22   -1    0    0    0    0 -0.00000000000E+00 -0.00000000000E+00 -0.27255095832E+02  0.27255095832E+02  0.00000000000E+00 0. -1.
         13    1    1    2    0    0  0.15796421357E+02 -0.21268715717E+02 -0.88738426943E+01  0.27939961419E+02  0.10566000000E+00 0. -1.
        996    1    1    2    0    0 -0.15796421357E+02  0.21268715717E+02  0.81618691045E+02  0.99315134415E+02  0.50000000000E+02 0.  0.
<mgrwt>
<rscale>  0 0.56585203E+02</rscale>
<asrwt>0</asrwt>
<pdfrwt beam="1">  1       13 0.10000000E+01 0.56585203E+02</pdfrwt>
<pdfrwt beam="2">  1       22 0.27255116E+00 0.56585203E+02</pdfrwt>
<totfact> 0.25041133E-01</totfact>
</mgrwt>
</event>
<event>
 4    1  0.2437479E+000  0.5115313E+02  0.7957747E-01  0.1439219E+00
         13   -1    0    0    0    0  0.00000000000E+00  0.00000000000E+00  0.99999944181E+02  0.10000000000E+03  0.10566000000E+00 0. -1.
         22   -1    0    0    0    0 -0.00000000000E+00 -0.00000000000E+00 -0.16668991529E+02  0.16668991529E+02  0.00000000000E+00 0.  1.
         13    1    1    2    0    0  0.22180554578E+01 -0.10569898801E+02 -0.69924081952E+01  0.12866525059E+02  0.10566000000E+00 0.  1.
        996    1    1    2    0    0 -0.22180554578E+01  0.10569898801E+02  0.90323360847E+02  0.10380246647E+03  0.50000000000E+02 0.  0.
<mgrwt>
<rscale>  0 0.51153128E+02</rscale>
<asrwt>0</asrwt>
<pdfrwt beam="1">  1       13 0.10000000E+01 0.51153128E+02</pdfrwt>
<pdfrwt beam="2">  1       22 0.16669015E+00 0.51153128E+02</pdfrwt>
<totfact> 0.62816142E-01</totfact>
</mgrwt>
</event>
<event>
 4    1  0.2437479E+000  0.5351366E+02  0.7957747E-01  0.1427262E+00
         13   -1    0    0    0    0  0.00000000000E+00  0.00000000000E+00  0.99999944176E+02  0.99999999996E+02  0.10566000000E+00 0.  1.
         22   -1    0    0    0    0 -0.00000000000E+00 -0.00000000000E+00 -0.30068841453E+02  0.30068841453E+02  0.00000000000E+00 0. -1.
         13    1    1    2    0    0  0.34738435254E+01 -0.18752165330E+02 -0.18587822856E+02  0.26631365266E+02  0.10566000000E+00 0. -1.
        996    1    1    2    0    0 -0.34738435254E+01  0.18752165330E+02  0.88518925579E+02  0.10343747618E+03  0.50000000000E+02 0.  0.
<mgrwt>
<rscale>  0 0.53513655E+02</rscale>
<asrwt>0</asrwt>
<pdfrwt beam="1">  1       13 0.10000000E+01 0.53513655E+02</pdfrwt>
<pdfrwt beam="2">  1       22 0.30068861E+00 0.53513655E+02</pdfrwt>
<totfact> 0.20655058E-01</totfact>
</mgrwt>
</event>
<event>
 4    1  0.2437479E+000  0.5248645E+02  0.7957747E-01  0.1432374E+00
         13   -1    0    0    0    0  0.00000000000E+00  0.00000000000E+00  0.99999944181E+02  0.10000000000E+03  0.10566000000E+00 0.  1.
         22   -1    0    0    0    0 -0.00000000000E+00 -0.00000000000E+00 -0.12030427660E+02  0.12030427660E+02  0.00000000000E+00 0.  1.
         13    1    1    2    0    0  0.15833720678E+02  0.20299151498E+01  0.13404773731E+02  0.20845296564E+02  0.10566000000E+00 0. -1.
        996    1    1    2    0    0 -0.15833720678E+02 -0.20299151498E+01  0.74564742789E+02  0.91185131097E+02  0.50000000000E+02 0.  0.
<mgrwt>
<rscale>  0 0.52486448E+02</rscale>
<asrwt>0</asrwt>
<pdfrwt beam="1">  1       13 0.10000000E+01 0.52486448E+02</pdfrwt>
<pdfrwt beam="2">  1       22 0.12030452E+00 0.52486448E+02</pdfrwt>
<totfact> 0.10719338E+00</totfact>
</mgrwt>
</event>
<event>
 4    1  0.2437479E+000  0.5670543E+02  0.7957747E-01  0.1412202E+00
         13   -1    0    0    0    0  0.00000000000E+00  0.00000000000E+00  0.99999944180E+02  0.10000000000E+03  0.10566000000E+00 0. -1.
         22   -1    0    0    0    0 -0.00000000000E+00 -0.00000000000E+00 -0.32124874775E+02  0.32124874775E+02  0.00000000000E+00 0.  1.
         13    1    1    2    0    0  0.12230147460E+02 -0.23789258067E+02 -0.15783998291E+02  0.31058832437E+02  0.10566000000E+00 0.  1.
        996    1    1    2    0    0 -0.12230147460E+02  0.23789258067E+02  0.83659067696E+02  0.10106604234E+03  0.50000000000E+02 0.  0.
<mgrwt>
<rscale>  0 0.56705426E+02</rscale>
<asrwt>0</asrwt>
<pdfrwt beam="1">  1       13 0.10000000E+01 0.56705426E+02</pdfrwt>
<pdfrwt beam="2">  1       22 0.32124894E+00 0.56705426E+02</pdfrwt>
<totfact> 0.18369091E-01</totfact>
</mgrwt>
</event>
<event>
 4    1  0.2437479E+000  0.5170286E+02  0.7957747E-01  0.1436367E+00
         13   -1    0    0    0    0  0.00000000000E+00  0.00000000000E+00  0.99999944177E+02  0.99999999997E+02  0.10566000000E+00 0. -1.
         22   -1    0    0    0    0 -0.00000000000E+00 -0.00000000000E+00 -0.20558630936E+02  0.20558630936E+02  0.00000000000E+00 0. -1.
         13    1    1    2    0    0 -0.93966288798E+01  0.92135542181E+01 -0.10486351184E+02  0.16827386631E+02  0.10566000000E+00 0.  1.
        996    1    1    2    0    0  0.93966288798E+01 -0.92135542181E+01  0.89927664424E+02  0.10373124430E+03  0.50000000000E+02 0.  0.
<mgrwt>
<rscale>  0 0.51702865E+02</rscale>
<asrwt>0</asrwt>
<pdfrwt beam="1">  1       13 0.10000000E+01 0.51702865E+02</pdfrwt>
<pdfrwt beam="2">  1       22 0.20558653E+00 0.51702865E+02</pdfrwt>
<totfact> 0.43005034E-01</totfact>
</mgrwt>
</event>
<event>
 4    1  0.2437479E+000  0.5432024E+02  0.7957747E-01  0.1423341E+00
         13   -1    0    0    0    0  0.00000000000E+00  0.00000000000E+00  0.99999944181E+02  0.10000000000E+03  0.10566000000E+00 0.  1.
         22   -1    0    0    0    0 -0.00000000000E+00 -0.00000000000E+00 -0.14751573871E+02  0.14751573871E+02  0.00000000000E+00 0.  1.
         13    1    1    2    0    0  0.14187643150E+02  0.15792368784E+02  0.33925965538E+02  0.40020874949E+02  0.10566000000E+00 0. -1.
        996    1    1    2    0    0 -0.14187643150E+02 -0.15792368784E+02  0.51322404772E+02  0.74730698923E+02  0.50000000000E+02 0.  0.
<mgrwt>
<rscale>  0 0.54320237E+02</rscale>
<asrwt>0</asrwt>
<pdfrwt beam="1">  1       13 0.10000000E+01 0.54320237E+02</pdfrwt>
<pdfrwt beam="2">  1       22 0.14751598E+00 0.54320237E+02</pdfrwt>
<totfact> 0.77770122E-01</totfact>
</mgrwt>
</event>
<event>
 4    1  0.2437479E+000  0.5214031E+02  0.7957747E-01  0.1434128E+00
         13   -1    0    0    0    0  0.00000000000E+00  0.00000000000E+00  0.99999944178E+02  0.99999999998E+02  0.10566000000E+00 0.  1.
         22   -1    0    0    0    0 -0.00000000000E+00 -0.00000000000E+00 -0.15379952216E+02  0.15379952216E+02  0.00000000000E+00 0. -1.
         13    1    1    2    0    0  0.14221269698E+02 -0.40456154116E+01 -0.13360281020E+01  0.14846132527E+02  0.10566000000E+00 0. -1.
        996    1    1    2    0    0 -0.14221269698E+02  0.40456154116E+01  0.85956020063E+02  0.10053381969E+03  0.50000000000E+02 0.  0.
<mgrwt>
<rscale>  0 0.52140306E+02</rscale>
<asrwt>0</asrwt>
<pdfrwt beam="1">  1       13 0.10000000E+01 0.52140306E+02</pdfrwt>
<pdfrwt beam="2">  1       22 0.15379976E+00 0.52140306E+02</pdfrwt>
<totfact> 0.72226190E-01</totfact>
</mgrwt>
</event>
<event>
 4    1  0.2437479E+000  0.7416434E+02  0.7957747E-01  0.1346478E+00
         13   -1    0    0    0    0  0.00000000000E+00  0.00000000000E+00  0.99999944185E+02  0.10000000000E+03  0.10566000000E+00 0.  1.
         22   -1    0    0    0    0 -0.00000000000E+00 -0.00000000000E+00 -0.84628484195E+02  0.84628484195E+02  0.00000000000E+00 0. -1.
         13    1    1    2    0    0  0.18492632273E+02 -0.51559407653E+02 -0.58367566898E+02  0.80044575054E+02  0.10566000000E+00 0. -1.
        996    1    1    2    0    0 -0.18492632273E+02  0.51559407653E+02  0.73739026887E+02  0.10458390915E+03  0.50000000000E+02 0.  0.
<mgrwt>
<rscale>  0 0.74164344E+02</rscale>
<asrwt>0</asrwt>
<pdfrwt beam="1">  1       13 0.10000000E+01 0.74164344E+02</pdfrwt>
<pdfrwt beam="2">  1       22 0.84628489E+00 0.74164344E+02</pdfrwt>
<totfact> 0.19730990E-02</totfact>
</mgrwt>
</event>
<event>
 4    1  0.2437479E+000  0.5174780E+02  0.7957747E-01  0.1436136E+00
         13   -1    0    0    0    0  0.00000000000E+00  0.00000000000E+00  0.99999944182E+02  0.10000000000E+03  0.10566000000E+00 0. -1.
         22   -1    0    0    0    0 -0.00000000000E+00 -0.00000000000E+00 -0.10767659612E+02  0.10767659612E+02  0.00000000000E+00 0. -1.
         13    1    1    2    0    0 -0.12766496703E+02 -0.38536803679E+01  0.12945909202E+02  0.18586070578E+02  0.10566000000E+00 0.  1.
        996    1    1    2    0    0  0.12766496703E+02  0.38536803679E+01  0.76286375368E+02  0.92181589036E+02  0.50000000000E+02 0.  0.
<mgrwt>
<rscale>  0 0.51747795E+02</rscale>
<asrwt>0</asrwt>
<pdfrwt beam="1">  1       13 0.10000000E+01 0.51747795E+02</pdfrwt>
<pdfrwt beam="2">  1       22 0.10767685E+00 0.51747795E+02</pdfrwt>
<totfact> 0.12644136E+00</totfact>
</mgrwt>
</event>
<event>
 4    1  0.2437479E+000  0.5597463E+02  0.7957747E-01  0.1415545E+00
         13   -1    0    0    0    0  0.00000000000E+00  0.00000000000E+00  0.99999944175E+02  0.99999999995E+02  0.10566000000E+00 0. -1.
         22   -1    0    0    0    0 -0.00000000000E+00 -0.00000000000E+00 -0.30232898068E+02  0.30232898068E+02  0.00000000000E+00 0.  1.
         13    1    1    2    0    0 -0.18390019063E+02  0.17174602003E+02 -0.14520625782E+02  0.29052013566E+02  0.10566000000E+00 0.  1.
        996    1    1    2    0    0  0.18390019063E+02 -0.17174602003E+02  0.84287671889E+02  0.10118088450E+03  0.50000000000E+02 0.  0.
<mgrwt>
<rscale>  0 0.55974635E+02</rscale>
<asrwt>0</asrwt>
<pdfrwt beam="1">  1       13 0.10000000E+01 0.55974635E+02</pdfrwt>
<pdfrwt beam="2">  1       22 0.30232918E+00 0.55974635E+02</pdfrwt>
<totfact> 0.20508716E-01</totfact>
</mgrwt>
</event>
<event>
 4    1  0.2437479E+000  0.5825897E+02  0.7957747E-01  0.1405287E+00
         13   -1    0    0    0    0  0.00000000000E+00  0.00000000000E+00  0.99999944179E+02  0.99999999999E+02  0.10566000000E+00 0. -1.
         22   -1    0    0    0    0 -0.00000000000E+00 -0.00000000000E+00 -0.29306152812E+02  0.29306152812E+02  0.00000000000E+00 0.  1.
         13    1    1    2    0    0 -0.26706156619E+02  0.13449468858E+02 -0.84119000266E+01  0.31062489276E+02  0.10566000000E+00 0.  1.
        996    1    1    2    0    0  0.26706156619E+02 -0.13449468858E+02  0.79105691393E+02  0.98243663535E+02  0.50000000000E+02 0.  0.
<mgrwt>
<rscale>  0 0.58258965E+02</rscale>
<asrwt>0</asrwt>
<pdfrwt beam="1">  1       13 0.10000000E+01 0.58258965E+02</pdfrwt>
<pdfrwt beam="2">  1       22 0.29306173E+00 0.58258965E+02</pdfrwt>
<totfact> 0.21809143E-01</totfact>
</mgrwt>
</event>
<event>
 4    1  0.2437479E+000  0.5326328E+02  0.7957747E-01  0.1428495E+00
         13   -1    0    0    0    0  0.00000000000E+00  0.00000000000E+00  0.99999944180E+02  0.10000000000E+03  0.10566000000E+00 0. -1.
         22   -1    0    0    0    0 -0.00000000000E+00 -0.00000000000E+00 -0.48269021724E+02  0.48269021724E+02  0.00000000000E+00 0.  1.
         13    1    1    2    0    0 -0.15283098139E+02 -0.10168770653E+02 -0.38974507424E+02  0.43081322847E+02  0.10566000000E+00 0.  1.
        996    1    1    2    0    0  0.15283098139E+02  0.10168770653E+02  0.90705429880E+02  0.10518769888E+03  0.50000000000E+02 0.  0.
<mgrwt>
<rscale>  0 0.53263280E+02</rscale>
<asrwt>0</asrwt>
<pdfrwt beam="1">  1       13 0.10000000E+01 0.53263280E+02</pdfrwt>
<pdfrwt beam="2">  1       22 0.48269036E+00 0.53263280E+02</pdfrwt>
<totfact> 0.81094920E-02</totfact>
</mgrwt>
</event>
<event>
 4    1  0.2437479E+000  0.5253001E+02  0.7957747E-01  0.1432154E+00
         13   -1    0    0    0    0  0.00000000000E+00  0.00000000000E+00  0.99999944184E+02  0.10000000000E+03  0.10566000000E+00 0.  1.
         22   -1    0    0    0    0 -0.00000000000E+00 -0.00000000000E+00 -0.23178748149E+02  0.23178748149E+02  0.00000000000E+00 0. -1.
         13    1    1    2    0    0 -0.73335659367E+01 -0.14339497310E+02 -0.11932397793E+02  0.20044841072E+02  0.10566000000E+00 0. -1.
        996    1    1    2    0    0  0.73335659367E+01  0.14339497310E+02  0.88753593829E+02  0.10313390708E+03  0.50000000000E+02 0.  0.
<mgrwt>
<rscale>  0 0.52530014E+02</rscale>
<asrwt>0</asrwt>
<pdfrwt beam="1">  1       13 0.10000000E+01 0.52530014E+02</pdfrwt>
<pdfrwt beam="2">  1       22 0.23178770E+00 0.52530014E+02</pdfrwt>
<totfact> 0.34217157E-01</totfact>
</mgrwt>
</event>
<event>
 4    1  0.2437479E+000  0.5203436E+02  0.7957747E-01  0.1434668E+00
         13   -1    0    0    0    0  0.00000000000E+00  0.00000000000E+00  0.99999944179E+02  0.99999999999E+02  0.10566000000E+00 0. -1.
         22   -1    0    0    0    0 -0.00000000000E+00 -0.00000000000E+00 -0.40102635002E+02  0.40102635002E+02  0.00000000000E+00 0. -1.
         13    1    1    2    0    0 -0.96129794439E+01 -0.10731521741E+02 -0.31664411379E+02  0.34788231410E+02  0.10566000000E+00 0.  1.
        996    1    1    2    0    0  0.96129794439E+01  0.10731521741E+02  0.91561720556E+02  0.10531440359E+03  0.50000000000E+02 0.  0.
<mgrwt>
<rscale>  0 0.52034363E+02</rscale>
<asrwt>0</asrwt>
<pdfrwt beam="1">  1       13 0.10000000E+01 0.52034363E+02</pdfrwt>
<pdfrwt beam="2">  1       22 0.40102652E+00 0.52034363E+02</pdfrwt>
<totfact> 0.12307874E-01</totfact>
</mgrwt>
</event>
<event>
 4    1  0.2437479E+000  0.5235143E+02  0.7957747E-01  0.1433056E+00
         13   -1    0    0    0    0  0.00000000000E+00  0.00000000000E+00  0.99999944181E+02  0.10000000000E+03  0.10566000000E+00 0.  1.
         22   -1    0    0    0    0 -0.00000000000E+00 -0.00000000000E+00 -0.45239538808E+02  0.45239538808E+02  0.00000000000E+00 0. -1.
         13    1    1    2    0    0  0.14689150755E+02  0.49901348348E+01 -0.36706532894E+02  0.39850386657E+02  0.10566000000E+00 0. -1.
        996    1    1    2    0    0 -0.14689150755E+02 -0.49901348348E+01  0.91466938266E+02  0.10538915215E+03  0.50000000000E+02 0.  0.
<mgrwt>
<rscale>  0 0.52351434E+02</rscale>
<asrwt>0</asrwt>
<pdfrwt beam="1">  1       13 0.10000000E+01 0.52351434E+02</pdfrwt>
<pdfrwt beam="2">  1       22 0.45239554E+00 0.52351434E+02</pdfrwt>
<totfact> 0.95440223E-02</totfact>
</mgrwt>
</event>
<event>
 4    1  0.2437479E+000  0.5273534E+02  0.7957747E-01  0.1431123E+00
         13   -1    0    0    0    0  0.00000000000E+00  0.00000000000E+00  0.99999944181E+02  0.10000000000E+03  0.10566000000E+00 0.  1.
         22   -1    0    0    0    0 -0.00000000000E+00 -0.00000000000E+00 -0.15516996781E+02  0.15516996781E+02  0.00000000000E+00 0. -1.
         13    1    1    2    0    0  0.51091707537E+01 -0.15965963887E+02  0.10265734868E+01  0.16795256646E+02  0.10566000000E+00 0. -1.
        996    1    1    2    0    0 -0.51091707537E+01  0.15965963887E+02  0.83456373914E+02  0.98721740136E+02  0.50000000000E+02 0.  0.
<mgrwt>
<rscale>  0 0.52735336E+02</rscale>
<asrwt>0</asrwt>
<pdfrwt beam="1">  1       13 0.10000000E+01 0.52735336E+02</pdfrwt>
<pdfrwt beam="2">  1       22 0.15517020E+00 0.52735336E+02</pdfrwt>
<totfact> 0.71239193E-01</totfact>
</mgrwt>
</event>
<event>
 4    1  0.2437479E+000  0.5305480E+02  0.7957747E-01  0.1429528E+00
         13   -1    0    0    0    0  0.00000000000E+00  0.00000000000E+00  0.99999944180E+02  0.10000000000E+03  0.10566000000E+00 0. -1.
         22   -1    0    0    0    0 -0.00000000000E+00 -0.00000000000E+00 -0.14735733158E+02  0.14735733158E+02  0.00000000000E+00 0. -1.
         13    1    1    2    0    0  0.75737237095E+01 -0.16045256868E+02  0.48459899066E+01  0.18393105801E+02  0.10566000000E+00 0.  1.
        996    1    1    2    0    0 -0.75737237095E+01  0.16045256868E+02  0.80418221115E+02  0.96342627357E+02  0.50000000000E+02 0.  0.
<mgrwt>
<rscale>  0 0.53054798E+02</rscale>
<asrwt>0</asrwt>
<pdfrwt beam="1">  1       13 0.10000000E+01 0.53054798E+02</pdfrwt>
<pdfrwt beam="2">  1       22 0.14735757E+00 0.53054798E+02</pdfrwt>
<totfact> 0.77712816E-01</totfact>
</mgrwt>
</event>
<event>
 4    1  0.2437479E+000  0.5118926E+02  0.7957747E-01  0.1439031E+00
         13   -1    0    0    0    0  0.00000000000E+00  0.00000000000E+00  0.99999944177E+02  0.99999999998E+02  0.10566000000E+00 0. -1.
         22   -1    0    0    0    0 -0.00000000000E+00 -0.00000000000E+00 -0.10076201954E+02  0.10076201954E+02  0.00000000000E+00 0. -1.
         13    1    1    2    0    0  0.10399717407E+02 -0.34909461906E+01  0.84140376544E+01  0.13825629141E+02  0.10566000000E+00 0.  1.
        996    1    1    2    0    0 -0.10399717407E+02  0.34909461906E+01  0.81509704569E+02  0.96250572811E+02  0.50000000000E+02 0.  0.
<mgrwt>
<rscale>  0 0.51189265E+02</rscale>
<asrwt>0</asrwt>
<pdfrwt beam="1">  1       13 0.10000000E+01 0.51189265E+02</pdfrwt>
<pdfrwt beam="2">  1       22 0.10076227E+00 0.51189265E+02</pdfrwt>
<totfact> 0.13916273E+00</totfact>
</mgrwt>
</event>
<event>
 4    1  0.2437479E+000  0.5216394E+02  0.7957747E-01  0.1434007E+00
         13   -1    0    0    0    0  0.00000000000E+00  0.00000000000E+00  0.99999944174E+02  0.99999999994E+02  0.10566000000E+00 0.  1.
         22   -1    0    0    0    0 -0.00000000000E+00 -0.00000000000E+00 -0.13429968033E+02  0.13429968033E+02  0.00000000000E+00 0.  1.
         13    1    1    2    0    0  0.38233195831E+01 -0.14368663160E+02  0.33964249055E+01  0.15251987406E+02  0.10566000000E+00 0. -1.
        996    1    1    2    0    0 -0.38233195831E+01  0.14368663160E+02  0.83173551236E+02  0.98177980621E+02  0.50000000000E+02 0.  0.
<mgrwt>
<rscale>  0 0.52163936E+02</rscale>
<asrwt>0</asrwt>
<pdfrwt beam="1">  1       13 0.10000000E+01 0.52163936E+02</pdfrwt>
<pdfrwt beam="2">  1       22 0.13429992E+00 0.52163936E+02</pdfrwt>
<totfact> 0.90186562E-01</totfact>
</mgrwt>
</event>
<event>
 4    1  0.2437479E+000  0.5376592E+02  0.7957747E-01  0.1426027E+00
         13   -1    0    0    0    0  0.00000000000E+00  0.00000000000E+00  0.99999944183E+02  0.10000000000E+03  0.10566000000E+00 0. -1.
         22   -1    0    0    0    0 -0.00000000000E+00 -0.00000000000E+00 -0.15299945696E+02  0.15299945696E+02  0.00000000000E+00 0. -1.
         13    1    1    2    0    0 -0.19582168377E+02  0.27043130757E+01  0.73317470009E+01  0.21084124494E+02  0.10566000000E+00 0.  1.
        996    1    1    2    0    0  0.19582168377E+02 -0.27043130757E+01  0.77368251485E+02  0.94215821206E+02  0.50000000000E+02 0.  0.
<mgrwt>
<rscale>  0 0.53765924E+02</rscale>
<asrwt>0</asrwt>
<pdfrwt beam="1">  1       13 0.10000000E+01 0.53765924E+02</pdfrwt>
<pdfrwt beam="2">  1       22 0.15299969E+00 0.53765924E+02</pdfrwt>
<totfact> 0.73097729E-01</totfact>
</mgrwt>
</event>
<event>
 4    1  0.2437479E+000  0.5258447E+02  0.7957747E-01  0.1431880E+00
         13   -1    0    0    0    0  0.00000000000E+00  0.00000000000E+00  0.99999944175E+02  0.99999999995E+02  0.10566000000E+00 0.  1.
         22   -1    0    0    0    0 -0.00000000000E+00 -0.00000000000E+00 -0.11954406572E+02  0.11954406572E+02  0.00000000000E+00 0.  1.
         13    1    1    2    0    0  0.11371638057E+02 -0.11653844384E+02  0.16702094964E+02  0.23325895080E+02  0.10566000000E+00 0. -1.
        996    1    1    2    0    0 -0.11371638057E+02  0.11653844384E+02  0.71343442639E+02  0.88628511488E+02  0.50000000000E+02 0.  0.
<mgrwt>
<rscale>  0 0.52584468E+02</rscale>
<asrwt>0</asrwt>
<pdfrwt beam="1">  1       13 0.10000000E+01 0.52584468E+02</pdfrwt>
<pdfrwt beam="2">  1       22 0.11954431E+00 0.52584468E+02</pdfrwt>
<totfact> 0.10826290E+00</totfact>
</mgrwt>
</event>
<event>
 4    1  0.2437479E+000  0.5333030E+02  0.7957747E-01  0.1428164E+00
         13   -1    0    0    0    0  0.00000000000E+00  0.00000000000E+00  0.99999944178E+02  0.99999999998E+02  0.10566000000E+00 0. -1.
         22   -1    0    0    0    0 -0.00000000000E+00 -0.00000000000E+00 -0.14356477635E+02  0.14356477635E+02  0.00000000000E+00 0. -1.
         13    1    1    2    0    0 -0.14582631750E+02 -0.11465942183E+02  0.80948856196E+01  0.20240042394E+02  0.10566000000E+00 0.  1.
        996    1    1    2    0    0  0.14582631750E+02  0.11465942183E+02  0.77548580923E+02  0.94116435239E+02  0.50000000000E+02 0.  0.
<mgrwt>
<rscale>  0 0.53330301E+02</rscale>
<asrwt>0</asrwt>
<pdfrwt beam="1">  1       13 0.10000000E+01 0.53330301E+02</pdfrwt>
<pdfrwt beam="2">  1       22 0.14356502E+00 0.53330301E+02</pdfrwt>
<totfact> 0.81165634E-01</totfact>
</mgrwt>
</event>
<event>
 4    1  0.2437479E+000  0.5107158E+02  0.7957747E-01  0.1439646E+00
         13   -1    0    0    0    0  0.00000000000E+00  0.00000000000E+00  0.99999944178E+02  0.99999999998E+02  0.10566000000E+00 0.  1.
         22   -1    0    0    0    0 -0.00000000000E+00 -0.00000000000E+00 -0.20958937507E+02  0.20958937507E+02  0.00000000000E+00 0. -1.
         13    1    1    2    0    0  0.84387502010E+00  0.10372753212E+02 -0.12420432787E+02  0.16204457686E+02  0.10566000000E+00 0. -1.
        996    1    1    2    0    0 -0.84387502010E+00 -0.10372753212E+02  0.91461439458E+02  0.10475447982E+03  0.50000000000E+02 0.  0.
<mgrwt>
<rscale>  0 0.51071579E+02</rscale>
<asrwt>0</asrwt>
<pdfrwt beam="1">  1       13 0.10000000E+01 0.51071579E+02</pdfrwt>
<pdfrwt beam="2">  1       22 0.20958960E+00 0.51071579E+02</pdfrwt>
<totfact> 0.41420314E-01</totfact>
</mgrwt>
</event>
<event>
 4    1  0.2437479E+000  0.6133590E+02  0.7957747E-01  0.1392310E+00
         13   -1    0    0    0    0  0.00000000000E+00  0.00000000000E+00  0.99999944176E+02  0.99999999996E+02  0.10566000000E+00 0.  1.
         22   -1    0    0    0    0 -0.00000000000E+00 -0.00000000000E+00 -0.29567515729E+02  0.29567515729E+02  0.00000000000E+00 0.  1.
         13    1    1    2    0    0 -0.34883245094E+02 -0.67269291113E+01  0.56384928033E+02  0.66643556604E+02  0.10566000000E+00 0. -1.
        996    1    1    2    0    0  0.34883245094E+02  0.67269291113E+01  0.14047500415E+02  0.62923959121E+02  0.50000000000E+02 0.  0.
<mgrwt>
<rscale>  0 0.61335898E+02</rscale>
<asrwt>0</asrwt>
<pdfrwt beam="1">  1       13 0.10000000E+01 0.61335898E+02</pdfrwt>
<pdfrwt beam="2">  1       22 0.29567535E+00 0.61335898E+02</pdfrwt>
<totfact> 0.21520771E-01</totfact>
</mgrwt>
</event>
<event>
 4    1  0.2437479E+000  0.5138042E+02  0.7957747E-01  0.1438035E+00
         13   -1    0    0    0    0  0.00000000000E+00  0.00000000000E+00  0.99999944184E+02  0.10000000000E+03  0.10566000000E+00 0.  1.
         22   -1    0    0    0    0 -0.00000000000E+00 -0.00000000000E+00 -0.11175967145E+02  0.11175967145E+02  0.00000000000E+00 0.  1.
         13    1    1    2    0    0 -0.62768859360E+01  0.10027386088E+02  0.49688896393E+01  0.12831554742E+02  0.10566000000E+00 0. -1.
        996    1    1    2    0    0  0.62768859360E+01 -0.10027386088E+02  0.83855087400E+02  0.98344412407E+02  0.50000000000E+02 0.  0.
<mgrwt>
<rscale>  0 0.51380422E+02</rscale>
<asrwt>0</asrwt>
<pdfrwt beam="1">  1       13 0.10000000E+01 0.51380422E+02</pdfrwt>
<pdfrwt beam="2">  1       22 0.11175992E+00 0.51380422E+02</pdfrwt>
<totfact> 0.11953381E+00</totfact>
</mgrwt>
</event>
<event>
 4    1  0.2437479E+000  0.5179045E+02  0.7957747E-01  0.1435917E+00
         13   -1    0    0    0    0  0.00000000000E+00  0.00000000000E+00  0.99999944176E+02  0.99999999996E+02  0.10566000000E+00 0. -1.
         22   -1    0    0    0    0 -0.00000000000E+00 -0.00000000000E+00 -0.16433613033E+02  0.16433613033E+02  0.00000000000E+00 0.  1.
         13    1    1    2    0    0  0.71222356748E+01 -0.11468424061E+02 -0.45311642532E+01  0.14240561962E+02  0.10566000000E+00 0.  1.
        996    1    1    2    0    0 -0.71222356748E+01  0.11468424061E+02  0.88097495396E+02  0.10219305107E+03  0.50000000000E+02 0.  0.
<mgrwt>
<rscale>  0 0.51790453E+02</rscale>
<asrwt>0</asrwt>
<pdfrwt beam="1">  1       13 0.10000000E+01 0.51790453E+02</pdfrwt>
<pdfrwt beam="2">  1       22 0.16433636E+00 0.51790453E+02</pdfrwt>
<totfact> 0.64464682E-01</totfact>
</mgrwt>
</event>
<event>
 4    1  0.2437479E+000  0.5117656E+02  0.7957747E-01  0.1439097E+00
         13   -1    0    0    0    0  0.00000000000E+00  0.00000000000E+00  0.99999944184E+02  0.10000000000E+03  0.10566000000E+00 0. -1.
         22   -1    0    0    0    0 -0.00000000000E+00 -0.00000000000E+00 -0.11058845712E+02  0.11058845712E+02  0.00000000000E+00 0. -1.
         13    1    1    2    0    0  0.10506423811E+02 -0.29419535896E+01  0.34911639324E+01  0.11455977560E+02  0.10566000000E+00 0.  1.
        996    1    1    2    0    0 -0.10506423811E+02  0.29419535896E+01  0.85449934539E+02  0.99602868156E+02  0.50000000000E+02 0.  0.
<mgrwt>
<rscale>  0 0.51176557E+02</rscale>
<asrwt>0</asrwt>
<pdfrwt beam="1">  1       13 0.10000000E+01 0.51176557E+02</pdfrwt>
<pdfrwt beam="2">  1       22 0.11058871E+00 0.51176557E+02</pdfrwt>
<totfact> 0.12136983E+00</totfact>
</mgrwt>
</event>
<event>
 4    1  0.2437479E+000  0.5245396E+02  0.7957747E-01  0.1432538E+00
         13   -1    0    0    0    0  0.00000000000E+00  0.00000000000E+00  0.99999944180E+02  0.10000000000E+03  0.10566000000E+00 0. -1.
         22   -1    0    0    0    0 -0.00000000000E+00 -0.00000000000E+00 -0.14442765608E+02  0.14442765608E+02  0.00000000000E+00 0.  1.
         13    1    1    2    0    0  0.79471816368E+01  0.13720805536E+02  0.22755852411E+01  0.16018977893E+02  0.10566000000E+00 0.  1.
        996    1    1    2    0    0 -0.79471816368E+01 -0.13720805536E+02  0.83281593330E+02  0.98423787715E+02  0.50000000000E+02 0.  0.
<mgrwt>
<rscale>  0 0.52453963E+02</rscale>
<asrwt>0</asrwt>
<pdfrwt beam="1">  1       13 0.10000000E+01 0.52453963E+02</pdfrwt>
<pdfrwt beam="2">  1       22 0.14442789E+00 0.52453963E+02</pdfrwt>
<totfact> 0.80228693E-01</totfact>
</mgrwt>
</event>
<event>
 4    1  0.2437479E+000  0.5120651E+02  0.7957747E-01  0.1438941E+00
         13   -1    0    0    0    0  0.00000000000E+00  0.00000000000E+00  0.99999944181E+02  0.10000000000E+03  0.10566000000E+00 0. -1.
         22   -1    0    0    0    0 -0.00000000000E+00 -0.00000000000E+00 -0.97495077135E+01  0.97495077135E+01  0.00000000000E+00 0. -1.
         13    1    1    2    0    0 -0.64184085042E+01  0.89950533137E+01  0.19484187852E+02  0.22399814556E+02  0.10566000000E+00 0.  1.
        996    1    1    2    0    0  0.64184085042E+01 -0.89950533137E+01  0.70766248615E+02  0.87349693159E+02  0.50000000000E+02 0.  0.
<mgrwt>
<rscale>  0 0.51206513E+02</rscale>
<asrwt>0</asrwt>
<pdfrwt beam="1">  1       13 0.10000000E+01 0.51206513E+02</pdfrwt>
<pdfrwt beam="2">  1       22 0.97495329E-01 0.51206513E+02</pdfrwt>
<totfact> 0.14595534E+00</totfact>
</mgrwt>
</event>
<event>
 4    1  0.2437479E+000  0.5109801E+02  0.7957747E-01  0.1439508E+00
         13   -1    0    0    0    0  0.00000000000E+00  0.00000000000E+00  0.99999944176E+02  0.99999999996E+02  0.10566000000E+00 0. -1.
         22   -1    0    0    0    0 -0.00000000000E+00 -0.00000000000E+00 -0.14624860613E+02  0.14624860613E+02  0.00000000000E+00 0.  1.
         13    1    1    2    0    0  0.10039888304E+02  0.31948587333E+01 -0.43265709630E+01  0.11390208945E+02  0.10566000000E+00 0.  1.
        996    1    1    2    0    0 -0.10039888304E+02 -0.31948587333E+01  0.89701654526E+02  0.10323465166E+03  0.50000000000E+02 0.  0.
<mgrwt>
<rscale>  0 0.51098009E+02</rscale>
<asrwt>0</asrwt>
<pdfrwt beam="1">  1       13 0.10000000E+01 0.51098009E+02</pdfrwt>
<pdfrwt beam="2">  1       22 0.14624884E+00 0.51098009E+02</pdfrwt>
<totfact> 0.78371517E-01</totfact>
</mgrwt>
</event>
<event>
 4    1  0.2437479E+000  0.5146682E+02  0.7957747E-01  0.1437587E+00
         13   -1    0    0    0    0  0.00000000000E+00  0.00000000000E+00  0.99999944177E+02  0.99999999997E+02  0.10566000000E+00 0.  1.
         22   -1    0    0    0    0 -0.00000000000E+00 -0.00000000000E+00 -0.13627293366E+02  0.13627293366E+02  0.00000000000E+00 0.  1.
         13    1    1    2    0    0  0.44034885126E+01 -0.11377316204E+02 -0.98085376412E+00  0.12239578148E+02  0.10566000000E+00 0. -1.
        996    1    1    2    0    0 -0.44034885126E+01  0.11377316204E+02  0.87353504575E+02  0.10138771522E+03  0.50000000000E+02 0.  0.
<mgrwt>
<rscale>  0 0.51466825E+02</rscale>
<asrwt>0</asrwt>
<pdfrwt beam="1">  1       13 0.10000000E+01 0.51466825E+02</pdfrwt>
<pdfrwt beam="2">  1       22 0.13627317E+00 0.51466825E+02</pdfrwt>
<totfact> 0.87976568E-01</totfact>
</mgrwt>
</event>
<event>
 4    1  0.2437479E+000  0.5216150E+02  0.7957747E-01  0.1434020E+00
         13   -1    0    0    0    0  0.00000000000E+00  0.00000000000E+00  0.99999944179E+02  0.10000000000E+03  0.10566000000E+00 0. -1.
         22   -1    0    0    0    0 -0.00000000000E+00 -0.00000000000E+00 -0.11542076106E+02  0.11542076106E+02  0.00000000000E+00 0.  1.
         13    1    1    2    0    0  0.13736027896E+02 -0.56695482791E+01  0.27946433191E+02  0.31651801405E+02  0.10566000000E+00 0.  1.
        996    1    1    2    0    0 -0.13736027896E+02  0.56695482791E+01  0.60511434883E+02  0.79890274700E+02  0.50000000000E+02 0.  0.
<mgrwt>
<rscale>  0 0.52161502E+02</rscale>
<asrwt>0</asrwt>
<pdfrwt beam="1">  1       13 0.10000000E+01 0.52161502E+02</pdfrwt>
<pdfrwt beam="2">  1       22 0.11542101E+00 0.52161502E+02</pdfrwt>
<totfact> 0.11408723E+00</totfact>
</mgrwt>
</event>
<event>
 4    1  0.2437479E+000  0.5574618E+02  0.7957747E-01  0.1416603E+00
         13   -1    0    0    0    0  0.00000000000E+00  0.00000000000E+00  0.99999944180E+02  0.10000000000E+03  0.10566000000E+00 0.  1.
         22   -1    0    0    0    0 -0.00000000000E+00 -0.00000000000E+00 -0.28209856873E+02  0.28209856873E+02  0.00000000000E+00 0. -1.
         13    1    1    2    0    0  0.24625722699E+02 -0.11002371565E+01 -0.12120756313E+02  0.27469267152E+02  0.10566000000E+00 0. -1.
        996    1    1    2    0    0 -0.24625722699E+02  0.11002371565E+01  0.83910843620E+02  0.10074058972E+03  0.50000000000E+02 0.  0.
<mgrwt>
<rscale>  0 0.55746181E+02</rscale>
<asrwt>0</asrwt>
<pdfrwt beam="1">  1       13 0.10000000E+01 0.55746181E+02</pdfrwt>
<pdfrwt beam="2">  1       22 0.28209877E+00 0.55746181E+02</pdfrwt>
<totfact> 0.23391526E-01</totfact>
</mgrwt>
</event>
<event>
 4    1  0.2437479E+000  0.5108431E+02  0.7957747E-01  0.1439579E+00
         13   -1    0    0    0    0  0.00000000000E+00  0.00000000000E+00  0.99999944172E+02  0.99999999992E+02  0.10566000000E+00 0.  1.
         22   -1    0    0    0    0 -0.00000000000E+00 -0.00000000000E+00 -0.13175257529E+02  0.13175257529E+02  0.00000000000E+00 0.  1.
         13    1    1    2    0    0  0.93819529999E+01 -0.46459930465E+01 -0.20467282260E+01  0.10668015464E+02  0.10566000000E+00 0. -1.
        996    1    1    2    0    0 -0.93819529999E+01  0.46459930465E+01  0.88871414869E+02  0.10250724206E+03  0.50000000000E+02 0.  0.
<mgrwt>
<rscale>  0 0.51084306E+02</rscale>
<asrwt>0</asrwt>
<pdfrwt beam="1">  1       13 0.10000000E+01 0.51084306E+02</pdfrwt>
<pdfrwt beam="2">  1       22 0.13175282E+00 0.51084306E+02</pdfrwt>
<totfact> 0.92755071E-01</totfact>
</mgrwt>
</event>
<event>
 4    1  0.2437479E+000  0.5331904E+02  0.7957747E-01  0.1428220E+00
         13   -1    0    0    0    0  0.00000000000E+00  0.00000000000E+00  0.99999944173E+02  0.99999999993E+02  0.10566000000E+00 0. -1.
         22   -1    0    0    0    0 -0.00000000000E+00 -0.00000000000E+00 -0.12901517125E+02  0.12901517125E+02  0.00000000000E+00 0. -1.
         13    1    1    2    0    0  0.94387291695E+01 -0.15932043440E+02  0.22470960946E+02  0.29118290925E+02  0.10566000000E+00 0.  1.
        996    1    1    2    0    0 -0.94387291695E+01  0.15932043440E+02  0.64627466103E+02  0.83783226193E+02  0.50000000000E+02 0.  0.
<mgrwt>
<rscale>  0 0.53319036E+02</rscale>
<asrwt>0</asrwt>
<pdfrwt beam="1">  1       13 0.10000000E+01 0.53319036E+02</pdfrwt>
<pdfrwt beam="2">  1       22 0.12901541E+00 0.53319036E+02</pdfrwt>
<totfact> 0.96340942E-01</totfact>
</mgrwt>
</event>
<event>
 4    1  0.2437479E+000  0.5115841E+02  0.7957747E-01  0.1439192E+00
         13   -1    0    0    0    0  0.00000000000E+00  0.00000000000E+00  0.99999944182E+02  0.10000000000E+03  0.10566000000E+00 0. -1.
         22   -1    0    0    0    0 -0.00000000000E+00 -0.00000000000E+00 -0.25077432725E+02  0.25077432725E+02  0.00000000000E+00 0.  1.
         13    1    1    2    0    0 -0.10577341747E+02 -0.23027913644E+01 -0.16838975522E+02  0.20018623009E+02  0.10566000000E+00 0.  1.
        996    1    1    2    0    0  0.10577341747E+02  0.23027913644E+01  0.91761486980E+02  0.10505880972E+03  0.50000000000E+02 0.  0.
<mgrwt>
<rscale>  0 0.51158411E+02</rscale>
<asrwt>0</asrwt>
<pdfrwt beam="1">  1       13 0.10000000E+01 0.51158411E+02</pdfrwt>
<pdfrwt beam="2">  1       22 0.25077454E+00 0.51158411E+02</pdfrwt>
<totfact> 0.29261581E-01</totfact>
</mgrwt>
</event>
<event>
 4    1  0.2437479E+000  0.5101033E+02  0.7957747E-01  0.1439967E+00
         13   -1    0    0    0    0  0.00000000000E+00  0.00000000000E+00  0.99999944181E+02  0.10000000000E+03  0.10566000000E+00 0.  1.
         22   -1    0    0    0    0 -0.00000000000E+00 -0.00000000000E+00 -0.93414581512E+01  0.93414581512E+01  0.00000000000E+00 0. -1.
         13    1    1    2    0    0 -0.52294244129E+01  0.86432864073E+01  0.14111778795E+02  0.17355308825E+02  0.10566000000E+00 0. -1.
        996    1    1    2    0    0  0.52294244129E+01 -0.86432864073E+01  0.76546707234E+02  0.91986149327E+02  0.50000000000E+02 0.  0.
<mgrwt>
<rscale>  0 0.51010325E+02</rscale>
<asrwt>0</asrwt>
<pdfrwt beam="1">  1       13 0.10000000E+01 0.51010325E+02</pdfrwt>
<pdfrwt beam="2">  1       22 0.93414835E-01 0.51010325E+02</pdfrwt>
<totfact> 0.15508442E+00</totfact>
</mgrwt>
</event>
<event>
 4    1  0.2437479E+000  0.5313814E+02  0.7957747E-01  0.1429115E+00
         13   -1    0    0    0    0  0.00000000000E+00  0.00000000000E+00  0.99999944173E+02  0.99999999993E+02  0.10566000000E+00 0. -1.
         22   -1    0    0    0    0 -0.00000000000E+00 -0.00000000000E+00 -0.45192642340E+02  0.45192642340E+02  0.00000000000E+00 0.  1.
         13    1    1    2    0    0 -0.17510078895E+02  0.41301993802E+01 -0.35849286358E+02  0.40110396486E+02  0.10566000000E+00 0.  1.
        996    1    1    2    0    0  0.17510078895E+02 -0.41301993802E+01  0.90656588191E+02  0.10508224585E+03  0.50000000000E+02 0.  0.
<mgrwt>
<rscale>  0 0.53138135E+02</rscale>
<asrwt>0</asrwt>
<pdfrwt beam="1">  1       13 0.10000000E+01 0.53138135E+02</pdfrwt>
<pdfrwt beam="2">  1       22 0.45192658E+00 0.53138135E+02</pdfrwt>
<totfact> 0.95718133E-02</totfact>
</mgrwt>
</event>
<event>
 4    1  0.2437479E+000  0.5175896E+02  0.7957747E-01  0.1436079E+00
         13   -1    0    0    0    0  0.00000000000E+00  0.00000000000E+00  0.99999944177E+02  0.99999999997E+02  0.10566000000E+00 0.  1.
         22   -1    0    0    0    0 -0.00000000000E+00 -0.00000000000E+00 -0.19307561560E+02  0.19307561560E+02  0.00000000000E+00 0.  1.
         13    1    1    2    0    0 -0.12755857550E+02  0.40345562020E+01 -0.87374780364E+01  0.15979494111E+02  0.10566000000E+00 0. -1.
        996    1    1    2    0    0  0.12755857550E+02 -0.40345562020E+01  0.89429860654E+02  0.10332806745E+03  0.50000000000E+02 0.  0.
<mgrwt>
<rscale>  0 0.51758956E+02</rscale>
<asrwt>0</asrwt>
<pdfrwt beam="1">  1       13 0.10000000E+01 0.51758956E+02</pdfrwt>
<pdfrwt beam="2">  1       22 0.19307584E+00 0.51758956E+02</pdfrwt>
<totfact> 0.48344572E-01</totfact>
</mgrwt>
</event>
<event>
 4    1  0.2437479E+000  0.6444360E+02  0.7957747E-01  0.1380077E+00
         13   -1    0    0    0    0  0.00000000000E+00  0.00000000000E+00  0.99999944184E+02  0.10000000000E+03  0.10566000000E+00 0. -1.
         22   -1    0    0    0    0 -0.00000000000E+00 -0.00000000000E+00 -0.52638942541E+02  0.52638942541E+02  0.00000000000E+00 0.  1.
         13    1    1    2    0    0  0.34641585222E+02 -0.21282336532E+02 -0.31040065696E+02  0.51151482065E+02  0.10566000000E+00 0.  1.
        996    1    1    2    0    0 -0.34641585222E+02  0.21282336532E+02  0.78401067339E+02  0.10148746048E+03  0.50000000000E+02 0.  0.
<mgrwt>
<rscale>  0 0.64443598E+02</rscale>
<asrwt>0</asrwt>
<pdfrwt beam="1">  1       13 0.10000000E+01 0.64443598E+02</pdfrwt>
<pdfrwt beam="2">  1       22 0.52638956E+00 0.64443598E+02</pdfrwt>
<totfact> 0.64508944E-02</totfact>
</mgrwt>
</event>
<event>
 4    1  0.2437479E+000  0.5105150E+02  0.7957747E-01  0.1439751E+00
         13   -1    0    0    0    0  0.00000000000E+00  0.00000000000E+00  0.99999944175E+02  0.99999999995E+02  0.10566000000E+00 0.  1.
         22   -1    0    0    0    0 -0.00000000000E+00 -0.00000000000E+00 -0.32933999760E+02  0.32933999760E+02  0.00000000000E+00 0. -1.
         13    1    1    2    0    0 -0.10251063316E+02 -0.10821685695E+01 -0.25343887537E+02  0.27360175208E+02  0.10566000000E+00 0. -1.
        996    1    1    2    0    0  0.10251063316E+02  0.10821685695E+01  0.92409831952E+02  0.10557382455E+03  0.50000000000E+02 0.  0.
<mgrwt>
<rscale>  0 0.51051497E+02</rscale>
<asrwt>0</asrwt>
<pdfrwt beam="1">  1       13 0.10000000E+01 0.51051497E+02</pdfrwt>
<pdfrwt beam="2">  1       22 0.32934018E+00 0.51051497E+02</pdfrwt>
<totfact> 0.17461163E-01</totfact>
</mgrwt>
</event>
<event>
 4    1  0.2437479E+000  0.5978384E+02  0.7957747E-01  0.1398741E+00
         13   -1    0    0    0    0  0.00000000000E+00  0.00000000000E+00  0.99999944178E+02  0.99999999998E+02  0.10566000000E+00 0. -1.
         22   -1    0    0    0    0 -0.00000000000E+00 -0.00000000000E+00 -0.66299739159E+02  0.66299739159E+02  0.00000000000E+00 0.  1.
         13    1    1    2    0    0  0.36266533070E+01 -0.32572297108E+02 -0.52204614189E+02  0.61639598147E+02  0.10566000000E+00 0.  1.
        996    1    1    2    0    0 -0.36266533070E+01  0.32572297108E+02  0.85904819208E+02  0.10466014101E+03  0.50000000000E+02 0.  0.
<mgrwt>
<rscale>  0 0.59783837E+02</rscale>
<asrwt>0</asrwt>
<pdfrwt beam="1">  1       13 0.10000000E+01 0.59783837E+02</pdfrwt>
<pdfrwt beam="2">  1       22 0.66299749E+00 0.59783837E+02</pdfrwt>
<totfact> 0.87159824E-02</totfact>
</mgrwt>
</event>
<event>
 4    1  0.2437479E+000  0.5376495E+02  0.7957747E-01  0.1426031E+00
         13   -1    0    0    0    0  0.00000000000E+00  0.00000000000E+00  0.99999944173E+02  0.99999999993E+02  0.10566000000E+00 0. -1.
         22   -1    0    0    0    0 -0.00000000000E+00 -0.00000000000E+00 -0.14531406856E+02  0.14531406856E+02  0.00000000000E+00 0.  1.
         13    1    1    2    0    0 -0.19566058087E+02  0.27998588005E+01  0.10810780743E+02  0.22528958757E+02  0.10566000000E+00 0.  1.
        996    1    1    2    0    0  0.19566058087E+02 -0.27998588005E+01  0.74657756574E+02  0.92002448092E+02  0.50000000000E+02 0.  0.
<mgrwt>
<rscale>  0 0.53764950E+02</rscale>
<asrwt>0</asrwt>
<pdfrwt beam="1">  1       13 0.10000000E+01 0.53764950E+02</pdfrwt>
<pdfrwt beam="2">  1       22 0.14531431E+00 0.53764950E+02</pdfrwt>
<totfact> 0.79637349E-01</totfact>
</mgrwt>
</event>
<event>
 4    1  0.2437479E+000  0.5409991E+02  0.7957747E-01  0.1424404E+00
         13   -1    0    0    0    0  0.00000000000E+00  0.00000000000E+00  0.99999944168E+02  0.99999999988E+02  0.10566000000E+00 0.  1.
         22   -1    0    0    0    0 -0.00000000000E+00 -0.00000000000E+00 -0.77804843132E+02  0.77804843132E+02  0.00000000000E+00 0. -1.
         13    1    1    2    0    0  0.17063210641E+02 -0.11646771335E+02 -0.68859019595E+02  0.71891419401E+02  0.10566000000E+00 0. -1.
        996    1    1    2    0    0 -0.17063210641E+02  0.11646771335E+02  0.91054120631E+02  0.10591342372E+03  0.50000000000E+02 0.  0.
<mgrwt>
<rscale>  0 0.54099912E+02</rscale>
<asrwt>0</asrwt>
<pdfrwt beam="1">  1       13 0.10000000E+01 0.54099912E+02</pdfrwt>
<pdfrwt beam="2">  1       22 0.77804849E+00 0.54099912E+02</pdfrwt>
<totfact> 0.37784599E-02</totfact>
</mgrwt>
</event>
<event>
 4    1  0.2437479E+000  0.5104366E+02  0.7957747E-01  0.1439792E+00
         13   -1    0    0    0    0  0.00000000000E+00  0.00000000000E+00  0.99999944175E+02  0.99999999996E+02  0.10566000000E+00 0.  1.
         22   -1    0    0    0    0 -0.00000000000E+00 -0.00000000000E+00 -0.96475225866E+01  0.96475225866E+01  0.00000000000E+00 0.  1.
         13    1    1    2    0    0  0.10265564697E+02 -0.27069484887E+00  0.22557719163E+02  0.24785418135E+02  0.10566000000E+00 0. -1.
        996    1    1    2    0    0 -0.10265564697E+02  0.27069484887E+00  0.67794702425E+02  0.84862104447E+02  0.50000000000E+02 0.  0.
<mgrwt>
<rscale>  0 0.51043659E+02</rscale>
<asrwt>0</asrwt>
<pdfrwt beam="1">  1       13 0.10000000E+01 0.51043659E+02</pdfrwt>
<pdfrwt beam="2">  1       22 0.96475478E-01 0.51043659E+02</pdfrwt>
<totfact> 0.14811709E+00</totfact>
</mgrwt>
</event>
<event>
 4    1  0.2437479E+000  0.5429519E+02  0.7957747E-01  0.1423462E+00
         13   -1    0    0    0    0  0.00000000000E+00  0.00000000000E+00  0.99999944177E+02  0.99999999997E+02  0.10566000000E+00 0. -1.
         22   -1    0    0    0    0 -0.00000000000E+00 -0.00000000000E+00 -0.19278872606E+02  0.19278872606E+02  0.00000000000E+00 0. -1.
         13    1    1    2    0    0  0.17792287871E+02 -0.11463074947E+02 -0.97275332422E+00  0.21187850481E+02  0.10566000000E+00 0.  1.
        996    1    1    2    0    0 -0.17792287871E+02  0.11463074947E+02  0.81693824896E+02  0.98091022123E+02  0.50000000000E+02 0.  0.
<mgrwt>
<rscale>  0 0.54295189E+02</rscale>
<asrwt>0</asrwt>
<pdfrwt beam="1">  1       13 0.10000000E+01 0.54295189E+02</pdfrwt>
<pdfrwt beam="2">  1       22 0.19278895E+00 0.54295189E+02</pdfrwt>
<totfact> 0.48697825E-01</totfact>
</mgrwt>
</event>
<event>
 4    1  0.2437479E+000  0.5114525E+02  0.7957747E-01  0.1439260E+00
         13   -1    0    0    0    0  0.00000000000E+00  0.00000000000E+00  0.99999944170E+02  0.99999999990E+02  0.10566000000E+00 0.  1.
         22   -1    0    0    0    0 -0.00000000000E+00 -0.00000000000E+00 -0.98569838981E+01  0.98569838981E+01  0.00000000000E+00 0.  1.
         13    1    1    2    0    0  0.43792476362E+01 -0.98315115926E+01  0.23523535111E+02  0.25868983324E+02  0.10566000000E+00 0. -1.
        996    1    1    2    0    0 -0.43792476362E+01  0.98315115926E+01  0.66619425161E+02  0.83988000565E+02  0.50000000000E+02 0.  0.
<mgrwt>
<rscale>  0 0.51145248E+02</rscale>
<asrwt>0</asrwt>
<pdfrwt beam="1">  1       13 0.10000000E+01 0.51145248E+02</pdfrwt>
<pdfrwt beam="2">  1       22 0.98570091E-01 0.51145248E+02</pdfrwt>
<totfact> 0.14364691E+00</totfact>
</mgrwt>
</event>
<event>
 4    1  0.2437479E+000  0.5476777E+02  0.7957747E-01  0.1421200E+00
         13   -1    0    0    0    0  0.00000000000E+00  0.00000000000E+00  0.99999944174E+02  0.99999999994E+02  0.10566000000E+00 0. -1.
         22   -1    0    0    0    0 -0.00000000000E+00 -0.00000000000E+00 -0.20553380210E+02  0.20553380210E+02  0.00000000000E+00 0.  1.
         13    1    1    2    0    0 -0.17093834317E+02  0.14398263321E+02 -0.19629766911E+01  0.22435988943E+02  0.10566000000E+00 0.  1.
        996    1    1    2    0    0  0.17093834317E+02 -0.14398263321E+02  0.81409540654E+02  0.98117391261E+02  0.50000000000E+02 0.  0.
<mgrwt>
<rscale>  0 0.54767775E+02</rscale>
<asrwt>0</asrwt>
<pdfrwt beam="1">  1       13 0.10000000E+01 0.54767775E+02</pdfrwt>
<pdfrwt beam="2">  1       22 0.20553402E+00 0.54767775E+02</pdfrwt>
<totfact> 0.43254094E-01</totfact>
</mgrwt>
</event>
<event>
 4    1  0.2437479E+000  0.5640028E+02  0.7957747E-01  0.1413591E+00
         13   -1    0    0    0    0  0.00000000000E+00  0.00000000000E+00  0.99999944182E+02  0.10000000000E+03  0.10566000000E+00 0.  1.
         22   -1    0    0    0    0 -0.00000000000E+00 -0.00000000000E+00 -0.68829985924E+02  0.68829985924E+02  0.00000000000E+00 0. -1.
         13    1    1    2    0    0  0.25364855787E+02  0.61331433011E+01 -0.57840643191E+02  0.63455043335E+02  0.10566000000E+00 0. -1.
        996    1    1    2    0    0 -0.25364855787E+02 -0.61331433011E+01  0.89010601449E+02  0.10537494259E+03  0.50000000000E+02 0.  0.
<mgrwt>
<rscale>  0 0.56400278E+02</rscale>
<asrwt>0</asrwt>
<pdfrwt beam="1">  1       13 0.10000000E+01 0.56400278E+02</pdfrwt>
<pdfrwt beam="2">  1       22 0.68829995E+00 0.56400278E+02</pdfrwt>
<totfact> 0.80200602E-02</totfact>
</mgrwt>
</event>
<event>
 4    1  0.2437479E+000  0.5174932E+02  0.7957747E-01  0.1436128E+00
         13   -1    0    0    0    0  0.00000000000E+00  0.00000000000E+00  0.99999944175E+02  0.99999999995E+02  0.10566000000E+00 0. -1.
         22   -1    0    0    0    0 -0.00000000000E+00 -0.00000000000E+00 -0.14638386018E+02  0.14638386018E+02  0.00000000000E+00 0. -1.
         13    1    1    2    0    0  0.12109128963E+02 -0.56000794166E+01 -0.16067652276E+01  0.13438182625E+02  0.10566000000E+00 0.  1.
        996    1    1    2    0    0 -0.12109128963E+02  0.56000794166E+01  0.86968323384E+02  0.10120020339E+03  0.50000000000E+02 0.  0.
<mgrwt>
<rscale>  0 0.51749318E+02</rscale>
<asrwt>0</asrwt>
<pdfrwt beam="1">  1       13 0.10000000E+01 0.51749318E+02</pdfrwt>
<pdfrwt beam="2">  1       22 0.14638410E+00 0.51749318E+02</pdfrwt>
<totfact> 0.78358707E-01</totfact>
</mgrwt>
</event>
<event>
 4    1  0.2437479E+000  0.5107560E+02  0.7957747E-01  0.1439625E+00
         13   -1    0    0    0    0  0.00000000000E+00  0.00000000000E+00  0.99999944178E+02  0.99999999998E+02  0.10566000000E+00 0. -1.
         22   -1    0    0    0    0 -0.00000000000E+00 -0.00000000000E+00 -0.10207672108E+02  0.10207672108E+02  0.00000000000E+00 0. -1.
         13    1    1    2    0    0  0.78002714743E+01 -0.69190166124E+01  0.58733330326E+01  0.11967632636E+02  0.10566000000E+00 0.  1.
        996    1    1    2    0    0 -0.78002714743E+01  0.69190166124E+01  0.83918939037E+02  0.98240039470E+02  0.50000000000E+02 0.  0.
<mgrwt>
<rscale>  0 0.51075601E+02</rscale>
<asrwt>0</asrwt>
<pdfrwt beam="1">  1       13 0.10000000E+01 0.51075601E+02</pdfrwt>
<pdfrwt beam="2">  1       22 0.10207697E+00 0.51075601E+02</pdfrwt>
<totfact> 0.13652774E+00</totfact>
</mgrwt>
</event>
<event>
 4    1  0.2437479E+000  0.5400277E+02  0.7957747E-01  0.1424875E+00
         13   -1    0    0    0    0  0.00000000000E+00  0.00000000000E+00  0.99999944176E+02  0.99999999996E+02  0.10566000000E+00 0. -1.
         22   -1    0    0    0    0 -0.00000000000E+00 -0.00000000000E+00 -0.21274576397E+02  0.21274576397E+02  0.00000000000E+00 0.  1.
         13    1    1    2    0    0  0.16237474593E+02  0.12354898430E+02 -0.55829304072E+01  0.21153708241E+02  0.10566000000E+00 0.  1.
        996    1    1    2    0    0 -0.16237474593E+02 -0.12354898430E+02  0.84308298187E+02  0.10012086815E+03  0.50000000000E+02 0.  0.
<mgrwt>
<rscale>  0 0.54002769E+02</rscale>
<asrwt>0</asrwt>
<pdfrwt beam="1">  1       13 0.10000000E+01 0.54002769E+02</pdfrwt>
<pdfrwt beam="2">  1       22 0.21274598E+00 0.54002769E+02</pdfrwt>
<totfact> 0.40464810E-01</totfact>
</mgrwt>
</event>
<event>
 4    1  0.2437479E+000  0.5439551E+02  0.7957747E-01  0.1422979E+00
         13   -1    0    0    0    0  0.00000000000E+00  0.00000000000E+00  0.99999944173E+02  0.99999999994E+02  0.10566000000E+00 0. -1.
         22   -1    0    0    0    0 -0.00000000000E+00 -0.00000000000E+00 -0.14375700321E+02  0.14375700321E+02  0.00000000000E+00 0.  1.
         13    1    1    2    0    0  0.21007659382E+02  0.41891853638E+01  0.25175303516E+02  0.33055681779E+02  0.10566000000E+00 0.  1.
        996    1    1    2    0    0 -0.21007659382E+02 -0.41891853638E+01  0.60448940337E+02  0.81320018535E+02  0.50000000000E+02 0.  0.
<mgrwt>
<rscale>  0 0.54395506E+02</rscale>
<asrwt>0</asrwt>
<pdfrwt beam="1">  1       13 0.10000000E+01 0.54395506E+02</pdfrwt>
<pdfrwt beam="2">  1       22 0.14375724E+00 0.54395506E+02</pdfrwt>
<totfact> 0.81160749E-01</totfact>
</mgrwt>
</event>
<event>
 4    1  0.2437479E+000  0.5214391E+02  0.7957747E-01  0.1434109E+00
         13   -1    0    0    0    0  0.00000000000E+00  0.00000000000E+00  0.99999944178E+02  0.99999999998E+02  0.10566000000E+00 0. -1.
         22   -1    0    0    0    0 -0.00000000000E+00 -0.00000000000E+00 -0.17033334377E+02  0.17033334377E+02  0.00000000000E+00 0.  1.
         13    1    1    2    0    0  0.13491639408E+02 -0.60796804617E+01 -0.42684999429E+01  0.15401886385E+02  0.10566000000E+00 0.  1.
        996    1    1    2    0    0 -0.13491639408E+02  0.60796804617E+01  0.87235109744E+02  0.10163144799E+03  0.50000000000E+02 0.  0.
<mgrwt>
<rscale>  0 0.52143905E+02</rscale>
<asrwt>0</asrwt>
<pdfrwt beam="1">  1       13 0.10000000E+01 0.52143905E+02</pdfrwt>
<pdfrwt beam="2">  1       22 0.17033358E+00 0.52143905E+02</pdfrwt>
<totfact> 0.60606911E-01</totfact>
</mgrwt>
</event>
<event>
 4    1  0.2437479E+000  0.5153813E+02  0.7957747E-01  0.1437218E+00
         13   -1    0    0    0    0  0.00000000000E+00  0.00000000000E+00  0.99999944180E+02  0.10000000000E+03  0.10566000000E+00 0. -1.
         22   -1    0    0    0    0 -0.00000000000E+00 -0.00000000000E+00 -0.11294528607E+02  0.11294528607E+02  0.00000000000E+00 0. -1.
         13    1    1    2    0    0 -0.11661871625E+01 -0.12442630564E+02  0.33575745911E+02  0.35826260276E+02  0.10566000000E+00 0.  1.
        996    1    1    2    0    0  0.11661871625E+01  0.12442630564E+02  0.55129669662E+02  0.75468268331E+02  0.50000000000E+02 0.  0.
<mgrwt>
<rscale>  0 0.51538132E+02</rscale>
<asrwt>0</asrwt>
<pdfrwt beam="1">  1       13 0.10000000E+01 0.51538132E+02</pdfrwt>
<pdfrwt beam="2">  1       22 0.11294553E+00 0.51538132E+02</pdfrwt>
<totfact> 0.11770326E+00</totfact>
</mgrwt>
</event>
<event>
 4    1  0.2437479E+000  0.5183260E+02  0.7957747E-01  0.1435700E+00
         13   -1    0    0    0    0  0.00000000000E+00  0.00000000000E+00  0.99999944170E+02  0.99999999990E+02  0.10566000000E+00 0.  1.
         22   -1    0    0    0    0 -0.00000000000E+00 -0.00000000000E+00 -0.17274936015E+02  0.17274936015E+02  0.00000000000E+00 0. -1.
         13    1    1    2    0    0  0.13613203645E+02  0.11399658573E+01 -0.56802754851E+01  0.14795118427E+02  0.10566000000E+00 0. -1.
        996    1    1    2    0    0 -0.13613203645E+02 -0.11399658573E+01  0.88405283639E+02  0.10247981758E+03  0.50000000000E+02 0.  0.
<mgrwt>
<rscale>  0 0.51832604E+02</rscale>
<asrwt>0</asrwt>
<pdfrwt beam="1">  1       13 0.10000000E+01 0.51832604E+02</pdfrwt>
<pdfrwt beam="2">  1       22 0.17274959E+00 0.51832604E+02</pdfrwt>
<totfact> 0.59088675E-01</totfact>
</mgrwt>
</event>
<event>
 4    1  0.2437479E+000  0.5103850E+02  0.7957747E-01  0.1439819E+00
         13   -1    0    0    0    0  0.00000000000E+00  0.00000000000E+00  0.99999944182E+02  0.10000000000E+03  0.10566000000E+00 0.  1.
         22   -1    0    0    0    0 -0.00000000000E+00 -0.00000000000E+00 -0.10477869957E+02  0.10477869957E+02  0.00000000000E+00 0.  1.
         13    1    1    2    0    0 -0.99819210546E+01 -0.22998976682E+01  0.31889553613E+02  0.33494522999E+02  0.10566000000E+00 0. -1.
        996    1    1    2    0    0  0.99819210546E+01  0.22998976682E+01  0.57632520611E+02  0.76983346960E+02  0.50000000000E+02 0.  0.
<mgrwt>
<rscale>  0 0.51038498E+02</rscale>
<asrwt>0</asrwt>
<pdfrwt beam="1">  1       13 0.10000000E+01 0.51038498E+02</pdfrwt>
<pdfrwt beam="2">  1       22 0.10477895E+00 0.51038498E+02</pdfrwt>
<totfact> 0.13140264E+00</totfact>
</mgrwt>
</event>
<event>
 4    1  0.2437479E+000  0.5843643E+02  0.7957747E-01  0.1404513E+00
         13   -1    0    0    0    0  0.00000000000E+00  0.00000000000E+00  0.99999944186E+02  0.10000000001E+03  0.10566000000E+00 0. -1.
         22   -1    0    0    0    0 -0.00000000000E+00 -0.00000000000E+00 -0.22411210594E+02  0.22411210594E+02  0.00000000000E+00 0. -1.
         13    1    1    2    0    0  0.11157168804E+01  0.30225349574E+02  0.75088409082E+01  0.31164249339E+02  0.10566000000E+00 0.  1.
        996    1    1    2    0    0 -0.11157168804E+01 -0.30225349574E+02  0.70079892683E+02  0.91246961262E+02  0.50000000000E+02 0.  0.
<mgrwt>
<rscale>  0 0.58436432E+02</rscale>
<asrwt>0</asrwt>
<pdfrwt beam="1">  1       13 0.10000000E+01 0.58436432E+02</pdfrwt>
<pdfrwt beam="2">  1       22 0.22411232E+00 0.58436432E+02</pdfrwt>
<totfact> 0.36868857E-01</totfact>
</mgrwt>
</event>
<event>
 4    1  0.2437479E+000  0.5701097E+02  0.7957747E-01  0.1410821E+00
         13   -1    0    0    0    0  0.00000000000E+00  0.00000000000E+00  0.99999944178E+02  0.99999999998E+02  0.10566000000E+00 0.  1.
         22   -1    0    0    0    0 -0.00000000000E+00 -0.00000000000E+00 -0.48900417239E+02  0.48900417239E+02  0.00000000000E+00 0. -1.
         13    1    1    2    0    0 -0.11994960737E+02 -0.24624623811E+02 -0.35733852675E+02  0.45024111007E+02  0.10566000000E+00 0. -1.
        996    1    1    2    0    0  0.11994960737E+02  0.24624623811E+02  0.86833379614E+02  0.10387630623E+03  0.50000000000E+02 0.  0.
<mgrwt>
<rscale>  0 0.57010974E+02</rscale>
<asrwt>0</asrwt>
<pdfrwt beam="1">  1       13 0.10000000E+01 0.57010974E+02</pdfrwt>
<pdfrwt beam="2">  1       22 0.48900432E+00 0.57010974E+02</pdfrwt>
<totfact> 0.78430646E-02</totfact>
</mgrwt>
</event>
<event>
 4    1  0.2437479E+000  0.5477387E+02  0.7957747E-01  0.1421171E+00
         13   -1    0    0    0    0  0.00000000000E+00  0.00000000000E+00  0.99999944174E+02  0.99999999994E+02  0.10566000000E+00 0. -1.
         22   -1    0    0    0    0 -0.00000000000E+00 -0.00000000000E+00 -0.30428381721E+02  0.30428381721E+02  0.00000000000E+00 0.  1.
         13    1    1    2    0    0 -0.22348999408E+02  0.83621543320E+00 -0.16925269399E+02  0.28047333903E+02  0.10566000000E+00 0.  1.
        996    1    1    2    0    0  0.22348999408E+02 -0.83621543320E+00  0.86496831852E+02  0.10238104781E+03  0.50000000000E+02 0.  0.
<mgrwt>
<rscale>  0 0.54773872E+02</rscale>
<asrwt>0</asrwt>
<pdfrwt beam="1">  1       13 0.10000000E+01 0.54773872E+02</pdfrwt>
<pdfrwt beam="2">  1       22 0.30428401E+00 0.54773872E+02</pdfrwt>
<totfact> 0.20234959E-01</totfact>
</mgrwt>
</event>
<event>
 4    1  0.2437479E+000  0.6086574E+02  0.7957747E-01  0.1394234E+00
         13   -1    0    0    0    0  0.00000000000E+00  0.00000000000E+00  0.99999944187E+02  0.10000000001E+03  0.10566000000E+00 0. -1.
         22   -1    0    0    0    0 -0.00000000000E+00 -0.00000000000E+00 -0.26965346298E+02  0.26965346298E+02  0.00000000000E+00 0.  1.
         13    1    1    2    0    0  0.21744763523E+02 -0.27051857904E+02  0.40114717448E+01  0.34939101682E+02  0.10566000000E+00 0.  1.
        996    1    1    2    0    0 -0.21744763523E+02  0.27051857904E+02  0.69023126144E+02  0.92026244623E+02  0.50000000000E+02 0.  0.
<mgrwt>
<rscale>  0 0.60865735E+02</rscale>
<asrwt>0</asrwt>
<pdfrwt beam="1">  1       13 0.10000000E+01 0.60865735E+02</pdfrwt>
<pdfrwt beam="2">  1       22 0.26965367E+00 0.60865735E+02</pdfrwt>
<totfact> 0.25713294E-01</totfact>
</mgrwt>
</event>
<event>
 4    1  0.2437479E+000  0.5102984E+02  0.7957747E-01  0.1439865E+00
         13   -1    0    0    0    0  0.00000000000E+00  0.00000000000E+00  0.99999944180E+02  0.10000000000E+03  0.10566000000E+00 0.  1.
         22   -1    0    0    0    0 -0.00000000000E+00 -0.00000000000E+00 -0.94268558237E+01  0.94268558237E+01  0.00000000000E+00 0.  1.
         13    1    1    2    0    0 -0.85355464550E+01 -0.55847443726E+01  0.12171453641E+02  0.15880817698E+02  0.10566000000E+00 0. -1.
        996    1    1    2    0    0  0.85355464550E+01  0.55847443726E+01  0.78401634716E+02  0.93546038126E+02  0.50000000000E+02 0.  0.
<mgrwt>
<rscale>  0 0.51029843E+02</rscale>
<asrwt>0</asrwt>
<pdfrwt beam="1">  1       13 0.10000000E+01 0.51029843E+02</pdfrwt>
<pdfrwt beam="2">  1       22 0.94268811E-01 0.51029843E+02</pdfrwt>
<totfact> 0.15309491E+00</totfact>
</mgrwt>
</event>
<event>
 4    1  0.2437479E+000  0.5467458E+02  0.7957747E-01  0.1421644E+00
         13   -1    0    0    0    0  0.00000000000E+00  0.00000000000E+00  0.99999944171E+02  0.99999999992E+02  0.10566000000E+00 0. -1.
         22   -1    0    0    0    0 -0.00000000000E+00 -0.00000000000E+00 -0.31102749805E+02  0.31102749805E+02  0.00000000000E+00 0.  1.
         13    1    1    2    0    0 -0.10571840380E+01 -0.22095077031E+02 -0.17944040877E+02  0.28483501087E+02  0.10566000000E+00 0.  1.
        996    1    1    2    0    0  0.10571840380E+01  0.22095077031E+02  0.86841235244E+02  0.10261924871E+03  0.50000000000E+02 0.  0.
<mgrwt>
<rscale>  0 0.54674583E+02</rscale>
<asrwt>0</asrwt>
<pdfrwt beam="1">  1       13 0.10000000E+01 0.54674583E+02</pdfrwt>
<pdfrwt beam="2">  1       22 0.31102769E+00 0.54674583E+02</pdfrwt>
<totfact> 0.19432381E-01</totfact>
</mgrwt>
</event>
<event>
 4    1  0.2437479E+000  0.5269242E+02  0.7957747E-01  0.1431338E+00
         13   -1    0    0    0    0  0.00000000000E+00  0.00000000000E+00  0.99999944168E+02  0.99999999988E+02  0.10566000000E+00 0. -1.
         22   -1    0    0    0    0 -0.00000000000E+00 -0.00000000000E+00 -0.65757393475E+02  0.65757393475E+02  0.00000000000E+00 0.  1.
         13    1    1    2    0    0 -0.53689760118E+00  0.16619346127E+02 -0.57556590779E+02  0.59910460112E+02  0.10566000000E+00 0.  1.
        996    1    1    2    0    0  0.53689760118E+00 -0.16619346127E+02  0.91799141472E+02  0.10584693335E+03  0.50000000000E+02 0.  0.
<mgrwt>
<rscale>  0 0.52692418E+02</rscale>
<asrwt>0</asrwt>
<pdfrwt beam="1">  1       13 0.10000000E+01 0.52692418E+02</pdfrwt>
<pdfrwt beam="2">  1       22 0.65757403E+00 0.52692418E+02</pdfrwt>
<totfact> 0.87232965E-02</totfact>
</mgrwt>
</event>
<event>
 4    1  0.2437479E+000  0.5388215E+02  0.7957747E-01  0.1425460E+00
         13   -1    0    0    0    0  0.00000000000E+00  0.00000000000E+00  0.99999944179E+02  0.99999999999E+02  0.10566000000E+00 0.  1.
         22   -1    0    0    0    0 -0.00000000000E+00 -0.00000000000E+00 -0.16369317874E+02  0.16369317874E+02  0.00000000000E+00 0.  1.
         13    1    1    2    0    0  0.15264316194E+02 -0.13049403918E+02  0.44092964481E+01  0.20560626223E+02  0.10566000000E+00 0. -1.
        996    1    1    2    0    0 -0.15264316194E+02  0.13049403918E+02  0.79221329857E+02  0.95808691650E+02  0.50000000000E+02 0.  0.
<mgrwt>
<rscale>  0 0.53882152E+02</rscale>
<asrwt>0</asrwt>
<pdfrwt beam="1">  1       13 0.10000000E+01 0.53882152E+02</pdfrwt>
<pdfrwt beam="2">  1       22 0.16369341E+00 0.53882152E+02</pdfrwt>
<totfact> 0.65165946E-01</totfact>
</mgrwt>
</event>
<event>
 4    1  0.2437479E+000  0.5536568E+02  0.7957747E-01  0.1418377E+00
         13   -1    0    0    0    0  0.00000000000E+00  0.00000000000E+00  0.99999944176E+02  0.99999999996E+02  0.10566000000E+00 0.  1.
         22   -1    0    0    0    0 -0.00000000000E+00 -0.00000000000E+00 -0.50167967953E+02  0.50167967953E+02  0.00000000000E+00 0. -1.
         13    1    1    2    0    0 -0.23498253643E+02 -0.36319185434E+01 -0.38893050686E+02  0.45585516474E+02  0.10566000000E+00 0. -1.
        996    1    1    2    0    0  0.23498253643E+02  0.36319185434E+01  0.88725026909E+02  0.10458245147E+03  0.50000000000E+02 0.  0.
<mgrwt>
<rscale>  0 0.55365682E+02</rscale>
<asrwt>0</asrwt>
<pdfrwt beam="1">  1       13 0.10000000E+01 0.55365682E+02</pdfrwt>
<pdfrwt beam="2">  1       22 0.50167982E+00 0.55365682E+02</pdfrwt>
<totfact> 0.73043582E-02</totfact>
</mgrwt>
</event>
<event>
 4    1  0.2437479E+000  0.5159372E+02  0.7957747E-01  0.1436930E+00
         13   -1    0    0    0    0  0.00000000000E+00  0.00000000000E+00  0.99999944175E+02  0.99999999996E+02  0.10566000000E+00 0.  1.
         22   -1    0    0    0    0 -0.00000000000E+00 -0.00000000000E+00 -0.13135275584E+02  0.13135275584E+02  0.00000000000E+00 0. -1.
         13    1    1    2    0    0  0.66222045871E+01  0.10865474244E+02  0.74900674984E+00  0.12746932937E+02  0.10566000000E+00 0. -1.
        996    1    1    2    0    0 -0.66222045871E+01 -0.10865474244E+02  0.86115661842E+02  0.10038834264E+03  0.50000000000E+02 0.  0.
<mgrwt>
<rscale>  0 0.51593722E+02</rscale>
<asrwt>0</asrwt>
<pdfrwt beam="1">  1       13 0.10000000E+01 0.51593722E+02</pdfrwt>
<pdfrwt beam="2">  1       22 0.13135300E+00 0.51593722E+02</pdfrwt>
<totfact> 0.93305807E-01</totfact>
</mgrwt>
</event>
<event>
 4    1  0.2437479E+000  0.8035941E+02  0.7957747E-01  0.1328035E+00
         13   -1    0    0    0    0  0.00000000000E+00  0.00000000000E+00  0.99999944178E+02  0.99999999998E+02  0.10566000000E+00 0. -1.
         22   -1    0    0    0    0 -0.00000000000E+00 -0.00000000000E+00 -0.66550687188E+02  0.66550687188E+02  0.00000000000E+00 0.  1.
         13    1    1    2    0    0 -0.66168872642E+01 -0.62560786135E+02 -0.24462022187E+02  0.67498421110E+02  0.10566000000E+00 0.  1.
        996    1    1    2    0    0  0.66168872642E+01  0.62560786135E+02  0.57911279177E+02  0.99052266076E+02  0.50000000000E+02 0.  0.
<mgrwt>
<rscale>  0 0.80359412E+02</rscale>
<asrwt>0</asrwt>
<pdfrwt beam="1">  1       13 0.10000000E+01 0.80359412E+02</pdfrwt>
<pdfrwt beam="2">  1       22 0.66550697E+00 0.80359412E+02</pdfrwt>
<totfact> 0.86944899E-02</totfact>
</mgrwt>
</event>
<event>
 4    1  0.2437479E+000  0.5111331E+02  0.7957747E-01  0.1439428E+00
         13   -1    0    0    0    0  0.00000000000E+00  0.00000000000E+00  0.99999944175E+02  0.99999999995E+02  0.10566000000E+00 0. -1.
         22   -1    0    0    0    0 -0.00000000000E+00 -0.00000000000E+00 -0.32561796726E+02  0.32561796726E+02  0.00000000000E+00 0.  1.
         13    1    1    2    0    0  0.90093988491E+01 -0.56036921955E+01 -0.24874568713E+02  0.27043039151E+02  0.10566000000E+00 0.  1.
        996    1    1    2    0    0 -0.90093988491E+01  0.56036921955E+01  0.92312716162E+02  0.10551875757E+03  0.50000000000E+02 0.  0.
<mgrwt>
<rscale>  0 0.51113312E+02</rscale>
<asrwt>0</asrwt>
<pdfrwt beam="1">  1       13 0.10000000E+01 0.51113312E+02</pdfrwt>
<pdfrwt beam="2">  1       22 0.32561816E+00 0.51113312E+02</pdfrwt>
<totfact> 0.17817078E-01</totfact>
</mgrwt>
</event>
<event>
 4    1  0.2437479E+000  0.5138131E+02  0.7957747E-01  0.1438030E+00
         13   -1    0    0    0    0  0.00000000000E+00  0.00000000000E+00  0.99999944171E+02  0.99999999991E+02  0.10566000000E+00 0. -1.
         22   -1    0    0    0    0 -0.00000000000E+00 -0.00000000000E+00 -0.23595242161E+02  0.23595242161E+02  0.00000000000E+00 0.  1.
         13    1    1    2    0    0  0.90177174781E+01  0.76628725352E+01 -0.14777904747E+02  0.18932418671E+02  0.10566000000E+00 0.  1.
        996    1    1    2    0    0 -0.90177174781E+01 -0.76628725352E+01  0.91182606756E+02  0.10466282348E+03  0.50000000000E+02 0.  0.
<mgrwt>
<rscale>  0 0.51381308E+02</rscale>
<asrwt>0</asrwt>
<pdfrwt beam="1">  1       13 0.10000000E+01 0.51381308E+02</pdfrwt>
<pdfrwt beam="2">  1       22 0.23595263E+00 0.51381308E+02</pdfrwt>
<totfact> 0.32986657E-01</totfact>
</mgrwt>
</event>
<event>
 4    1  0.2437479E+000  0.5300146E+02  0.7957747E-01  0.1429794E+00
         13   -1    0    0    0    0  0.00000000000E+00  0.00000000000E+00  0.99999944189E+02  0.10000000001E+03  0.10566000000E+00 0. -1.
         22   -1    0    0    0    0 -0.00000000000E+00 -0.00000000000E+00 -0.12455426433E+02  0.12455426433E+02  0.00000000000E+00 0. -1.
         13    1    1    2    0    0 -0.46278738997E+01 -0.16962817242E+02  0.21816662361E+02  0.28020212459E+02  0.10566000000E+00 0.  1.
        996    1    1    2    0    0  0.46278738997E+01  0.16962817242E+02  0.65727855394E+02  0.84435213983E+02  0.50000000000E+02 0.  0.
<mgrwt>
<rscale>  0 0.53001456E+02</rscale>
<asrwt>0</asrwt>
<pdfrwt beam="1">  1       13 0.10000000E+01 0.53001456E+02</pdfrwt>
<pdfrwt beam="2">  1       22 0.12455451E+00 0.53001456E+02</pdfrwt>
<totfact> 0.10171666E+00</totfact>
</mgrwt>
</event>
<event>
 4    1  0.2437479E+000  0.6609838E+02  0.7957747E-01  0.1373887E+00
         13   -1    0    0    0    0  0.00000000000E+00  0.00000000000E+00  0.99999944175E+02  0.99999999996E+02  0.10566000000E+00 0. -1.
         22   -1    0    0    0    0 -0.00000000000E+00 -0.00000000000E+00 -0.54499491943E+02  0.54499491943E+02  0.00000000000E+00 0.  1.
         13    1    1    2    0    0 -0.42548000575E+02  0.76592107015E+01 -0.31150047630E+02  0.53285387236E+02  0.10566000000E+00 0.  1.
        996    1    1    2    0    0  0.42548000575E+02 -0.76592107015E+01  0.76650499863E+02  0.10121410470E+03  0.50000000000E+02 0.  0.
<mgrwt>
<rscale>  0 0.66098380E+02</rscale>
<asrwt>0</asrwt>
<pdfrwt beam="1">  1       13 0.10000000E+01 0.66098380E+02</pdfrwt>
<pdfrwt beam="2">  1       22 0.54499505E+00 0.66098380E+02</pdfrwt>
<totfact> 0.60039408E-02</totfact>
</mgrwt>
</event>
<event>
 4    1  0.2437479E+000  0.5148706E+02  0.7957747E-01  0.1437482E+00
         13   -1    0    0    0    0  0.00000000000E+00  0.00000000000E+00  0.99999944180E+02  0.10000000000E+03  0.10566000000E+00 0.  1.
         22   -1    0    0    0    0 -0.00000000000E+00 -0.00000000000E+00 -0.11032136611E+02  0.11032136611E+02  0.00000000000E+00 0. -1.
         13    1    1    2    0    0  0.76107902153E+01  0.96432841523E+01  0.67337990590E+01  0.14009720581E+02  0.10566000000E+00 0. -1.
        996    1    1    2    0    0 -0.76107902153E+01 -0.96432841523E+01  0.82234008510E+02  0.97022416031E+02  0.50000000000E+02 0.  0.
<mgrwt>
<rscale>  0 0.51487057E+02</rscale>
<asrwt>0</asrwt>
<pdfrwt beam="1">  1       13 0.10000000E+01 0.51487057E+02</pdfrwt>
<pdfrwt beam="2">  1       22 0.11032161E+00 0.51487057E+02</pdfrwt>
<totfact> 0.12189616E+00</totfact>
</mgrwt>
</event>
<event>
 4    1  0.2437479E+000  0.5111224E+02  0.7957747E-01  0.1439433E+00
         13   -1    0    0    0    0  0.00000000000E+00  0.00000000000E+00  0.99999944186E+02  0.10000000001E+03  0.10566000000E+00 0.  1.
         22   -1    0    0    0    0 -0.00000000000E+00 -0.00000000000E+00 -0.27208854313E+02  0.27208854313E+02  0.00000000000E+00 0. -1.
         13    1    1    2    0    0 -0.90370440707E+01  0.55491464164E+01 -0.19221491319E+02  0.21953088258E+02  0.10566000000E+00 0. -1.
        996    1    1    2    0    0  0.90370440707E+01 -0.55491464164E+01  0.92012581192E+02  0.10525576606E+03  0.50000000000E+02 0.  0.
<mgrwt>
<rscale>  0 0.51112241E+02</rscale>
<asrwt>0</asrwt>
<pdfrwt beam="1">  1       13 0.10000000E+01 0.51112241E+02</pdfrwt>
<pdfrwt beam="2">  1       22 0.27208875E+00 0.51112241E+02</pdfrwt>
<totfact> 0.24931123E-01</totfact>
</mgrwt>
</event>
<event>
 4    1  0.2437479E+000  0.5242117E+02  0.7957747E-01  0.1432703E+00
         13   -1    0    0    0    0  0.00000000000E+00  0.00000000000E+00  0.99999944182E+02  0.10000000000E+03  0.10566000000E+00 0. -1.
         22   -1    0    0    0    0 -0.00000000000E+00 -0.00000000000E+00 -0.18575919671E+02  0.18575919671E+02  0.00000000000E+00 0.  1.
         13    1    1    2    0    0  0.54500529121E+01  0.14774162383E+02 -0.58245975036E+01  0.16790355892E+02  0.10566000000E+00 0.  1.
        996    1    1    2    0    0 -0.54500529121E+01 -0.14774162383E+02  0.87248622015E+02  0.10178556378E+03  0.50000000000E+02 0.  0.
<mgrwt>
<rscale>  0 0.52421169E+02</rscale>
<asrwt>0</asrwt>
<pdfrwt beam="1">  1       13 0.10000000E+01 0.52421169E+02</pdfrwt>
<pdfrwt beam="2">  1       22 0.18575942E+00 0.52421169E+02</pdfrwt>
<totfact> 0.51946463E-01</totfact>
</mgrwt>
</event>
<event>
 4    1  0.2437479E+000  0.5242604E+02  0.7957747E-01  0.1432679E+00
         13   -1    0    0    0    0  0.00000000000E+00  0.00000000000E+00  0.99999944175E+02  0.99999999995E+02  0.10566000000E+00 0.  1.
         22   -1    0    0    0    0 -0.00000000000E+00 -0.00000000000E+00 -0.24481046616E+02  0.24481046616E+02  0.00000000000E+00 0. -1.
         13    1    1    2    0    0  0.15593611368E+02 -0.23084183384E+01 -0.13775023847E+02  0.20934468150E+02  0.10566000000E+00 0. -1.
        996    1    1    2    0    0 -0.15593611368E+02  0.23084183384E+01  0.89293921406E+02  0.10354657846E+03  0.50000000000E+02 0.  0.
<mgrwt>
<rscale>  0 0.52426038E+02</rscale>
<asrwt>0</asrwt>
<pdfrwt beam="1">  1       13 0.10000000E+01 0.52426038E+02</pdfrwt>
<pdfrwt beam="2">  1       22 0.24481068E+00 0.52426038E+02</pdfrwt>
<totfact> 0.30741005E-01</totfact>
</mgrwt>
</event>
<event>
 4    1  0.2437479E+000  0.5405234E+02  0.7957747E-01  0.1424634E+00
         13   -1    0    0    0    0  0.00000000000E+00  0.00000000000E+00  0.99999944186E+02  0.10000000001E+03  0.10566000000E+00 0. -1.
         22   -1    0    0    0    0 -0.00000000000E+00 -0.00000000000E+00 -0.15758379832E+02  0.15758379832E+02  0.00000000000E+00 0.  1.
         13    1    1    2    0    0  0.10051366970E+02  0.17906019367E+02  0.74357921306E+01  0.21839360709E+02  0.10566000000E+00 0.  1.
        996    1    1    2    0    0 -0.10051366970E+02 -0.17906019367E+02  0.76805772223E+02  0.93919019129E+02  0.50000000000E+02 0.  0.
<mgrwt>
<rscale>  0 0.54052340E+02</rscale>
<asrwt>0</asrwt>
<pdfrwt beam="1">  1       13 0.10000000E+01 0.54052340E+02</pdfrwt>
<pdfrwt beam="2">  1       22 0.15758403E+00 0.54052340E+02</pdfrwt>
<totfact> 0.69578175E-01</totfact>
</mgrwt>
</event>
<event>
 4    1  0.2437479E+000  0.5686139E+02  0.7957747E-01  0.1411496E+00
         13   -1    0    0    0    0  0.00000000000E+00  0.00000000000E+00  0.99999944176E+02  0.99999999997E+02  0.10566000000E+00 0.  1.
         22   -1    0    0    0    0 -0.00000000000E+00 -0.00000000000E+00 -0.17944516335E+02  0.17944516335E+02  0.00000000000E+00 0. -1.
         13    1    1    2    0    0  0.14046468662E+02  0.23149814512E+02  0.19252282676E+02  0.33224670745E+02  0.10566000000E+00 0. -1.
        996    1    1    2    0    0 -0.14046468662E+02 -0.23149814512E+02  0.62803145165E+02  0.84719845588E+02  0.50000000000E+02 0.  0.
<mgrwt>
<rscale>  0 0.56861386E+02</rscale>
<asrwt>0</asrwt>
<pdfrwt beam="1">  1       13 0.10000000E+01 0.56861386E+02</pdfrwt>
<pdfrwt beam="2">  1       22 0.17944539E+00 0.56861386E+02</pdfrwt>
<totfact> 0.55730948E-01</totfact>
</mgrwt>
</event>
<event>
 4    1  0.2437479E+000  0.5178280E+02  0.7957747E-01  0.1435956E+00
         13   -1    0    0    0    0  0.00000000000E+00  0.00000000000E+00  0.99999944183E+02  0.10000000000E+03  0.10566000000E+00 0. -1.
         22   -1    0    0    0    0 -0.00000000000E+00 -0.00000000000E+00 -0.13680523231E+02  0.13680523231E+02  0.00000000000E+00 0.  1.
         13    1    1    2    0    0 -0.11603182539E+02  0.68428434177E+01  0.53877403754E+00  0.13481831944E+02  0.10566000000E+00 0.  1.
        996    1    1    2    0    0  0.11603182539E+02 -0.68428434177E+01  0.85780646915E+02  0.10019869129E+03  0.50000000000E+02 0.  0.
<mgrwt>
<rscale>  0 0.51782800E+02</rscale>
<asrwt>0</asrwt>
<pdfrwt beam="1">  1       13 0.10000000E+01 0.51782800E+02</pdfrwt>
<pdfrwt beam="2">  1       22 0.13680547E+00 0.51782800E+02</pdfrwt>
<totfact> 0.87487181E-01</totfact>
</mgrwt>
</event>
<event>
 4    1  0.2437479E+000  0.5553706E+02  0.7957747E-01  0.1417576E+00
         13   -1    0    0    0    0  0.00000000000E+00  0.00000000000E+00  0.99999944186E+02  0.10000000001E+03  0.10566000000E+00 0.  1.
         22   -1    0    0    0    0 -0.00000000000E+00 -0.00000000000E+00 -0.26201181761E+02  0.26201181761E+02  0.00000000000E+00 0.  1.
         13    1    1    2    0    0 -0.42675831115E+01  0.23793969353E+02 -0.95937326684E+01  0.26008000956E+02  0.10566000000E+00 0. -1.
        996    1    1    2    0    0  0.42675831115E+01 -0.23793969353E+02  0.83392495093E+02  0.10019318081E+03  0.50000000000E+02 0.  0.
<mgrwt>
<rscale>  0 0.55537062E+02</rscale>
<asrwt>0</asrwt>
<pdfrwt beam="1">  1       13 0.10000000E+01 0.55537062E+02</pdfrwt>
<pdfrwt beam="2">  1       22 0.26201202E+00 0.55537062E+02</pdfrwt>
<totfact> 0.27018718E-01</totfact>
</mgrwt>
</event>
<event>
 4    1  0.2437479E+000  0.5271215E+02  0.7957747E-01  0.1431239E+00
         13   -1    0    0    0    0  0.00000000000E+00  0.00000000000E+00  0.99999944180E+02  0.10000000000E+03  0.10566000000E+00 0.  1.
         22   -1    0    0    0    0 -0.00000000000E+00 -0.00000000000E+00 -0.15792726309E+02  0.15792726309E+02  0.00000000000E+00 0.  1.
         13    1    1    2    0    0  0.19315107569E+01  0.16578299324E+02  0.28983191138E+00  0.16693289336E+02  0.10566000000E+00 0. -1.
        996    1    1    2    0    0 -0.19315107569E+01 -0.16578299324E+02  0.83917385959E+02  0.99099436974E+02  0.50000000000E+02 0.  0.
<mgrwt>
<rscale>  0 0.52712150E+02</rscale>
<asrwt>0</asrwt>
<pdfrwt beam="1">  1       13 0.10000000E+01 0.52712150E+02</pdfrwt>
<pdfrwt beam="2">  1       22 0.15792750E+00 0.52712150E+02</pdfrwt>
<totfact> 0.69140533E-01</totfact>
</mgrwt>
</event>
<event>
 4    1  0.2437479E+000  0.5363814E+02  0.7957747E-01  0.1426651E+00
         13   -1    0    0    0    0  0.00000000000E+00  0.00000000000E+00  0.99999944174E+02  0.99999999995E+02  0.10566000000E+00 0. -1.
         22   -1    0    0    0    0 -0.00000000000E+00 -0.00000000000E+00 -0.39666324314E+02  0.39666324314E+02  0.00000000000E+00 0.  1.
         13    1    1    2    0    0  0.17043132271E+02  0.93049260972E+01 -0.29334905868E+02  0.35179509286E+02  0.10566000000E+00 0.  1.
        996    1    1    2    0    0 -0.17043132271E+02 -0.93049260972E+01  0.89668525728E+02  0.10448681502E+03  0.50000000000E+02 0.  0.
<mgrwt>
<rscale>  0 0.53638139E+02</rscale>
<asrwt>0</asrwt>
<pdfrwt beam="1">  1       13 0.10000000E+01 0.53638139E+02</pdfrwt>
<pdfrwt beam="2">  1       22 0.39666341E+00 0.53638139E+02</pdfrwt>
<totfact> 0.12581136E-01</totfact>
</mgrwt>
</event>
<event>
 4    1  0.2437479E+000  0.5262114E+02  0.7957747E-01  0.1431696E+00
         13   -1    0    0    0    0  0.00000000000E+00  0.00000000000E+00  0.99999944178E+02  0.99999999999E+02  0.10566000000E+00 0. -1.
         22   -1    0    0    0    0 -0.00000000000E+00 -0.00000000000E+00 -0.12505246209E+02  0.12505246209E+02  0.00000000000E+00 0.  1.
         13    1    1    2    0    0  0.81950785875E+01 -0.14206518023E+02  0.11342983696E+02  0.19941386876E+02  0.10566000000E+00 0.  1.
        996    1    1    2    0    0 -0.81950785875E+01  0.14206518023E+02  0.76151714274E+02  0.92563859331E+02  0.50000000000E+02 0.  0.
<mgrwt>
<rscale>  0 0.52621141E+02</rscale>
<asrwt>0</asrwt>
<pdfrwt beam="1">  1       13 0.10000000E+01 0.52621141E+02</pdfrwt>
<pdfrwt beam="2">  1       22 0.12505271E+00 0.52621141E+02</pdfrwt>
<totfact> 0.10100469E+00</totfact>
</mgrwt>
</event>
<event>
 4    1  0.2437479E+000  0.5109403E+02  0.7957747E-01  0.1439528E+00
         13   -1    0    0    0    0  0.00000000000E+00  0.00000000000E+00  0.99999944175E+02  0.99999999995E+02  0.10566000000E+00 0.  1.
         22   -1    0    0    0    0 -0.00000000000E+00 -0.00000000000E+00 -0.20725239040E+02  0.20725239040E+02  0.00000000000E+00 0. -1.
         13    1    1    2    0    0 -0.31755068079E+01  0.10025782308E+02 -0.12102234820E+02  0.16033571220E+02  0.10566000000E+00 0. -1.
        996    1    1    2    0    0  0.31755068079E+01 -0.10025782308E+02  0.91376939955E+02  0.10469166781E+03  0.50000000000E+02 0.  0.
<mgrwt>
<rscale>  0 0.51094032E+02</rscale>
<asrwt>0</asrwt>
<pdfrwt beam="1">  1       13 0.10000000E+01 0.51094032E+02</pdfrwt>
<pdfrwt beam="2">  1       22 0.20725261E+00 0.51094032E+02</pdfrwt>
<totfact> 0.42309560E-01</totfact>
</mgrwt>
</event>
<event>
 4    1  0.2437479E+000  0.6860524E+02  0.7957747E-01  0.1364901E+00
         13   -1    0    0    0    0  0.00000000000E+00  0.00000000000E+00  0.99999944182E+02  0.10000000000E+03  0.10566000000E+00 0. -1.
         22   -1    0    0    0    0 -0.00000000000E+00 -0.00000000000E+00 -0.42001609416E+02  0.42001609416E+02  0.00000000000E+00 0.  1.
         13    1    1    2    0    0 -0.26693170747E+02  0.38654283040E+02 -0.70013029123E+01  0.47494298272E+02  0.10566000000E+00 0.  1.
        996    1    1    2    0    0  0.26693170747E+02 -0.38654283040E+02  0.64999637678E+02  0.94507311147E+02  0.50000000000E+02 0.  0.
<mgrwt>
<rscale>  0 0.68605240E+02</rscale>
<asrwt>0</asrwt>
<pdfrwt beam="1">  1       13 0.10000000E+01 0.68605240E+02</pdfrwt>
<pdfrwt beam="2">  1       22 0.42001626E+00 0.68605240E+02</pdfrwt>
<totfact> 0.11348366E-01</totfact>
</mgrwt>
</event>
<event>
 4    1  0.2437479E+000  0.5438697E+02  0.7957747E-01  0.1423020E+00
         13   -1    0    0    0    0  0.00000000000E+00  0.00000000000E+00  0.99999944179E+02  0.99999999999E+02  0.10566000000E+00 0.  1.
         22   -1    0    0    0    0 -0.00000000000E+00 -0.00000000000E+00 -0.33180784624E+02  0.33180784624E+02  0.00000000000E+00 0.  1.
         13    1    1    2    0    0 -0.21254988261E+02  0.24834535493E+01 -0.20936664378E+02  0.29938222172E+02  0.10566000000E+00 0. -1.
        996    1    1    2    0    0  0.21254988261E+02 -0.24834535493E+01  0.87755823933E+02  0.10324256245E+03  0.50000000000E+02 0.  0.
<mgrwt>
<rscale>  0 0.54386966E+02</rscale>
<asrwt>0</asrwt>
<pdfrwt beam="1">  1       13 0.10000000E+01 0.54386966E+02</pdfrwt>
<pdfrwt beam="2">  1       22 0.33180803E+00 0.54386966E+02</pdfrwt>
<totfact> 0.17297790E-01</totfact>
</mgrwt>
</event>
<event>
 4    1  0.2437479E+000  0.5103872E+02  0.7957747E-01  0.1439818E+00
         13   -1    0    0    0    0  0.00000000000E+00  0.00000000000E+00  0.99999944179E+02  0.99999999999E+02  0.10566000000E+00 0. -1.
         22   -1    0    0    0    0 -0.00000000000E+00 -0.00000000000E+00 -0.20968512291E+02  0.20968512291E+02  0.00000000000E+00 0.  1.
         13    1    1    2    0    0  0.10221918588E+02 -0.68102351765E+00 -0.12504158411E+02  0.16165288561E+02  0.10566000000E+00 0.  1.
        996    1    1    2    0    0 -0.10221918588E+02  0.68102351765E+00  0.91535590299E+02  0.10480322373E+03  0.50000000000E+02 0.  0.
<mgrwt>
<rscale>  0 0.51038725E+02</rscale>
<asrwt>0</asrwt>
<pdfrwt beam="1">  1       13 0.10000000E+01 0.51038725E+02</pdfrwt>
<pdfrwt beam="2">  1       22 0.20968534E+00 0.51038725E+02</pdfrwt>
<totfact> 0.41382065E-01</totfact>
</mgrwt>
</event>
<event>
 4    1  0.2437479E+000  0.5116757E+02  0.7957747E-01  0.1439144E+00
         13   -1    0    0    0    0  0.00000000000E+00  0.00000000000E+00  0.99999944165E+02  0.99999999985E+02  0.10566000000E+00 0. -1.
         22   -1    0    0    0    0 -0.00000000000E+00 -0.00000000000E+00 -0.25496107452E+02  0.25496107452E+02  0.00000000000E+00 0.  1.
         13    1    1    2    0    0 -0.10619794071E+02  0.23107778366E+01 -0.17279634189E+02  0.20413638628E+02  0.10566000000E+00 0.  1.
        996    1    1    2    0    0  0.10619794071E+02 -0.23107778366E+01  0.91783470901E+02  0.10508246881E+03  0.50000000000E+02 0.  0.
<mgrwt>
<rscale>  0 0.51167565E+02</rscale>
<asrwt>0</asrwt>
<pdfrwt beam="1">  1       13 0.10000000E+01 0.51167565E+02</pdfrwt>
<pdfrwt beam="2">  1       22 0.25496128E+00 0.51167565E+02</pdfrwt>
<totfact> 0.28324390E-01</totfact>
</mgrwt>
</event>
<event>
 4    1  0.2437479E+000  0.5252639E+02  0.7957747E-01  0.1432172E+00
         13   -1    0    0    0    0  0.00000000000E+00  0.00000000000E+00  0.99999944177E+02  0.99999999997E+02  0.10566000000E+00 0. -1.
         22   -1    0    0    0    0 -0.00000000000E+00 -0.00000000000E+00 -0.44490847676E+02  0.44490847676E+02  0.00000000000E+00 0.  1.
         13    1    1    2    0    0  0.15932737286E+02  0.22736738227E+01 -0.35743846031E+02  0.39200196469E+02  0.10566000000E+00 0.  1.
        996    1    1    2    0    0 -0.15932737286E+02 -0.22736738227E+01  0.91252942532E+02  0.10529065120E+03  0.50000000000E+02 0.  0.
<mgrwt>
<rscale>  0 0.52526391E+02</rscale>
<asrwt>0</asrwt>
<pdfrwt beam="1">  1       13 0.10000000E+01 0.52526391E+02</pdfrwt>
<pdfrwt beam="2">  1       22 0.44490863E+00 0.52526391E+02</pdfrwt>
<totfact> 0.99227718E-02</totfact>
</mgrwt>
</event>
<event>
 4    1  0.2437479E+000  0.5342088E+02  0.7957747E-01  0.1427718E+00
         13   -1    0    0    0    0  0.00000000000E+00  0.00000000000E+00  0.99999944184E+02  0.10000000000E+03  0.10566000000E+00 0. -1.
         22   -1    0    0    0    0 -0.00000000000E+00 -0.00000000000E+00 -0.14313677210E+02  0.14313677210E+02  0.00000000000E+00 0.  1.
         13    1    1    2    0    0 -0.28167602886E+01 -0.18597216956E+02  0.89927202353E+01  0.20848760114E+02  0.10566000000E+00 0.  1.
        996    1    1    2    0    0  0.28167602886E+01  0.18597216956E+02  0.76693546739E+02  0.93464917099E+02  0.50000000000E+02 0.  0.
<mgrwt>
<rscale>  0 0.53420882E+02</rscale>
<asrwt>0</asrwt>
<pdfrwt beam="1">  1       13 0.10000000E+01 0.53420882E+02</pdfrwt>
<pdfrwt beam="2">  1       22 0.14313701E+00 0.53420882E+02</pdfrwt>
<totfact> 0.81578192E-01</totfact>
</mgrwt>
</event>
<event>
 4    1  0.2437479E+000  0.5105856E+02  0.7957747E-01  0.1439714E+00
         13   -1    0    0    0    0  0.00000000000E+00  0.00000000000E+00  0.99999944178E+02  0.99999999998E+02  0.10566000000E+00 0. -1.
         22   -1    0    0    0    0 -0.00000000000E+00 -0.00000000000E+00 -0.12717658632E+02  0.12717658632E+02  0.00000000000E+00 0. -1.
         13    1    1    2    0    0  0.10029152036E+02 -0.25283180109E+01 -0.13493185530E+01  0.10431112458E+02  0.10566000000E+00 0.  1.
        996    1    1    2    0    0 -0.10029152036E+02  0.25283180109E+01  0.88631604099E+02  0.10228654617E+03  0.50000000000E+02 0.  0.
<mgrwt>
<rscale>  0 0.51058557E+02</rscale>
<asrwt>0</asrwt>
<pdfrwt beam="1">  1       13 0.10000000E+01 0.51058557E+02</pdfrwt>
<pdfrwt beam="2">  1       22 0.12717683E+00 0.51058557E+02</pdfrwt>
<totfact> 0.98050643E-01</totfact>
</mgrwt>
</event>
<event>
 4    1  0.2437479E+000  0.5363977E+02  0.7957747E-01  0.1426643E+00
         13   -1    0    0    0    0  0.00000000000E+00  0.00000000000E+00  0.99999944176E+02  0.99999999996E+02  0.10566000000E+00 0. -1.
         22   -1    0    0    0    0 -0.00000000000E+00 -0.00000000000E+00 -0.13580611082E+02  0.13580611082E+02  0.00000000000E+00 0. -1.
         13    1    1    2    0    0 -0.19390023642E+02 -0.11189488163E+01  0.16702218858E+02  0.25616407674E+02  0.10566000000E+00 0.  1.
        996    1    1    2    0    0  0.19390023642E+02  0.11189488163E+01  0.69717114235E+02  0.87964203405E+02  0.50000000000E+02 0.  0.
<mgrwt>
<rscale>  0 0.53639771E+02</rscale>
<asrwt>0</asrwt>
<pdfrwt beam="1">  1       13 0.10000000E+01 0.53639771E+02</pdfrwt>
<pdfrwt beam="2">  1       22 0.13580635E+00 0.53639771E+02</pdfrwt>
<totfact> 0.88866857E-01</totfact>
</mgrwt>
</event>
<event>
 4    1  0.2437479E+000  0.5313384E+02  0.7957747E-01  0.1429136E+00
         13   -1    0    0    0    0  0.00000000000E+00  0.00000000000E+00  0.99999944183E+02  0.10000000000E+03  0.10566000000E+00 0.  1.
         22   -1    0    0    0    0 -0.00000000000E+00 -0.00000000000E+00 -0.13992423996E+02  0.13992423996E+02  0.00000000000E+00 0. -1.
         13    1    1    2    0    0 -0.17868457815E+02  0.19806285332E+01  0.81672101098E+01  0.19746370783E+02  0.10566000000E+00 0. -1.
        996    1    1    2    0    0  0.17868457815E+02 -0.19806285332E+01  0.77840310077E+02  0.94246053217E+02  0.50000000000E+02 0.  0.
<mgrwt>
<rscale>  0 0.53133837E+02</rscale>
<asrwt>0</asrwt>
<pdfrwt beam="1">  1       13 0.10000000E+01 0.53133837E+02</pdfrwt>
<pdfrwt beam="2">  1       22 0.13992448E+00 0.53133837E+02</pdfrwt>
<totfact> 0.84600724E-01</totfact>
</mgrwt>
</event>
<event>
 4    1  0.2437479E+000  0.5922642E+02  0.7957747E-01  0.1401107E+00
         13   -1    0    0    0    0  0.00000000000E+00  0.00000000000E+00  0.99999944174E+02  0.99999999995E+02  0.10566000000E+00 0.  1.
         22   -1    0    0    0    0 -0.00000000000E+00 -0.00000000000E+00 -0.55078538184E+02  0.55078538184E+02  0.00000000000E+00 0. -1.
         13    1    1    2    0    0  0.12928117612E+02 -0.28993660988E+02 -0.40297495200E+02  0.51299784463E+02  0.10566000000E+00 0. -1.
        996    1    1    2    0    0 -0.12928117612E+02  0.28993660988E+02  0.85218901191E+02  0.10377875372E+03  0.50000000000E+02 0.  0.
<mgrwt>
<rscale>  0 0.59226418E+02</rscale>
<asrwt>0</asrwt>
<pdfrwt beam="1">  1       13 0.10000000E+01 0.59226418E+02</pdfrwt>
<pdfrwt beam="2">  1       22 0.55078551E+00 0.59226418E+02</pdfrwt>
<totfact> 0.59262189E-02</totfact>
</mgrwt>
</event>
<event>
 4    1  0.2437479E+000  0.5175034E+02  0.7957747E-01  0.1436123E+00
         13   -1    0    0    0    0  0.00000000000E+00  0.00000000000E+00  0.99999944182E+02  0.10000000000E+03  0.10566000000E+00 0. -1.
         22   -1    0    0    0    0 -0.00000000000E+00 -0.00000000000E+00 -0.13859837151E+02  0.13859837151E+02  0.00000000000E+00 0.  1.
         13    1    1    2    0    0 -0.13149305569E+02  0.22788645070E+01 -0.28224791304E-01  0.13345764161E+02  0.10566000000E+00 0.  1.
        996    1    1    2    0    0  0.13149305569E+02 -0.22788645070E+01  0.86168331822E+02  0.10051407299E+03  0.50000000000E+02 0.  0.
<mgrwt>
<rscale>  0 0.51750338E+02</rscale>
<asrwt>0</asrwt>
<pdfrwt beam="1">  1       13 0.10000000E+01 0.51750338E+02</pdfrwt>
<pdfrwt beam="2">  1       22 0.13859861E+00 0.51750338E+02</pdfrwt>
<totfact> 0.85665974E-01</totfact>
</mgrwt>
</event>
<event>
 4    1  0.2437479E+000  0.5108603E+02  0.7957747E-01  0.1439570E+00
         13   -1    0    0    0    0  0.00000000000E+00  0.00000000000E+00  0.99999944180E+02  0.10000000000E+03  0.10566000000E+00 0.  1.
         22   -1    0    0    0    0 -0.00000000000E+00 -0.00000000000E+00 -0.59025978133E+02  0.59025978133E+02  0.00000000000E+00 0. -1.
         13    1    1    2    0    0  0.25935571801E+01 -0.10151635455E+02 -0.51944084036E+02  0.52990388483E+02  0.10566000000E+00 0. -1.
        996    1    1    2    0    0 -0.25935571801E+01  0.10151635455E+02  0.92918050082E+02  0.10603558965E+03  0.50000000000E+02 0.  0.
<mgrwt>
<rscale>  0 0.51086028E+02</rscale>
<asrwt>0</asrwt>
<pdfrwt beam="1">  1       13 0.10000000E+01 0.51086028E+02</pdfrwt>
<pdfrwt beam="2">  1       22 0.59025990E+00 0.51086028E+02</pdfrwt>
<totfact> 0.60476536E-02</totfact>
</mgrwt>
</event>
<event>
 4    1  0.2437479E+000  0.5447263E+02  0.7957747E-01  0.1422609E+00
         13   -1    0    0    0    0  0.00000000000E+00  0.00000000000E+00  0.99999944175E+02  0.99999999996E+02  0.10566000000E+00 0. -1.
         22   -1    0    0    0    0 -0.00000000000E+00 -0.00000000000E+00 -0.16059989247E+02  0.16059989247E+02  0.00000000000E+00 0. -1.
         13    1    1    2    0    0 -0.21580290575E+02  0.12482571586E+01  0.42270614764E+02  0.47477185298E+02  0.10566000000E+00 0.  1.
        996    1    1    2    0    0  0.21580290575E+02 -0.12482571586E+01  0.41669340164E+02  0.68582803945E+02  0.50000000000E+02 0.  0.
<mgrwt>
<rscale>  0 0.54472627E+02</rscale>
<asrwt>0</asrwt>
<pdfrwt beam="1">  1       13 0.10000000E+01 0.54472627E+02</pdfrwt>
<pdfrwt beam="2">  1       22 0.16060013E+00 0.54472627E+02</pdfrwt>
<totfact> 0.67415806E-01</totfact>
</mgrwt>
</event>
<event>
 4    1  0.2437479E+000  0.5179903E+02  0.7957747E-01  0.1435873E+00
         13   -1    0    0    0    0  0.00000000000E+00  0.00000000000E+00  0.99999944189E+02  0.10000000001E+03  0.10566000000E+00 0.  1.
         22   -1    0    0    0    0 -0.00000000000E+00 -0.00000000000E+00 -0.11478584898E+02  0.11478584898E+02  0.00000000000E+00 0.  1.
         13    1    1    2    0    0  0.60410630505E+01  0.12109713040E+02  0.79579890179E+01  0.15699692543E+02  0.10566000000E+00 0. -1.
        996    1    1    2    0    0 -0.60410630505E+01 -0.12109713040E+02  0.80563370273E+02  0.95778892364E+02  0.50000000000E+02 0.  0.
<mgrwt>
<rscale>  0 0.51799031E+02</rscale>
<asrwt>0</asrwt>
<pdfrwt beam="1">  1       13 0.10000000E+01 0.51799031E+02</pdfrwt>
<pdfrwt beam="2">  1       22 0.11478610E+00 0.51799031E+02</pdfrwt>
<totfact> 0.11494600E+00</totfact>
</mgrwt>
</event>
<event>
 4    1  0.2437479E+000  0.5120072E+02  0.7957747E-01  0.1438971E+00
         13   -1    0    0    0    0  0.00000000000E+00  0.00000000000E+00  0.99999944184E+02  0.10000000000E+03  0.10566000000E+00 0.  1.
         22   -1    0    0    0    0 -0.00000000000E+00 -0.00000000000E+00 -0.26690457808E+02  0.26690457808E+02  0.00000000000E+00 0. -1.
         13    1    1    2    0    0  0.10524887168E+02  0.32772646420E+01 -0.18519443927E+02  0.21552138660E+02  0.10566000000E+00 0. -1.
        996    1    1    2    0    0 -0.10524887168E+02 -0.32772646420E+01  0.91828930303E+02  0.10513831915E+03  0.50000000000E+02 0.  0.
<mgrwt>
<rscale>  0 0.51200720E+02</rscale>
<asrwt>0</asrwt>
<pdfrwt beam="1">  1       13 0.10000000E+01 0.51200720E+02</pdfrwt>
<pdfrwt beam="2">  1       22 0.26690478E+00 0.51200720E+02</pdfrwt>
<totfact> 0.25889816E-01</totfact>
</mgrwt>
</event>
<event>
 4    1  0.2437479E+000  0.5944252E+02  0.7957747E-01  0.1400186E+00
         13   -1    0    0    0    0  0.00000000000E+00  0.00000000000E+00  0.99999944177E+02  0.99999999998E+02  0.10566000000E+00 0.  1.
         22   -1    0    0    0    0 -0.00000000000E+00 -0.00000000000E+00 -0.51803408047E+02  0.51803408047E+02  0.00000000000E+00 0. -1.
         13    1    1    2    0    0 -0.26805760693E+02  0.17744409252E+02 -0.36302893647E+02  0.48490453878E+02  0.10566000000E+00 0. -1.
        996    1    1    2    0    0  0.26805760693E+02 -0.17744409252E+02  0.84499429777E+02  0.10331295417E+03  0.50000000000E+02 0.  0.
<mgrwt>
<rscale>  0 0.59442517E+02</rscale>
<asrwt>0</asrwt>
<pdfrwt beam="1">  1       13 0.10000000E+01 0.59442517E+02</pdfrwt>
<pdfrwt beam="2">  1       22 0.51803422E+00 0.59442517E+02</pdfrwt>
<totfact> 0.67130684E-02</totfact>
</mgrwt>
</event>
<event>
 4    1  0.2437479E+000  0.5219082E+02  0.7957747E-01  0.1433871E+00
         13   -1    0    0    0    0  0.00000000000E+00  0.00000000000E+00  0.99999944177E+02  0.99999999997E+02  0.10566000000E+00 0.  1.
         22   -1    0    0    0    0 -0.00000000000E+00 -0.00000000000E+00 -0.20873325416E+02  0.20873325416E+02  0.00000000000E+00 0. -1.
         13    1    1    2    0    0  0.98095387341E-01  0.14962369555E+02 -0.97118929245E+01  0.17838558059E+02  0.10566000000E+00 0. -1.
        996    1    1    2    0    0 -0.98095387341E-01 -0.14962369555E+02  0.88838511685E+02  0.10303476735E+03  0.50000000000E+02 0.  0.
<mgrwt>
<rscale>  0 0.52190824E+02</rscale>
<asrwt>0</asrwt>
<pdfrwt beam="1">  1       13 0.10000000E+01 0.52190824E+02</pdfrwt>
<pdfrwt beam="2">  1       22 0.20873348E+00 0.52190824E+02</pdfrwt>
<totfact> 0.41825242E-01</totfact>
</mgrwt>
</event>
<event>
 4    1  0.2437479E+000  0.5525049E+02  0.7957747E-01  0.1418918E+00
         13   -1    0    0    0    0  0.00000000000E+00  0.00000000000E+00  0.99999944180E+02  0.10000000000E+03  0.10566000000E+00 0.  1.
         22   -1    0    0    0    0 -0.00000000000E+00 -0.00000000000E+00 -0.25550322264E+02  0.25550322264E+02  0.00000000000E+00 0. -1.
         13    1    1    2    0    0 -0.17027756567E+02 -0.16207156140E+02 -0.92475892614E+01  0.25261541422E+02  0.10566000000E+00 0. -1.
        996    1    1    2    0    0  0.17027756567E+02  0.16207156140E+02  0.83697211178E+02  0.10028878084E+03  0.50000000000E+02 0.  0.
<mgrwt>
<rscale>  0 0.55250488E+02</rscale>
<asrwt>0</asrwt>
<pdfrwt beam="1">  1       13 0.10000000E+01 0.55250488E+02</pdfrwt>
<pdfrwt beam="2">  1       22 0.25550343E+00 0.55250488E+02</pdfrwt>
<totfact> 0.28380445E-01</totfact>
</mgrwt>
</event>
<event>
 4    1  0.2437479E+000  0.6512104E+02  0.7957747E-01  0.1377517E+00
         13   -1    0    0    0    0  0.00000000000E+00  0.00000000000E+00  0.99999944177E+02  0.99999999997E+02  0.10566000000E+00 0. -1.
         22   -1    0    0    0    0 -0.00000000000E+00 -0.00000000000E+00 -0.38174830043E+02  0.38174830043E+02  0.00000000000E+00 0.  1.
         13    1    1    2    0    0 -0.41637805519E+02 -0.26539320948E+01 -0.82308689108E+01  0.42526563123E+02  0.10566000000E+00 0.  1.
        996    1    1    2    0    0  0.41637805519E+02  0.26539320948E+01  0.70055983044E+02  0.95648266917E+02  0.50000000000E+02 0.  0.
<mgrwt>
<rscale>  0 0.65121043E+02</rscale>
<asrwt>0</asrwt>
<pdfrwt beam="1">  1       13 0.10000000E+01 0.65121043E+02</pdfrwt>
<pdfrwt beam="2">  1       22 0.38174847E+00 0.65121043E+02</pdfrwt>
<totfact> 0.13620280E-01</totfact>
</mgrwt>
</event>
<event>
 4    1  0.2437479E+000  0.5136340E+02  0.7957747E-01  0.1438123E+00
         13   -1    0    0    0    0  0.00000000000E+00  0.00000000000E+00  0.99999944181E+02  0.10000000000E+03  0.10566000000E+00 0.  1.
         22   -1    0    0    0    0 -0.00000000000E+00 -0.00000000000E+00 -0.10264332717E+02  0.10264332717E+02  0.00000000000E+00 0.  1.
         13    1    1    2    0    0  0.70706976317E+01  0.93916882604E+01  0.10087864701E+02  0.15491118476E+02  0.10566000000E+00 0. -1.
        996    1    1    2    0    0 -0.70706976317E+01 -0.93916882604E+01  0.79647746763E+02  0.94773214242E+02  0.50000000000E+02 0.  0.
<mgrwt>
<rscale>  0 0.51363397E+02</rscale>
<asrwt>0</asrwt>
<pdfrwt beam="1">  1       13 0.10000000E+01 0.51363397E+02</pdfrwt>
<pdfrwt beam="2">  1       22 0.10264358E+00 0.51363397E+02</pdfrwt>
<totfact> 0.13552506E+00</totfact>
</mgrwt>
</event>
<event>
 4    1  0.2437479E+000  0.5421844E+02  0.7957747E-01  0.1423832E+00
         13   -1    0    0    0    0  0.00000000000E+00  0.00000000000E+00  0.99999944184E+02  0.10000000000E+03  0.10566000000E+00 0. -1.
         22   -1    0    0    0    0 -0.00000000000E+00 -0.00000000000E+00 -0.14736506813E+02  0.14736506813E+02  0.00000000000E+00 0. -1.
         13    1    1    2    0    0 -0.13893865890E+02  0.15703478113E+02  0.14081605260E+02  0.25257503934E+02  0.10566000000E+00 0.  1.
        996    1    1    2    0    0  0.13893865890E+02 -0.15703478113E+02  0.71181832111E+02  0.89479002883E+02  0.50000000000E+02 0.  0.
<mgrwt>
<rscale>  0 0.54218435E+02</rscale>
<asrwt>0</asrwt>
<pdfrwt beam="1">  1       13 0.10000000E+01 0.54218435E+02</pdfrwt>
<pdfrwt beam="2">  1       22 0.14736531E+00 0.54218435E+02</pdfrwt>
<totfact> 0.77886236E-01</totfact>
</mgrwt>
</event>
<event>
 4    1  0.2437479E+000  0.5104139E+02  0.7957747E-01  0.1439804E+00
         13   -1    0    0    0    0  0.00000000000E+00  0.00000000000E+00  0.99999944169E+02  0.99999999989E+02  0.10566000000E+00 0. -1.
         22   -1    0    0    0    0 -0.00000000000E+00 -0.00000000000E+00 -0.12519983449E+02  0.12519983449E+02  0.00000000000E+00 0. -1.
         13    1    1    2    0    0  0.12527782130E+01 -0.10181040518E+02 -0.10686859816E+01  0.10313888357E+02  0.10566000000E+00 0.  1.
        996    1    1    2    0    0 -0.12527782130E+01  0.10181040518E+02  0.88548646701E+02  0.10220609508E+03  0.50000000000E+02 0.  0.
<mgrwt>
<rscale>  0 0.51041386E+02</rscale>
<asrwt>0</asrwt>
<pdfrwt beam="1">  1       13 0.10000000E+01 0.51041386E+02</pdfrwt>
<pdfrwt beam="2">  1       22 0.12520008E+00 0.51041386E+02</pdfrwt>
<totfact> 0.10046923E+00</totfact>
</mgrwt>
</event>
<event>
 4    1  0.2437479E+000  0.5232227E+02  0.7957747E-01  0.1433204E+00
         13   -1    0    0    0    0  0.00000000000E+00  0.00000000000E+00  0.99999944181E+02  0.10000000000E+03  0.10566000000E+00 0. -1.
         22   -1    0    0    0    0 -0.00000000000E+00 -0.00000000000E+00 -0.33807886230E+02  0.33807886230E+02  0.00000000000E+00 0.  1.
         13    1    1    2    0    0 -0.61820592095E+01  0.14120973124E+02 -0.24592781334E+02  0.29024744544E+02  0.10566000000E+00 0.  1.
        996    1    1    2    0    0  0.61820592095E+01 -0.14120973124E+02  0.90784839285E+02  0.10478314169E+03  0.50000000000E+02 0.  0.
<mgrwt>
<rscale>  0 0.52322268E+02</rscale>
<asrwt>0</asrwt>
<pdfrwt beam="1">  1       13 0.10000000E+01 0.52322268E+02</pdfrwt>
<pdfrwt beam="2">  1       22 0.33807905E+00 0.52322268E+02</pdfrwt>
<totfact> 0.16700243E-01</totfact>
</mgrwt>
</event>
<event>
 4    1  0.2437479E+000  0.5480190E+02  0.7957747E-01  0.1421038E+00
         13   -1    0    0    0    0  0.00000000000E+00  0.00000000000E+00  0.99999944180E+02  0.10000000000E+03  0.10566000000E+00 0. -1.
         22   -1    0    0    0    0 -0.00000000000E+00 -0.00000000000E+00 -0.32133471347E+02  0.32133471347E+02  0.00000000000E+00 0.  1.
         13    1    1    2    0    0 -0.14246236308E+01 -0.22387911559E+02 -0.19017893816E+02  0.29409855248E+02  0.10566000000E+00 0.  1.
        996    1    1    2    0    0  0.14246236308E+01  0.22387911559E+02  0.86884366650E+02  0.10272361610E+03  0.50000000000E+02 0.  0.
<mgrwt>
<rscale>  0 0.54801899E+02</rscale>
<asrwt>0</asrwt>
<pdfrwt beam="1">  1       13 0.10000000E+01 0.54801899E+02</pdfrwt>
<pdfrwt beam="2">  1       22 0.32133490E+00 0.54801899E+02</pdfrwt>
<totfact> 0.18321363E-01</totfact>
</mgrwt>
</event>
<event>
 4    1  0.2437479E+000  0.5398385E+02  0.7957747E-01  0.1424966E+00
         13   -1    0    0    0    0  0.00000000000E+00  0.00000000000E+00  0.99999944181E+02  0.10000000000E+03  0.10566000000E+00 0.  1.
         22   -1    0    0    0    0 -0.00000000000E+00 -0.00000000000E+00 -0.23590383652E+02  0.23590383652E+02  0.00000000000E+00 0. -1.
         13    1    1    2    0    0  0.17197889874E+02  0.10885242215E+02 -0.92359163203E+01  0.22351045356E+02  0.10566000000E+00 0. -1.
        996    1    1    2    0    0 -0.17197889874E+02 -0.10885242215E+02  0.85645476849E+02  0.10123933830E+03  0.50000000000E+02 0.  0.
<mgrwt>
<rscale>  0 0.53983849E+02</rscale>
<asrwt>0</asrwt>
<pdfrwt beam="1">  1       13 0.10000000E+01 0.53983849E+02</pdfrwt>
<pdfrwt beam="2">  1       22 0.23590405E+00 0.53983849E+02</pdfrwt>
<totfact> 0.33138694E-01</totfact>
</mgrwt>
</event>
<event>
 4    1  0.2437479E+000  0.5151458E+02  0.7957747E-01  0.1437339E+00
         13   -1    0    0    0    0  0.00000000000E+00  0.00000000000E+00  0.99999944175E+02  0.99999999995E+02  0.10566000000E+00 0. -1.
         22   -1    0    0    0    0 -0.00000000000E+00 -0.00000000000E+00 -0.23170623661E+02  0.23170623661E+02  0.00000000000E+00 0.  1.
         13    1    1    2    0    0 -0.36639042686E+01 -0.11846002591E+02 -0.14029528817E+02  0.18724070464E+02  0.10566000000E+00 0.  1.
        996    1    1    2    0    0  0.36639042686E+01  0.11846002591E+02  0.90858849331E+02  0.10444655319E+03  0.50000000000E+02 0.  0.
<mgrwt>
<rscale>  0 0.51514580E+02</rscale>
<asrwt>0</asrwt>
<pdfrwt beam="1">  1       13 0.10000000E+01 0.51514580E+02</pdfrwt>
<pdfrwt beam="2">  1       22 0.23170645E+00 0.51514580E+02</pdfrwt>
<totfact> 0.34183102E-01</totfact>
</mgrwt>
</event>
<event>
 4    1  0.2437479E+000  0.5564358E+02  0.7957747E-01  0.1417080E+00
         13   -1    0    0    0    0  0.00000000000E+00  0.00000000000E+00  0.99999944185E+02  0.10000000001E+03  0.10566000000E+00 0. -1.
         22   -1    0    0    0    0 -0.00000000000E+00 -0.00000000000E+00 -0.16978985030E+02  0.16978985030E+02  0.00000000000E+00 0.  1.
         13    1    1    2    0    0 -0.20038064737E+02  0.13952932524E+02  0.13396501658E+02  0.27851136155E+02  0.10566000000E+00 0.  1.
        996    1    1    2    0    0  0.20038064737E+02 -0.13952932524E+02  0.69624457497E+02  0.89127848881E+02  0.50000000000E+02 0.  0.
<mgrwt>
<rscale>  0 0.55643583E+02</rscale>
<asrwt>0</asrwt>
<pdfrwt beam="1">  1       13 0.10000000E+01 0.55643583E+02</pdfrwt>
<pdfrwt beam="2">  1       22 0.16979008E+00 0.55643583E+02</pdfrwt>
<totfact> 0.61346516E-01</totfact>
</mgrwt>
</event>
<event>
 4    1  0.2437479E+000  0.5220096E+02  0.7957747E-01  0.1433819E+00
         13   -1    0    0    0    0  0.00000000000E+00  0.00000000000E+00  0.99999944182E+02  0.10000000000E+03  0.10566000000E+00 0.  1.
         22   -1    0    0    0    0 -0.00000000000E+00 -0.00000000000E+00 -0.11345101416E+02  0.11345101416E+02  0.00000000000E+00 0.  1.
         13    1    1    2    0    0  0.76844559866E+01  0.12879819907E+02  0.23160988590E+02  0.27593172727E+02  0.10566000000E+00 0. -1.
        996    1    1    2    0    0 -0.76844559866E+01 -0.12879819907E+02  0.65493854176E+02  0.83751928691E+02  0.50000000000E+02 0.  0.
<mgrwt>
<rscale>  0 0.52200964E+02</rscale>
<asrwt>0</asrwt>
<pdfrwt beam="1">  1       13 0.10000000E+01 0.52200964E+02</pdfrwt>
<pdfrwt beam="2">  1       22 0.11345126E+00 0.52200964E+02</pdfrwt>
<totfact> 0.11709441E+00</totfact>
</mgrwt>
</event>
<event>
 4    1  0.2437479E+000  0.5385406E+02  0.7957747E-01  0.1425597E+00
         13   -1    0    0    0    0  0.00000000000E+00  0.00000000000E+00  0.99999944175E+02  0.99999999995E+02  0.10566000000E+00 0. -1.
         22   -1    0    0    0    0 -0.00000000000E+00 -0.00000000000E+00 -0.14451654036E+02  0.14451654036E+02  0.00000000000E+00 0.  1.
         13    1    1    2    0    0  0.15738989485E+02 -0.12350888249E+02  0.12120687412E+02  0.23391931471E+02  0.10566000000E+00 0.  1.
        996    1    1    2    0    0 -0.15738989485E+02  0.12350888249E+02  0.73427602727E+02  0.91059722561E+02  0.50000000000E+02 0.  0.
<mgrwt>
<rscale>  0 0.53854064E+02</rscale>
<asrwt>0</asrwt>
<pdfrwt beam="1">  1       13 0.10000000E+01 0.53854064E+02</pdfrwt>
<pdfrwt beam="2">  1       22 0.14451678E+00 0.53854064E+02</pdfrwt>
<totfact> 0.80375456E-01</totfact>
</mgrwt>
</event>
<event>
 4    1  0.2437479E+000  0.6029479E+02  0.7957747E-01  0.1396599E+00
         13   -1    0    0    0    0  0.00000000000E+00  0.00000000000E+00  0.99999944177E+02  0.99999999997E+02  0.10566000000E+00 0. -1.
         22   -1    0    0    0    0 -0.00000000000E+00 -0.00000000000E+00 -0.22567273377E+02  0.22567273377E+02  0.00000000000E+00 0.  1.
         13    1    1    2    0    0 -0.10249210452E+02  0.32100080081E+02  0.19402341031E+02  0.38883459950E+02  0.10566000000E+00 0.  1.
        996    1    1    2    0    0  0.10249210452E+02 -0.32100080081E+02  0.58030329769E+02  0.83683813424E+02  0.50000000000E+02 0.  0.
<mgrwt>
<rscale>  0 0.60294788E+02</rscale>
<asrwt>0</asrwt>
<pdfrwt beam="1">  1       13 0.10000000E+01 0.60294788E+02</pdfrwt>
<pdfrwt beam="2">  1       22 0.22567295E+00 0.60294788E+02</pdfrwt>
<totfact> 0.36474487E-01</totfact>
</mgrwt>
</event>
<event>
 4    1  0.2437479E+000  0.5428312E+02  0.7957747E-01  0.1423520E+00
         13   -1    0    0    0    0  0.00000000000E+00  0.00000000000E+00  0.99999944176E+02  0.99999999997E+02  0.10566000000E+00 0. -1.
         22   -1    0    0    0    0 -0.00000000000E+00 -0.00000000000E+00 -0.45056555265E+02  0.45056555265E+02  0.00000000000E+00 0.  1.
         13    1    1    2    0    0  0.10639263830E+02  0.18260972260E+02 -0.34482936421E+02  0.40444296396E+02  0.10566000000E+00 0.  1.
        996    1    1    2    0    0 -0.10639263830E+02 -0.18260972260E+02  0.89426325332E+02  0.10461225887E+03  0.50000000000E+02 0.  0.
<mgrwt>
<rscale>  0 0.54283119E+02</rscale>
<asrwt>0</asrwt>
<pdfrwt beam="1">  1       13 0.10000000E+01 0.54283119E+02</pdfrwt>
<pdfrwt beam="2">  1       22 0.45056571E+00 0.54283119E+02</pdfrwt>
<totfact> 0.96463800E-02</totfact>
</mgrwt>
</event>
<event>
 4    1  0.2437479E+000  0.5169138E+02  0.7957747E-01  0.1436427E+00
         13   -1    0    0    0    0  0.00000000000E+00  0.00000000000E+00  0.99999944180E+02  0.10000000000E+03  0.10566000000E+00 0.  1.
         22   -1    0    0    0    0 -0.00000000000E+00 -0.00000000000E+00 -0.20131632561E+02  0.20131632561E+02  0.00000000000E+00 0. -1.
         13    1    1    2    0    0  0.64511316107E+01  0.11418481804E+02 -0.99761249378E+01  0.16478260181E+02  0.10566000000E+00 0. -1.
        996    1    1    2    0    0 -0.64511316107E+01 -0.11418481804E+02  0.89844436556E+02  0.10365337238E+03  0.50000000000E+02 0.  0.
<mgrwt>
<rscale>  0 0.51691381E+02</rscale>
<asrwt>0</asrwt>
<pdfrwt beam="1">  1       13 0.10000000E+01 0.51691381E+02</pdfrwt>
<pdfrwt beam="2">  1       22 0.20131655E+00 0.51691381E+02</pdfrwt>
<totfact> 0.44731380E-01</totfact>
</mgrwt>
</event>
<event>
 4    1  0.2437479E+000  0.5143786E+02  0.7957747E-01  0.1437737E+00
         13   -1    0    0    0    0  0.00000000000E+00  0.00000000000E+00  0.99999944180E+02  0.10000000000E+03  0.10566000000E+00 0. -1.
         22   -1    0    0    0    0 -0.00000000000E+00 -0.00000000000E+00 -0.10144357826E+02  0.10144357826E+02  0.00000000000E+00 0. -1.
         13    1    1    2    0    0 -0.11196314033E+02 -0.45272551606E+01  0.13948296383E+02  0.18450464038E+02  0.10566000000E+00 0.  1.
        996    1    1    2    0    0  0.11196314033E+02  0.45272551606E+01  0.75907289971E+02  0.91693893788E+02  0.50000000000E+02 0.  0.
<mgrwt>
<rscale>  0 0.51437860E+02</rscale>
<asrwt>0</asrwt>
<pdfrwt beam="1">  1       13 0.10000000E+01 0.51437860E+02</pdfrwt>
<pdfrwt beam="2">  1       22 0.10144383E+00 0.51437860E+02</pdfrwt>
<totfact> 0.13788981E+00</totfact>
</mgrwt>
</event>
<event>
 4    1  0.2437479E+000  0.5556192E+02  0.7957747E-01  0.1417460E+00
         13   -1    0    0    0    0  0.00000000000E+00  0.00000000000E+00  0.99999944180E+02  0.10000000000E+03  0.10566000000E+00 0. -1.
         22   -1    0    0    0    0 -0.00000000000E+00 -0.00000000000E+00 -0.16137427119E+02  0.16137427119E+02  0.00000000000E+00 0.  1.
         13    1    1    2    0    0  0.24203644159E+02 -0.11447447977E+01  0.19445243580E+02  0.31068561169E+02  0.10566000000E+00 0.  1.
        996    1    1    2    0    0 -0.24203644159E+02  0.11447447977E+01  0.64417273481E+02  0.85068865949E+02  0.50000000000E+02 0.  0.
<mgrwt>
<rscale>  0 0.55561919E+02</rscale>
<asrwt>0</asrwt>
<pdfrwt beam="1">  1       13 0.10000000E+01 0.55561919E+02</pdfrwt>
<pdfrwt beam="2">  1       22 0.16137451E+00 0.55561919E+02</pdfrwt>
<totfact> 0.66997500E-01</totfact>
</mgrwt>
</event>
<event>
 4    1  0.2437479E+000  0.8098010E+02  0.7957747E-01  0.1326293E+00
         13   -1    0    0    0    0  0.00000000000E+00  0.00000000000E+00  0.99999944173E+02  0.99999999994E+02  0.10566000000E+00 0.  1.
         22   -1    0    0    0    0 -0.00000000000E+00 -0.00000000000E+00 -0.74936452212E+02  0.74936452212E+02  0.00000000000E+00 0. -1.
         13    1    1    2    0    0 -0.62622717197E+02  0.11669269710E+02 -0.36313995897E+02  0.73324579963E+02  0.10566000000E+00 0. -1.
        996    1    1    2    0    0  0.62622717197E+02 -0.11669269710E+02  0.61377487859E+02  0.10161187224E+03  0.50000000000E+02 0.  0.
<mgrwt>
<rscale>  0 0.80980100E+02</rscale>
<asrwt>0</asrwt>
<pdfrwt beam="1">  1       13 0.10000000E+01 0.80980100E+02</pdfrwt>
<pdfrwt beam="2">  1       22 0.74936459E+00 0.80980100E+02</pdfrwt>
<totfact> 0.49285071E-02</totfact>
</mgrwt>
</event>
<event>
 4    1  0.2437479E+000  0.5128926E+02  0.7957747E-01  0.1438509E+00
         13   -1    0    0    0    0  0.00000000000E+00  0.00000000000E+00  0.99999944186E+02  0.10000000001E+03  0.10566000000E+00 0.  1.
         22   -1    0    0    0    0 -0.00000000000E+00 -0.00000000000E+00 -0.18340251643E+02  0.18340251643E+02  0.00000000000E+00 0. -1.
         13    1    1    2    0    0 -0.10820831726E+02  0.36738976774E+01 -0.87516536756E+01  0.14394114404E+02  0.10566000000E+00 0. -1.
        996    1    1    2    0    0  0.10820831726E+02 -0.36738976774E+01  0.90411346218E+02  0.10394613725E+03  0.50000000000E+02 0.  0.
<mgrwt>
<rscale>  0 0.51289257E+02</rscale>
<asrwt>0</asrwt>
<pdfrwt beam="1">  1       13 0.10000000E+01 0.51289257E+02</pdfrwt>
<pdfrwt beam="2">  1       22 0.18340274E+00 0.51289257E+02</pdfrwt>
<totfact> 0.53048696E-01</totfact>
</mgrwt>
</event>
<event>
 4    1  0.2437479E+000  0.5763545E+02  0.7957747E-01  0.1408031E+00
         13   -1    0    0    0    0  0.00000000000E+00  0.00000000000E+00  0.99999944178E+02  0.99999999998E+02  0.10566000000E+00 0. -1.
         22   -1    0    0    0    0 -0.00000000000E+00 -0.00000000000E+00 -0.28273648480E+02  0.28273648480E+02  0.00000000000E+00 0.  1.
         13    1    1    2    0    0 -0.14419563299E+02 -0.24777439959E+02 -0.81228418576E+01  0.29796594781E+02  0.10566000000E+00 0.  1.
        996    1    1    2    0    0  0.14419563299E+02  0.24777439959E+02  0.79849137555E+02  0.98477053697E+02  0.50000000000E+02 0.  0.
<mgrwt>
<rscale>  0 0.57635452E+02</rscale>
<asrwt>0</asrwt>
<pdfrwt beam="1">  1       13 0.10000000E+01 0.57635452E+02</pdfrwt>
<pdfrwt beam="2">  1       22 0.28273669E+00 0.57635452E+02</pdfrwt>
<totfact> 0.23346186E-01</totfact>
</mgrwt>
</event>
<event>
 4    1  0.2437479E+000  0.6197175E+02  0.7957747E-01  0.1389739E+00
         13   -1    0    0    0    0  0.00000000000E+00  0.00000000000E+00  0.99999944182E+02  0.10000000000E+03  0.10566000000E+00 0.  1.
         22   -1    0    0    0    0 -0.00000000000E+00 -0.00000000000E+00 -0.44055808195E+02  0.44055808195E+02  0.00000000000E+00 0.  1.
         13    1    1    2    0    0  0.34288106399E+02 -0.12838341299E+02 -0.23344383871E+02  0.43421983719E+02  0.10566000000E+00 0. -1.
        996    1    1    2    0    0 -0.34288106399E+02  0.12838341299E+02  0.79288519858E+02  0.10063382448E+03  0.50000000000E+02 0.  0.
<mgrwt>
<rscale>  0 0.61971746E+02</rscale>
<asrwt>0</asrwt>
<pdfrwt beam="1">  1       13 0.10000000E+01 0.61971746E+02</pdfrwt>
<pdfrwt beam="2">  1       22 0.44055824E+00 0.61971746E+02</pdfrwt>
<totfact> 0.10200662E-01</totfact>
</mgrwt>
</event>
<event>
 4    1  0.2437479E+000  0.5122641E+02  0.7957747E-01  0.1438837E+00
         13   -1    0    0    0    0  0.00000000000E+00  0.00000000000E+00  0.99999944168E+02  0.99999999988E+02  0.10566000000E+00 0.  1.
         22   -1    0    0    0    0 -0.00000000000E+00 -0.00000000000E+00 -0.25883830574E+02  0.25883830574E+02  0.00000000000E+00 0.  1.
         13    1    1    2    0    0 -0.25611615480E+01 -0.10843690946E+02 -0.17600493758E+02  0.20831075977E+02  0.10566000000E+00 0. -1.
        996    1    1    2    0    0  0.25611615480E+01  0.10843690946E+02  0.91716607352E+02  0.10505275459E+03  0.50000000000E+02 0.  0.
<mgrwt>
<rscale>  0 0.51226411E+02</rscale>
<asrwt>0</asrwt>
<pdfrwt beam="1">  1       13 0.10000000E+01 0.51226411E+02</pdfrwt>
<pdfrwt beam="2">  1       22 0.25883851E+00 0.51226411E+02</pdfrwt>
<totfact> 0.27498522E-01</totfact>
</mgrwt>
</event>
<event>
 4    1  0.2437479E+000  0.5174870E+02  0.7957747E-01  0.1436131E+00
         13   -1    0    0    0    0  0.00000000000E+00  0.00000000000E+00  0.99999944177E+02  0.99999999997E+02  0.10566000000E+00 0.  1.
         22   -1    0    0    0    0 -0.00000000000E+00 -0.00000000000E+00 -0.20148186192E+02  0.20148186192E+02  0.00000000000E+00 0. -1.
         13    1    1    2    0    0  0.13335140858E+02 -0.31949257797E+00 -0.98553815110E+01  0.16585167047E+02  0.10566000000E+00 0. -1.
        996    1    1    2    0    0 -0.13335140858E+02  0.31949257797E+00  0.89707139496E+02  0.10356301914E+03  0.50000000000E+02 0.  0.
<mgrwt>
<rscale>  0 0.51748701E+02</rscale>
<asrwt>0</asrwt>
<pdfrwt beam="1">  1       13 0.10000000E+01 0.51748701E+02</pdfrwt>
<pdfrwt beam="2">  1       22 0.20148208E+00 0.51748701E+02</pdfrwt>
<totfact> 0.44667295E-01</totfact>
</mgrwt>
</event>
<event>
 4    1  0.2437479E+000  0.5213617E+02  0.7957747E-01  0.1434149E+00
         13   -1    0    0    0    0  0.00000000000E+00  0.00000000000E+00  0.99999944176E+02  0.99999999996E+02  0.10566000000E+00 0. -1.
         22   -1    0    0    0    0 -0.00000000000E+00 -0.00000000000E+00 -0.14862340847E+02  0.14862340847E+02  0.00000000000E+00 0.  1.
         13    1    1    2    0    0  0.98583399977E+01  0.10999688041E+02 -0.29910556275E+00  0.14774323426E+02  0.10566000000E+00 0.  1.
        996    1    1    2    0    0 -0.98583399977E+01 -0.10999688041E+02  0.85436708891E+02  0.10008801742E+03  0.50000000000E+02 0.  0.
<mgrwt>
<rscale>  0 0.52136168E+02</rscale>
<asrwt>0</asrwt>
<pdfrwt beam="1">  1       13 0.10000000E+01 0.52136168E+02</pdfrwt>
<pdfrwt beam="2">  1       22 0.14862365E+00 0.52136168E+02</pdfrwt>
<totfact> 0.76476387E-01</totfact>
</mgrwt>
</event>
<event>
 4    1  0.2437479E+000  0.5146133E+02  0.7957747E-01  0.1437615E+00
         13   -1    0    0    0    0  0.00000000000E+00  0.00000000000E+00  0.99999944177E+02  0.99999999997E+02  0.10566000000E+00 0. -1.
         22   -1    0    0    0    0 -0.00000000000E+00 -0.00000000000E+00 -0.10244414025E+02  0.10244414025E+02  0.00000000000E+00 0. -1.
         13    1    1    2    0    0 -0.11972927722E+02  0.22174856578E+01  0.22205876638E+02  0.25325488390E+02  0.10566000000E+00 0.  1.
        996    1    1    2    0    0  0.11972927722E+02 -0.22174856578E+01  0.67549653514E+02  0.84918925633E+02  0.50000000000E+02 0.  0.
<mgrwt>
<rscale>  0 0.51461328E+02</rscale>
<asrwt>0</asrwt>
<pdfrwt beam="1">  1       13 0.10000000E+01 0.51461328E+02</pdfrwt>
<pdfrwt beam="2">  1       22 0.10244439E+00 0.51461328E+02</pdfrwt>
<totfact> 0.13594139E+00</totfact>
</mgrwt>
</event>
<event>
 4    1  0.2437479E+000  0.7588834E+02  0.7957747E-01  0.1341142E+00
         13   -1    0    0    0    0  0.00000000000E+00  0.00000000000E+00  0.99999944186E+02  0.10000000001E+03  0.10566000000E+00 0.  1.
         22   -1    0    0    0    0 -0.00000000000E+00 -0.00000000000E+00 -0.70040958216E+02  0.70040958216E+02  0.00000000000E+00 0. -1.
         13    1    1    2    0    0  0.12086795860E+02  0.55793805854E+02 -0.37665466782E+02  0.68393990655E+02  0.10566000000E+00 0. -1.
        996    1    1    2    0    0 -0.12086795860E+02 -0.55793805854E+02  0.67624452752E+02  0.10164696757E+03  0.50000000000E+02 0.  0.
<mgrwt>
<rscale>  0 0.75888335E+02</rscale>
<asrwt>0</asrwt>
<pdfrwt beam="1">  1       13 0.10000000E+01 0.75888335E+02</pdfrwt>
<pdfrwt beam="2">  1       22 0.70040967E+00 0.75888335E+02</pdfrwt>
<totfact> 0.74415927E-02</totfact>
</mgrwt>
</event>
<event>
 4    1  0.2437479E+000  0.5220598E+02  0.7957747E-01  0.1433794E+00
         13   -1    0    0    0    0  0.00000000000E+00  0.00000000000E+00  0.99999944184E+02  0.10000000000E+03  0.10566000000E+00 0.  1.
         22   -1    0    0    0    0 -0.00000000000E+00 -0.00000000000E+00 -0.12567968936E+02  0.12567968936E+02  0.00000000000E+00 0. -1.
         13    1    1    2    0    0  0.80232785480E+00  0.14994019322E+02  0.37215696347E+02  0.40130830592E+02  0.10566000000E+00 0. -1.
        996    1    1    2    0    0 -0.80232785480E+00 -0.14994019322E+02  0.50216278901E+02  0.72437138348E+02  0.50000000000E+02 0.  0.
<mgrwt>
<rscale>  0 0.52205980E+02</rscale>
<asrwt>0</asrwt>
<pdfrwt beam="1">  1       13 0.10000000E+01 0.52205980E+02</pdfrwt>
<pdfrwt beam="2">  1       22 0.12567993E+00 0.52205980E+02</pdfrwt>
<totfact> 0.10013106E+00</totfact>
</mgrwt>
</event>
<event>
 4    1  0.2437479E+000  0.5125805E+02  0.7957747E-01  0.1438672E+00
         13   -1    0    0    0    0  0.00000000000E+00  0.00000000000E+00  0.99999944179E+02  0.99999999999E+02  0.10566000000E+00 0.  1.
         22   -1    0    0    0    0 -0.00000000000E+00 -0.00000000000E+00 -0.12272182171E+02  0.12272182171E+02  0.00000000000E+00 0.  1.
         13    1    1    2    0    0  0.91748041876E+01 -0.65734825616E+01  0.74726409343E+00  0.11311820036E+02  0.10566000000E+00 0. -1.
        996    1    1    2    0    0 -0.91748041876E+01  0.65734825616E+01  0.86980497914E+02  0.10096036213E+03  0.50000000000E+02 0.  0.
<mgrwt>
<rscale>  0 0.51258050E+02</rscale>
<asrwt>0</asrwt>
<pdfrwt beam="1">  1       13 0.10000000E+01 0.51258050E+02</pdfrwt>
<pdfrwt beam="2">  1       22 0.12272207E+00 0.51258050E+02</pdfrwt>
<totfact> 0.10367800E+00</totfact>
</mgrwt>
</event>
<event>
 4    1  0.2437479E+000  0.5337559E+02  0.7957747E-01  0.1427941E+00
         13   -1    0    0    0    0  0.00000000000E+00  0.00000000000E+00  0.99999944174E+02  0.99999999994E+02  0.10566000000E+00 0.  1.
         22   -1    0    0    0    0 -0.00000000000E+00 -0.00000000000E+00 -0.14593829581E+02  0.14593829581E+02  0.00000000000E+00 0.  1.
         13    1    1    2    0    0 -0.18605516483E+02 -0.16697752148E+01  0.74403831885E+01  0.20107805919E+02  0.10566000000E+00 0. -1.
        996    1    1    2    0    0  0.18605516483E+02  0.16697752148E+01  0.77965731404E+02  0.94486023656E+02  0.50000000000E+02 0.  0.
<mgrwt>
<rscale>  0 0.53375588E+02</rscale>
<asrwt>0</asrwt>
<pdfrwt beam="1">  1       13 0.10000000E+01 0.53375588E+02</pdfrwt>
<pdfrwt beam="2">  1       22 0.14593853E+00 0.53375588E+02</pdfrwt>
<totfact> 0.79015469E-01</totfact>
</mgrwt>
</event>
<event>
 4    1  0.2437479E+000  0.5239917E+02  0.7957747E-01  0.1432815E+00
         13   -1    0    0    0    0  0.00000000000E+00  0.00000000000E+00  0.99999944184E+02  0.10000000000E+03  0.10566000000E+00 0.  1.
         22   -1    0    0    0    0 -0.00000000000E+00 -0.00000000000E+00 -0.29520731272E+02  0.29520731272E+02  0.00000000000E+00 0. -1.
         13    1    1    2    0    0  0.12462536163E+01  0.15624348151E+02 -0.19729363413E+02  0.25197863956E+02  0.10566000000E+00 0. -1.
        996    1    1    2    0    0 -0.12462536163E+01 -0.15624348151E+02  0.90208576326E+02  0.10432286732E+03  0.50000000000E+02 0.  0.
<mgrwt>
<rscale>  0 0.52399174E+02</rscale>
<asrwt>0</asrwt>
<pdfrwt beam="1">  1       13 0.10000000E+01 0.52399174E+02</pdfrwt>
<pdfrwt beam="2">  1       22 0.29520751E+00 0.52399174E+02</pdfrwt>
<totfact> 0.21350611E-01</totfact>
</mgrwt>
</event>
<event>
 4    1  0.2437479E+000  0.5218603E+02  0.7957747E-01  0.1433895E+00
         13   -1    0    0    0    0  0.00000000000E+00  0.00000000000E+00  0.99999944178E+02  0.99999999998E+02  0.10566000000E+00 0. -1.
         22   -1    0    0    0    0 -0.00000000000E+00 -0.00000000000E+00 -0.11563681245E+02  0.11563681245E+02  0.00000000000E+00 0. -1.
         13    1    1    2    0    0  0.14945611364E+02 -0.10158748116E+00  0.12840818050E+02  0.19704806299E+02  0.10566000000E+00 0.  1.
        996    1    1    2    0    0 -0.14945611364E+02  0.10158748116E+00  0.75595444882E+02  0.91858874944E+02  0.50000000000E+02 0.  0.
<mgrwt>
<rscale>  0 0.52186029E+02</rscale>
<asrwt>0</asrwt>
<pdfrwt beam="1">  1       13 0.10000000E+01 0.52186029E+02</pdfrwt>
<pdfrwt beam="2">  1       22 0.11563706E+00 0.52186029E+02</pdfrwt>
<totfact> 0.11377165E+00</totfact>
</mgrwt>
</event>
<event>
 4    1  0.2437479E+000  0.6296118E+02  0.7957747E-01  0.1385809E+00
         13   -1    0    0    0    0  0.00000000000E+00  0.00000000000E+00  0.99999944174E+02  0.99999999994E+02  0.10566000000E+00 0.  1.
         22   -1    0    0    0    0 -0.00000000000E+00 -0.00000000000E+00 -0.26732083849E+02  0.26732083849E+02  0.00000000000E+00 0. -1.
         13    1    1    2    0    0  0.30487484066E-01  0.38263677673E+02  0.15497386493E+02  0.41283048709E+02  0.10566000000E+00 0. -1.
        996    1    1    2    0    0 -0.30487484066E-01 -0.38263677673E+02  0.57770473832E+02  0.85449035134E+02  0.50000000000E+02 0.  0.
<mgrwt>
<rscale>  0 0.62961178E+02</rscale>
<asrwt>0</asrwt>
<pdfrwt beam="1">  1       13 0.10000000E+01 0.62961178E+02</pdfrwt>
<pdfrwt beam="2">  1       22 0.26732104E+00 0.62961178E+02</pdfrwt>
<totfact> 0.26224418E-01</totfact>
</mgrwt>
</event>
<event>
 4    1  0.2437479E+000  0.5634561E+02  0.7957747E-01  0.1413841E+00
         13   -1    0    0    0    0  0.00000000000E+00  0.00000000000E+00  0.99999944177E+02  0.99999999997E+02  0.10566000000E+00 0.  1.
         22   -1    0    0    0    0 -0.00000000000E+00 -0.00000000000E+00 -0.19291952186E+02  0.19291952186E+02  0.00000000000E+00 0.  1.
         13    1    1    2    0    0 -0.25097378425E+02  0.67043917675E+01  0.77501028445E+01  0.27109085763E+02  0.10566000000E+00 0. -1.
        996    1    1    2    0    0  0.25097378425E+02 -0.67043917675E+01  0.72957889146E+02  0.92182866420E+02  0.50000000000E+02 0.  0.
<mgrwt>
<rscale>  0 0.56345606E+02</rscale>
<asrwt>0</asrwt>
<pdfrwt beam="1">  1       13 0.10000000E+01 0.56345606E+02</pdfrwt>
<pdfrwt beam="2">  1       22 0.19291975E+00 0.56345606E+02</pdfrwt>
<totfact> 0.48807761E-01</totfact>
</mgrwt>
</event>
<event>
 4    1  0.2437479E+000  0.5189190E+02  0.7957747E-01  0.1435396E+00
         13   -1    0    0    0    0  0.00000000000E+00  0.00000000000E+00  0.99999944186E+02  0.10000000001E+03  0.10566000000E+00 0. -1.
         22   -1    0    0    0    0 -0.00000000000E+00 -0.00000000000E+00 -0.23278796462E+02  0.23278796462E+02  0.00000000000E+00 0.  1.
         13    1    1    2    0    0  0.18196157926E+01  0.13764400082E+02 -0.13393231385E+02  0.19291436499E+02  0.10566000000E+00 0.  1.
        996    1    1    2    0    0 -0.18196157926E+01 -0.13764400082E+02  0.90114379108E+02  0.10398735997E+03  0.50000000000E+02 0.  0.
<mgrwt>
<rscale>  0 0.51891904E+02</rscale>
<asrwt>0</asrwt>
<pdfrwt beam="1">  1       13 0.10000000E+01 0.51891904E+02</pdfrwt>
<pdfrwt beam="2">  1       22 0.23278818E+00 0.51891904E+02</pdfrwt>
<totfact> 0.33895671E-01</totfact>
</mgrwt>
</event>
<event>
 4    1  0.2437479E+000  0.5213205E+02  0.7957747E-01  0.1434170E+00
         13   -1    0    0    0    0  0.00000000000E+00  0.00000000000E+00  0.99999944175E+02  0.99999999996E+02  0.10566000000E+00 0.  1.
         22   -1    0    0    0    0 -0.00000000000E+00 -0.00000000000E+00 -0.29604862701E+02  0.29604862701E+02  0.00000000000E+00 0. -1.
         13    1    1    2    0    0  0.65378533974E+01 -0.13229018483E+02 -0.20238853556E+02  0.25047411331E+02  0.10566000000E+00 0. -1.
        996    1    1    2    0    0 -0.65378533974E+01  0.13229018483E+02  0.90633935030E+02  0.10455745137E+03  0.50000000000E+02 0.  0.
<mgrwt>
<rscale>  0 0.52132048E+02</rscale>
<asrwt>0</asrwt>
<pdfrwt beam="1">  1       13 0.10000000E+01 0.52132048E+02</pdfrwt>
<pdfrwt beam="2">  1       22 0.29604882E+00 0.52132048E+02</pdfrwt>
<totfact> 0.21228709E-01</totfact>
</mgrwt>
</event>
<event>
 4    1  0.2437479E+000  0.5311278E+02  0.7957747E-01  0.1429240E+00
         13   -1    0    0    0    0  0.00000000000E+00  0.00000000000E+00  0.99999944182E+02  0.10000000000E+03  0.10566000000E+00 0. -1.
         22   -1    0    0    0    0 -0.00000000000E+00 -0.00000000000E+00 -0.46887444778E+02  0.46887444778E+02  0.00000000000E+00 0.  1.
         13    1    1    2    0    0 -0.14737871052E+02  0.10186393912E+02 -0.37667713639E+02  0.41711332739E+02  0.10566000000E+00 0.  1.
        996    1    1    2    0    0  0.14737871052E+02 -0.10186393912E+02  0.90780213043E+02  0.10517611204E+03  0.50000000000E+02 0.  0.
<mgrwt>
<rscale>  0 0.53112781E+02</rscale>
<asrwt>0</asrwt>
<pdfrwt beam="1">  1       13 0.10000000E+01 0.53112781E+02</pdfrwt>
<pdfrwt beam="2">  1       22 0.46887460E+00 0.53112781E+02</pdfrwt>
<totfact> 0.87462578E-02</totfact>
</mgrwt>
</event>
<event>
 4    1  0.2437479E+000  0.5113819E+02  0.7957747E-01  0.1439297E+00
         13   -1    0    0    0    0  0.00000000000E+00  0.00000000000E+00  0.99999944178E+02  0.99999999998E+02  0.10566000000E+00 0.  1.
         22   -1    0    0    0    0 -0.00000000000E+00 -0.00000000000E+00 -0.95974418551E+01  0.95974418551E+01  0.00000000000E+00 0.  1.
         13    1    1    2    0    0 -0.68480942625E+01  0.82593937617E+01  0.13506052474E+02  0.17249307169E+02  0.10566000000E+00 0. -1.
        996    1    1    2    0    0  0.68480942625E+01 -0.82593937617E+01  0.76896449849E+02  0.92348134684E+02  0.50000000000E+02 0.  0.
<mgrwt>
<rscale>  0 0.51138185E+02</rscale>
<asrwt>0</asrwt>
<pdfrwt beam="1">  1       13 0.10000000E+01 0.51138185E+02</pdfrwt>
<pdfrwt beam="2">  1       22 0.95974671E-01 0.51138185E+02</pdfrwt>
<totfact> 0.14926113E+00</totfact>
</mgrwt>
</event>
<event>
 4    1  0.2437479E+000  0.5868710E+02  0.7957747E-01  0.1403425E+00
         13   -1    0    0    0    0  0.00000000000E+00  0.00000000000E+00  0.99999944184E+02  0.10000000000E+03  0.10566000000E+00 0. -1.
         22   -1    0    0    0    0 -0.00000000000E+00 -0.00000000000E+00 -0.47482538277E+02  0.47482538277E+02  0.00000000000E+00 0.  1.
         13    1    1    2    0    0  0.30673616838E+02 -0.18179827388E+01 -0.32144683879E+02  0.44468727178E+02  0.10566000000E+00 0.  1.
        996    1    1    2    0    0 -0.30673616838E+02  0.18179827388E+01  0.84662089785E+02  0.10301381110E+03  0.50000000000E+02 0.  0.
<mgrwt>
<rscale>  0 0.58687101E+02</rscale>
<asrwt>0</asrwt>
<pdfrwt beam="1">  1       13 0.10000000E+01 0.58687101E+02</pdfrwt>
<pdfrwt beam="2">  1       22 0.47482553E+00 0.58687101E+02</pdfrwt>
<totfact> 0.84900416E-02</totfact>
</mgrwt>
</event>
<event>
 4    1  0.2437479E+000  0.5113611E+02  0.7957747E-01  0.1439308E+00
         13   -1    0    0    0    0  0.00000000000E+00  0.00000000000E+00  0.99999944180E+02  0.10000000000E+03  0.10566000000E+00 0. -1.
         22   -1    0    0    0    0 -0.00000000000E+00 -0.00000000000E+00 -0.21444210105E+02  0.21444210105E+02  0.00000000000E+00 0.  1.
         13    1    1    2    0    0 -0.10665789121E+02  0.10687275880E+01 -0.12833315548E+02  0.16721434992E+02  0.10566000000E+00 0.  1.
        996    1    1    2    0    0  0.10665789121E+02 -0.10687275880E+01  0.91389049623E+02  0.10472277511E+03  0.50000000000E+02 0.  0.
<mgrwt>
<rscale>  0 0.51136105E+02</rscale>
<asrwt>0</asrwt>
<pdfrwt beam="1">  1       13 0.10000000E+01 0.51136105E+02</pdfrwt>
<pdfrwt beam="2">  1       22 0.21444232E+00 0.51136105E+02</pdfrwt>
<totfact> 0.39661208E-01</totfact>
</mgrwt>
</event>
<event>
 4    1  0.2437479E+000  0.6884674E+02  0.7957747E-01  0.1364059E+00
         13   -1    0    0    0    0  0.00000000000E+00  0.00000000000E+00  0.99999944179E+02  0.99999999999E+02  0.10566000000E+00 0. -1.
         22   -1    0    0    0    0 -0.00000000000E+00 -0.00000000000E+00 -0.52560140593E+02  0.52560140593E+02  0.00000000000E+00 0.  1.
         13    1    1    2    0    0 -0.80809966017E+01 -0.46632293861E+02 -0.24238974737E+02  0.53173418145E+02  0.10566000000E+00 0.  1.
        996    1    1    2    0    0  0.80809966017E+01  0.46632293861E+02  0.71678778323E+02  0.99386722447E+02  0.50000000000E+02 0.  0.
<mgrwt>
<rscale>  0 0.68846738E+02</rscale>
<asrwt>0</asrwt>
<pdfrwt beam="1">  1       13 0.10000000E+01 0.68846738E+02</pdfrwt>
<pdfrwt beam="2">  1       22 0.52560154E+00 0.68846738E+02</pdfrwt>
<totfact> 0.64844071E-02</totfact>
</mgrwt>
</event>
<event>
 4    1  0.2437479E+000  0.5225326E+02  0.7957747E-01  0.1433554E+00
         13   -1    0    0    0    0  0.00000000000E+00  0.00000000000E+00  0.99999944177E+02  0.99999999998E+02  0.10566000000E+00 0. -1.
         22   -1    0    0    0    0 -0.00000000000E+00 -0.00000000000E+00 -0.11373099772E+02  0.11373099772E+02  0.00000000000E+00 0. -1.
         13    1    1    2    0    0  0.47062123728E+01 -0.14431043137E+02  0.18965818488E+02  0.24292321335E+02  0.10566000000E+00 0.  1.
        996    1    1    2    0    0 -0.47062123728E+01  0.14431043137E+02  0.69661025917E+02  0.87080778434E+02  0.50000000000E+02 0.  0.
<mgrwt>
<rscale>  0 0.52253262E+02</rscale>
<asrwt>0</asrwt>
<pdfrwt beam="1">  1       13 0.10000000E+01 0.52253262E+02</pdfrwt>
<pdfrwt beam="2">  1       22 0.11373125E+00 0.52253262E+02</pdfrwt>
<totfact> 0.11667533E+00</totfact>
</mgrwt>
</event>
<event>
 4    1  0.2437479E+000  0.5229180E+02  0.7957747E-01  0.1433358E+00
         13   -1    0    0    0    0  0.00000000000E+00  0.00000000000E+00  0.99999944176E+02  0.99999999996E+02  0.10566000000E+00 0. -1.
         22   -1    0    0    0    0 -0.00000000000E+00 -0.00000000000E+00 -0.11470410329E+02  0.11470410329E+02  0.00000000000E+00 0.  1.
         13    1    1    2    0    0 -0.60150236102E+01  0.14080201548E+02  0.17224380517E+02  0.23046106675E+02  0.10566000000E+00 0.  1.
        996    1    1    2    0    0  0.60150236102E+01 -0.14080201548E+02  0.71305153329E+02  0.88424303650E+02  0.50000000000E+02 0.  0.
<mgrwt>
<rscale>  0 0.52291802E+02</rscale>
<asrwt>0</asrwt>
<pdfrwt beam="1">  1       13 0.10000000E+01 0.52291802E+02</pdfrwt>
<pdfrwt beam="2">  1       22 0.11470435E+00 0.52291802E+02</pdfrwt>
<totfact> 0.11519845E+00</totfact>
</mgrwt>
</event>
<event>
 4    1  0.2437479E+000  0.5199634E+02  0.7957747E-01  0.1434862E+00
         13   -1    0    0    0    0  0.00000000000E+00  0.00000000000E+00  0.99999944181E+02  0.10000000000E+03  0.10566000000E+00 0.  1.
         22   -1    0    0    0    0 -0.00000000000E+00 -0.00000000000E+00 -0.16364781271E+02  0.16364781271E+02  0.00000000000E+00 0.  1.
         13    1    1    2    0    0  0.46442644523E+01 -0.13492596213E+02 -0.36830703197E+01  0.14737554610E+02  0.10566000000E+00 0. -1.
        996    1    1    2    0    0 -0.46442644523E+01  0.13492596213E+02  0.87318233230E+02  0.10162722666E+03  0.50000000000E+02 0.  0.
<mgrwt>
<rscale>  0 0.51996340E+02</rscale>
<asrwt>0</asrwt>
<pdfrwt beam="1">  1       13 0.10000000E+01 0.51996340E+02</pdfrwt>
<pdfrwt beam="2">  1       22 0.16364805E+00 0.51996340E+02</pdfrwt>
<totfact> 0.64959971E-01</totfact>
</mgrwt>
</event>
<event>
 4    1  0.2437479E+000  0.5400834E+02  0.7957747E-01  0.1424848E+00
         13   -1    0    0    0    0  0.00000000000E+00  0.00000000000E+00  0.99999944186E+02  0.10000000001E+03  0.10566000000E+00 0.  1.
         22   -1    0    0    0    0 -0.00000000000E+00 -0.00000000000E+00 -0.18155284701E+02  0.18155284701E+02  0.00000000000E+00 0.  1.
         13    1    1    2    0    0 -0.12514140235E+02  0.16133712414E+02  0.38995987370E+00  0.20422135413E+02  0.10566000000E+00 0. -1.
        996    1    1    2    0    0  0.12514140235E+02 -0.16133712414E+02  0.81454699612E+02  0.97733149294E+02  0.50000000000E+02 0.  0.
<mgrwt>
<rscale>  0 0.54008336E+02</rscale>
<asrwt>0</asrwt>
<pdfrwt beam="1">  1       13 0.10000000E+01 0.54008336E+02</pdfrwt>
<pdfrwt beam="2">  1       22 0.18155308E+00 0.54008336E+02</pdfrwt>
<totfact> 0.54299977E-01</totfact>
</mgrwt>
</event>
<event>
 4    1  0.2437479E+000  0.5399372E+02  0.7957747E-01  0.1424918E+00
         13   -1    0    0    0    0  0.00000000000E+00  0.00000000000E+00  0.99999944176E+02  0.99999999996E+02  0.10566000000E+00 0.  1.
         22   -1    0    0    0    0 -0.00000000000E+00 -0.00000000000E+00 -0.14156926407E+02  0.14156926407E+02  0.00000000000E+00 0.  1.
         13    1    1    2    0    0 -0.51547988525E+01  0.19716739268E+02  0.31750868016E+02  0.37728643527E+02  0.10566000000E+00 0. -1.
        996    1    1    2    0    0  0.51547988525E+01 -0.19716739268E+02  0.54092149753E+02  0.76428282877E+02  0.50000000000E+02 0.  0.
<mgrwt>
<rscale>  0 0.53993720E+02</rscale>
<asrwt>0</asrwt>
<pdfrwt beam="1">  1       13 0.10000000E+01 0.53993720E+02</pdfrwt>
<pdfrwt beam="2">  1       22 0.14156950E+00 0.53993720E+02</pdfrwt>
<totfact> 0.83153909E-01</totfact>
</mgrwt>
</event>
<event>
 4    1  0.2437479E+000  0.5256052E+02  0.7957747E-01  0.1432001E+00
         13   -1    0    0    0    0  0.00000000000E+00  0.00000000000E+00  0.99999944178E+02  0.99999999998E+02  0.10566000000E+00 0. -1.
         22   -1    0    0    0    0 -0.00000000000E+00 -0.00000000000E+00 -0.40406296924E+02  0.40406296924E+02  0.00000000000E+00 0.  1.
         13    1    1    2    0    0  0.10664171502E+02 -0.12201788361E+02 -0.31393150528E+02  0.35329155908E+02  0.10566000000E+00 0.  1.
        996    1    1    2    0    0 -0.10664171502E+02  0.12201788361E+02  0.90986797782E+02  0.10507714101E+03  0.50000000000E+02 0.  0.
<mgrwt>
<rscale>  0 0.52560519E+02</rscale>
<asrwt>0</asrwt>
<pdfrwt beam="1">  1       13 0.10000000E+01 0.52560519E+02</pdfrwt>
<pdfrwt beam="2">  1       22 0.40406314E+00 0.52560519E+02</pdfrwt>
<totfact> 0.12136297E-01</totfact>
</mgrwt>
</event>
<event>
 4    1  0.2437479E+000  0.5138541E+02  0.7957747E-01  0.1438009E+00
         13   -1    0    0    0    0  0.00000000000E+00  0.00000000000E+00  0.99999944181E+02  0.10000000000E+03  0.10566000000E+00 0. -1.
         22   -1    0    0    0    0 -0.00000000000E+00 -0.00000000000E+00 -0.10556897282E+02  0.10556897282E+02  0.00000000000E+00 0. -1.
         13    1    1    2    0    0 -0.88633248064E+01  0.78677416058E+01  0.28345033884E+02  0.30723150791E+02  0.10566000000E+00 0.  1.
        996    1    1    2    0    0  0.88633248064E+01 -0.78677416058E+01  0.61098013015E+02  0.79833746492E+02  0.50000000000E+02 0.  0.
<mgrwt>
<rscale>  0 0.51385405E+02</rscale>
<asrwt>0</asrwt>
<pdfrwt beam="1">  1       13 0.10000000E+01 0.51385405E+02</pdfrwt>
<pdfrwt beam="2">  1       22 0.10556922E+00 0.51385405E+02</pdfrwt>
<totfact> 0.13006882E+00</totfact>
</mgrwt>
</event>
<event>
 4    1  0.2437479E+000  0.5381797E+02  0.7957747E-01  0.1425773E+00
         13   -1    0    0    0    0  0.00000000000E+00  0.00000000000E+00  0.99999944177E+02  0.99999999998E+02  0.10566000000E+00 0.  1.
         22   -1    0    0    0    0 -0.00000000000E+00 -0.00000000000E+00 -0.17133409938E+02  0.17133409938E+02  0.00000000000E+00 0. -1.
         13    1    1    2    0    0 -0.16427393882E+02  0.11247862777E+02  0.20192627066E+01  0.20011553481E+02  0.10566000000E+00 0. -1.
        996    1    1    2    0    0  0.16427393882E+02 -0.11247862777E+02  0.80847271533E+02  0.97121856454E+02  0.50000000000E+02 0.  0.
<mgrwt>
<rscale>  0 0.53817968E+02</rscale>
<asrwt>0</asrwt>
<pdfrwt beam="1">  1       13 0.10000000E+01 0.53817968E+02</pdfrwt>
<pdfrwt beam="2">  1       22 0.17133433E+00 0.53817968E+02</pdfrwt>
<totfact> 0.60177104E-01</totfact>
</mgrwt>
</event>
<event>
 4    1  0.2437479E+000  0.5125281E+02  0.7957747E-01  0.1438699E+00
         13   -1    0    0    0    0  0.00000000000E+00  0.00000000000E+00  0.99999944180E+02  0.10000000000E+03  0.10566000000E+00 0. -1.
         22   -1    0    0    0    0 -0.00000000000E+00 -0.00000000000E+00 -0.10603444428E+02  0.10603444428E+02  0.00000000000E+00 0.  1.
         13    1    1    2    0    0  0.71005530737E+01 -0.87425907483E+01  0.61193013826E+01  0.12818258867E+02  0.10566000000E+00 0.  1.
        996    1    1    2    0    0 -0.71005530737E+01  0.87425907483E+01  0.83277198369E+02  0.97785185561E+02  0.50000000000E+02 0.  0.
<mgrwt>
<rscale>  0 0.51252812E+02</rscale>
<asrwt>0</asrwt>
<pdfrwt beam="1">  1       13 0.10000000E+01 0.51252812E+02</pdfrwt>
<pdfrwt beam="2">  1       22 0.10603469E+00 0.51252812E+02</pdfrwt>
<totfact> 0.12918924E+00</totfact>
</mgrwt>
</event>
<event>
 4    1  0.2437479E+000  0.5188346E+02  0.7957747E-01  0.1435440E+00
         13   -1    0    0    0    0  0.00000000000E+00  0.00000000000E+00  0.99999944176E+02  0.99999999997E+02  0.10566000000E+00 0.  1.
         22   -1    0    0    0    0 -0.00000000000E+00 -0.00000000000E+00 -0.14811640835E+02  0.14811640835E+02  0.00000000000E+00 0.  1.
         13    1    1    2    0    0 -0.99817528096E+01 -0.96050931139E+01 -0.13429310803E+01  0.13917896062E+02  0.10566000000E+00 0. -1.
        996    1    1    2    0    0  0.99817528096E+01  0.96050931139E+01  0.86531234422E+02  0.10089374477E+03  0.50000000000E+02 0.  0.
<mgrwt>
<rscale>  0 0.51883458E+02</rscale>
<asrwt>0</asrwt>
<pdfrwt beam="1">  1       13 0.10000000E+01 0.51883458E+02</pdfrwt>
<pdfrwt beam="2">  1       22 0.14811665E+00 0.51883458E+02</pdfrwt>
<totfact> 0.76870965E-01</totfact>
</mgrwt>
</event>
<event>
 4    1  0.2437479E+000  0.5178201E+02  0.7957747E-01  0.1435960E+00
         13   -1    0    0    0    0  0.00000000000E+00  0.00000000000E+00  0.99999944179E+02  0.99999999999E+02  0.10566000000E+00 0.  1.
         22   -1    0    0    0    0 -0.00000000000E+00 -0.00000000000E+00 -0.14806102669E+02  0.14806102669E+02  0.00000000000E+00 0. -1.
         13    1    1    2    0    0  0.28618040699E+01 -0.13160052951E+02 -0.17792711845E+01  0.13585061140E+02  0.10566000000E+00 0. -1.
        996    1    1    2    0    0 -0.28618040699E+01  0.13160052951E+02  0.86973112695E+02  0.10122104153E+03  0.50000000000E+02 0.  0.
<mgrwt>
<rscale>  0 0.51782013E+02</rscale>
<asrwt>0</asrwt>
<pdfrwt beam="1">  1       13 0.10000000E+01 0.51782013E+02</pdfrwt>
<pdfrwt beam="2">  1       22 0.14806126E+00 0.51782013E+02</pdfrwt>
<totfact> 0.76902509E-01</totfact>
</mgrwt>
</event>
<event>
 4    1  0.2437479E+000  0.5153843E+02  0.7957747E-01  0.1437216E+00
         13   -1    0    0    0    0  0.00000000000E+00  0.00000000000E+00  0.99999944180E+02  0.10000000000E+03  0.10566000000E+00 0. -1.
         22   -1    0    0    0    0 -0.00000000000E+00 -0.00000000000E+00 -0.14118769860E+02  0.14118769860E+02  0.00000000000E+00 0. -1.
         13    1    1    2    0    0 -0.12335164035E+02  0.20132868819E+01 -0.15836883449E+01  0.12598762981E+02  0.10566000000E+00 0.  1.
        996    1    1    2    0    0  0.12335164035E+02 -0.20132868819E+01  0.87464862664E+02  0.10152000688E+03  0.50000000000E+02 0.  0.
<mgrwt>
<rscale>  0 0.51538428E+02</rscale>
<asrwt>0</asrwt>
<pdfrwt beam="1">  1       13 0.10000000E+01 0.51538428E+02</pdfrwt>
<pdfrwt beam="2">  1       22 0.14118794E+00 0.51538428E+02</pdfrwt>
<totfact> 0.83098311E-01</totfact>
</mgrwt>
</event>
<event>
 4    1  0.2437479E+000  0.5665711E+02  0.7957747E-01  0.1412421E+00
         13   -1    0    0    0    0  0.00000000000E+00  0.00000000000E+00  0.99999944177E+02  0.99999999997E+02  0.10566000000E+00 0. -1.
         22   -1    0    0    0    0 -0.00000000000E+00 -0.00000000000E+00 -0.21616052516E+02  0.21616052516E+02  0.00000000000E+00 0. -1.
         13    1    1    2    0    0  0.53733547643E+00  0.26640926366E+02  0.22881507901E+01  0.26744616002E+02  0.10566000000E+00 0.  1.
        996    1    1    2    0    0 -0.53733547643E+00 -0.26640926366E+02  0.76095740870E+02  0.94871436511E+02  0.50000000000E+02 0.  0.
<mgrwt>
<rscale>  0 0.56657106E+02</rscale>
<asrwt>0</asrwt>
<pdfrwt beam="1">  1       13 0.10000000E+01 0.56657106E+02</pdfrwt>
<pdfrwt beam="2">  1       22 0.21616074E+00 0.56657106E+02</pdfrwt>
<totfact> 0.39420686E-01</totfact>
</mgrwt>
</event>
<event>
 4    1  0.2437479E+000  0.5143951E+02  0.7957747E-01  0.1437728E+00
         13   -1    0    0    0    0  0.00000000000E+00  0.00000000000E+00  0.99999944184E+02  0.10000000000E+03  0.10566000000E+00 0.  1.
         22   -1    0    0    0    0 -0.00000000000E+00 -0.00000000000E+00 -0.16973451470E+02  0.16973451470E+02  0.00000000000E+00 0. -1.
         13    1    1    2    0    0 -0.69715813956E+01 -0.98701736716E+01 -0.64996843670E+01  0.13721528208E+02  0.10566000000E+00 0. -1.
        996    1    1    2    0    0  0.69715813956E+01  0.98701736716E+01  0.89526177081E+02  0.10325192327E+03  0.50000000000E+02 0.  0.
<mgrwt>
<rscale>  0 0.51439511E+02</rscale>
<asrwt>0</asrwt>
<pdfrwt beam="1">  1       13 0.10000000E+01 0.51439511E+02</pdfrwt>
<pdfrwt beam="2">  1       22 0.16973475E+00 0.51439511E+02</pdfrwt>
<totfact> 0.60898543E-01</totfact>
</mgrwt>
</event>
<event>
 4    1  0.2437479E+000  0.5148416E+02  0.7957747E-01  0.1437497E+00
         13   -1    0    0    0    0  0.00000000000E+00  0.00000000000E+00  0.99999944181E+02  0.10000000000E+03  0.10566000000E+00 0.  1.
         22   -1    0    0    0    0 -0.00000000000E+00 -0.00000000000E+00 -0.25996528083E+02  0.25996528083E+02  0.00000000000E+00 0. -1.
         13    1    1    2    0    0 -0.22599389290E+00  0.12270584436E+02 -0.17280228141E+02  0.21195182572E+02  0.10566000000E+00 0. -1.
        996    1    1    2    0    0  0.22599389290E+00 -0.12270584436E+02  0.91283644238E+02  0.10480134551E+03  0.50000000000E+02 0.  0.
<mgrwt>
<rscale>  0 0.51484156E+02</rscale>
<asrwt>0</asrwt>
<pdfrwt beam="1">  1       13 0.10000000E+01 0.51484156E+02</pdfrwt>
<pdfrwt beam="2">  1       22 0.25996549E+00 0.51484156E+02</pdfrwt>
<totfact> 0.27275503E-01</totfact>
</mgrwt>
</event>
<event>
 4    1  0.2437479E+000  0.5150249E+02  0.7957747E-01  0.1437402E+00
         13   -1    0    0    0    0  0.00000000000E+00  0.00000000000E+00  0.99999944179E+02  0.99999999999E+02  0.10566000000E+00 0. -1.
         22   -1    0    0    0    0 -0.00000000000E+00 -0.00000000000E+00 -0.11027518785E+02  0.11027518785E+02  0.00000000000E+00 0. -1.
         13    1    1    2    0    0 -0.74337990971E+01  0.98612835054E+01  0.69357911726E+01  0.14164132328E+02  0.10566000000E+00 0.  1.
        996    1    1    2    0    0  0.74337990971E+01 -0.98612835054E+01  0.82036634221E+02  0.96863386456E+02  0.50000000000E+02 0.  0.
<mgrwt>
<rscale>  0 0.51502488E+02</rscale>
<asrwt>0</asrwt>
<pdfrwt beam="1">  1       13 0.10000000E+01 0.51502488E+02</pdfrwt>
<pdfrwt beam="2">  1       22 0.11027544E+00 0.51502488E+02</pdfrwt>
<totfact> 0.12197655E+00</totfact>
</mgrwt>
</event>
<event>
 4    1  0.2437479E+000  0.5276409E+02  0.7957747E-01  0.1430979E+00
         13   -1    0    0    0    0  0.00000000000E+00  0.00000000000E+00  0.99999944187E+02  0.10000000001E+03  0.10566000000E+00 0.  1.
         22   -1    0    0    0    0 -0.00000000000E+00 -0.00000000000E+00 -0.18414317575E+02  0.18414317575E+02  0.00000000000E+00 0.  1.
         13    1    1    2    0    0  0.18869493613E+01 -0.16747797186E+02 -0.45005368795E+01  0.17444634840E+02  0.10566000000E+00 0. -1.
        996    1    1    2    0    0 -0.18869493613E+01  0.16747797186E+02  0.86086163491E+02  0.10096968274E+03  0.50000000000E+02 0.  0.
<mgrwt>
<rscale>  0 0.52764091E+02</rscale>
<asrwt>0</asrwt>
<pdfrwt beam="1">  1       13 0.10000000E+01 0.52764091E+02</pdfrwt>
<pdfrwt beam="2">  1       22 0.18414340E+00 0.52764091E+02</pdfrwt>
<totfact> 0.52809067E-01</totfact>
</mgrwt>
</event>
<event>
 4    1  0.2437479E+000  0.5217816E+02  0.7957747E-01  0.1433935E+00
         13   -1    0    0    0    0  0.00000000000E+00  0.00000000000E+00  0.99999944171E+02  0.99999999991E+02  0.10566000000E+00 0.  1.
         22   -1    0    0    0    0 -0.00000000000E+00 -0.00000000000E+00 -0.12214603008E+02  0.12214603008E+02  0.00000000000E+00 0. -1.
         13    1    1    2    0    0  0.14748823576E+02 -0.22434506421E+01  0.81279282238E+01  0.16989268639E+02  0.10566000000E+00 0. -1.
        996    1    1    2    0    0 -0.14748823576E+02  0.22434506421E+01  0.79657412940E+02  0.95225334360E+02  0.50000000000E+02 0.  0.
<mgrwt>
<rscale>  0 0.52178165E+02</rscale>
<asrwt>0</asrwt>
<pdfrwt beam="1">  1       13 0.10000000E+01 0.52178165E+02</pdfrwt>
<pdfrwt beam="2">  1       22 0.12214628E+00 0.52178165E+02</pdfrwt>
<totfact> 0.10464717E+00</totfact>
</mgrwt>
</event>
<event>
 4    1  0.2437479E+000  0.5305272E+02  0.7957747E-01  0.1429539E+00
         13   -1    0    0    0    0  0.00000000000E+00  0.00000000000E+00  0.99999944181E+02  0.10000000000E+03  0.10566000000E+00 0. -1.
         22   -1    0    0    0    0 -0.00000000000E+00 -0.00000000000E+00 -0.36388572311E+02  0.36388572311E+02  0.00000000000E+00 0.  1.
         13    1    1    2    0    0  0.17666622485E+01 -0.17648506300E+02 -0.26459573471E+02  0.31854529700E+02  0.10566000000E+00 0.  1.
        996    1    1    2    0    0 -0.17666622485E+01  0.17648506300E+02  0.90070945341E+02  0.10453404261E+03  0.50000000000E+02 0.  0.
<mgrwt>
<rscale>  0 0.53052718E+02</rscale>
<asrwt>0</asrwt>
<pdfrwt beam="1">  1       13 0.10000000E+01 0.53052718E+02</pdfrwt>
<pdfrwt beam="2">  1       22 0.36388590E+00 0.53052718E+02</pdfrwt>
<totfact> 0.14696130E-01</totfact>
</mgrwt>
</event>
<event>
 4    1  0.2437479E+000  0.5137389E+02  0.7957747E-01  0.1438069E+00
         13   -1    0    0    0    0  0.00000000000E+00  0.00000000000E+00  0.99999944177E+02  0.99999999997E+02  0.10566000000E+00 0.  1.
         22   -1    0    0    0    0 -0.00000000000E+00 -0.00000000000E+00 -0.17356979287E+02  0.17356979287E+02  0.00000000000E+00 0. -1.
         13    1    1    2    0    0  0.11798425681E+02 -0.27181546161E+00 -0.72273071690E+01  0.13839142501E+02  0.10566000000E+00 0. -1.
        996    1    1    2    0    0 -0.11798425681E+02  0.27181546161E+00  0.89870272060E+02  0.10351783678E+03  0.50000000000E+02 0.  0.
<mgrwt>
<rscale>  0 0.51373892E+02</rscale>
<asrwt>0</asrwt>
<pdfrwt beam="1">  1       13 0.10000000E+01 0.51373892E+02</pdfrwt>
<pdfrwt beam="2">  1       22 0.17357002E+00 0.51373892E+02</pdfrwt>
<totfact> 0.58544585E-01</totfact>
</mgrwt>
</event>
<event>
 4    1  0.2437479E+000  0.5168552E+02  0.7957747E-01  0.1436457E+00
         13   -1    0    0    0    0  0.00000000000E+00  0.00000000000E+00  0.99999944186E+02  0.10000000001E+03  0.10566000000E+00 0.  1.
         22   -1    0    0    0    0 -0.00000000000E+00 -0.00000000000E+00 -0.14157549813E+02  0.14157549813E+02  0.00000000000E+00 0. -1.
         13    1    1    2    0    0  0.12993736603E+02 -0.15988133696E+01 -0.96563142637E+00  0.13127718887E+02  0.10566000000E+00 0. -1.
        996    1    1    2    0    0 -0.12993736603E+02  0.15988133696E+01  0.86808025799E+02  0.10102983093E+03  0.50000000000E+02 0.  0.
<mgrwt>
<rscale>  0 0.51685524E+02</rscale>
<asrwt>0</asrwt>
<pdfrwt beam="1">  1       13 0.10000000E+01 0.51685524E+02</pdfrwt>
<pdfrwt beam="2">  1       22 0.14157574E+00 0.51685524E+02</pdfrwt>
<totfact> 0.82754087E-01</totfact>
</mgrwt>
</event>
<event>
 4    1  0.2437479E+000  0.5127535E+02  0.7957747E-01  0.1438582E+00
         13   -1    0    0    0    0  0.00000000000E+00  0.00000000000E+00  0.99999944179E+02  0.10000000000E+03  0.10566000000E+00 0.  1.
         22   -1    0    0    0    0 -0.00000000000E+00 -0.00000000000E+00 -0.27195660413E+02  0.27195660413E+02  0.00000000000E+00 0. -1.
         13    1    1    2    0    0 -0.10003581733E+02 -0.53934952792E+01 -0.18943757884E+02  0.22091594909E+02  0.10566000000E+00 0. -1.
        996    1    1    2    0    0  0.10003581733E+02  0.53934952792E+01  0.91748041650E+02  0.10510406550E+03  0.50000000000E+02 0.  0.
<mgrwt>
<rscale>  0 0.51275349E+02</rscale>
<asrwt>0</asrwt>
<pdfrwt beam="1">  1       13 0.10000000E+01 0.51275349E+02</pdfrwt>
<pdfrwt beam="2">  1       22 0.27195681E+00 0.51275349E+02</pdfrwt>
<totfact> 0.24960780E-01</totfact>
</mgrwt>
</event>
<event>
 4    1  0.2437479E+000  0.5100642E+02  0.7957747E-01  0.1439988E+00
         13   -1    0    0    0    0  0.00000000000E+00  0.00000000000E+00  0.99999944173E+02  0.99999999993E+02  0.10566000000E+00 0.  1.
         22   -1    0    0    0    0 -0.00000000000E+00 -0.00000000000E+00 -0.34997884322E+02  0.34997884322E+02  0.00000000000E+00 0. -1.
         13    1    1    2    0    0  0.75973850132E+01 -0.66283214239E+01 -0.27541269341E+02  0.29328954719E+02  0.10566000000E+00 0. -1.
        996    1    1    2    0    0 -0.75973850132E+01  0.66283214239E+01  0.92543329192E+02  0.10566892960E+03  0.50000000000E+02 0.  0.
<mgrwt>
<rscale>  0 0.51006420E+02</rscale>
<asrwt>0</asrwt>
<pdfrwt beam="1">  1       13 0.10000000E+01 0.51006420E+02</pdfrwt>
<pdfrwt beam="2">  1       22 0.34997902E+00 0.51006420E+02</pdfrwt>
<totfact> 0.15699625E-01</totfact>
</mgrwt>
</event>
<event>
 4    1  0.2437479E+000  0.5298889E+02  0.7957747E-01  0.1429856E+00
         13   -1    0    0    0    0  0.00000000000E+00  0.00000000000E+00  0.99999944177E+02  0.99999999997E+02  0.10566000000E+00 0.  1.
         22   -1    0    0    0    0 -0.00000000000E+00 -0.00000000000E+00 -0.13759070565E+02  0.13759070565E+02  0.00000000000E+00 0.  1.
         13    1    1    2    0    0 -0.78011496390E+01  0.15715105859E+02  0.80478665060E+01  0.19302896342E+02  0.10566000000E+00 0. -1.
        996    1    1    2    0    0  0.78011496390E+01 -0.15715105859E+02  0.78193007106E+02  0.94456174220E+02  0.50000000000E+02 0.  0.
<mgrwt>
<rscale>  0 0.52988890E+02</rscale>
<asrwt>0</asrwt>
<pdfrwt beam="1">  1       13 0.10000000E+01 0.52988890E+02</pdfrwt>
<pdfrwt beam="2">  1       22 0.13759095E+00 0.52988890E+02</pdfrwt>
<totfact> 0.86905427E-01</totfact>
</mgrwt>
</event>
<event>
 4    1  0.2437479E+000  0.5185398E+02  0.7957747E-01  0.1435591E+00
         13   -1    0    0    0    0  0.00000000000E+00  0.00000000000E+00  0.99999944176E+02  0.99999999997E+02  0.10566000000E+00 0.  1.
         22   -1    0    0    0    0 -0.00000000000E+00 -0.00000000000E+00 -0.10822795264E+02  0.10822795264E+02  0.00000000000E+00 0.  1.
         13    1    1    2    0    0 -0.63285026602E+01  0.12197767167E+02  0.15320540230E+02  0.20580709092E+02  0.10566000000E+00 0. -1.
        996    1    1    2    0    0  0.63285026602E+01 -0.12197767167E+02  0.73856608683E+02  0.90242086168E+02  0.50000000000E+02 0.  0.
<mgrwt>
<rscale>  0 0.51853982E+02</rscale>
<asrwt>0</asrwt>
<pdfrwt beam="1">  1       13 0.10000000E+01 0.51853982E+02</pdfrwt>
<pdfrwt beam="2">  1       22 0.10822820E+00 0.51853982E+02</pdfrwt>
<totfact> 0.12552060E+00</totfact>
</mgrwt>
</event>
<event>
 4    1  0.2437479E+000  0.5190124E+02  0.7957747E-01  0.1435348E+00
         13   -1    0    0    0    0  0.00000000000E+00  0.00000000000E+00  0.99999944182E+02  0.10000000000E+03  0.10566000000E+00 0.  1.
         22   -1    0    0    0    0 -0.00000000000E+00 -0.00000000000E+00 -0.10873385571E+02  0.10873385571E+02  0.00000000000E+00 0. -1.
         13    1    1    2    0    0  0.95507798551E+01  0.10125266519E+02  0.16114521459E+02  0.21293834409E+02  0.10566000000E+00 0. -1.
        996    1    1    2    0    0 -0.95507798551E+01 -0.10125266519E+02  0.73012037151E+02  0.89579551165E+02  0.50000000000E+02 0.  0.
<mgrwt>
<rscale>  0 0.51901237E+02</rscale>
<asrwt>0</asrwt>
<pdfrwt beam="1">  1       13 0.10000000E+01 0.51901237E+02</pdfrwt>
<pdfrwt beam="2">  1       22 0.10873410E+00 0.51901237E+02</pdfrwt>
<totfact> 0.12466994E+00</totfact>
</mgrwt>
</event>
<event>
 4    1  0.2437479E+000  0.5151777E+02  0.7957747E-01  0.1437323E+00
         13   -1    0    0    0    0  0.00000000000E+00  0.00000000000E+00  0.99999944181E+02  0.10000000000E+03  0.10566000000E+00 0.  1.
         22   -1    0    0    0    0 -0.00000000000E+00 -0.00000000000E+00 -0.17223854056E+02  0.17223854056E+02  0.00000000000E+00 0. -1.
         13    1    1    2    0    0 -0.52275681602E+01  0.11258450639E+02 -0.66030903443E+01  0.14060303901E+02  0.10566000000E+00 0. -1.
        996    1    1    2    0    0  0.52275681602E+01 -0.11258450639E+02  0.89379180469E+02  0.10316355016E+03  0.50000000000E+02 0.  0.
<mgrwt>
<rscale>  0 0.51517766E+02</rscale>
<asrwt>0</asrwt>
<pdfrwt beam="1">  1       13 0.10000000E+01 0.51517766E+02</pdfrwt>
<pdfrwt beam="2">  1       22 0.17223877E+00 0.51517766E+02</pdfrwt>
<totfact> 0.59361633E-01</totfact>
</mgrwt>
</event>
<event>
 4    1  0.2437479E+000  0.6029145E+02  0.7957747E-01  0.1396613E+00
         13   -1    0    0    0    0  0.00000000000E+00  0.00000000000E+00  0.99999944177E+02  0.99999999997E+02  0.10566000000E+00 0.  1.
         22   -1    0    0    0    0 -0.00000000000E+00 -0.00000000000E+00 -0.26446541797E+02  0.26446541797E+02  0.00000000000E+00 0. -1.
         13    1    1    2    0    0  0.66977749799E+01 -0.33018156507E+02  0.32743448858E+01  0.33849539839E+02  0.10566000000E+00 0. -1.
        996    1    1    2    0    0 -0.66977749799E+01  0.33018156507E+02  0.70279057494E+02  0.92597001955E+02  0.50000000000E+02 0.  0.
<mgrwt>
<rscale>  0 0.60291449E+02</rscale>
<asrwt>0</asrwt>
<pdfrwt beam="1">  1       13 0.10000000E+01 0.60291449E+02</pdfrwt>
<pdfrwt beam="2">  1       22 0.26446562E+00 0.60291449E+02</pdfrwt>
<totfact> 0.26696806E-01</totfact>
</mgrwt>
</event>
<event>
 4    1  0.2437479E+000  0.5137180E+02  0.7957747E-01  0.1438080E+00
         13   -1    0    0    0    0  0.00000000000E+00  0.00000000000E+00  0.99999944174E+02  0.99999999995E+02  0.10566000000E+00 0. -1.
         22   -1    0    0    0    0 -0.00000000000E+00 -0.00000000000E+00 -0.10910702275E+02  0.10910702275E+02  0.00000000000E+00 0.  1.
         13    1    1    2    0    0 -0.48945099653E+01  0.10728716535E+02  0.60214119502E+01  0.13241229256E+02  0.10566000000E+00 0.  1.
        996    1    1    2    0    0  0.48945099653E+01 -0.10728716535E+02  0.83067829949E+02  0.97669473014E+02  0.50000000000E+02 0.  0.
<mgrwt>
<rscale>  0 0.51371798E+02</rscale>
<asrwt>0</asrwt>
<pdfrwt beam="1">  1       13 0.10000000E+01 0.51371798E+02</pdfrwt>
<pdfrwt beam="2">  1       22 0.10910727E+00 0.51371798E+02</pdfrwt>
<totfact> 0.12388465E+00</totfact>
</mgrwt>
</event>
<event>
 4    1  0.2437479E+000  0.5305721E+02  0.7957747E-01  0.1429516E+00
         13   -1    0    0    0    0  0.00000000000E+00  0.00000000000E+00  0.99999944180E+02  0.10000000000E+03  0.10566000000E+00 0.  1.
         22   -1    0    0    0    0 -0.00000000000E+00 -0.00000000000E+00 -0.26540146712E+02  0.26540146712E+02  0.00000000000E+00 0. -1.
         13    1    1    2    0    0  0.17213524724E+02 -0.43314764136E+01 -0.15099178381E+02  0.23303722303E+02  0.10566000000E+00 0. -1.
        996    1    1    2    0    0 -0.17213524724E+02  0.43314764136E+01  0.88558975848E+02  0.10323642441E+03  0.50000000000E+02 0.  0.
<mgrwt>
<rscale>  0 0.53057206E+02</rscale>
<asrwt>0</asrwt>
<pdfrwt beam="1">  1       13 0.10000000E+01 0.53057206E+02</pdfrwt>
<pdfrwt beam="2">  1       22 0.26540167E+00 0.53057206E+02</pdfrwt>
<totfact> 0.26250532E-01</totfact>
</mgrwt>
</event>
<event>
 4    1  0.2437479E+000  0.5315240E+02  0.7957747E-01  0.1429044E+00
         13   -1    0    0    0    0  0.00000000000E+00  0.00000000000E+00  0.99999944178E+02  0.99999999999E+02  0.10566000000E+00 0.  1.
         22   -1    0    0    0    0 -0.00000000000E+00 -0.00000000000E+00 -0.12843316178E+02  0.12843316178E+02  0.00000000000E+00 0. -1.
         13    1    1    2    0    0 -0.17385590956E+02  0.47873211604E+01  0.16631334363E+02  0.24531401581E+02  0.10566000000E+00 0. -1.
        996    1    1    2    0    0  0.17385590956E+02 -0.47873211604E+01  0.70525293638E+02  0.88311914596E+02  0.50000000000E+02 0.  0.
<mgrwt>
<rscale>  0 0.53152396E+02</rscale>
<asrwt>0</asrwt>
<pdfrwt beam="1">  1       13 0.10000000E+01 0.53152396E+02</pdfrwt>
<pdfrwt beam="2">  1       22 0.12843341E+00 0.53152396E+02</pdfrwt>
<totfact> 0.96993411E-01</totfact>
</mgrwt>
</event>
<event>
 4    1  0.2437479E+000  0.6250025E+02  0.7957747E-01  0.1387629E+00
         13   -1    0    0    0    0  0.00000000000E+00  0.00000000000E+00  0.99999944167E+02  0.99999999988E+02  0.10566000000E+00 0.  1.
         22   -1    0    0    0    0 -0.00000000000E+00 -0.00000000000E+00 -0.25104467555E+02  0.25104467555E+02  0.00000000000E+00 0. -1.
         13    1    1    2    0    0 -0.27958045091E+02 -0.24992582689E+02  0.24224551814E+02  0.44644389898E+02  0.10566000000E+00 0. -1.
        996    1    1    2    0    0  0.27958045091E+02  0.24992582689E+02  0.50670924798E+02  0.80460077645E+02  0.50000000000E+02 0.  0.
<mgrwt>
<rscale>  0 0.62500252E+02</rscale>
<asrwt>0</asrwt>
<pdfrwt beam="1">  1       13 0.10000000E+01 0.62500252E+02</pdfrwt>
<pdfrwt beam="2">  1       22 0.25104488E+00 0.62500252E+02</pdfrwt>
<totfact> 0.29676329E-01</totfact>
</mgrwt>
</event>
<event>
 4    1  0.2437479E+000  0.5241243E+02  0.7957747E-01  0.1432748E+00
         13   -1    0    0    0    0  0.00000000000E+00  0.00000000000E+00  0.99999944178E+02  0.99999999998E+02  0.10566000000E+00 0. -1.
         22   -1    0    0    0    0 -0.00000000000E+00 -0.00000000000E+00 -0.11612399576E+02  0.11612399576E+02  0.00000000000E+00 0. -1.
         13    1    1    2    0    0  0.96017210144E-01  0.15717936376E+02  0.19186388836E+02  0.24803052711E+02  0.10566000000E+00 0.  1.
        996    1    1    2    0    0 -0.96017210144E-01 -0.15717936376E+02  0.69201155767E+02  0.86809346862E+02  0.50000000000E+02 0.  0.
<mgrwt>
<rscale>  0 0.52412429E+02</rscale>
<asrwt>0</asrwt>
<pdfrwt beam="1">  1       13 0.10000000E+01 0.52412429E+02</pdfrwt>
<pdfrwt beam="2">  1       22 0.11612424E+00 0.52412429E+02</pdfrwt>
<totfact> 0.11310818E+00</totfact>
</mgrwt>
</event>
<event>
 4    1  0.2437479E+000  0.5165779E+02  0.7957747E-01  0.1436600E+00
         13   -1    0    0    0    0  0.00000000000E+00  0.00000000000E+00  0.99999944177E+02  0.99999999997E+02  0.10566000000E+00 0.  1.
         22   -1    0    0    0    0 -0.00000000000E+00 -0.00000000000E+00 -0.10468558673E+02  0.10468558673E+02  0.00000000000E+00 0.  1.
         13    1    1    2    0    0 -0.12123467537E+02  0.46420547478E+01  0.20104140467E+02  0.23931459742E+02  0.10566000000E+00 0. -1.
        996    1    1    2    0    0  0.12123467537E+02 -0.46420547478E+01  0.69427245037E+02  0.86537098927E+02  0.50000000000E+02 0.  0.
<mgrwt>
<rscale>  0 0.51657789E+02</rscale>
<asrwt>0</asrwt>
<pdfrwt beam="1">  1       13 0.10000000E+01 0.51657789E+02</pdfrwt>
<pdfrwt beam="2">  1       22 0.10468584E+00 0.51657789E+02</pdfrwt>
<totfact> 0.13176859E+00</totfact>
</mgrwt>
</event>
<event>
 4    1  0.2437479E+000  0.5189167E+02  0.7957747E-01  0.1435398E+00
         13   -1    0    0    0    0  0.00000000000E+00  0.00000000000E+00  0.99999944172E+02  0.99999999993E+02  0.10566000000E+00 0.  1.
         22   -1    0    0    0    0 -0.00000000000E+00 -0.00000000000E+00 -0.21450552366E+02  0.21450552366E+02  0.00000000000E+00 0. -1.
         13    1    1    2    0    0  0.47978880055E+00  0.13874968630E+02 -0.11160742429E+02  0.17813429972E+02  0.10566000000E+00 0. -1.
        996    1    1    2    0    0 -0.47978880055E+00 -0.13874968630E+02  0.89710134236E+02  0.10363712239E+03  0.50000000000E+02 0.  0.
<mgrwt>
<rscale>  0 0.51891666E+02</rscale>
<asrwt>0</asrwt>
<pdfrwt beam="1">  1       13 0.10000000E+01 0.51891666E+02</pdfrwt>
<pdfrwt beam="2">  1       22 0.21450574E+00 0.51891666E+02</pdfrwt>
<totfact> 0.39691200E-01</totfact>
</mgrwt>
</event>
<event>
 4    1  0.2437479E+000  0.5474936E+02  0.7957747E-01  0.1421288E+00
         13   -1    0    0    0    0  0.00000000000E+00  0.00000000000E+00  0.99999944171E+02  0.99999999991E+02  0.10566000000E+00 0.  1.
         22   -1    0    0    0    0 -0.00000000000E+00 -0.00000000000E+00 -0.36597475111E+02  0.36597475111E+02  0.00000000000E+00 0.  1.
         13    1    1    2    0    0 -0.19721488335E+02  0.10419001152E+02 -0.24441260009E+02  0.33088956497E+02  0.10566000000E+00 0. -1.
        996    1    1    2    0    0  0.19721488335E+02 -0.10419001152E+02  0.87843729069E+02  0.10350851861E+03  0.50000000000E+02 0.  0.
<mgrwt>
<rscale>  0 0.54749362E+02</rscale>
<asrwt>0</asrwt>
<pdfrwt beam="1">  1       13 0.10000000E+01 0.54749362E+02</pdfrwt>
<pdfrwt beam="2">  1       22 0.36597493E+00 0.54749362E+02</pdfrwt>
<totfact> 0.14571464E-01</totfact>
</mgrwt>
</event>
<event>
 4    1  0.2437479E+000  0.5165726E+02  0.7957747E-01  0.1436602E+00
         13   -1    0    0    0    0  0.00000000000E+00  0.00000000000E+00  0.99999944179E+02  0.99999999999E+02  0.10566000000E+00 0. -1.
         22   -1    0    0    0    0 -0.00000000000E+00 -0.00000000000E+00 -0.14708535588E+02  0.14708535588E+02  0.00000000000E+00 0. -1.
         13    1    1    2    0    0 -0.41485718290E+01  0.12298856828E+02 -0.21415646735E+01  0.13155606819E+02  0.10566000000E+00 0.  1.
        996    1    1    2    0    0  0.41485718290E+01 -0.12298856828E+02  0.87432973265E+02  0.10155292877E+03  0.50000000000E+02 0.  0.
<mgrwt>
<rscale>  0 0.51657260E+02</rscale>
<asrwt>0</asrwt>
<pdfrwt beam="1">  1       13 0.10000000E+01 0.51657260E+02</pdfrwt>
<pdfrwt beam="2">  1       22 0.14708559E+00 0.51657260E+02</pdfrwt>
<totfact> 0.77728065E-01</totfact>
</mgrwt>
</event>
<event>
 4    1  0.2437479E+000  0.5153244E+02  0.7957747E-01  0.1437247E+00
         13   -1    0    0    0    0  0.00000000000E+00  0.00000000000E+00  0.99999944181E+02  0.10000000000E+03  0.10566000000E+00 0.  1.
         22   -1    0    0    0    0 -0.00000000000E+00 -0.00000000000E+00 -0.10243620928E+02  0.10243620928E+02  0.00000000000E+00 0. -1.
         13    1    1    2    0    0  0.85308291867E+01 -0.91003798230E+01  0.18034631322E+02  0.21928316180E+02  0.10566000000E+00 0. -1.
        996    1    1    2    0    0 -0.85308291867E+01  0.91003798230E+01  0.71721691930E+02  0.88315304749E+02  0.50000000000E+02 0.  0.
<mgrwt>
<rscale>  0 0.51532436E+02</rscale>
<asrwt>0</asrwt>
<pdfrwt beam="1">  1       13 0.10000000E+01 0.51532436E+02</pdfrwt>
<pdfrwt beam="2">  1       22 0.10243646E+00 0.51532436E+02</pdfrwt>
<totfact> 0.13597991E+00</totfact>
</mgrwt>
</event>
<event>
 4    1  0.2437479E+000  0.5124667E+02  0.7957747E-01  0.1438731E+00
         13   -1    0    0    0    0  0.00000000000E+00  0.00000000000E+00  0.99999944177E+02  0.99999999998E+02  0.10566000000E+00 0.  1.
         22   -1    0    0    0    0 -0.00000000000E+00 -0.00000000000E+00 -0.19843617217E+02  0.19843617217E+02  0.00000000000E+00 0.  1.
         13    1    1    2    0    0 -0.28526386516E+01 -0.10866613092E+02 -0.10710200713E+02  0.15522254691E+02  0.10566000000E+00 0. -1.
        996    1    1    2    0    0  0.28526386516E+01  0.10866613092E+02  0.90866527673E+02  0.10432136252E+03  0.50000000000E+02 0.  0.
<mgrwt>
<rscale>  0 0.51246666E+02</rscale>
<asrwt>0</asrwt>
<pdfrwt beam="1">  1       13 0.10000000E+01 0.51246666E+02</pdfrwt>
<pdfrwt beam="2">  1       22 0.19843640E+00 0.51246666E+02</pdfrwt>
<totfact> 0.45912411E-01</totfact>
</mgrwt>
</event>
<event>
 4    1  0.2437479E+000  0.5110381E+02  0.7957747E-01  0.1439477E+00
         13   -1    0    0    0    0  0.00000000000E+00  0.00000000000E+00  0.99999944185E+02  0.10000000001E+03  0.10566000000E+00 0.  1.
         22   -1    0    0    0    0 -0.00000000000E+00 -0.00000000000E+00 -0.97401545357E+01  0.97401545357E+01  0.00000000000E+00 0.  1.
         13    1    1    2    0    0 -0.40711055649E+01  0.97481103192E+01  0.97226021005E+01  0.14357566331E+02  0.10566000000E+00 0. -1.
        996    1    1    2    0    0  0.40711055649E+01 -0.97481103192E+01  0.80537187549E+02  0.95382588210E+02  0.50000000000E+02 0.  0.
<mgrwt>
<rscale>  0 0.51103812E+02</rscale>
<asrwt>0</asrwt>
<pdfrwt beam="1">  1       13 0.10000000E+01 0.51103812E+02</pdfrwt>
<pdfrwt beam="2">  1       22 0.97401797E-01 0.51103812E+02</pdfrwt>
<totfact> 0.14612002E+00</totfact>
</mgrwt>
</event>
<event>
 4    1  0.2437479E+000  0.5115792E+02  0.7957747E-01  0.1439194E+00
         13   -1    0    0    0    0  0.00000000000E+00  0.00000000000E+00  0.99999944179E+02  0.99999999999E+02  0.10566000000E+00 0.  1.
         22   -1    0    0    0    0 -0.00000000000E+00 -0.00000000000E+00 -0.20001624973E+02  0.20001624973E+02  0.00000000000E+00 0. -1.
         13    1    1    2    0    0 -0.50214839536E+01  0.95873472323E+01 -0.11111613719E+02  0.15511661791E+02  0.10566000000E+00 0. -1.
        996    1    1    2    0    0  0.50214839536E+01 -0.95873472323E+01  0.91109932925E+02  0.10448996318E+03  0.50000000000E+02 0.  0.
<mgrwt>
<rscale>  0 0.51157918E+02</rscale>
<asrwt>0</asrwt>
<pdfrwt beam="1">  1       13 0.10000000E+01 0.51157918E+02</pdfrwt>
<pdfrwt beam="2">  1       22 0.20001647E+00 0.51157918E+02</pdfrwt>
<totfact> 0.45231985E-01</totfact>
</mgrwt>
</event>
<event>
 4    1  0.2437479E+000  0.6066903E+02  0.7957747E-01  0.1395045E+00
         13   -1    0    0    0    0  0.00000000000E+00  0.00000000000E+00  0.99999944173E+02  0.99999999993E+02  0.10566000000E+00 0.  1.
         22   -1    0    0    0    0 -0.00000000000E+00 -0.00000000000E+00 -0.28015261337E+02  0.28015261337E+02  0.00000000000E+00 0. -1.
         13    1    1    2    0    0 -0.34320638466E+02 -0.16807653792E+01  0.64693422356E+00  0.34368021254E+02  0.10566000000E+00 0. -1.
        996    1    1    2    0    0  0.34320638466E+02  0.16807653792E+01  0.71337748612E+02  0.93647240077E+02  0.50000000000E+02 0.  0.
<mgrwt>
<rscale>  0 0.60669030E+02</rscale>
<asrwt>0</asrwt>
<pdfrwt beam="1">  1       13 0.10000000E+01 0.60669030E+02</pdfrwt>
<pdfrwt beam="2">  1       22 0.28015281E+00 0.60669030E+02</pdfrwt>
<totfact> 0.23855214E-01</totfact>
</mgrwt>
</event>
<event>
 4    1  0.2437479E+000  0.7811551E+02  0.7957747E-01  0.1334486E+00
         13   -1    0    0    0    0  0.00000000000E+00  0.00000000000E+00  0.99999944181E+02  0.10000000000E+03  0.10566000000E+00 0.  1.
         22   -1    0    0    0    0 -0.00000000000E+00 -0.00000000000E+00 -0.65393265219E+02  0.65393265219E+02  0.00000000000E+00 0. -1.
         13    1    1    2    0    0  0.39483506347E+02 -0.45200507613E+02 -0.27093979552E+02  0.65849282865E+02  0.10566000000E+00 0. -1.
        996    1    1    2    0    0 -0.39483506347E+02  0.45200507613E+02  0.61700658514E+02  0.99543982354E+02  0.50000000000E+02 0.  0.
<mgrwt>
<rscale>  0 0.78115512E+02</rscale>
<asrwt>0</asrwt>
<pdfrwt beam="1">  1       13 0.10000000E+01 0.78115512E+02</pdfrwt>
<pdfrwt beam="2">  1       22 0.65393275E+00 0.78115512E+02</pdfrwt>
<totfact> 0.86994559E-02</totfact>
</mgrwt>
</event>
<event>
 4    1  0.2437479E+000  0.8076630E+02  0.7957747E-01  0.1326891E+00
         13   -1    0    0    0    0  0.00000000000E+00  0.00000000000E+00  0.99999944181E+02  0.10000000000E+03  0.10566000000E+00 0.  1.
         22   -1    0    0    0    0 -0.00000000000E+00 -0.00000000000E+00 -0.53063618463E+02  0.53063618463E+02  0.00000000000E+00 0. -1.
         13    1    1    2    0    0 -0.29866832878E+02  0.55956835365E+02  0.98477477200E+01  0.64188662779E+02  0.10566000000E+00 0. -1.
        996    1    1    2    0    0  0.29866832878E+02 -0.55956835365E+02  0.37088577998E+02  0.88874955685E+02  0.50000000000E+02 0.  0.
<mgrwt>
<rscale>  0 0.80766299E+02</rscale>
<asrwt>0</asrwt>
<pdfrwt beam="1">  1       13 0.10000000E+01 0.80766299E+02</pdfrwt>
<pdfrwt beam="2">  1       22 0.53063632E+00 0.80766299E+02</pdfrwt>
<totfact> 0.63492300E-02</totfact>
</mgrwt>
</event>
<event>
 4    1  0.2437479E+000  0.5168765E+02  0.7957747E-01  0.1436446E+00
         13   -1    0    0    0    0  0.00000000000E+00  0.00000000000E+00  0.99999944183E+02  0.10000000000E+03  0.10566000000E+00 0. -1.
         22   -1    0    0    0    0 -0.00000000000E+00 -0.00000000000E+00 -0.15369016635E+02  0.15369016635E+02  0.00000000000E+00 0. -1.
         13    1    1    2    0    0 -0.86845552253E+01  0.98077423525E+01 -0.31746313212E+01  0.13479716524E+02  0.10566000000E+00 0.  1.
        996    1    1    2    0    0  0.86845552253E+01 -0.98077423525E+01  0.87805558869E+02  0.10188930011E+03  0.50000000000E+02 0.  0.
<mgrwt>
<rscale>  0 0.51687651E+02</rscale>
<asrwt>0</asrwt>
<pdfrwt beam="1">  1       13 0.10000000E+01 0.51687651E+02</pdfrwt>
<pdfrwt beam="2">  1       22 0.15369040E+00 0.51687651E+02</pdfrwt>
<totfact> 0.72246317E-01</totfact>
</mgrwt>
</event>
<event>
 4    1  0.2437479E+000  0.5161069E+02  0.7957747E-01  0.1436843E+00
         13   -1    0    0    0    0  0.00000000000E+00  0.00000000000E+00  0.99999944181E+02  0.10000000000E+03  0.10566000000E+00 0.  1.
         22   -1    0    0    0    0 -0.00000000000E+00 -0.00000000000E+00 -0.10403294661E+02  0.10403294661E+02  0.00000000000E+00 0.  1.
         13    1    1    2    0    0  0.12672578524E+02  0.17518598230E+01  0.20389126632E+02  0.24070540254E+02  0.10566000000E+00 0. -1.
        996    1    1    2    0    0 -0.12672578524E+02 -0.17518598230E+01  0.69207522889E+02  0.86332754408E+02  0.50000000000E+02 0.  0.
<mgrwt>
<rscale>  0 0.51610689E+02</rscale>
<asrwt>0</asrwt>
<pdfrwt beam="1">  1       13 0.10000000E+01 0.51610689E+02</pdfrwt>
<pdfrwt beam="2">  1       22 0.10403320E+00 0.51610689E+02</pdfrwt>
<totfact> 0.13296673E+00</totfact>
</mgrwt>
</event>
<event>
 4    1  0.2437479E+000  0.5167898E+02  0.7957747E-01  0.1436490E+00
         13   -1    0    0    0    0  0.00000000000E+00  0.00000000000E+00  0.99999944169E+02  0.99999999990E+02  0.10566000000E+00 0.  1.
         22   -1    0    0    0    0 -0.00000000000E+00 -0.00000000000E+00 -0.41870825351E+02  0.41870825351E+02  0.00000000000E+00 0. -1.
         13    1    1    2    0    0  0.93510256306E+01  0.91255121161E+01 -0.33896299991E+02  0.36327496045E+02  0.10566000000E+00 0. -1.
        996    1    1    2    0    0 -0.93510256306E+01 -0.91255121161E+01  0.92025418810E+02  0.10554332930E+03  0.50000000000E+02 0.  0.
<mgrwt>
<rscale>  0 0.51678977E+02</rscale>
<asrwt>0</asrwt>
<pdfrwt beam="1">  1       13 0.10000000E+01 0.51678977E+02</pdfrwt>
<pdfrwt beam="2">  1       22 0.41870842E+00 0.51678977E+02</pdfrwt>
<totfact> 0.11303675E-01</totfact>
</mgrwt>
</event>
<event>
 4    1  0.2437479E+000  0.5781384E+02  0.7957747E-01  0.1407242E+00
         13   -1    0    0    0    0  0.00000000000E+00  0.00000000000E+00  0.99999944185E+02  0.10000000001E+03  0.10566000000E+00 0.  1.
         22   -1    0    0    0    0 -0.00000000000E+00 -0.00000000000E+00 -0.39550801553E+02  0.39550801553E+02  0.00000000000E+00 0. -1.
         13    1    1    2    0    0 -0.34906948971E+01  0.28814141652E+02 -0.23688536574E+02  0.37464618496E+02  0.10566000000E+00 0. -1.
        996    1    1    2    0    0  0.34906948971E+01 -0.28814141652E+02  0.84137679206E+02  0.10208618306E+03  0.50000000000E+02 0.  0.
<mgrwt>
<rscale>  0 0.57813837E+02</rscale>
<asrwt>0</asrwt>
<pdfrwt beam="1">  1       13 0.10000000E+01 0.57813837E+02</pdfrwt>
<pdfrwt beam="2">  1       22 0.39550818E+00 0.57813837E+02</pdfrwt>
<totfact> 0.12690044E-01</totfact>
</mgrwt>
</event>
<event>
 4    1  0.2437479E+000  0.5129988E+02  0.7957747E-01  0.1438454E+00
         13   -1    0    0    0    0  0.00000000000E+00  0.00000000000E+00  0.99999944176E+02  0.99999999997E+02  0.10566000000E+00 0.  1.
         22   -1    0    0    0    0 -0.00000000000E+00 -0.00000000000E+00 -0.10827105631E+02  0.10827105631E+02  0.00000000000E+00 0.  1.
         13    1    1    2    0    0 -0.11328039125E+02  0.18311613122E+01  0.56088292234E+01  0.12772930418E+02  0.10566000000E+00 0. -1.
        996    1    1    2    0    0  0.11328039125E+02 -0.18311613122E+01  0.83564009322E+02  0.98054175210E+02  0.50000000000E+02 0.  0.
<mgrwt>
<rscale>  0 0.51299879E+02</rscale>
<asrwt>0</asrwt>
<pdfrwt beam="1">  1       13 0.10000000E+01 0.51299879E+02</pdfrwt>
<pdfrwt beam="2">  1       22 0.10827131E+00 0.51299879E+02</pdfrwt>
<totfact> 0.12528376E+00</totfact>
</mgrwt>
</event>
<event>
 4    1  0.2437479E+000  0.5258664E+02  0.7957747E-01  0.1431869E+00
         13   -1    0    0    0    0  0.00000000000E+00  0.00000000000E+00  0.99999944179E+02  0.99999999999E+02  0.10566000000E+00 0.  1.
         22   -1    0    0    0    0 -0.00000000000E+00 -0.00000000000E+00 -0.12707939398E+02  0.12707939398E+02  0.00000000000E+00 0. -1.
         13    1    1    2    0    0  0.11897173759E+02 -0.11127075622E+02  0.96507279480E+01  0.18934156156E+02  0.10566000000E+00 0. -1.
        996    1    1    2    0    0 -0.11897173759E+02  0.11127075622E+02  0.77641276832E+02  0.93773783242E+02  0.50000000000E+02 0.  0.
<mgrwt>
<rscale>  0 0.52586639E+02</rscale>
<asrwt>0</asrwt>
<pdfrwt beam="1">  1       13 0.10000000E+01 0.52586639E+02</pdfrwt>
<pdfrwt beam="2">  1       22 0.12707964E+00 0.52586639E+02</pdfrwt>
<totfact> 0.98497347E-01</totfact>
</mgrwt>
</event>
<event>
 4    1  0.2437479E+000  0.5210346E+02  0.7957747E-01  0.1434315E+00
         13   -1    0    0    0    0  0.00000000000E+00  0.00000000000E+00  0.99999944171E+02  0.99999999991E+02  0.10566000000E+00 0. -1.
         22   -1    0    0    0    0 -0.00000000000E+00 -0.00000000000E+00 -0.11198849866E+02  0.11198849866E+02  0.00000000000E+00 0. -1.
         13    1    1    2    0    0  0.11805329079E+02  0.86835790435E+01  0.22908784520E+02  0.27195475946E+02  0.10566000000E+00 0.  1.
        996    1    1    2    0    0 -0.11805329079E+02 -0.86835790435E+01  0.65892309785E+02  0.84003373911E+02  0.50000000000E+02 0.  0.
<mgrwt>
<rscale>  0 0.52103458E+02</rscale>
<asrwt>0</asrwt>
<pdfrwt beam="1">  1       13 0.10000000E+01 0.52103458E+02</pdfrwt>
<pdfrwt beam="2">  1       22 0.11198875E+00 0.52103458E+02</pdfrwt>
<totfact> 0.11936780E+00</totfact>
</mgrwt>
</event>
<event>
 4    1  0.2437479E+000  0.5444144E+02  0.7957747E-01  0.1422759E+00
         13   -1    0    0    0    0  0.00000000000E+00  0.00000000000E+00  0.99999944181E+02  0.10000000000E+03  0.10566000000E+00 0.  1.
         22   -1    0    0    0    0 -0.00000000000E+00 -0.00000000000E+00 -0.15056781091E+02  0.15056781091E+02  0.00000000000E+00 0.  1.
         13    1    1    2    0    0 -0.13551578092E+02 -0.16739934555E+02  0.14229770532E+02  0.25814108761E+02  0.10566000000E+00 0. -1.
        996    1    1    2    0    0  0.13551578092E+02  0.16739934555E+02  0.70713392559E+02  0.89242672331E+02  0.50000000000E+02 0.  0.
<mgrwt>
<rscale>  0 0.54441443E+02</rscale>
<asrwt>0</asrwt>
<pdfrwt beam="1">  1       13 0.10000000E+01 0.54441443E+02</pdfrwt>
<pdfrwt beam="2">  1       22 0.15056805E+00 0.54441443E+02</pdfrwt>
<totfact> 0.75184309E-01</totfact>
</mgrwt>
</event>
<event>
 4    1  0.2437479E+000  0.6392236E+02  0.7957747E-01  0.1382072E+00
         13   -1    0    0    0    0  0.00000000000E+00  0.00000000000E+00  0.99999944181E+02  0.10000000000E+03  0.10566000000E+00 0.  1.
         22   -1    0    0    0    0 -0.00000000000E+00 -0.00000000000E+00 -0.30615029461E+02  0.30615029461E+02  0.00000000000E+00 0. -1.
         13    1    1    2    0    0 -0.21949359104E+02 -0.33230915769E+02  0.54333964429E+01  0.40194540535E+02  0.10566000000E+00 0. -1.
        996    1    1    2    0    0  0.21949359104E+02  0.33230915769E+02  0.63951518277E+02  0.90420488927E+02  0.50000000000E+02 0.  0.
<mgrwt>
<rscale>  0 0.63922360E+02</rscale>
<asrwt>0</asrwt>
<pdfrwt beam="1">  1       13 0.10000000E+01 0.63922360E+02</pdfrwt>
<pdfrwt beam="2">  1       22 0.30615049E+00 0.63922360E+02</pdfrwt>
<totfact> 0.20213159E-01</totfact>
</mgrwt>
</event>
<event>
 4    1  0.2437479E+000  0.5549695E+02  0.7957747E-01  0.1417763E+00
         13   -1    0    0    0    0  0.00000000000E+00  0.00000000000E+00  0.99999944175E+02  0.99999999995E+02  0.10566000000E+00 0. -1.
         22   -1    0    0    0    0 -0.00000000000E+00 -0.00000000000E+00 -0.16885816638E+02  0.16885816638E+02  0.00000000000E+00 0. -1.
         13    1    1    2    0    0 -0.14138604224E+02  0.19493892559E+02  0.39667779825E+02  0.46405343408E+02  0.10566000000E+00 0.  1.
        996    1    1    2    0    0  0.14138604224E+02 -0.19493892559E+02  0.43446347712E+02  0.70480473225E+02  0.50000000000E+02 0.  0.
<mgrwt>
<rscale>  0 0.55496955E+02</rscale>
<asrwt>0</asrwt>
<pdfrwt beam="1">  1       13 0.10000000E+01 0.55496955E+02</pdfrwt>
<pdfrwt beam="2">  1       22 0.16885840E+00 0.55496955E+02</pdfrwt>
<totfact> 0.61924472E-01</totfact>
</mgrwt>
</event>
<event>
 4    1  0.2437479E+000  0.5195954E+02  0.7957747E-01  0.1435050E+00
         13   -1    0    0    0    0  0.00000000000E+00  0.00000000000E+00  0.99999944177E+02  0.99999999997E+02  0.10566000000E+00 0.  1.
         22   -1    0    0    0    0 -0.00000000000E+00 -0.00000000000E+00 -0.16148071113E+02  0.16148071113E+02  0.00000000000E+00 0. -1.
         13    1    1    2    0    0 -0.52656248128E+01  0.13117415662E+02 -0.34532573179E+01  0.14550929471E+02  0.10566000000E+00 0. -1.
        996    1    1    2    0    0  0.52656248128E+01 -0.13117415662E+02  0.87305130382E+02  0.10159714164E+03  0.50000000000E+02 0.  0.
<mgrwt>
<rscale>  0 0.51959536E+02</rscale>
<asrwt>0</asrwt>
<pdfrwt beam="1">  1       13 0.10000000E+01 0.51959536E+02</pdfrwt>
<pdfrwt beam="2">  1       22 0.16148095E+00 0.51959536E+02</pdfrwt>
<totfact> 0.66462382E-01</totfact>
</mgrwt>
</event>
<event>
 4    1  0.2437479E+000  0.5102012E+02  0.7957747E-01  0.1439916E+00
         13   -1    0    0    0    0  0.00000000000E+00  0.00000000000E+00  0.99999944182E+02  0.10000000000E+03  0.10566000000E+00 0.  1.
         22   -1    0    0    0    0 -0.00000000000E+00 -0.00000000000E+00 -0.10833741053E+02  0.10833741053E+02  0.00000000000E+00 0. -1.
         13    1    1    2    0    0 -0.57775080362E+01 -0.83470385299E+01  0.28130084160E+01  0.10534554177E+02  0.10566000000E+00 0. -1.
        996    1    1    2    0    0  0.57775080362E+01  0.83470385299E+01  0.86353194712E+02  0.10029918688E+03  0.50000000000E+02 0.  0.
<mgrwt>
<rscale>  0 0.51020120E+02</rscale>
<asrwt>0</asrwt>
<pdfrwt beam="1">  1       13 0.10000000E+01 0.51020120E+02</pdfrwt>
<pdfrwt beam="2">  1       22 0.10833766E+00 0.51020120E+02</pdfrwt>
<totfact> 0.12508739E+00</totfact>
</mgrwt>
</event>
<event>
 4    1  0.2437479E+000  0.5118828E+02  0.7957747E-01  0.1439036E+00
         13   -1    0    0    0    0  0.00000000000E+00  0.00000000000E+00  0.99999944164E+02  0.99999999984E+02  0.10566000000E+00 0.  1.
         22   -1    0    0    0    0 -0.00000000000E+00 -0.00000000000E+00 -0.19395154023E+02  0.19395154023E+02  0.00000000000E+00 0. -1.
         13    1    1    2    0    0 -0.88552889945E+01 -0.64671650406E+01 -0.10315723039E+02  0.15055420044E+02  0.10566000000E+00 0. -1.
        996    1    1    2    0    0  0.88552889945E+01  0.64671650406E+01  0.90920513180E+02  0.10433973396E+03  0.50000000000E+02 0.  0.
<mgrwt>
<rscale>  0 0.51188283E+02</rscale>
<asrwt>0</asrwt>
<pdfrwt beam="1">  1       13 0.10000000E+01 0.51188283E+02</pdfrwt>
<pdfrwt beam="2">  1       22 0.19395177E+00 0.51188283E+02</pdfrwt>
<totfact> 0.47892553E-01</totfact>
</mgrwt>
</event>
<event>
 4    1  0.2437479E+000  0.5493750E+02  0.7957747E-01  0.1420395E+00
         13   -1    0    0    0    0  0.00000000000E+00  0.00000000000E+00  0.99999944176E+02  0.99999999997E+02  0.10566000000E+00 0. -1.
         22   -1    0    0    0    0 -0.00000000000E+00 -0.00000000000E+00 -0.15109934624E+02  0.15109934624E+02  0.00000000000E+00 0. -1.
         13    1    1    2    0    0 -0.17434170054E+02  0.14634857249E+02  0.26627836396E+02  0.35031159949E+02  0.10566000000E+00 0.  1.
        996    1    1    2    0    0  0.17434170054E+02 -0.14634857249E+02  0.58262173155E+02  0.80078774672E+02  0.50000000000E+02 0.  0.
<mgrwt>
<rscale>  0 0.54937504E+02</rscale>
<asrwt>0</asrwt>
<pdfrwt beam="1">  1       13 0.10000000E+01 0.54937504E+02</pdfrwt>
<pdfrwt beam="2">  1       22 0.15109958E+00 0.54937504E+02</pdfrwt>
<totfact> 0.74814456E-01</totfact>
</mgrwt>
</event>
<event>
 4    1  0.2437479E+000  0.5122064E+02  0.7957747E-01  0.1438867E+00
         13   -1    0    0    0    0  0.00000000000E+00  0.00000000000E+00  0.99999944181E+02  0.10000000000E+03  0.10566000000E+00 0.  1.
         22   -1    0    0    0    0 -0.00000000000E+00 -0.00000000000E+00 -0.97313056376E+01  0.97313056376E+01  0.00000000000E+00 0.  1.
         13    1    1    2    0    0  0.52286828052E+01  0.98089049507E+01  0.14405736455E+02  0.18195882695E+02  0.10566000000E+00 0. -1.
        996    1    1    2    0    0 -0.52286828052E+01 -0.98089049507E+01  0.75862902088E+02  0.91535422944E+02  0.50000000000E+02 0.  0.
<mgrwt>
<rscale>  0 0.51220638E+02</rscale>
<asrwt>0</asrwt>
<pdfrwt beam="1">  1       13 0.10000000E+01 0.51220638E+02</pdfrwt>
<pdfrwt beam="2">  1       22 0.97313308E-01 0.51220638E+02</pdfrwt>
<totfact> 0.14635318E+00</totfact>
</mgrwt>
</event>
<event>
 4    1  0.2437479E+000  0.5871208E+02  0.7957747E-01  0.1403317E+00
         13   -1    0    0    0    0  0.00000000000E+00  0.00000000000E+00  0.99999944184E+02  0.10000000000E+03  0.10566000000E+00 0.  1.
         22   -1    0    0    0    0 -0.00000000000E+00 -0.00000000000E+00 -0.28531966110E+02  0.28531966110E+02  0.00000000000E+00 0. -1.
         13    1    1    2    0    0  0.29706844905E+02 -0.80381718378E+01 -0.59740446414E+01  0.31349788103E+02  0.10566000000E+00 0. -1.
        996    1    1    2    0    0 -0.29706844905E+02  0.80381718378E+01  0.77442022716E+02  0.97182178011E+02  0.50000000000E+02 0.  0.
<mgrwt>
<rscale>  0 0.58712084E+02</rscale>
<asrwt>0</asrwt>
<pdfrwt beam="1">  1       13 0.10000000E+01 0.58712084E+02</pdfrwt>
<pdfrwt beam="2">  1       22 0.28531986E+00 0.58712084E+02</pdfrwt>
<totfact> 0.22970248E-01</totfact>
</mgrwt>
</event>
<event>
 4    1  0.2437479E+000  0.5241155E+02  0.7957747E-01  0.1432752E+00
         13   -1    0    0    0    0  0.00000000000E+00  0.00000000000E+00  0.99999944178E+02  0.99999999998E+02  0.10566000000E+00 0. -1.
         22   -1    0    0    0    0 -0.00000000000E+00 -0.00000000000E+00 -0.13662761757E+02  0.13662761757E+02  0.00000000000E+00 0. -1.
         13    1    1    2    0    0  0.11394803649E+02  0.10822615770E+02  0.42668577528E+01  0.16284587849E+02  0.10566000000E+00 0.  1.
        996    1    1    2    0    0 -0.11394803649E+02 -0.10822615770E+02  0.82070324668E+02  0.97378173906E+02  0.50000000000E+02 0.  0.
<mgrwt>
<rscale>  0 0.52411550E+02</rscale>
<asrwt>0</asrwt>
<pdfrwt beam="1">  1       13 0.10000000E+01 0.52411550E+02</pdfrwt>
<pdfrwt beam="2">  1       22 0.13662786E+00 0.52411550E+02</pdfrwt>
<totfact> 0.87786748E-01</totfact>
</mgrwt>
</event>
<event>
 4    1  0.2437479E+000  0.5690523E+02  0.7957747E-01  0.1411298E+00
         13   -1    0    0    0    0  0.00000000000E+00  0.00000000000E+00  0.99999944180E+02  0.10000000000E+03  0.10566000000E+00 0. -1.
         22   -1    0    0    0    0 -0.00000000000E+00 -0.00000000000E+00 -0.22397296219E+02  0.22397296219E+02  0.00000000000E+00 0.  1.
         13    1    1    2    0    0  0.11724774495E+02 -0.24509891235E+02  0.12861105486E+01  0.27200557893E+02  0.10566000000E+00 0.  1.
        996    1    1    2    0    0 -0.11724774495E+02  0.24509891235E+02  0.76316537413E+02  0.95196738326E+02  0.50000000000E+02 0.  0.
<mgrwt>
<rscale>  0 0.56905229E+02</rscale>
<asrwt>0</asrwt>
<pdfrwt beam="1">  1       13 0.10000000E+01 0.56905229E+02</pdfrwt>
<pdfrwt beam="2">  1       22 0.22397318E+00 0.56905229E+02</pdfrwt>
<totfact> 0.36828045E-01</totfact>
</mgrwt>
</event>
<event>
 4    1  0.2437479E+000  0.5358763E+02  0.7957747E-01  0.1426899E+00
         13   -1    0    0    0    0  0.00000000000E+00  0.00000000000E+00  0.99999944175E+02  0.99999999995E+02  0.10566000000E+00 0.  1.
         22   -1    0    0    0    0 -0.00000000000E+00 -0.00000000000E+00 -0.58605036258E+02  0.58605036258E+02  0.00000000000E+00 0. -1.
         13    1    1    2    0    0  0.19036257733E+02  0.30421790545E+01 -0.49482174640E+02  0.53104903097E+02  0.10566000000E+00 0. -1.
        996    1    1    2    0    0 -0.19036257733E+02 -0.30421790545E+01  0.90877082556E+02  0.10550013316E+03  0.50000000000E+02 0.  0.
<mgrwt>
<rscale>  0 0.53587629E+02</rscale>
<asrwt>0</asrwt>
<pdfrwt beam="1">  1       13 0.10000000E+01 0.53587629E+02</pdfrwt>
<pdfrwt beam="2">  1       22 0.58605048E+00 0.53587629E+02</pdfrwt>
<totfact> 0.59453149E-02</totfact>
</mgrwt>
</event>
<event>
 4    1  0.2437479E+000  0.5203164E+02  0.7957747E-01  0.1434682E+00
         13   -1    0    0    0    0  0.00000000000E+00  0.00000000000E+00  0.99999944183E+02  0.10000000000E+03  0.10566000000E+00 0. -1.
         22   -1    0    0    0    0 -0.00000000000E+00 -0.00000000000E+00 -0.11180059350E+02  0.11180059350E+02  0.00000000000E+00 0. -1.
         13    1    1    2    0    0  0.43513952971E+01 -0.13724320490E+02  0.14299462889E+02  0.20292299448E+02  0.10566000000E+00 0.  1.
        996    1    1    2    0    0 -0.43513952971E+01  0.13724320490E+02  0.74520421943E+02  0.90887759905E+02  0.50000000000E+02 0.  0.
<mgrwt>
<rscale>  0 0.52031641E+02</rscale>
<asrwt>0</asrwt>
<pdfrwt beam="1">  1       13 0.10000000E+01 0.52031641E+02</pdfrwt>
<pdfrwt beam="2">  1       22 0.11180084E+00 0.52031641E+02</pdfrwt>
<totfact> 0.11964829E+00</totfact>
</mgrwt>
</event>
<event>
 4    1  0.2437479E+000  0.5648786E+02  0.7957747E-01  0.1413191E+00
         13   -1    0    0    0    0  0.00000000000E+00  0.00000000000E+00  0.99999944178E+02  0.99999999998E+02  0.10566000000E+00 0.  1.
         22   -1    0    0    0    0 -0.00000000000E+00 -0.00000000000E+00 -0.37548673127E+02  0.37548673127E+02  0.00000000000E+00 0. -1.
         13    1    1    2    0    0  0.18960281604E+02 -0.18204027006E+02 -0.23125432401E+02  0.35009651034E+02  0.10566000000E+00 0. -1.
        996    1    1    2    0    0 -0.18960281604E+02  0.18204027006E+02  0.85576703452E+02  0.10253902209E+03  0.50000000000E+02 0.  0.
<mgrwt>
<rscale>  0 0.56487865E+02</rscale>
<asrwt>0</asrwt>
<pdfrwt beam="1">  1       13 0.10000000E+01 0.56487865E+02</pdfrwt>
<pdfrwt beam="2">  1       22 0.37548691E+00 0.56487865E+02</pdfrwt>
<totfact> 0.13942843E-01</totfact>
</mgrwt>
</event>
<event>
 4    1  0.2437479E+000  0.5753228E+02  0.7957747E-01  0.1408489E+00
         13   -1    0    0    0    0  0.00000000000E+00  0.00000000000E+00  0.99999944174E+02  0.99999999994E+02  0.10566000000E+00 0. -1.
         22   -1    0    0    0    0 -0.00000000000E+00 -0.00000000000E+00 -0.26549236288E+02  0.26549236288E+02  0.00000000000E+00 0.  1.
         13    1    1    2    0    0 -0.24643221521E+02  0.14236407798E+02 -0.53728521069E+01  0.28962775725E+02  0.10566000000E+00 0.  1.
        996    1    1    2    0    0  0.24643221521E+02 -0.14236407798E+02  0.78823559993E+02  0.97586460556E+02  0.50000000000E+02 0.  0.
<mgrwt>
<rscale>  0 0.57532284E+02</rscale>
<asrwt>0</asrwt>
<pdfrwt beam="1">  1       13 0.10000000E+01 0.57532284E+02</pdfrwt>
<pdfrwt beam="2">  1       22 0.26549257E+00 0.57532284E+02</pdfrwt>
<totfact> 0.26398013E-01</totfact>
</mgrwt>
</event>
<event>
 4    1  0.2437479E+000  0.5520724E+02  0.7957747E-01  0.1419121E+00
         13   -1    0    0    0    0  0.00000000000E+00  0.00000000000E+00  0.99999944175E+02  0.99999999995E+02  0.10566000000E+00 0.  1.
         22   -1    0    0    0    0 -0.00000000000E+00 -0.00000000000E+00 -0.21915224615E+02  0.21915224615E+02  0.00000000000E+00 0. -1.
         13    1    1    2    0    0 -0.33783580356E+01 -0.23160862072E+02 -0.32323952204E+01  0.23628338449E+02  0.10566000000E+00 0. -1.
        996    1    1    2    0    0  0.33783580356E+01  0.23160862072E+02  0.81317114780E+02  0.98286886161E+02  0.50000000000E+02 0.  0.
<mgrwt>
<rscale>  0 0.55207235E+02</rscale>
<asrwt>0</asrwt>
<pdfrwt beam="1">  1       13 0.10000000E+01 0.55207235E+02</pdfrwt>
<pdfrwt beam="2">  1       22 0.21915246E+00 0.55207235E+02</pdfrwt>
<totfact> 0.38305502E-01</totfact>
</mgrwt>
</event>
<event>
 4    1  0.2437479E+000  0.5198379E+02  0.7957747E-01  0.1434926E+00
         13   -1    0    0    0    0  0.00000000000E+00  0.00000000000E+00  0.99999944177E+02  0.99999999997E+02  0.10566000000E+00 0. -1.
         22   -1    0    0    0    0 -0.00000000000E+00 -0.00000000000E+00 -0.16601773417E+02  0.16601773417E+02  0.00000000000E+00 0.  1.
         13    1    1    2    0    0 -0.12867422077E+02  0.60616777052E+01 -0.41202944303E+01  0.14808864836E+02  0.10566000000E+00 0.  1.
        996    1    1    2    0    0  0.12867422077E+02 -0.60616777052E+01  0.87518465190E+02  0.10179290858E+03  0.50000000000E+02 0.  0.
<mgrwt>
<rscale>  0 0.51983791E+02</rscale>
<asrwt>0</asrwt>
<pdfrwt beam="1">  1       13 0.10000000E+01 0.51983791E+02</pdfrwt>
<pdfrwt beam="2">  1       22 0.16601797E+00 0.51983791E+02</pdfrwt>
<totfact> 0.63362200E-01</totfact>
</mgrwt>
</event>
<event>
 4    1  0.2437479E+000  0.6742297E+02  0.7957747E-01  0.1369082E+00
         13   -1    0    0    0    0  0.00000000000E+00  0.00000000000E+00  0.99999944177E+02  0.99999999997E+02  0.10566000000E+00 0.  1.
         22   -1    0    0    0    0 -0.00000000000E+00 -0.00000000000E+00 -0.35220528576E+02  0.35220528576E+02  0.00000000000E+00 0. -1.
         13    1    1    2    0    0  0.13425620275E+02  0.43192700394E+02  0.57253453671E+01  0.45592185632E+02  0.10566000000E+00 0. -1.
        996    1    1    2    0    0 -0.13425620275E+02 -0.43192700394E+02  0.59054070234E+02  0.89628342941E+02  0.50000000000E+02 0.  0.
<mgrwt>
<rscale>  0 0.67422968E+02</rscale>
<asrwt>0</asrwt>
<pdfrwt beam="1">  1       13 0.10000000E+01 0.67422968E+02</pdfrwt>
<pdfrwt beam="2">  1       22 0.35220547E+00 0.67422968E+02</pdfrwt>
<totfact> 0.15758838E-01</totfact>
</mgrwt>
</event>
<event>
 4    1  0.2437479E+000  0.5124677E+02  0.7957747E-01  0.1438731E+00
         13   -1    0    0    0    0  0.00000000000E+00  0.00000000000E+00  0.99999944180E+02  0.10000000000E+03  0.10566000000E+00 0. -1.
         22   -1    0    0    0    0 -0.00000000000E+00 -0.00000000000E+00 -0.12269563004E+02  0.12269563004E+02  0.00000000000E+00 0.  1.
         13    1    1    2    0    0 -0.85976562176E+01 -0.72326684751E+01  0.68200692905E+00  0.11256441853E+02  0.10566000000E+00 0.  1.
        996    1    1    2    0    0  0.85976562176E+01  0.72326684751E+01  0.87048374247E+02  0.10101312115E+03  0.50000000000E+02 0.  0.
<mgrwt>
<rscale>  0 0.51246768E+02</rscale>
<asrwt>0</asrwt>
<pdfrwt beam="1">  1       13 0.10000000E+01 0.51246768E+02</pdfrwt>
<pdfrwt beam="2">  1       22 0.12269587E+00 0.51246768E+02</pdfrwt>
<totfact> 0.10370951E+00</totfact>
</mgrwt>
</event>
<event>
 4    1  0.2437479E+000  0.6628508E+02  0.7957747E-01  0.1373202E+00
         13   -1    0    0    0    0  0.00000000000E+00  0.00000000000E+00  0.99999944178E+02  0.99999999998E+02  0.10566000000E+00 0. -1.
         22   -1    0    0    0    0 -0.00000000000E+00 -0.00000000000E+00 -0.36185721385E+02  0.36185721385E+02  0.00000000000E+00 0.  1.
         13    1    1    2    0    0 -0.24181827713E+02 -0.36179435176E+02 -0.93101977568E+00  0.43526891494E+02  0.10566000000E+00 0.  1.
        996    1    1    2    0    0  0.24181827713E+02  0.36179435176E+02  0.64745242569E+02  0.92658829890E+02  0.50000000000E+02 0.  0.
<mgrwt>
<rscale>  0 0.66285084E+02</rscale>
<asrwt>0</asrwt>
<pdfrwt beam="1">  1       13 0.10000000E+01 0.66285084E+02</pdfrwt>
<pdfrwt beam="2">  1       22 0.36185739E+00 0.66285084E+02</pdfrwt>
<totfact> 0.15008546E-01</totfact>
</mgrwt>
</event>
<event>
 4    1  0.2437479E+000  0.6334692E+02  0.7957747E-01  0.1384300E+00
         13   -1    0    0    0    0  0.00000000000E+00  0.00000000000E+00  0.99999944169E+02  0.99999999989E+02  0.10566000000E+00 0. -1.
         22   -1    0    0    0    0 -0.00000000000E+00 -0.00000000000E+00 -0.71345720537E+02  0.71345720537E+02  0.00000000000E+00 0.  1.
         13    1    1    2    0    0  0.24519219958E+02  0.30193376519E+02 -0.54410094551E+02  0.66882745802E+02  0.10566000000E+00 0.  1.
        996    1    1    2    0    0 -0.24519219958E+02 -0.30193376519E+02  0.83064318183E+02  0.10446297472E+03  0.50000000000E+02 0.  0.
<mgrwt>
<rscale>  0 0.63346919E+02</rscale>
<asrwt>0</asrwt>
<pdfrwt beam="1">  1       13 0.10000000E+01 0.63346919E+02</pdfrwt>
<pdfrwt beam="2">  1       22 0.71345729E+00 0.63346919E+02</pdfrwt>
<totfact> 0.67550177E-02</totfact>
</mgrwt>
</event>
<event>
 4    1  0.2437479E+000  0.5675663E+02  0.7957747E-01  0.1411970E+00
         13   -1    0    0    0    0  0.00000000000E+00  0.00000000000E+00  0.99999944178E+02  0.99999999998E+02  0.10566000000E+00 0.  1.
         22   -1    0    0    0    0 -0.00000000000E+00 -0.00000000000E+00 -0.36707915166E+02  0.36707915166E+02  0.00000000000E+00 0. -1.
         13    1    1    2    0    0 -0.14776356202E+01 -0.26816634778E+02 -0.21685505383E+02  0.34519380290E+02  0.10566000000E+00 0. -1.
        996    1    1    2    0    0  0.14776356202E+01  0.26816634778E+02  0.84977534395E+02  0.10218853487E+03  0.50000000000E+02 0.  0.
<mgrwt>
<rscale>  0 0.56756632E+02</rscale>
<asrwt>0</asrwt>
<pdfrwt beam="1">  1       13 0.10000000E+01 0.56756632E+02</pdfrwt>
<pdfrwt beam="2">  1       22 0.36707933E+00 0.56756632E+02</pdfrwt>
<totfact> 0.14519762E-01</totfact>
</mgrwt>
</event>
<event>
 4    1  0.2437479E+000  0.5126713E+02  0.7957747E-01  0.1438624E+00
         13   -1    0    0    0    0  0.00000000000E+00  0.00000000000E+00  0.99999944187E+02  0.10000000001E+03  0.10566000000E+00 0. -1.
         22   -1    0    0    0    0 -0.00000000000E+00 -0.00000000000E+00 -0.24720951241E+02  0.24720951241E+02  0.00000000000E+00 0.  1.
         13    1    1    2    0    0  0.11170717975E+02 -0.18798736080E+01 -0.16251866702E+02  0.19810431601E+02  0.10566000000E+00 0.  1.
        996    1    1    2    0    0 -0.11170717975E+02  0.18798736080E+01  0.91530859648E+02  0.10491051965E+03  0.50000000000E+02 0.  0.
<mgrwt>
<rscale>  0 0.51267132E+02</rscale>
<asrwt>0</asrwt>
<pdfrwt beam="1">  1       13 0.10000000E+01 0.51267132E+02</pdfrwt>
<pdfrwt beam="2">  1       22 0.24720972E+00 0.51267132E+02</pdfrwt>
<totfact> 0.30102073E-01</totfact>
</mgrwt>
</event>
<event>
 4    1  0.2437479E+000  0.5105045E+02  0.7957747E-01  0.1439757E+00
         13   -1    0    0    0    0  0.00000000000E+00  0.00000000000E+00  0.99999944173E+02  0.99999999994E+02  0.10566000000E+00 0.  1.
         22   -1    0    0    0    0 -0.00000000000E+00 -0.00000000000E+00 -0.11625787710E+02  0.11625787710E+02  0.00000000000E+00 0. -1.
         13    1    1    2    0    0 -0.10163263301E+02 -0.16902607807E+01  0.89745541866E+00  0.10342412325E+02  0.10566000000E+00 0. -1.
        996    1    1    2    0    0  0.10163263301E+02  0.16902607807E+01  0.87476701045E+02  0.10128337538E+03  0.50000000000E+02 0.  0.
<mgrwt>
<rscale>  0 0.51050454E+02</rscale>
<asrwt>0</asrwt>
<pdfrwt beam="1">  1       13 0.10000000E+01 0.51050454E+02</pdfrwt>
<pdfrwt beam="2">  1       22 0.11625812E+00 0.51050454E+02</pdfrwt>
<totfact> 0.11256174E+00</totfact>
</mgrwt>
</event>
<event>
 4    1  0.2437479E+000  0.6364891E+02  0.7957747E-01  0.1383127E+00
         13   -1    0    0    0    0  0.00000000000E+00  0.00000000000E+00  0.99999944177E+02  0.99999999997E+02  0.10566000000E+00 0. -1.
         22   -1    0    0    0    0 -0.00000000000E+00 -0.00000000000E+00 -0.27774584543E+02  0.27774584543E+02  0.00000000000E+00 0. -1.
         13    1    1    2    0    0  0.28535460954E+02  0.27146101324E+02  0.14878964845E+02  0.42101996483E+02  0.10566000000E+00 0.  1.
        996    1    1    2    0    0 -0.28535460954E+02 -0.27146101324E+02  0.57346394790E+02  0.85672588057E+02  0.50000000000E+02 0.  0.
<mgrwt>
<rscale>  0 0.63648907E+02</rscale>
<asrwt>0</asrwt>
<pdfrwt beam="1">  1       13 0.10000000E+01 0.63648907E+02</pdfrwt>
<pdfrwt beam="2">  1       22 0.27774605E+00 0.63648907E+02</pdfrwt>
<totfact> 0.24345733E-01</totfact>
</mgrwt>
</event>
<event>
 4    1  0.2437479E+000  0.7097311E+02  0.7957747E-01  0.1356815E+00
         13   -1    0    0    0    0  0.00000000000E+00  0.00000000000E+00  0.99999944173E+02  0.99999999993E+02  0.10566000000E+00 0.  1.
         22   -1    0    0    0    0 -0.00000000000E+00 -0.00000000000E+00 -0.47794172834E+02  0.47794172834E+02  0.00000000000E+00 0. -1.
         13    1    1    2    0    0 -0.27258199123E+02  0.42357676037E+02 -0.12340054769E+02  0.51860102723E+02  0.10566000000E+00 0. -1.
        996    1    1    2    0    0  0.27258199123E+02 -0.42357676037E+02  0.64545826108E+02  0.95934070104E+02  0.50000000000E+02 0.  0.
<mgrwt>
<rscale>  0 0.70973109E+02</rscale>
<asrwt>0</asrwt>
<pdfrwt beam="1">  1       13 0.10000000E+01 0.70973109E+02</pdfrwt>
<pdfrwt beam="2">  1       22 0.47794187E+00 0.70973109E+02</pdfrwt>
<totfact> 0.83877066E-02</totfact>
</mgrwt>
</event>
<event>
 4    1  0.2437479E+000  0.5128464E+02  0.7957747E-01  0.1438533E+00
         13   -1    0    0    0    0  0.00000000000E+00  0.00000000000E+00  0.99999944182E+02  0.10000000000E+03  0.10566000000E+00 0.  1.
         22   -1    0    0    0    0 -0.00000000000E+00 -0.00000000000E+00 -0.26818950111E+02  0.26818950111E+02  0.00000000000E+00 0. -1.
         13    1    1    2    0    0  0.96145410152E+01  0.61380003958E+01 -0.18520107702E+02  0.21751321824E+02  0.10566000000E+00 0. -1.
        996    1    1    2    0    0 -0.96145410152E+01 -0.61380003958E+01  0.91701101773E+02  0.10506762829E+03  0.50000000000E+02 0.  0.
<mgrwt>
<rscale>  0 0.51284641E+02</rscale>
<asrwt>0</asrwt>
<pdfrwt beam="1">  1       13 0.10000000E+01 0.51284641E+02</pdfrwt>
<pdfrwt beam="2">  1       22 0.26818971E+00 0.51284641E+02</pdfrwt>
<totfact> 0.25650809E-01</totfact>
</mgrwt>
</event>
<event>
 4    1  0.2437479E+000  0.7281358E+02  0.7957747E-01  0.1350779E+00
         13   -1    0    0    0    0  0.00000000000E+00  0.00000000000E+00  0.99999944175E+02  0.99999999996E+02  0.10566000000E+00 0. -1.
         22   -1    0    0    0    0 -0.00000000000E+00 -0.00000000000E+00 -0.46882834092E+02  0.46882834092E+02  0.00000000000E+00 0.  1.
         13    1    1    2    0    0  0.27697881719E+02  0.45107032430E+02 -0.57582281866E+01  0.53244580779E+02  0.10566000000E+00 0.  1.
        996    1    1    2    0    0 -0.27697881719E+02 -0.45107032430E+02  0.58875338270E+02  0.93638253309E+02  0.50000000000E+02 0.  0.
<mgrwt>
<rscale>  0 0.72813577E+02</rscale>
<asrwt>0</asrwt>
<pdfrwt beam="1">  1       13 0.10000000E+01 0.72813577E+02</pdfrwt>
<pdfrwt beam="2">  1       22 0.46882849E+00 0.72813577E+02</pdfrwt>
<totfact> 0.88253010E-02</totfact>
</mgrwt>
</event>
<event>
 4    1  0.2437479E+000  0.5101751E+02  0.7957747E-01  0.1439929E+00
         13   -1    0    0    0    0  0.00000000000E+00  0.00000000000E+00  0.99999944184E+02  0.10000000000E+03  0.10566000000E+00 0. -1.
         22   -1    0    0    0    0 -0.00000000000E+00 -0.00000000000E+00 -0.28110901627E+02  0.28110901627E+02  0.00000000000E+00 0.  1.
         13    1    1    2    0    0 -0.55744444531E+01  0.84682860257E+01 -0.20331423303E+02  0.22719248155E+02  0.10566000000E+00 0.  1.
        996    1    1    2    0    0  0.55744444531E+01 -0.84682860257E+01  0.92220465860E+02  0.10539165348E+03  0.50000000000E+02 0.  0.
<mgrwt>
<rscale>  0 0.51017510E+02</rscale>
<asrwt>0</asrwt>
<pdfrwt beam="1">  1       13 0.10000000E+01 0.51017510E+02</pdfrwt>
<pdfrwt beam="2">  1       22 0.28110922E+00 0.51017510E+02</pdfrwt>
<totfact> 0.23398030E-01</totfact>
</mgrwt>
</event>
<event>
 4    1  0.2437479E+000  0.5959791E+02  0.7957747E-01  0.1399527E+00
         13   -1    0    0    0    0  0.00000000000E+00  0.00000000000E+00  0.99999944184E+02  0.10000000000E+03  0.10566000000E+00 0.  1.
         22   -1    0    0    0    0 -0.00000000000E+00 -0.00000000000E+00 -0.35091537216E+02  0.35091537216E+02  0.00000000000E+00 0. -1.
         13    1    1    2    0    0  0.26000555619E+02  0.19387681784E+02 -0.14730374487E+02  0.35621709589E+02  0.10566000000E+00 0. -1.
        996    1    1    2    0    0 -0.26000555619E+02 -0.19387681784E+02  0.79638781454E+02  0.99469827631E+02  0.50000000000E+02 0.  0.
<mgrwt>
<rscale>  0 0.59597912E+02</rscale>
<asrwt>0</asrwt>
<pdfrwt beam="1">  1       13 0.10000000E+01 0.59597912E+02</pdfrwt>
<pdfrwt beam="2">  1       22 0.35091555E+00 0.59597912E+02</pdfrwt>
<totfact> 0.15757626E-01</totfact>
</mgrwt>
</event>
<event>
 4    1  0.2437479E+000  0.6055268E+02  0.7957747E-01  0.1395527E+00
         13   -1    0    0    0    0  0.00000000000E+00  0.00000000000E+00  0.99999944173E+02  0.99999999994E+02  0.10566000000E+00 0. -1.
         22   -1    0    0    0    0 -0.00000000000E+00 -0.00000000000E+00 -0.82785144273E+02  0.82785144273E+02  0.00000000000E+00 0.  1.
         13    1    1    2    0    0 -0.31991993779E+02  0.11964077976E+02 -0.69256090089E+02  0.77220748548E+02  0.10566000000E+00 0.  1.
        996    1    1    2    0    0  0.31991993779E+02 -0.11964077976E+02  0.86470889990E+02  0.10556439572E+03  0.50000000000E+02 0.  0.
<mgrwt>
<rscale>  0 0.60552678E+02</rscale>
<asrwt>0</asrwt>
<pdfrwt beam="1">  1       13 0.10000000E+01 0.60552678E+02</pdfrwt>
<pdfrwt beam="2">  1       22 0.82785149E+00 0.60552678E+02</pdfrwt>
<totfact> 0.23743058E-02</totfact>
</mgrwt>
</event>
<event>
 4    1  0.2437479E+000  0.5227647E+02  0.7957747E-01  0.1433436E+00
         13   -1    0    0    0    0  0.00000000000E+00  0.00000000000E+00  0.99999944178E+02  0.99999999998E+02  0.10566000000E+00 0.  1.
         22   -1    0    0    0    0 -0.00000000000E+00 -0.00000000000E+00 -0.14942035698E+02  0.14942035698E+02  0.00000000000E+00 0. -1.
         13    1    1    2    0    0 -0.23440728468E+01 -0.15077607992E+02  0.18365692300E+00  0.15260204263E+02  0.10566000000E+00 0. -1.
        996    1    1    2    0    0  0.23440728468E+01  0.15077607992E+02  0.84874251557E+02  0.99681831432E+02  0.50000000000E+02 0.  0.
<mgrwt>
<rscale>  0 0.52276466E+02</rscale>
<asrwt>0</asrwt>
<pdfrwt beam="1">  1       13 0.10000000E+01 0.52276466E+02</pdfrwt>
<pdfrwt beam="2">  1       22 0.14942059E+00 0.52276466E+02</pdfrwt>
<totfact> 0.75821815E-01</totfact>
</mgrwt>
</event>
<event>
 4    1  0.2437479E+000  0.5255405E+02  0.7957747E-01  0.1432033E+00
         13   -1    0    0    0    0  0.00000000000E+00  0.00000000000E+00  0.99999944184E+02  0.10000000000E+03  0.10566000000E+00 0.  1.
         22   -1    0    0    0    0 -0.00000000000E+00 -0.00000000000E+00 -0.20453054489E+02  0.20453054489E+02  0.00000000000E+00 0. -1.
         13    1    1    2    0    0 -0.94335010286E+01 -0.13150575088E+02 -0.82217779745E+01  0.18153164019E+02  0.10566000000E+00 0. -1.
        996    1    1    2    0    0  0.94335010286E+01  0.13150575088E+02  0.87768667669E+02  0.10229989048E+03  0.50000000000E+02 0.  0.
<mgrwt>
<rscale>  0 0.52554054E+02</rscale>
<asrwt>0</asrwt>
<pdfrwt beam="1">  1       13 0.10000000E+01 0.52554054E+02</pdfrwt>
<pdfrwt beam="2">  1       22 0.20453077E+00 0.52554054E+02</pdfrwt>
<totfact> 0.43489114E-01</totfact>
</mgrwt>
</event>
<event>
 4    1  0.2437479E+000  0.6225375E+02  0.7957747E-01  0.1388610E+00
         13   -1    0    0    0    0  0.00000000000E+00  0.00000000000E+00  0.99999944179E+02  0.99999999999E+02  0.10566000000E+00 0.  1.
         22   -1    0    0    0    0 -0.00000000000E+00 -0.00000000000E+00 -0.27777621859E+02  0.27777621859E+02  0.00000000000E+00 0.  1.
         13    1    1    2    0    0 -0.31516058173E+02  0.19551650213E+02  0.48730636978E+02  0.61238999773E+02  0.10566000000E+00 0. -1.
        996    1    1    2    0    0  0.31516058173E+02 -0.19551650213E+02  0.23491685342E+02  0.66538622086E+02  0.50000000000E+02 0.  0.
<mgrwt>
<rscale>  0 0.62253746E+02</rscale>
<asrwt>0</asrwt>
<pdfrwt beam="1">  1       13 0.10000000E+01 0.62253746E+02</pdfrwt>
<pdfrwt beam="2">  1       22 0.27777642E+00 0.62253746E+02</pdfrwt>
<totfact> 0.24300799E-01</totfact>
</mgrwt>
</event>
<event>
 4    1  0.2437479E+000  0.6250000E+02  0.7957747E-01  0.1387630E+00
         13   -1    0    0    0    0  0.00000000000E+00  0.00000000000E+00  0.99999944178E+02  0.99999999998E+02  0.10566000000E+00 0.  1.
         22   -1    0    0    0    0 -0.00000000000E+00 -0.00000000000E+00 -0.50101800598E+02  0.50101800598E+02  0.00000000000E+00 0. -1.
         13    1    1    2    0    0  0.30100382873E+02  0.22365521709E+02 -0.30451123182E+02  0.48306642167E+02  0.10566000000E+00 0. -1.
        996    1    1    2    0    0 -0.30100382873E+02 -0.22365521709E+02  0.80349266762E+02  0.10179515843E+03  0.50000000000E+02 0.  0.
<mgrwt>
<rscale>  0 0.62499997E+02</rscale>
<asrwt>0</asrwt>
<pdfrwt beam="1">  1       13 0.10000000E+01 0.62499997E+02</pdfrwt>
<pdfrwt beam="2">  1       22 0.50101815E+00 0.62499997E+02</pdfrwt>
<totfact> 0.73515513E-02</totfact>
</mgrwt>
</event>
<event>
 4    1  0.2437479E+000  0.5470940E+02  0.7957747E-01  0.1421478E+00
         13   -1    0    0    0    0  0.00000000000E+00  0.00000000000E+00  0.99999944180E+02  0.10000000000E+03  0.10566000000E+00 0. -1.
         22   -1    0    0    0    0 -0.00000000000E+00 -0.00000000000E+00 -0.19316485204E+02  0.19316485204E+02  0.00000000000E+00 0. -1.
         13    1    1    2    0    0 -0.21475859075E+02 -0.56485189462E+01  0.45681155206E+00  0.22211216314E+02  0.10566000000E+00 0.  1.
        996    1    1    2    0    0  0.21475859075E+02  0.56485189462E+01  0.80226647424E+02  0.97105268890E+02  0.50000000000E+02 0.  0.
<mgrwt>
<rscale>  0 0.54709399E+02</rscale>
<asrwt>0</asrwt>
<pdfrwt beam="1">  1       13 0.10000000E+01 0.54709399E+02</pdfrwt>
<pdfrwt beam="2">  1       22 0.19316508E+00 0.54709399E+02</pdfrwt>
<totfact> 0.48558078E-01</totfact>
</mgrwt>
</event>
<event>
 4    1  0.2437479E+000  0.5178507E+02  0.7957747E-01  0.1435945E+00
         13   -1    0    0    0    0  0.00000000000E+00  0.00000000000E+00  0.99999944175E+02  0.99999999995E+02  0.10566000000E+00 0.  1.
         22   -1    0    0    0    0 -0.00000000000E+00 -0.00000000000E+00 -0.10658977591E+02  0.10658977591E+02  0.00000000000E+00 0.  1.
         13    1    1    2    0    0 -0.41923544519E+01 -0.12810825589E+02  0.17087828305E+02  0.21764607240E+02  0.10566000000E+00 0. -1.
        996    1    1    2    0    0  0.41923544519E+01  0.12810825589E+02  0.72253138279E+02  0.88894370346E+02  0.50000000000E+02 0.  0.
<mgrwt>
<rscale>  0 0.51785066E+02</rscale>
<asrwt>0</asrwt>
<pdfrwt beam="1">  1       13 0.10000000E+01 0.51785066E+02</pdfrwt>
<pdfrwt beam="2">  1       22 0.10659003E+00 0.51785066E+02</pdfrwt>
<totfact> 0.12836049E+00</totfact>
</mgrwt>
</event>
<event>
 4    1  0.2437479E+000  0.5391084E+02  0.7957747E-01  0.1425321E+00
         13   -1    0    0    0    0  0.00000000000E+00  0.00000000000E+00  0.99999944185E+02  0.10000000001E+03  0.10566000000E+00 0. -1.
         22   -1    0    0    0    0 -0.00000000000E+00 -0.00000000000E+00 -0.74658709223E+02  0.74658709223E+02  0.00000000000E+00 0.  1.
         13    1    1    2    0    0  0.57807788693E+01 -0.19312206548E+02 -0.65771349144E+02  0.68791425762E+02  0.10566000000E+00 0.  1.
        996    1    1    2    0    0 -0.57807788693E+01  0.19312206548E+02  0.91112584106E+02  0.10586728347E+03  0.50000000000E+02 0.  0.
<mgrwt>
<rscale>  0 0.53910841E+02</rscale>
<asrwt>0</asrwt>
<pdfrwt beam="1">  1       13 0.10000000E+01 0.53910841E+02</pdfrwt>
<pdfrwt beam="2">  1       22 0.74658716E+00 0.53910841E+02</pdfrwt>
<totfact> 0.50590539E-02</totfact>
</mgrwt>
</event>
<event>
 4    1  0.2437479E+000  0.5907473E+02  0.7957747E-01  0.1401756E+00
         13   -1    0    0    0    0  0.00000000000E+00  0.00000000000E+00  0.99999944181E+02  0.10000000000E+03  0.10566000000E+00 0.  1.
         22   -1    0    0    0    0 -0.00000000000E+00 -0.00000000000E+00 -0.54089956157E+02  0.54089956157E+02  0.00000000000E+00 0. -1.
         13    1    1    2    0    0  0.25539627835E+02 -0.18372554524E+02 -0.39339276358E+02  0.50372742412E+02  0.10566000000E+00 0. -1.
        996    1    1    2    0    0 -0.25539627835E+02  0.18372554524E+02  0.85249264382E+02  0.10371721375E+03  0.50000000000E+02 0.  0.
<mgrwt>
<rscale>  0 0.59074727E+02</rscale>
<asrwt>0</asrwt>
<pdfrwt beam="1">  1       13 0.10000000E+01 0.59074727E+02</pdfrwt>
<pdfrwt beam="2">  1       22 0.54089969E+00 0.59074727E+02</pdfrwt>
<totfact> 0.60557507E-02</totfact>
</mgrwt>
</event>
<event>
 4    1  0.2437479E+000  0.5100803E+02  0.7957747E-01  0.1439979E+00
         13   -1    0    0    0    0  0.00000000000E+00  0.00000000000E+00  0.99999944176E+02  0.99999999996E+02  0.10566000000E+00 0. -1.
         22   -1    0    0    0    0 -0.00000000000E+00 -0.00000000000E+00 -0.10883914911E+02  0.10883914911E+02  0.00000000000E+00 0. -1.
         13    1    1    2    0    0  0.17409038398E+01 -0.99392472117E+01  0.25512177245E+01  0.10408614568E+02  0.10566000000E+00 0.  1.
        996    1    1    2    0    0 -0.17409038398E+01  0.99392472117E+01  0.86564811540E+02  0.10047530034E+03  0.50000000000E+02 0.  0.
<mgrwt>
<rscale>  0 0.51008033E+02</rscale>
<asrwt>0</asrwt>
<pdfrwt beam="1">  1       13 0.10000000E+01 0.51008033E+02</pdfrwt>
<pdfrwt beam="2">  1       22 0.10883940E+00 0.51008033E+02</pdfrwt>
<totfact> 0.12423053E+00</totfact>
</mgrwt>
</event>
<event>
 4    1  0.2437479E+000  0.5261449E+02  0.7957747E-01  0.1431729E+00
         13   -1    0    0    0    0  0.00000000000E+00  0.00000000000E+00  0.99999944176E+02  0.99999999997E+02  0.10566000000E+00 0. -1.
         22   -1    0    0    0    0 -0.00000000000E+00 -0.00000000000E+00 -0.31333207338E+02  0.31333207338E+02  0.00000000000E+00 0.  1.
         13    1    1    2    0    0  0.14257233801E+02 -0.80632295139E+01 -0.21445475581E+02  0.26985254729E+02  0.10566000000E+00 0.  1.
        996    1    1    2    0    0 -0.14257233801E+02  0.80632295139E+01  0.90112212420E+02  0.10434795261E+03  0.50000000000E+02 0.  0.
<mgrwt>
<rscale>  0 0.52614488E+02</rscale>
<asrwt>0</asrwt>
<pdfrwt beam="1">  1       13 0.10000000E+01 0.52614488E+02</pdfrwt>
<pdfrwt beam="2">  1       22 0.31333227E+00 0.52614488E+02</pdfrwt>
<totfact> 0.19124963E-01</totfact>
</mgrwt>
</event>
<event>
 4    1  0.2437479E+000  0.5111813E+02  0.7957747E-01  0.1439402E+00
         13   -1    0    0    0    0  0.00000000000E+00  0.00000000000E+00  0.99999944178E+02  0.99999999998E+02  0.10566000000E+00 0.  1.
         22   -1    0    0    0    0 -0.00000000000E+00 -0.00000000000E+00 -0.14886216727E+02  0.14886216727E+02  0.00000000000E+00 0. -1.
         13    1    1    2    0    0  0.97186920620E+01 -0.43139842679E+01 -0.46356274516E+01  0.11600156963E+02  0.10566000000E+00 0. -1.
        996    1    1    2    0    0 -0.97186920620E+01  0.43139842679E+01  0.89749354903E+02  0.10328605976E+03  0.50000000000E+02 0.  0.
<mgrwt>
<rscale>  0 0.51118132E+02</rscale>
<asrwt>0</asrwt>
<pdfrwt beam="1">  1       13 0.10000000E+01 0.51118132E+02</pdfrwt>
<pdfrwt beam="2">  1       22 0.14886240E+00 0.51118132E+02</pdfrwt>
<totfact> 0.76112708E-01</totfact>
</mgrwt>
</event>
<event>
 4    1  0.2437479E+000  0.6132916E+02  0.7957747E-01  0.1392337E+00
         13   -1    0    0    0    0  0.00000000000E+00  0.00000000000E+00  0.99999944178E+02  0.99999999999E+02  0.10566000000E+00 0.  1.
         22   -1    0    0    0    0 -0.00000000000E+00 -0.00000000000E+00 -0.32494611274E+02  0.32494611274E+02  0.00000000000E+00 0. -1.
         13    1    1    2    0    0  0.32762012031E+02 -0.13708263575E+02 -0.67885546755E+01  0.36157455126E+02  0.10566000000E+00 0. -1.
        996    1    1    2    0    0 -0.32762012031E+02  0.13708263575E+02  0.74293887580E+02  0.96337156146E+02  0.50000000000E+02 0.  0.
<mgrwt>
<rscale>  0 0.61329160E+02</rscale>
<asrwt>0</asrwt>
<pdfrwt beam="1">  1       13 0.10000000E+01 0.61329160E+02</pdfrwt>
<pdfrwt beam="2">  1       22 0.32494630E+00 0.61329160E+02</pdfrwt>
<totfact> 0.18082517E-01</totfact>
</mgrwt>
</event>
<event>
 4    1  0.2437479E+000  0.5320249E+02  0.7957747E-01  0.1428796E+00
         13   -1    0    0    0    0  0.00000000000E+00  0.00000000000E+00  0.99999944173E+02  0.99999999994E+02  0.10566000000E+00 0.  1.
         22   -1    0    0    0    0 -0.00000000000E+00 -0.00000000000E+00 -0.12785344531E+02  0.12785344531E+02  0.00000000000E+00 0.  1.
         13    1    1    2    0    0  0.12231368700E+02 -0.13449860987E+02  0.25261283235E+02  0.31123122202E+02  0.10566000000E+00 0. -1.
        996    1    1    2    0    0 -0.12231368700E+02  0.13449860987E+02  0.61953316407E+02  0.81662222323E+02  0.50000000000E+02 0.  0.
<mgrwt>
<rscale>  0 0.53202492E+02</rscale>
<asrwt>0</asrwt>
<pdfrwt beam="1">  1       13 0.10000000E+01 0.53202492E+02</pdfrwt>
<pdfrwt beam="2">  1       22 0.12785369E+00 0.53202492E+02</pdfrwt>
<totfact> 0.97694439E-01</totfact>
</mgrwt>
</event>
<event>
 4    1  0.2437479E+000  0.5347550E+02  0.7957747E-01  0.1427449E+00
         13   -1    0    0    0    0  0.00000000000E+00  0.00000000000E+00  0.99999944185E+02  0.10000000001E+03  0.10566000000E+00 0. -1.
         22   -1    0    0    0    0 -0.00000000000E+00 -0.00000000000E+00 -0.13388152389E+02  0.13388152389E+02  0.00000000000E+00 0. -1.
         13    1    1    2    0    0  0.19036358850E+01  0.18868093214E+02  0.15997611643E+02  0.24810552461E+02  0.10566000000E+00 0.  1.
        996    1    1    2    0    0 -0.19036358850E+01 -0.18868093214E+02  0.70614180154E+02  0.88577599933E+02  0.50000000000E+02 0.  0.
<mgrwt>
<rscale>  0 0.53475497E+02</rscale>
<asrwt>0</asrwt>
<pdfrwt beam="1">  1       13 0.10000000E+01 0.53475497E+02</pdfrwt>
<pdfrwt beam="2">  1       22 0.13388177E+00 0.53475497E+02</pdfrwt>
<totfact> 0.90886421E-01</totfact>
</mgrwt>
</event>
<event>
 4    1  0.2437479E+000  0.5378683E+02  0.7957747E-01  0.1425925E+00
         13   -1    0    0    0    0  0.00000000000E+00  0.00000000000E+00  0.99999944175E+02  0.99999999995E+02  0.10566000000E+00 0. -1.
         22   -1    0    0    0    0 -0.00000000000E+00 -0.00000000000E+00 -0.26280907685E+02  0.26280907685E+02  0.00000000000E+00 0.  1.
         13    1    1    2    0    0 -0.37454220390E+01 -0.19467797648E+02 -0.13376363171E+02  0.23915718413E+02  0.10566000000E+00 0.  1.
        996    1    1    2    0    0  0.37454220390E+01  0.19467797648E+02  0.87095399661E+02  0.10236518927E+03  0.50000000000E+02 0.  0.
<mgrwt>
<rscale>  0 0.53786832E+02</rscale>
<asrwt>0</asrwt>
<pdfrwt beam="1">  1       13 0.10000000E+01 0.53786832E+02</pdfrwt>
<pdfrwt beam="2">  1       22 0.26280928E+00 0.53786832E+02</pdfrwt>
<totfact> 0.26790360E-01</totfact>
</mgrwt>
</event>
<event>
 4    1  0.2437479E+000  0.5127476E+02  0.7957747E-01  0.1438585E+00
         13   -1    0    0    0    0  0.00000000000E+00  0.00000000000E+00  0.99999944176E+02  0.99999999996E+02  0.10566000000E+00 0. -1.
         22   -1    0    0    0    0 -0.00000000000E+00 -0.00000000000E+00 -0.10724528550E+02  0.10724528550E+02  0.00000000000E+00 0. -1.
         13    1    1    2    0    0 -0.76165205135E+01 -0.84314577450E+01  0.57960659846E+01  0.12755642256E+02  0.10566000000E+00 0.  1.
        996    1    1    2    0    0  0.76165205135E+01  0.84314577450E+01  0.83479349641E+02  0.97968886290E+02  0.50000000000E+02 0.  0.
<mgrwt>
<rscale>  0 0.51274759E+02</rscale>
<asrwt>0</asrwt>
<pdfrwt beam="1">  1       13 0.10000000E+01 0.51274759E+02</pdfrwt>
<pdfrwt beam="2">  1       22 0.10724553E+00 0.51274759E+02</pdfrwt>
<totfact> 0.12705179E+00</totfact>
</mgrwt>
</event>
<event>
 4    1  0.2437479E+000  0.5116044E+02  0.7957747E-01  0.1439181E+00
         13   -1    0    0    0    0  0.00000000000E+00  0.00000000000E+00  0.99999944176E+02  0.99999999996E+02  0.10566000000E+00 0.  1.
         22   -1    0    0    0    0 -0.00000000000E+00 -0.00000000000E+00 -0.16051833132E+02  0.16051833132E+02  0.00000000000E+00 0. -1.
         13    1    1    2    0    0  0.19464874330E+01  0.10658407707E+02 -0.61373793237E+01  0.12452672692E+02  0.10566000000E+00 0. -1.
        996    1    1    2    0    0 -0.19464874330E+01 -0.10658407707E+02  0.90085490368E+02  0.10359916044E+03  0.50000000000E+02 0.  0.
<mgrwt>
<rscale>  0 0.51160439E+02</rscale>
<asrwt>0</asrwt>
<pdfrwt beam="1">  1       13 0.10000000E+01 0.51160439E+02</pdfrwt>
<pdfrwt beam="2">  1       22 0.16051857E+00 0.51160439E+02</pdfrwt>
<totfact> 0.67039344E-01</totfact>
</mgrwt>
</event>
<event>
 4    1  0.2437479E+000  0.5458104E+02  0.7957747E-01  0.1422091E+00
         13   -1    0    0    0    0  0.00000000000E+00  0.00000000000E+00  0.99999944170E+02  0.99999999990E+02  0.10566000000E+00 0.  1.
         22   -1    0    0    0    0 -0.00000000000E+00 -0.00000000000E+00 -0.18465566630E+02  0.18465566630E+02  0.00000000000E+00 0. -1.
         13    1    1    2    0    0 -0.21217007050E+02 -0.53785132995E+01  0.19665257929E+01  0.21976537061E+02  0.10566000000E+00 0. -1.
        996    1    1    2    0    0  0.21217007050E+02  0.53785132995E+01  0.79567851748E+02  0.96489029559E+02  0.50000000000E+02 0.  0.
<mgrwt>
<rscale>  0 0.54581039E+02</rscale>
<asrwt>0</asrwt>
<pdfrwt beam="1">  1       13 0.10000000E+01 0.54581039E+02</pdfrwt>
<pdfrwt beam="2">  1       22 0.18465589E+00 0.54581039E+02</pdfrwt>
<totfact> 0.52716492E-01</totfact>
</mgrwt>
</event>
<event>
 4    1  0.2437479E+000  0.5945076E+02  0.7957747E-01  0.1400151E+00
         13   -1    0    0    0    0  0.00000000000E+00  0.00000000000E+00  0.99999944181E+02  0.10000000000E+03  0.10566000000E+00 0.  1.
         22   -1    0    0    0    0 -0.00000000000E+00 -0.00000000000E+00 -0.31525866487E+02  0.31525866487E+02  0.00000000000E+00 0. -1.
         13    1    1    2    0    0 -0.37259094050E+01 -0.31945435142E+02 -0.94417288297E+01  0.33519406836E+02  0.10566000000E+00 0. -1.
        996    1    1    2    0    0  0.37259094050E+01  0.31945435142E+02  0.77915806523E+02  0.98006459652E+02  0.50000000000E+02 0.  0.
<mgrwt>
<rscale>  0 0.59450763E+02</rscale>
<asrwt>0</asrwt>
<pdfrwt beam="1">  1       13 0.10000000E+01 0.59450763E+02</pdfrwt>
<pdfrwt beam="2">  1       22 0.31525886E+00 0.59450763E+02</pdfrwt>
<totfact> 0.19061762E-01</totfact>
</mgrwt>
</event>
<event>
 4    1  0.2437479E+000  0.8246399E+02  0.7957747E-01  0.1322201E+00
         13   -1    0    0    0    0  0.00000000000E+00  0.00000000000E+00  0.99999944191E+02  0.10000000001E+03  0.10566000000E+00 0. -1.
         22   -1    0    0    0    0 -0.00000000000E+00 -0.00000000000E+00 -0.75486732438E+02  0.75486732438E+02  0.00000000000E+00 0.  1.
         13    1    1    2    0    0 -0.38210512240E+01  0.65465328830E+02 -0.34484595038E+02  0.74091215203E+02  0.10566000000E+00 0.  1.
        996    1    1    2    0    0  0.38210512240E+01 -0.65465328830E+02  0.58997806792E+02  0.10139551725E+03  0.50000000000E+02 0.  0.
<mgrwt>
<rscale>  0 0.82463990E+02</rscale>
<asrwt>0</asrwt>
<pdfrwt beam="1">  1       13 0.10000000E+01 0.82463990E+02</pdfrwt>
<pdfrwt beam="2">  1       22 0.75486739E+00 0.82463990E+02</pdfrwt>
<totfact> 0.46839772E-02</totfact>
</mgrwt>
</event>
<event>
 4    1  0.2437479E+000  0.5232632E+02  0.7957747E-01  0.1433183E+00
         13   -1    0    0    0    0  0.00000000000E+00  0.00000000000E+00  0.99999944169E+02  0.99999999989E+02  0.10566000000E+00 0.  1.
         22   -1    0    0    0    0 -0.00000000000E+00 -0.00000000000E+00 -0.77616079051E+02  0.77616079051E+02  0.00000000000E+00 0. -1.
         13    1    1    2    0    0  0.59084777485E+01 -0.14252495925E+02 -0.69871271715E+02  0.71554521342E+02  0.10566000000E+00 0. -1.
        996    1    1    2    0    0 -0.59084777485E+01  0.14252495925E+02  0.92255136833E+02  0.10606155770E+03  0.50000000000E+02 0.  0.
<mgrwt>
<rscale>  0 0.52326320E+02</rscale>
<asrwt>0</asrwt>
<pdfrwt beam="1">  1       13 0.10000000E+01 0.52326320E+02</pdfrwt>
<pdfrwt beam="2">  1       22 0.77616085E+00 0.52326320E+02</pdfrwt>
<totfact> 0.38455268E-02</totfact>
</mgrwt>
</event>
<event>
 4    1  0.2437479E+000  0.5178749E+02  0.7957747E-01  0.1435932E+00
         13   -1    0    0    0    0  0.00000000000E+00  0.00000000000E+00  0.99999944175E+02  0.99999999996E+02  0.10566000000E+00 0. -1.
         22   -1    0    0    0    0 -0.00000000000E+00 -0.00000000000E+00 -0.10791189071E+02  0.10791189071E+02  0.00000000000E+00 0. -1.
         13    1    1    2    0    0 -0.12799656368E+02 -0.42559436116E+01  0.13669083214E+02  0.19204146925E+02  0.10566000000E+00 0.  1.
        996    1    1    2    0    0  0.12799656368E+02  0.42559436116E+01  0.75539671890E+02  0.91587042142E+02  0.50000000000E+02 0.  0.
<mgrwt>
<rscale>  0 0.51787491E+02</rscale>
<asrwt>0</asrwt>
<pdfrwt beam="1">  1       13 0.10000000E+01 0.51787491E+02</pdfrwt>
<pdfrwt beam="2">  1       22 0.10791214E+00 0.51787491E+02</pdfrwt>
<totfact> 0.12604553E+00</totfact>
</mgrwt>
</event>
<event>
 4    1  0.2437479E+000  0.6145507E+02  0.7957747E-01  0.1391825E+00
         13   -1    0    0    0    0  0.00000000000E+00  0.00000000000E+00  0.99999944180E+02  0.10000000000E+03  0.10566000000E+00 0. -1.
         22   -1    0    0    0    0 -0.00000000000E+00 -0.00000000000E+00 -0.32942086299E+02  0.32942086299E+02  0.00000000000E+00 0.  1.
         13    1    1    2    0    0  0.34794587923E+02  0.81278434223E+01 -0.73060771763E+01  0.36470743277E+02  0.10566000000E+00 0.  1.
        996    1    1    2    0    0 -0.34794587923E+02 -0.81278434223E+01  0.74363935057E+02  0.96471343022E+02  0.50000000000E+02 0.  0.
<mgrwt>
<rscale>  0 0.61455066E+02</rscale>
<asrwt>0</asrwt>
<pdfrwt beam="1">  1       13 0.10000000E+01 0.61455066E+02</pdfrwt>
<pdfrwt beam="2">  1       22 0.32942105E+00 0.61455066E+02</pdfrwt>
<totfact> 0.17648036E-01</totfact>
</mgrwt>
</event>
<event>
 4    1  0.2437479E+000  0.5503388E+02  0.7957747E-01  0.1419939E+00
         13   -1    0    0    0    0  0.00000000000E+00  0.00000000000E+00  0.99999944179E+02  0.99999999999E+02  0.10566000000E+00 0. -1.
         22   -1    0    0    0    0 -0.00000000000E+00 -0.00000000000E+00 -0.15418120634E+02  0.15418120634E+02  0.00000000000E+00 0. -1.
         13    1    1    2    0    0 -0.12529522838E+02 -0.19280543313E+02  0.31105361517E+02  0.38681817074E+02  0.10566000000E+00 0.  1.
        996    1    1    2    0    0  0.12529522838E+02  0.19280543313E+02  0.53476462027E+02  0.76736303559E+02  0.50000000000E+02 0.  0.
<mgrwt>
<rscale>  0 0.55033883E+02</rscale>
<asrwt>0</asrwt>
<pdfrwt beam="1">  1       13 0.10000000E+01 0.55033883E+02</pdfrwt>
<pdfrwt beam="2">  1       22 0.15418144E+00 0.55033883E+02</pdfrwt>
<totfact> 0.72333767E-01</totfact>
</mgrwt>
</event>
<event>
 4    1  0.2437479E+000  0.5238298E+02  0.7957747E-01  0.1432896E+00
         13   -1    0    0    0    0  0.00000000000E+00  0.00000000000E+00  0.99999944180E+02  0.10000000000E+03  0.10566000000E+00 0.  1.
         22   -1    0    0    0    0 -0.00000000000E+00 -0.00000000000E+00 -0.19891762736E+02  0.19891762736E+02  0.00000000000E+00 0.  1.
         13    1    1    2    0    0  0.15540429034E+02  0.15721965730E+01 -0.78768591517E+01  0.17493793493E+02  0.10566000000E+00 0. -1.
        996    1    1    2    0    0 -0.15540429034E+02 -0.15721965730E+01  0.87985040596E+02  0.10239796924E+03  0.50000000000E+02 0.  0.
<mgrwt>
<rscale>  0 0.52382981E+02</rscale>
<asrwt>0</asrwt>
<pdfrwt beam="1">  1       13 0.10000000E+01 0.52382981E+02</pdfrwt>
<pdfrwt beam="2">  1       22 0.19891785E+00 0.52382981E+02</pdfrwt>
<totfact> 0.45799862E-01</totfact>
</mgrwt>
</event>
<event>
 4    1  0.2437479E+000  0.5307678E+02  0.7957747E-01  0.1429419E+00
         13   -1    0    0    0    0  0.00000000000E+00  0.00000000000E+00  0.99999944178E+02  0.99999999998E+02  0.10566000000E+00 0.  1.
         22   -1    0    0    0    0 -0.00000000000E+00 -0.00000000000E+00 -0.14669355392E+02  0.14669355392E+02  0.00000000000E+00 0.  1.
         13    1    1    2    0    0 -0.54832707712E+01 -0.16943395768E+02  0.51963399893E+01  0.18551496754E+02  0.10566000000E+00 0. -1.
        996    1    1    2    0    0  0.54832707712E+01  0.16943395768E+02  0.80134248796E+02  0.96117858635E+02  0.50000000000E+02 0.  0.
<mgrwt>
<rscale>  0 0.53076783E+02</rscale>
<asrwt>0</asrwt>
<pdfrwt beam="1">  1       13 0.10000000E+01 0.53076783E+02</pdfrwt>
<pdfrwt beam="2">  1       22 0.14669379E+00 0.53076783E+02</pdfrwt>
<totfact> 0.78298335E-01</totfact>
</mgrwt>
</event>
<event>
 4    1  0.2437479E+000  0.5500704E+02  0.7957747E-01  0.1420066E+00
         13   -1    0    0    0    0  0.00000000000E+00  0.00000000000E+00  0.99999944182E+02  0.10000000000E+03  0.10566000000E+00 0. -1.
         22   -1    0    0    0    0 -0.00000000000E+00 -0.00000000000E+00 -0.75233218731E+02  0.75233218731E+02  0.00000000000E+00 0.  1.
         13    1    1    2    0    0  0.22225429425E+02 -0.56395380257E+01 -0.65571803838E+02  0.69465435469E+02  0.10566000000E+00 0.  1.
        996    1    1    2    0    0 -0.22225429425E+02  0.56395380257E+01  0.90338529289E+02  0.10576778326E+03  0.50000000000E+02 0.  0.
<mgrwt>
<rscale>  0 0.55007037E+02</rscale>
<asrwt>0</asrwt>
<pdfrwt beam="1">  1       13 0.10000000E+01 0.55007037E+02</pdfrwt>
<pdfrwt beam="2">  1       22 0.75233226E+00 0.55007037E+02</pdfrwt>
<totfact> 0.47983797E-02</totfact>
</mgrwt>
</event>
<event>
 4    1  0.2437479E+000  0.5441447E+02  0.7957747E-01  0.1422888E+00
         13   -1    0    0    0    0  0.00000000000E+00  0.00000000000E+00  0.99999944173E+02  0.99999999994E+02  0.10566000000E+00 0.  1.
         22   -1    0    0    0    0 -0.00000000000E+00 -0.00000000000E+00 -0.28999843297E+02  0.28999843297E+02  0.00000000000E+00 0. -1.
         13    1    1    2    0    0 -0.28654590790E+01 -0.21277313686E+02 -0.15728406986E+02  0.26614448778E+02  0.10566000000E+00 0. -1.
        996    1    1    2    0    0  0.28654590790E+01  0.21277313686E+02  0.86728507862E+02  0.10238539451E+03  0.50000000000E+02 0.  0.
<mgrwt>
<rscale>  0 0.54414474E+02</rscale>
<asrwt>0</asrwt>
<pdfrwt beam="1">  1       13 0.10000000E+01 0.54414474E+02</pdfrwt>
<pdfrwt beam="2">  1       22 0.28999863E+00 0.54414474E+02</pdfrwt>
<totfact> 0.22143518E-01</totfact>
</mgrwt>
</event>
<event>
 4    1  0.2437479E+000  0.9140277E+02  0.7957747E-01  0.1299490E+00
         13   -1    0    0    0    0  0.00000000000E+00  0.00000000000E+00  0.99999944194E+02  0.10000000001E+03  0.10566000000E+00 0.  1.
         22   -1    0    0    0    0 -0.00000000000E+00 -0.00000000000E+00 -0.87336636130E+02  0.87336636130E+02  0.00000000000E+00 0. -1.
         13    1    1    2    0    0  0.60731737638E+02  0.46541624208E+02 -0.35128783564E+02  0.84193285595E+02  0.10566000000E+00 0. -1.
        996    1    1    2    0    0 -0.60731737638E+02 -0.46541624208E+02  0.47792091627E+02  0.10314335055E+03  0.50000000000E+02 0.  0.
<mgrwt>
<rscale>  0 0.91402772E+02</rscale>
<asrwt>0</asrwt>
<pdfrwt beam="1">  1       13 0.10000000E+01 0.91402772E+02</pdfrwt>
<pdfrwt beam="2">  1       22 0.87336640E+00 0.91402772E+02</pdfrwt>
<totfact> 0.14616910E-02</totfact>
</mgrwt>
</event>
<event>
 4    1  0.2437479E+000  0.5698098E+02  0.7957747E-01  0.1410956E+00
         13   -1    0    0    0    0  0.00000000000E+00  0.00000000000E+00  0.99999944174E+02  0.99999999994E+02  0.10566000000E+00 0.  1.
         22   -1    0    0    0    0 -0.00000000000E+00 -0.00000000000E+00 -0.17777209004E+02  0.17777209004E+02  0.00000000000E+00 0.  1.
         13    1    1    2    0    0 -0.19310070433E+02 -0.19337861237E+02  0.25560451371E+02  0.37418972937E+02  0.10566000000E+00 0. -1.
        996    1    1    2    0    0  0.19310070433E+02  0.19337861237E+02  0.56662283799E+02  0.80358236060E+02  0.50000000000E+02 0.  0.
<mgrwt>
<rscale>  0 0.56980977E+02</rscale>
<asrwt>0</asrwt>
<pdfrwt beam="1">  1       13 0.10000000E+01 0.56980977E+02</pdfrwt>
<pdfrwt beam="2">  1       22 0.17777232E+00 0.56980977E+02</pdfrwt>
<totfact> 0.56685664E-01</totfact>
</mgrwt>
</event>
<event>
 4    1  0.2437479E+000  0.5150108E+02  0.7957747E-01  0.1437409E+00
         13   -1    0    0    0    0  0.00000000000E+00  0.00000000000E+00  0.99999944173E+02  0.99999999993E+02  0.10566000000E+00 0.  1.
         22   -1    0    0    0    0 -0.00000000000E+00 -0.00000000000E+00 -0.26355117645E+02  0.26355117645E+02  0.00000000000E+00 0. -1.
         13    1    1    2    0    0  0.11778589766E+02 -0.36913186499E+01 -0.17648523797E+02  0.21537004585E+02  0.10566000000E+00 0. -1.
        996    1    1    2    0    0 -0.11778589766E+02  0.36913186499E+01  0.91293350325E+02  0.10481811305E+03  0.50000000000E+02 0.  0.
<mgrwt>
<rscale>  0 0.51501078E+02</rscale>
<asrwt>0</asrwt>
<pdfrwt beam="1">  1       13 0.10000000E+01 0.51501078E+02</pdfrwt>
<pdfrwt beam="2">  1       22 0.26355138E+00 0.51501078E+02</pdfrwt>
<totfact> 0.26551834E-01</totfact>
</mgrwt>
</event>
<event>
 4    1  0.2437479E+000  0.5660596E+02  0.7957747E-01  0.1412653E+00
         13   -1    0    0    0    0  0.00000000000E+00  0.00000000000E+00  0.99999944178E+02  0.99999999998E+02  0.10566000000E+00 0. -1.
         22   -1    0    0    0    0 -0.00000000000E+00 -0.00000000000E+00 -0.26588490399E+02  0.26588490399E+02  0.00000000000E+00 0.  1.
         13    1    1    2    0    0  0.37717265404E+01  0.26268025967E+02 -0.77416101677E+01  0.27643784135E+02  0.10566000000E+00 0.  1.
        996    1    1    2    0    0 -0.37717265404E+01 -0.26268025967E+02  0.81153063947E+02  0.98944706262E+02  0.50000000000E+02 0.  0.
<mgrwt>
<rscale>  0 0.56605964E+02</rscale>
<asrwt>0</asrwt>
<pdfrwt beam="1">  1       13 0.10000000E+01 0.56605964E+02</pdfrwt>
<pdfrwt beam="2">  1       22 0.26588511E+00 0.56605964E+02</pdfrwt>
<totfact> 0.26288428E-01</totfact>
</mgrwt>
</event>
<event>
 4    1  0.2437479E+000  0.5217894E+02  0.7957747E-01  0.1433931E+00
         13   -1    0    0    0    0  0.00000000000E+00  0.00000000000E+00  0.99999944184E+02  0.10000000000E+03  0.10566000000E+00 0. -1.
         22   -1    0    0    0    0 -0.00000000000E+00 -0.00000000000E+00 -0.19991512209E+02  0.19991512209E+02  0.00000000000E+00 0. -1.
         13    1    1    2    0    0  0.14244541197E+02 -0.44424414145E+01 -0.85548665695E+01  0.17199975166E+02  0.10566000000E+00 0.  1.
        996    1    1    2    0    0 -0.14244541197E+02  0.44424414145E+01  0.88563298544E+02  0.10279153705E+03  0.50000000000E+02 0.  0.
<mgrwt>
<rscale>  0 0.52178944E+02</rscale>
<asrwt>0</asrwt>
<pdfrwt beam="1">  1       13 0.10000000E+01 0.52178944E+02</pdfrwt>
<pdfrwt beam="2">  1       22 0.19991535E+00 0.52178944E+02</pdfrwt>
<totfact> 0.45358316E-01</totfact>
</mgrwt>
</event>
<event>
 4    1  0.2437479E+000  0.5151767E+02  0.7957747E-01  0.1437323E+00
         13   -1    0    0    0    0  0.00000000000E+00  0.00000000000E+00  0.99999944174E+02  0.99999999994E+02  0.10566000000E+00 0.  1.
         22   -1    0    0    0    0 -0.00000000000E+00 -0.00000000000E+00 -0.10218607629E+02  0.10218607629E+02  0.00000000000E+00 0.  1.
         13    1    1    2    0    0  0.12060298579E+02 -0.29359251465E+01  0.17044321805E+02  0.21085315461E+02  0.10566000000E+00 0. -1.
        996    1    1    2    0    0 -0.12060298579E+02  0.29359251465E+01  0.72737014740E+02  0.89133292162E+02  0.50000000000E+02 0.  0.
<mgrwt>
<rscale>  0 0.51517671E+02</rscale>
<asrwt>0</asrwt>
<pdfrwt beam="1">  1       13 0.10000000E+01 0.51517671E+02</pdfrwt>
<pdfrwt beam="2">  1       22 0.10218633E+00 0.51517671E+02</pdfrwt>
<totfact> 0.13646038E+00</totfact>
</mgrwt>
</event>
<event>
 4    1  0.2437479E+000  0.5178899E+02  0.7957747E-01  0.1435924E+00
         13   -1    0    0    0    0  0.00000000000E+00  0.00000000000E+00  0.99999944177E+02  0.99999999997E+02  0.10566000000E+00 0. -1.
         22   -1    0    0    0    0 -0.00000000000E+00 -0.00000000000E+00 -0.12740014019E+02  0.12740014019E+02  0.00000000000E+00 0. -1.
         13    1    1    2    0    0  0.10420279929E+02 -0.85741954672E+01  0.29801891743E+01  0.13819976601E+02  0.10566000000E+00 0.  1.
        996    1    1    2    0    0 -0.10420279929E+02  0.85741954672E+01  0.84279740984E+02  0.98920037414E+02  0.50000000000E+02 0.  0.
<mgrwt>
<rscale>  0 0.51788986E+02</rscale>
<asrwt>0</asrwt>
<pdfrwt beam="1">  1       13 0.10000000E+01 0.51788986E+02</pdfrwt>
<pdfrwt beam="2">  1       22 0.12740038E+00 0.51788986E+02</pdfrwt>
<totfact> 0.97939730E-01</totfact>
</mgrwt>
</event>
<event>
 4    1  0.2437479E+000  0.6053797E+02  0.7957747E-01  0.1395588E+00
         13   -1    0    0    0    0  0.00000000000E+00  0.00000000000E+00  0.99999944172E+02  0.99999999992E+02  0.10566000000E+00 0. -1.
         22   -1    0    0    0    0 -0.00000000000E+00 -0.00000000000E+00 -0.25455466872E+02  0.25455466872E+02  0.00000000000E+00 0.  1.
         13    1    1    2    0    0  0.23154822899E+02  0.25073894442E+02  0.71632980136E+01  0.34873629126E+02  0.10566000000E+00 0.  1.
        996    1    1    2    0    0 -0.23154822899E+02 -0.25073894442E+02  0.67381179286E+02  0.90581837738E+02  0.50000000000E+02 0.  0.
<mgrwt>
<rscale>  0 0.60537972E+02</rscale>
<asrwt>0</asrwt>
<pdfrwt beam="1">  1       13 0.10000000E+01 0.60537972E+02</pdfrwt>
<pdfrwt beam="2">  1       22 0.25455488E+00 0.60537972E+02</pdfrwt>
<totfact> 0.28798843E-01</totfact>
</mgrwt>
</event>
<event>
 4    1  0.2437479E+000  0.5160221E+02  0.7957747E-01  0.1436886E+00
         13   -1    0    0    0    0  0.00000000000E+00  0.00000000000E+00  0.99999944178E+02  0.99999999998E+02  0.10566000000E+00 0.  1.
         22   -1    0    0    0    0 -0.00000000000E+00 -0.00000000000E+00 -0.22855388285E+02  0.22855388285E+02  0.00000000000E+00 0. -1.
         13    1    1    2    0    0  0.90890064953E+01 -0.89542234538E+01 -0.13485189299E+02  0.18564742152E+02  0.10566000000E+00 0. -1.
        996    1    1    2    0    0 -0.90890064953E+01  0.89542234538E+01  0.90629745192E+02  0.10429064613E+03  0.50000000000E+02 0.  0.
<mgrwt>
<rscale>  0 0.51602211E+02</rscale>
<asrwt>0</asrwt>
<pdfrwt beam="1">  1       13 0.10000000E+01 0.51602211E+02</pdfrwt>
<pdfrwt beam="2">  1       22 0.22855410E+00 0.51602211E+02</pdfrwt>
<totfact> 0.35110563E-01</totfact>
</mgrwt>
</event>
<event>
 4    1  0.2437479E+000  0.5571963E+02  0.7957747E-01  0.1416726E+00
         13   -1    0    0    0    0  0.00000000000E+00  0.00000000000E+00  0.99999944171E+02  0.99999999991E+02  0.10566000000E+00 0.  1.
         22   -1    0    0    0    0 -0.00000000000E+00 -0.00000000000E+00 -0.18701312051E+02  0.18701312051E+02  0.00000000000E+00 0. -1.
         13    1    1    2    0    0 -0.10841816327E+02 -0.22071061868E+02  0.65088562893E+01  0.25437238991E+02  0.10566000000E+00 0. -1.
        996    1    1    2    0    0  0.10841816327E+02  0.22071061868E+02  0.74789775831E+02  0.93264073051E+02  0.50000000000E+02 0.  0.
<mgrwt>
<rscale>  0 0.55719626E+02</rscale>
<asrwt>0</asrwt>
<pdfrwt beam="1">  1       13 0.10000000E+01 0.55719626E+02</pdfrwt>
<pdfrwt beam="2">  1       22 0.18701335E+00 0.55719626E+02</pdfrwt>
<totfact> 0.51617085E-01</totfact>
</mgrwt>
</event>
<event>
 4    1  0.2437479E+000  0.5136220E+02  0.7957747E-01  0.1438130E+00
         13   -1    0    0    0    0  0.00000000000E+00  0.00000000000E+00  0.99999944171E+02  0.99999999992E+02  0.10566000000E+00 0.  1.
         22   -1    0    0    0    0 -0.00000000000E+00 -0.00000000000E+00 -0.12058335616E+02  0.12058335616E+02  0.00000000000E+00 0. -1.
         13    1    1    2    0    0 -0.64919019410E+01 -0.97944038218E+01  0.19736366370E+01  0.11915600809E+02  0.10566000000E+00 0. -1.
        996    1    1    2    0    0  0.64919019410E+01  0.97944038218E+01  0.85967971919E+02  0.10014273480E+03  0.50000000000E+02 0.  0.
<mgrwt>
<rscale>  0 0.51362196E+02</rscale>
<asrwt>0</asrwt>
<pdfrwt beam="1">  1       13 0.10000000E+01 0.51362196E+02</pdfrwt>
<pdfrwt beam="2">  1       22 0.12058360E+00 0.51362196E+02</pdfrwt>
<totfact> 0.10654505E+00</totfact>
</mgrwt>
</event>
<event>
 4    1  0.2437479E+000  0.5238795E+02  0.7957747E-01  0.1432871E+00
         13   -1    0    0    0    0  0.00000000000E+00  0.00000000000E+00  0.99999944172E+02  0.99999999993E+02  0.10566000000E+00 0.  1.
         22   -1    0    0    0    0 -0.00000000000E+00 -0.00000000000E+00 -0.14841643354E+02  0.14841643354E+02  0.00000000000E+00 0. -1.
         13    1    1    2    0    0  0.15570714455E+02  0.14319244385E+01  0.94775681422E+00  0.15665470413E+02  0.10566000000E+00 0. -1.
        996    1    1    2    0    0 -0.15570714455E+02 -0.14319244385E+01  0.84210544004E+02  0.99176172934E+02  0.50000000000E+02 0.  0.
<mgrwt>
<rscale>  0 0.52387952E+02</rscale>
<asrwt>0</asrwt>
<pdfrwt beam="1">  1       13 0.10000000E+01 0.52387952E+02</pdfrwt>
<pdfrwt beam="2">  1       22 0.14841667E+00 0.52387952E+02</pdfrwt>
<totfact> 0.76692786E-01</totfact>
</mgrwt>
</event>
<event>
 4    1  0.2437479E+000  0.5145668E+02  0.7957747E-01  0.1437639E+00
         13   -1    0    0    0    0  0.00000000000E+00  0.00000000000E+00  0.99999944180E+02  0.10000000000E+03  0.10566000000E+00 0. -1.
         22   -1    0    0    0    0 -0.00000000000E+00 -0.00000000000E+00 -0.12552571478E+02  0.12552571478E+02  0.00000000000E+00 0. -1.
         13    1    1    2    0    0  0.10621494154E+02  0.59138958258E+01  0.13256999924E+01  0.12229429521E+02  0.10566000000E+00 0.  1.
        996    1    1    2    0    0 -0.10621494154E+02 -0.59138958258E+01  0.86121672709E+02  0.10032314196E+03  0.50000000000E+02 0.  0.
<mgrwt>
<rscale>  0 0.51456684E+02</rscale>
<asrwt>0</asrwt>
<pdfrwt beam="1">  1       13 0.10000000E+01 0.51456684E+02</pdfrwt>
<pdfrwt beam="2">  1       22 0.12552596E+00 0.51456684E+02</pdfrwt>
<totfact> 0.10015679E+00</totfact>
</mgrwt>
</event>
<event>
 4    1  0.2437479E+000  0.5115388E+02  0.7957747E-01  0.1439215E+00
         13   -1    0    0    0    0  0.00000000000E+00  0.00000000000E+00  0.99999944174E+02  0.99999999994E+02  0.10566000000E+00 0. -1.
         22   -1    0    0    0    0 -0.00000000000E+00 -0.00000000000E+00 -0.10139476891E+02  0.10139476891E+02  0.00000000000E+00 0. -1.
         13    1    1    2    0    0  0.20962431773E+01  0.10598377722E+02  0.73802529456E+01  0.13084309052E+02  0.10566000000E+00 0.  1.
        996    1    1    2    0    0 -0.20962431773E+01 -0.10598377722E+02  0.82480214338E+02  0.97055167832E+02  0.50000000000E+02 0.  0.
<mgrwt>
<rscale>  0 0.51153884E+02</rscale>
<asrwt>0</asrwt>
<pdfrwt beam="1">  1       13 0.10000000E+01 0.51153884E+02</pdfrwt>
<pdfrwt beam="2">  1       22 0.10139502E+00 0.51153884E+02</pdfrwt>
<totfact> 0.13789161E+00</totfact>
</mgrwt>
</event>
<event>
 4    1  0.2437479E+000  0.5386454E+02  0.7957747E-01  0.1425546E+00
         13   -1    0    0    0    0  0.00000000000E+00  0.00000000000E+00  0.99999944171E+02  0.99999999991E+02  0.10566000000E+00 0. -1.
         22   -1    0    0    0    0 -0.00000000000E+00 -0.00000000000E+00 -0.60554572586E+02  0.60554572586E+02  0.00000000000E+00 0.  1.
         13    1    1    2    0    0  0.19953640508E+02 -0.18001463151E+01 -0.51273934947E+02  0.55049213121E+02  0.10566000000E+00 0.  1.
        996    1    1    2    0    0 -0.19953640508E+02  0.18001463151E+01  0.90719306532E+02  0.10550535946E+03  0.50000000000E+02 0.  0.
<mgrwt>
<rscale>  0 0.53864537E+02</rscale>
<asrwt>0</asrwt>
<pdfrwt beam="1">  1       13 0.10000000E+01 0.53864537E+02</pdfrwt>
<pdfrwt beam="2">  1       22 0.60554584E+00 0.53864537E+02</pdfrwt>
<totfact> 0.65706408E-02</totfact>
</mgrwt>
</event>
<event>
 4    1  0.2437479E+000  0.5343496E+02  0.7957747E-01  0.1427648E+00
         13   -1    0    0    0    0  0.00000000000E+00  0.00000000000E+00  0.99999944178E+02  0.99999999998E+02  0.10566000000E+00 0. -1.
         22   -1    0    0    0    0 -0.00000000000E+00 -0.00000000000E+00 -0.14607575125E+02  0.14607575125E+02  0.00000000000E+00 0. -1.
         13    1    1    2    0    0  0.18209062620E+02  0.48708052542E+01  0.41047715208E+02  0.45168803317E+02  0.10566000000E+00 0.  1.
        996    1    1    2    0    0 -0.18209062620E+02 -0.48708052542E+01  0.44344653845E+02  0.69438771806E+02  0.50000000000E+02 0.  0.
<mgrwt>
<rscale>  0 0.53434958E+02</rscale>
<asrwt>0</asrwt>
<pdfrwt beam="1">  1       13 0.10000000E+01 0.53434958E+02</pdfrwt>
<pdfrwt beam="2">  1       22 0.14607599E+00 0.53434958E+02</pdfrwt>
<totfact> 0.78902336E-01</totfact>
</mgrwt>
</event>
<event>
 4    1  0.2437479E+000  0.5219414E+02  0.7957747E-01  0.1433854E+00
         13   -1    0    0    0    0  0.00000000000E+00  0.00000000000E+00  0.99999944176E+02  0.99999999996E+02  0.10566000000E+00 0.  1.
         22   -1    0    0    0    0 -0.00000000000E+00 -0.00000000000E+00 -0.11845706436E+02  0.11845706436E+02  0.00000000000E+00 0.  1.
         13    1    1    2    0    0 -0.11339195321E+02 -0.97801012501E+01  0.10532629699E+02  0.18307790238E+02  0.10566000000E+00 0. -1.
        996    1    1    2    0    0  0.11339195321E+02  0.97801012501E+01  0.77621608041E+02  0.93537916194E+02  0.50000000000E+02 0.  0.
<mgrwt>
<rscale>  0 0.52194135E+02</rscale>
<asrwt>0</asrwt>
<pdfrwt beam="1">  1       13 0.10000000E+01 0.52194135E+02</pdfrwt>
<pdfrwt beam="2">  1       22 0.11845731E+00 0.52194135E+02</pdfrwt>
<totfact> 0.10968912E+00</totfact>
</mgrwt>
</event>
<event>
 4    1  0.2437479E+000  0.5253073E+02  0.7957747E-01  0.1432151E+00
         13   -1    0    0    0    0  0.00000000000E+00  0.00000000000E+00  0.99999944176E+02  0.99999999996E+02  0.10566000000E+00 0. -1.
         22   -1    0    0    0    0 -0.00000000000E+00 -0.00000000000E+00 -0.32231392074E+02  0.32231392074E+02  0.00000000000E+00 0.  1.
         13    1    1    2    0    0 -0.93604566495E+01  0.13109510278E+02 -0.22570665627E+02  0.27729470231E+02  0.10566000000E+00 0.  1.
        996    1    1    2    0    0  0.93604566495E+01 -0.13109510278E+02  0.90339217728E+02  0.10450192184E+03  0.50000000000E+02 0.  0.
<mgrwt>
<rscale>  0 0.52530728E+02</rscale>
<asrwt>0</asrwt>
<pdfrwt beam="1">  1       13 0.10000000E+01 0.52530728E+02</pdfrwt>
<pdfrwt beam="2">  1       22 0.32231411E+00 0.52530728E+02</pdfrwt>
<totfact> 0.18174033E-01</totfact>
</mgrwt>
</event>
<event>
 4    1  0.2437479E+000  0.5340865E+02  0.7957747E-01  0.1427778E+00
         13   -1    0    0    0    0  0.00000000000E+00  0.00000000000E+00  0.99999944188E+02  0.10000000001E+03  0.10566000000E+00 0. -1.
         22   -1    0    0    0    0 -0.00000000000E+00 -0.00000000000E+00 -0.20626064565E+02  0.20626064565E+02  0.00000000000E+00 0.  1.
         13    1    1    2    0    0  0.10287533688E+02 -0.15705108268E+02 -0.61835883306E+01  0.19766934607E+02  0.10566000000E+00 0.  1.
        996    1    1    2    0    0 -0.10287533688E+02  0.15705108268E+02  0.85557467954E+02  0.10085912997E+03  0.50000000000E+02 0.  0.
<mgrwt>
<rscale>  0 0.53408649E+02</rscale>
<asrwt>0</asrwt>
<pdfrwt beam="1">  1       13 0.10000000E+01 0.53408649E+02</pdfrwt>
<pdfrwt beam="2">  1       22 0.20626087E+00 0.53408649E+02</pdfrwt>
<totfact> 0.42868168E-01</totfact>
</mgrwt>
</event>
<event>
 4    1  0.2437479E+000  0.5196092E+02  0.7957747E-01  0.1435043E+00
         13   -1    0    0    0    0  0.00000000000E+00  0.00000000000E+00  0.99999944177E+02  0.99999999997E+02  0.10566000000E+00 0.  1.
         22   -1    0    0    0    0 -0.00000000000E+00 -0.00000000000E+00 -0.22979709273E+02  0.22979709273E+02  0.00000000000E+00 0. -1.
         13    1    1    2    0    0 -0.13843341532E+02  0.28808598686E+01 -0.12890605644E+02  0.19134166725E+02  0.10566000000E+00 0. -1.
        996    1    1    2    0    0  0.13843341532E+02 -0.28808598686E+01  0.89910840548E+02  0.10384554254E+03  0.50000000000E+02 0.  0.
<mgrwt>
<rscale>  0 0.51960922E+02</rscale>
<asrwt>0</asrwt>
<pdfrwt beam="1">  1       13 0.10000000E+01 0.51960922E+02</pdfrwt>
<pdfrwt beam="2">  1       22 0.22979731E+00 0.51960922E+02</pdfrwt>
<totfact> 0.34763453E-01</totfact>
</mgrwt>
</event>
<event>
 4    1  0.2437479E+000  0.5430423E+02  0.7957747E-01  0.1423418E+00
         13   -1    0    0    0    0  0.00000000000E+00  0.00000000000E+00  0.99999944166E+02  0.99999999987E+02  0.10566000000E+00 0.  1.
         22   -1    0    0    0    0 -0.00000000000E+00 -0.00000000000E+00 -0.19512357636E+02  0.19512357636E+02  0.00000000000E+00 0. -1.
         13    1    1    2    0    0 -0.19943526602E+02 -0.71557574670E+01 -0.14222547895E+01  0.21236362470E+02  0.10566000000E+00 0. -1.
        996    1    1    2    0    0  0.19943526602E+02  0.71557574670E+01  0.81909841320E+02  0.98275995153E+02  0.50000000000E+02 0.  0.
<mgrwt>
<rscale>  0 0.54304227E+02</rscale>
<asrwt>0</asrwt>
<pdfrwt beam="1">  1       13 0.10000000E+01 0.54304227E+02</pdfrwt>
<pdfrwt beam="2">  1       22 0.19512380E+00 0.54304227E+02</pdfrwt>
<totfact> 0.47627834E-01</totfact>
</mgrwt>
</event>
<event>
 4    1  0.2437479E+000  0.5223149E+02  0.7957747E-01  0.1433664E+00
         13   -1    0    0    0    0  0.00000000000E+00  0.00000000000E+00  0.99999944174E+02  0.99999999994E+02  0.10566000000E+00 0.  1.
         22   -1    0    0    0    0 -0.00000000000E+00 -0.00000000000E+00 -0.30029455526E+02  0.30029455526E+02  0.00000000000E+00 0. -1.
         13    1    1    2    0    0 -0.97049292087E+01  0.11573367274E+02 -0.20560106174E+02  0.25511911158E+02  0.10566000000E+00 0. -1.
        996    1    1    2    0    0  0.97049292087E+01 -0.11573367274E+02  0.90530594821E+02  0.10451754436E+03  0.50000000000E+02 0.  0.
<mgrwt>
<rscale>  0 0.52231489E+02</rscale>
<asrwt>0</asrwt>
<pdfrwt beam="1">  1       13 0.10000000E+01 0.52231489E+02</pdfrwt>
<pdfrwt beam="2">  1       22 0.30029475E+00 0.52231489E+02</pdfrwt>
<totfact> 0.20671435E-01</totfact>
</mgrwt>
</event>
<event>
 4    1  0.2437479E+000  0.5181382E+02  0.7957747E-01  0.1435797E+00
         13   -1    0    0    0    0  0.00000000000E+00  0.00000000000E+00  0.99999944184E+02  0.10000000000E+03  0.10566000000E+00 0.  1.
         22   -1    0    0    0    0 -0.00000000000E+00 -0.00000000000E+00 -0.11481723609E+02  0.11481723609E+02  0.00000000000E+00 0.  1.
         13    1    1    2    0    0 -0.28591162407E+01  0.13285242218E+02  0.81115222002E+01  0.15826565102E+02  0.10566000000E+00 0. -1.
        996    1    1    2    0    0  0.28591162407E+01 -0.13285242218E+02  0.80406698375E+02  0.95655158512E+02  0.50000000000E+02 0.  0.
<mgrwt>
<rscale>  0 0.51813823E+02</rscale>
<asrwt>0</asrwt>
<pdfrwt beam="1">  1       13 0.10000000E+01 0.51813823E+02</pdfrwt>
<pdfrwt beam="2">  1       22 0.11481748E+00 0.51813823E+02</pdfrwt>
<totfact> 0.11490252E+00</totfact>
</mgrwt>
</event>
<event>
 4    1  0.2437479E+000  0.5118591E+02  0.7957747E-01  0.1439048E+00
         13   -1    0    0    0    0  0.00000000000E+00  0.00000000000E+00  0.99999944185E+02  0.10000000001E+03  0.10566000000E+00 0.  1.
         22   -1    0    0    0    0 -0.00000000000E+00 -0.00000000000E+00 -0.12204677058E+02  0.12204677058E+02  0.00000000000E+00 0.  1.
         13    1    1    2    0    0  0.10634637950E+01 -0.10902605432E+02  0.44722617304E+00  0.10963983570E+02  0.10566000000E+00 0. -1.
        996    1    1    2    0    0 -0.10634637950E+01  0.10902605432E+02  0.87348040954E+02  0.10124069349E+03  0.50000000000E+02 0.  0.
<mgrwt>
<rscale>  0 0.51185914E+02</rscale>
<asrwt>0</asrwt>
<pdfrwt beam="1">  1       13 0.10000000E+01 0.51185914E+02</pdfrwt>
<pdfrwt beam="2">  1       22 0.12204702E+00 0.51185914E+02</pdfrwt>
<totfact> 0.10454631E+00</totfact>
</mgrwt>
</event>
<event>
 4    1  0.2437479E+000  0.5106876E+02  0.7957747E-01  0.1439661E+00
         13   -1    0    0    0    0  0.00000000000E+00  0.00000000000E+00  0.99999944175E+02  0.99999999995E+02  0.10566000000E+00 0.  1.
         22   -1    0    0    0    0 -0.00000000000E+00 -0.00000000000E+00 -0.12470660845E+02  0.12470660845E+02  0.00000000000E+00 0. -1.
         13    1    1    2    0    0 -0.36297215032E+01  0.97387661313E+01 -0.81737077243E+00  0.10425819055E+02  0.10566000000E+00 0. -1.
        996    1    1    2    0    0  0.36297215032E+01 -0.97387661313E+01  0.88346654102E+02  0.10204484179E+03  0.50000000000E+02 0.  0.
<mgrwt>
<rscale>  0 0.51068762E+02</rscale>
<asrwt>0</asrwt>
<pdfrwt beam="1">  1       13 0.10000000E+01 0.51068762E+02</pdfrwt>
<pdfrwt beam="2">  1       22 0.12470685E+00 0.51068762E+02</pdfrwt>
<totfact> 0.10109304E+00</totfact>
</mgrwt>
</event>
<event>
 4    1  0.2437479E+000  0.5632721E+02  0.7957747E-01  0.1413925E+00
         13   -1    0    0    0    0  0.00000000000E+00  0.00000000000E+00  0.99999944174E+02  0.99999999995E+02  0.10566000000E+00 0.  1.
         22   -1    0    0    0    0 -0.00000000000E+00 -0.00000000000E+00 -0.23283714804E+02  0.23283714804E+02  0.00000000000E+00 0. -1.
         13    1    1    2    0    0 -0.54800893805E+01  0.25351979068E+02 -0.25275889343E+01  0.26060585030E+02  0.10566000000E+00 0. -1.
        996    1    1    2    0    0  0.54800893805E+01 -0.25351979068E+02  0.79243818305E+02  0.97223129768E+02  0.50000000000E+02 0.  0.
<mgrwt>
<rscale>  0 0.56327207E+02</rscale>
<asrwt>0</asrwt>
<pdfrwt beam="1">  1       13 0.10000000E+01 0.56327207E+02</pdfrwt>
<pdfrwt beam="2">  1       22 0.23283736E+00 0.56327207E+02</pdfrwt>
<totfact> 0.34120069E-01</totfact>
</mgrwt>
</event>
<event>
 4    1  0.2437479E+000  0.5116540E+02  0.7957747E-01  0.1439155E+00
         13   -1    0    0    0    0  0.00000000000E+00  0.00000000000E+00  0.99999944184E+02  0.10000000000E+03  0.10566000000E+00 0. -1.
         22   -1    0    0    0    0 -0.00000000000E+00 -0.00000000000E+00 -0.16171243034E+02  0.16171243034E+02  0.00000000000E+00 0.  1.
         13    1    1    2    0    0 -0.95762503578E+01 -0.51179706702E+01 -0.62840977580E+01  0.12545885515E+02  0.10566000000E+00 0.  1.
        996    1    1    2    0    0  0.95762503578E+01  0.51179706702E+01  0.90112798908E+02  0.10362535752E+03  0.50000000000E+02 0.  0.
<mgrwt>
<rscale>  0 0.51165400E+02</rscale>
<asrwt>0</asrwt>
<pdfrwt beam="1">  1       13 0.10000000E+01 0.51165400E+02</pdfrwt>
<pdfrwt beam="2">  1       22 0.16171266E+00 0.51165400E+02</pdfrwt>
<totfact> 0.66193925E-01</totfact>
</mgrwt>
</event>
<event>
 4    1  0.2437479E+000  0.5312069E+02  0.7957747E-01  0.1429201E+00
         13   -1    0    0    0    0  0.00000000000E+00  0.00000000000E+00  0.99999944175E+02  0.99999999996E+02  0.10566000000E+00 0. -1.
         22   -1    0    0    0    0 -0.00000000000E+00 -0.00000000000E+00 -0.14302301171E+02  0.14302301171E+02  0.00000000000E+00 0. -1.
         13    1    1    2    0    0  0.17507482188E+02  0.39109852133E+01  0.67924611334E+01  0.19182190443E+02  0.10566000000E+00 0.  1.
        996    1    1    2    0    0 -0.17507482188E+02 -0.39109852133E+01  0.78905181871E+02  0.95120110723E+02  0.50000000000E+02 0.  0.
<mgrwt>
<rscale>  0 0.53120690E+02</rscale>
<asrwt>0</asrwt>
<pdfrwt beam="1">  1       13 0.10000000E+01 0.53120690E+02</pdfrwt>
<pdfrwt beam="2">  1       22 0.14302325E+00 0.53120690E+02</pdfrwt>
<totfact> 0.81634583E-01</totfact>
</mgrwt>
</event>
<event>
 4    1  0.2437479E+000  0.5125414E+02  0.7957747E-01  0.1438692E+00
         13   -1    0    0    0    0  0.00000000000E+00  0.00000000000E+00  0.99999944187E+02  0.10000000001E+03  0.10566000000E+00 0.  1.
         22   -1    0    0    0    0 -0.00000000000E+00 -0.00000000000E+00 -0.98001934936E+01  0.98001934936E+01  0.00000000000E+00 0.  1.
         13    1    1    2    0    0 -0.23740306522E+00  0.11266334930E+02  0.14109938090E+02  0.18057911837E+02  0.10566000000E+00 0. -1.
        996    1    1    2    0    0  0.23740306522E+00 -0.11266334930E+02  0.76089812603E+02  0.91742281664E+02  0.50000000000E+02 0.  0.
<mgrwt>
<rscale>  0 0.51254138E+02</rscale>
<asrwt>0</asrwt>
<pdfrwt beam="1">  1       13 0.10000000E+01 0.51254138E+02</pdfrwt>
<pdfrwt beam="2">  1       22 0.98002187E-01 0.51254138E+02</pdfrwt>
<totfact> 0.14488696E+00</totfact>
</mgrwt>
</event>
<event>
 4    1  0.2437479E+000  0.5492364E+02  0.7957747E-01  0.1420460E+00
         13   -1    0    0    0    0  0.00000000000E+00  0.00000000000E+00  0.99999944177E+02  0.99999999997E+02  0.10566000000E+00 0. -1.
         22   -1    0    0    0    0 -0.00000000000E+00 -0.00000000000E+00 -0.16387343968E+02  0.16387343968E+02  0.00000000000E+00 0. -1.
         13    1    1    2    0    0 -0.18629329965E+02 -0.13021285792E+02  0.40972634044E+02  0.46854815368E+02  0.10566000000E+00 0.  1.
        996    1    1    2    0    0  0.18629329965E+02  0.13021285792E+02  0.42639966164E+02  0.69532528597E+02  0.50000000000E+02 0.  0.
<mgrwt>
<rscale>  0 0.54923636E+02</rscale>
<asrwt>0</asrwt>
<pdfrwt beam="1">  1       13 0.10000000E+01 0.54923636E+02</pdfrwt>
<pdfrwt beam="2">  1       22 0.16387367E+00 0.54923636E+02</pdfrwt>
<totfact> 0.65169241E-01</totfact>
</mgrwt>
</event>
<event>
 4    1  0.2437479E+000  0.5298890E+02  0.7957747E-01  0.1429856E+00
         13   -1    0    0    0    0  0.00000000000E+00  0.00000000000E+00  0.99999944177E+02  0.99999999997E+02  0.10566000000E+00 0.  1.
         22   -1    0    0    0    0 -0.00000000000E+00 -0.00000000000E+00 -0.14798180116E+02  0.14798180116E+02  0.00000000000E+00 0.  1.
         13    1    1    2    0    0  0.15518911501E+02 -0.81845839734E+01  0.44955800501E+02  0.48258255167E+02  0.10566000000E+00 0. -1.
        996    1    1    2    0    0 -0.15518911501E+02  0.81845839734E+01  0.40245963559E+02  0.66539924946E+02  0.50000000000E+02 0.  0.
<mgrwt>
<rscale>  0 0.52988905E+02</rscale>
<asrwt>0</asrwt>
<pdfrwt beam="1">  1       13 0.10000000E+01 0.52988905E+02</pdfrwt>
<pdfrwt beam="2">  1       22 0.14798204E+00 0.52988905E+02</pdfrwt>
<totfact> 0.77160388E-01</totfact>
</mgrwt>
</event>
<event>
 4    1  0.2437479E+000  0.5131848E+02  0.7957747E-01  0.1438357E+00
         13   -1    0    0    0    0  0.00000000000E+00  0.00000000000E+00  0.99999944183E+02  0.10000000000E+03  0.10566000000E+00 0.  1.
         22   -1    0    0    0    0 -0.00000000000E+00 -0.00000000000E+00 -0.32750924529E+02  0.32750924529E+02  0.00000000000E+00 0. -1.
         13    1    1    2    0    0 -0.89027198625E+00  0.11523599973E+02 -0.24801010251E+02  0.27362149295E+02  0.10566000000E+00 0. -1.
        996    1    1    2    0    0  0.89027198625E+00 -0.11523599973E+02  0.92050029905E+02  0.10538877524E+03  0.50000000000E+02 0.  0.
<mgrwt>
<rscale>  0 0.51318476E+02</rscale>
<asrwt>0</asrwt>
<pdfrwt beam="1">  1       13 0.10000000E+01 0.51318476E+02</pdfrwt>
<pdfrwt beam="2">  1       22 0.32750943E+00 0.51318476E+02</pdfrwt>
<totfact> 0.17639517E-01</totfact>
</mgrwt>
</event>
<event>
 4    1  0.2437479E+000  0.5256633E+02  0.7957747E-01  0.1431971E+00
         13   -1    0    0    0    0  0.00000000000E+00  0.00000000000E+00  0.99999944178E+02  0.99999999998E+02  0.10566000000E+00 0.  1.
         22   -1    0    0    0    0 -0.00000000000E+00 -0.00000000000E+00 -0.47199093214E+02  0.47199093214E+02  0.00000000000E+00 0. -1.
         13    1    1    2    0    0  0.30421385772E+01 -0.15936260054E+02 -0.38538055012E+02  0.41814014873E+02  0.10566000000E+00 0. -1.
        996    1    1    2    0    0 -0.30421385772E+01  0.15936260054E+02  0.91338905976E+02  0.10538507834E+03  0.50000000000E+02 0.  0.
<mgrwt>
<rscale>  0 0.52566329E+02</rscale>
<asrwt>0</asrwt>
<pdfrwt beam="1">  1       13 0.10000000E+01 0.52566329E+02</pdfrwt>
<pdfrwt beam="2">  1       22 0.47199108E+00 0.52566329E+02</pdfrwt>
<totfact> 0.85969331E-02</totfact>
</mgrwt>
</event>
<event>
 4    1  0.2437479E+000  0.5262458E+02  0.7957747E-01  0.1431678E+00
         13   -1    0    0    0    0  0.00000000000E+00  0.00000000000E+00  0.99999944181E+02  0.10000000000E+03  0.10566000000E+00 0. -1.
         22   -1    0    0    0    0 -0.00000000000E+00 -0.00000000000E+00 -0.11933620837E+02  0.11933620837E+02  0.00000000000E+00 0. -1.
         13    1    1    2    0    0  0.16352587364E+02 -0.13925851284E+01  0.22847535472E+02  0.28131253936E+02  0.10566000000E+00 0.  1.
        996    1    1    2    0    0 -0.16352587364E+02  0.13925851284E+01  0.65218787872E+02  0.83802366902E+02  0.50000000000E+02 0.  0.
<mgrwt>
<rscale>  0 0.52624580E+02</rscale>
<asrwt>0</asrwt>
<pdfrwt beam="1">  1       13 0.10000000E+01 0.52624580E+02</pdfrwt>
<pdfrwt beam="2">  1       22 0.11933645E+00 0.52624580E+02</pdfrwt>
<totfact> 0.10856116E+00</totfact>
</mgrwt>
</event>
<event>
 4    1  0.2437479E+000  0.5430937E+02  0.7957747E-01  0.1423393E+00
         13   -1    0    0    0    0  0.00000000000E+00  0.00000000000E+00  0.99999944180E+02  0.10000000000E+03  0.10566000000E+00 0.  1.
         22   -1    0    0    0    0 -0.00000000000E+00 -0.00000000000E+00 -0.14288723677E+02  0.14288723677E+02  0.00000000000E+00 0.  1.
         13    1    1    2    0    0 -0.10920758552E+02 -0.18172626653E+02  0.21608493960E+02  0.30272850907E+02  0.10566000000E+00 0. -1.
        996    1    1    2    0    0  0.10920758552E+02  0.18172626653E+02  0.64102726544E+02  0.84015872769E+02  0.50000000000E+02 0.  0.
<mgrwt>
<rscale>  0 0.54309367E+02</rscale>
<asrwt>0</asrwt>
<pdfrwt beam="1">  1       13 0.10000000E+01 0.54309367E+02</pdfrwt>
<pdfrwt beam="2">  1       22 0.14288748E+00 0.54309367E+02</pdfrwt>
<totfact> 0.81957228E-01</totfact>
</mgrwt>
</event>
<event>
 4    1  0.2437479E+000  0.5266680E+02  0.7957747E-01  0.1431466E+00
         13   -1    0    0    0    0  0.00000000000E+00  0.00000000000E+00  0.99999944179E+02  0.99999999999E+02  0.10566000000E+00 0. -1.
         22   -1    0    0    0    0 -0.00000000000E+00 -0.00000000000E+00 -0.13112059625E+02  0.13112059625E+02  0.00000000000E+00 0. -1.
         13    1    1    2    0    0 -0.58136187045E+01 -0.15491712452E+02  0.83092272079E+01  0.18516094026E+02  0.10566000000E+00 0.  1.
        996    1    1    2    0    0  0.58136187045E+01  0.15491712452E+02  0.78578657346E+02  0.94595965598E+02  0.50000000000E+02 0.  0.
<mgrwt>
<rscale>  0 0.52666795E+02</rscale>
<asrwt>0</asrwt>
<pdfrwt beam="1">  1       13 0.10000000E+01 0.52666795E+02</pdfrwt>
<pdfrwt beam="2">  1       22 0.13112084E+00 0.52666795E+02</pdfrwt>
<totfact> 0.93783454E-01</totfact>
</mgrwt>
</event>
<event>
 4    1  0.2437479E+000  0.5676968E+02  0.7957747E-01  0.1411911E+00
         13   -1    0    0    0    0  0.00000000000E+00  0.00000000000E+00  0.99999944189E+02  0.10000000001E+03  0.10566000000E+00 0.  1.
         22   -1    0    0    0    0 -0.00000000000E+00 -0.00000000000E+00 -0.20929876568E+02  0.20929876568E+02  0.00000000000E+00 0. -1.
         13    1    1    2    0    0  0.25915055292E+02  0.71559096412E+01  0.45787021535E+01  0.27272198500E+02  0.10566000000E+00 0. -1.
        996    1    1    2    0    0 -0.25915055292E+02 -0.71559096412E+01  0.74491365468E+02  0.93657678077E+02  0.50000000000E+02 0.  0.
<mgrwt>
<rscale>  0 0.56769685E+02</rscale>
<asrwt>0</asrwt>
<pdfrwt beam="1">  1       13 0.10000000E+01 0.56769685E+02</pdfrwt>
<pdfrwt beam="2">  1       22 0.20929899E+00 0.56769685E+02</pdfrwt>
<totfact> 0.41930693E-01</totfact>
</mgrwt>
</event>
<event>
 4    1  0.2437479E+000  0.5154288E+02  0.7957747E-01  0.1437193E+00
         13   -1    0    0    0    0  0.00000000000E+00  0.00000000000E+00  0.99999944181E+02  0.10000000000E+03  0.10566000000E+00 0.  1.
         22   -1    0    0    0    0 -0.00000000000E+00 -0.00000000000E+00 -0.10259382282E+02  0.10259382282E+02  0.00000000000E+00 0.  1.
         13    1    1    2    0    0  0.10640727440E+02 -0.65911311140E+01  0.17722335056E+02  0.21697013935E+02  0.10566000000E+00 0. -1.
        996    1    1    2    0    0 -0.10640727440E+02  0.65911311140E+01  0.72018226843E+02  0.88562368348E+02  0.50000000000E+02 0.  0.
<mgrwt>
<rscale>  0 0.51542876E+02</rscale>
<asrwt>0</asrwt>
<pdfrwt beam="1">  1       13 0.10000000E+01 0.51542876E+02</pdfrwt>
<pdfrwt beam="2">  1       22 0.10259407E+00 0.51542876E+02</pdfrwt>
<totfact> 0.13567883E+00</totfact>
</mgrwt>
</event>
<event>
 4    1  0.2437479E+000  0.5106481E+02  0.7957747E-01  0.1439681E+00
         13   -1    0    0    0    0  0.00000000000E+00  0.00000000000E+00  0.99999944177E+02  0.99999999997E+02  0.10566000000E+00 0.  1.
         22   -1    0    0    0    0 -0.00000000000E+00 -0.00000000000E+00 -0.16670693125E+02  0.16670693125E+02  0.00000000000E+00 0. -1.
         13    1    1    2    0    0  0.99964953683E+01  0.27721711659E+01 -0.72723798504E+01  0.12669393251E+02  0.10566000000E+00 0. -1.
        996    1    1    2    0    0 -0.99964953683E+01 -0.27721711659E+01  0.90601630903E+02  0.10400129987E+03  0.50000000000E+02 0.  0.
<mgrwt>
<rscale>  0 0.51064810E+02</rscale>
<asrwt>0</asrwt>
<pdfrwt beam="1">  1       13 0.10000000E+01 0.51064810E+02</pdfrwt>
<pdfrwt beam="2">  1       22 0.16670716E+00 0.51064810E+02</pdfrwt>
<totfact> 0.62793965E-01</totfact>
</mgrwt>
</event>
<event>
 4    1  0.2437479E+000  0.5264632E+02  0.7957747E-01  0.1431569E+00
         13   -1    0    0    0    0  0.00000000000E+00  0.00000000000E+00  0.99999944176E+02  0.99999999996E+02  0.10566000000E+00 0. -1.
         22   -1    0    0    0    0 -0.00000000000E+00 -0.00000000000E+00 -0.12166309639E+02  0.12166309639E+02  0.00000000000E+00 0.  1.
         13    1    1    2    0    0 -0.91825649557E+01  0.13686309219E+02  0.14912575052E+02  0.22226799543E+02  0.10566000000E+00 0.  1.
        996    1    1    2    0    0  0.91825649557E+01 -0.13686309219E+02  0.72921059485E+02  0.89939510092E+02  0.50000000000E+02 0.  0.
<mgrwt>
<rscale>  0 0.52646316E+02</rscale>
<asrwt>0</asrwt>
<pdfrwt beam="1">  1       13 0.10000000E+01 0.52646316E+02</pdfrwt>
<pdfrwt beam="2">  1       22 0.12166334E+00 0.52646316E+02</pdfrwt>
<totfact> 0.10539638E+00</totfact>
</mgrwt>
</event>
<event>
 4    1  0.2437479E+000  0.5124679E+02  0.7957747E-01  0.1438730E+00
         13   -1    0    0    0    0  0.00000000000E+00  0.00000000000E+00  0.99999944177E+02  0.99999999998E+02  0.10566000000E+00 0.  1.
         22   -1    0    0    0    0 -0.00000000000E+00 -0.00000000000E+00 -0.17869831531E+02  0.17869831531E+02  0.00000000000E+00 0. -1.
         13    1    1    2    0    0 -0.11072896533E+02 -0.19037329078E+01 -0.82721661834E+01  0.13952531456E+02  0.10566000000E+00 0. -1.
        996    1    1    2    0    0  0.11072896533E+02  0.19037329078E+01  0.90402278830E+02  0.10391730007E+03  0.50000000000E+02 0.  0.
<mgrwt>
<rscale>  0 0.51246788E+02</rscale>
<asrwt>0</asrwt>
<pdfrwt beam="1">  1       13 0.10000000E+01 0.51246788E+02</pdfrwt>
<pdfrwt beam="2">  1       22 0.17869854E+00 0.51246788E+02</pdfrwt>
<totfact> 0.55578945E-01</totfact>
</mgrwt>
</event>
<event>
 4    1  0.2437479E+000  0.5267001E+02  0.7957747E-01  0.1431450E+00
         13   -1    0    0    0    0  0.00000000000E+00  0.00000000000E+00  0.99999944174E+02  0.99999999994E+02  0.10566000000E+00 0.  1.
         22   -1    0    0    0    0 -0.00000000000E+00 -0.00000000000E+00 -0.13755630973E+02  0.13755630973E+02  0.00000000000E+00 0. -1.
         13    1    1    2    0    0 -0.14683089651E+02  0.76509575892E+01  0.56844442880E+01  0.17505837444E+02  0.10566000000E+00 0. -1.
        996    1    1    2    0    0  0.14683089651E+02 -0.76509575892E+01  0.80559868913E+02  0.96249793522E+02  0.50000000000E+02 0.  0.
<mgrwt>
<rscale>  0 0.52670013E+02</rscale>
<asrwt>0</asrwt>
<pdfrwt beam="1">  1       13 0.10000000E+01 0.52670013E+02</pdfrwt>
<pdfrwt beam="2">  1       22 0.13755655E+00 0.52670013E+02</pdfrwt>
<totfact> 0.86882746E-01</totfact>
</mgrwt>
</event>
<event>
 4    1  0.2437479E+000  0.5392652E+02  0.7957747E-01  0.1425245E+00
         13   -1    0    0    0    0  0.00000000000E+00  0.00000000000E+00  0.99999944175E+02  0.99999999995E+02  0.10566000000E+00 0. -1.
         22   -1    0    0    0    0 -0.00000000000E+00 -0.00000000000E+00 -0.21425469301E+02  0.21425469301E+02  0.00000000000E+00 0. -1.
         13    1    1    2    0    0  0.19875957601E+02 -0.36076928978E+01 -0.60426648269E+01  0.21085400182E+02  0.10566000000E+00 0.  1.
        996    1    1    2    0    0 -0.19875957601E+02  0.36076928978E+01  0.84617139701E+02  0.10034006911E+03  0.50000000000E+02 0.  0.
<mgrwt>
<rscale>  0 0.53926516E+02</rscale>
<asrwt>0</asrwt>
<pdfrwt beam="1">  1       13 0.10000000E+01 0.53926516E+02</pdfrwt>
<pdfrwt beam="2">  1       22 0.21425491E+00 0.53926516E+02</pdfrwt>
<totfact> 0.39917788E-01</totfact>
</mgrwt>
</event>
<event>
 4    1  0.2437479E+000  0.5133193E+02  0.7957747E-01  0.1438287E+00
         13   -1    0    0    0    0  0.00000000000E+00  0.00000000000E+00  0.99999944183E+02  0.10000000000E+03  0.10566000000E+00 0.  1.
         22   -1    0    0    0    0 -0.00000000000E+00 -0.00000000000E+00 -0.20879576121E+02  0.20879576121E+02  0.00000000000E+00 0.  1.
         13    1    1    2    0    0 -0.56428565062E+01 -0.10155050184E+02 -0.11743058676E+02  0.16519003145E+02  0.10566000000E+00 0. -1.
        996    1    1    2    0    0  0.56428565062E+01  0.10155050184E+02  0.90863426739E+02  0.10436057298E+03  0.50000000000E+02 0.  0.
<mgrwt>
<rscale>  0 0.51331928E+02</rscale>
<asrwt>0</asrwt>
<pdfrwt beam="1">  1       13 0.10000000E+01 0.51331928E+02</pdfrwt>
<pdfrwt beam="2">  1       22 0.20879598E+00 0.51331928E+02</pdfrwt>
<totfact> 0.41738239E-01</totfact>
</mgrwt>
</event>
<event>
 4    1  0.2437479E+000  0.5232895E+02  0.7957747E-01  0.1433170E+00
         13   -1    0    0    0    0  0.00000000000E+00  0.00000000000E+00  0.99999944178E+02  0.99999999998E+02  0.10566000000E+00 0. -1.
         22   -1    0    0    0    0 -0.00000000000E+00 -0.00000000000E+00 -0.21261738956E+02  0.21261738956E+02  0.00000000000E+00 0.  1.
         13    1    1    2    0    0 -0.15375623896E+02 -0.13816015245E+01 -0.98927971376E+01  0.18335681940E+02  0.10566000000E+00 0.  1.
        996    1    1    2    0    0  0.15375623896E+02  0.13816015245E+01  0.88631002360E+02  0.10292605701E+03  0.50000000000E+02 0.  0.
<mgrwt>
<rscale>  0 0.52328946E+02</rscale>
<asrwt>0</asrwt>
<pdfrwt beam="1">  1       13 0.10000000E+01 0.52328946E+02</pdfrwt>
<pdfrwt beam="2">  1       22 0.21261761E+00 0.52328946E+02</pdfrwt>
<totfact> 0.40396376E-01</totfact>
</mgrwt>
</event>
<event>
 4    1  0.2437479E+000  0.5285281E+02  0.7957747E-01  0.1430535E+00
         13   -1    0    0    0    0  0.00000000000E+00  0.00000000000E+00  0.99999944176E+02  0.99999999996E+02  0.10566000000E+00 0. -1.
         22   -1    0    0    0    0 -0.00000000000E+00 -0.00000000000E+00 -0.18783149687E+02  0.18783149687E+02  0.00000000000E+00 0. -1.
         13    1    1    2    0    0  0.16331701517E+02  0.51666852253E+01  0.59025040404E+02  0.61460439873E+02  0.10566000000E+00 0.  1.
        996    1    1    2    0    0 -0.16331701517E+02 -0.51666852253E+01  0.22191754084E+02  0.57322709810E+02  0.50000000000E+02 0.  0.
<mgrwt>
<rscale>  0 0.52852806E+02</rscale>
<asrwt>0</asrwt>
<pdfrwt beam="1">  1       13 0.10000000E+01 0.52852806E+02</pdfrwt>
<pdfrwt beam="2">  1       22 0.18783172E+00 0.52852806E+02</pdfrwt>
<totfact> 0.50948674E-01</totfact>
</mgrwt>
</event>
<event>
 4    1  0.2437479E+000  0.6616108E+02  0.7957747E-01  0.1373656E+00
         13   -1    0    0    0    0  0.00000000000E+00  0.00000000000E+00  0.99999944178E+02  0.99999999998E+02  0.10566000000E+00 0.  1.
         22   -1    0    0    0    0 -0.00000000000E+00 -0.00000000000E+00 -0.29970328138E+02  0.29970328138E+02  0.00000000000E+00 0.  1.
         13    1    1    2    0    0  0.37816363229E+02  0.21147364947E+02  0.28041857550E+02  0.51610515507E+02  0.10566000000E+00 0. -1.
        996    1    1    2    0    0 -0.37816363229E+02 -0.21147364947E+02  0.41987758490E+02  0.78359812628E+02  0.50000000000E+02 0.  0.
<mgrwt>
<rscale>  0 0.66161079E+02</rscale>
<asrwt>0</asrwt>
<pdfrwt beam="1">  1       13 0.10000000E+01 0.66161079E+02</pdfrwt>
<pdfrwt beam="2">  1       22 0.29970348E+00 0.66161079E+02</pdfrwt>
<totfact> 0.21084627E-01</totfact>
</mgrwt>
</event>
<event>
 4    1  0.2437479E+000  0.5182164E+02  0.7957747E-01  0.1435757E+00
         13   -1    0    0    0    0  0.00000000000E+00  0.00000000000E+00  0.99999944176E+02  0.99999999996E+02  0.10566000000E+00 0. -1.
         22   -1    0    0    0    0 -0.00000000000E+00 -0.00000000000E+00 -0.10844051467E+02  0.10844051467E+02  0.00000000000E+00 0. -1.
         13    1    1    2    0    0 -0.12325620251E+02 -0.57931944523E+01  0.23972668199E+02  0.27571398244E+02  0.10566000000E+00 0.  1.
        996    1    1    2    0    0  0.12325620251E+02  0.57931944523E+01  0.65183224511E+02  0.83272653219E+02  0.50000000000E+02 0.  0.
<mgrwt>
<rscale>  0 0.51821637E+02</rscale>
<asrwt>0</asrwt>
<pdfrwt beam="1">  1       13 0.10000000E+01 0.51821637E+02</pdfrwt>
<pdfrwt beam="2">  1       22 0.10844076E+00 0.51821637E+02</pdfrwt>
<totfact> 0.12514690E+00</totfact>
</mgrwt>
</event>
<event>
 4    1  0.2437479E+000  0.5192619E+02  0.7957747E-01  0.1435221E+00
         13   -1    0    0    0    0  0.00000000000E+00  0.00000000000E+00  0.99999944177E+02  0.99999999998E+02  0.10566000000E+00 0.  1.
         22   -1    0    0    0    0 -0.00000000000E+00 -0.00000000000E+00 -0.13184971153E+02  0.13184971153E+02  0.00000000000E+00 0. -1.
         13    1    1    2    0    0 -0.34736286789E+01 -0.13574373444E+02  0.26047567172E+01  0.14252214993E+02  0.10566000000E+00 0. -1.
        996    1    1    2    0    0  0.34736286789E+01  0.13574373444E+02  0.84210216307E+02  0.98932756158E+02  0.50000000000E+02 0.  0.
<mgrwt>
<rscale>  0 0.51926195E+02</rscale>
<asrwt>0</asrwt>
<pdfrwt beam="1">  1       13 0.10000000E+01 0.51926195E+02</pdfrwt>
<pdfrwt beam="2">  1       22 0.13184995E+00 0.51926195E+02</pdfrwt>
<totfact> 0.92816739E-01</totfact>
</mgrwt>
</event>
<event>
 4    1  0.2437479E+000  0.5309652E+02  0.7957747E-01  0.1429321E+00
         13   -1    0    0    0    0  0.00000000000E+00  0.00000000000E+00  0.99999944181E+02  0.10000000000E+03  0.10566000000E+00 0. -1.
         22   -1    0    0    0    0 -0.00000000000E+00 -0.00000000000E+00 -0.13300499584E+02  0.13300499584E+02  0.00000000000E+00 0.  1.
         13    1    1    2    0    0  0.17567268210E+02  0.32605483776E+01  0.11512556330E+02  0.21255357098E+02  0.10566000000E+00 0.  1.
        996    1    1    2    0    0 -0.17567268210E+02 -0.32605483776E+01  0.75186888267E+02  0.92045142487E+02  0.50000000000E+02 0.  0.
<mgrwt>
<rscale>  0 0.53096517E+02</rscale>
<asrwt>0</asrwt>
<pdfrwt beam="1">  1       13 0.10000000E+01 0.53096517E+02</pdfrwt>
<pdfrwt beam="2">  1       22 0.13300524E+00 0.53096517E+02</pdfrwt>
<totfact> 0.91769073E-01</totfact>
</mgrwt>
</event>
<event>
 4    1  0.2437479E+000  0.5109887E+02  0.7957747E-01  0.1439503E+00
         13   -1    0    0    0    0  0.00000000000E+00  0.00000000000E+00  0.99999944184E+02  0.10000000000E+03  0.10566000000E+00 0. -1.
         22   -1    0    0    0    0 -0.00000000000E+00 -0.00000000000E+00 -0.97540106221E+01  0.97540106221E+01  0.00000000000E+00 0. -1.
         13    1    1    2    0    0  0.10449224660E+02 -0.13814298665E+01  0.94560628311E+01  0.14160612020E+02  0.10566000000E+00 0.  1.
        996    1    1    2    0    0 -0.10449224660E+02  0.13814298665E+01  0.80789870730E+02  0.95593398606E+02  0.50000000000E+02 0.  0.
<mgrwt>
<rscale>  0 0.51098871E+02</rscale>
<asrwt>0</asrwt>
<pdfrwt beam="1">  1       13 0.10000000E+01 0.51098871E+02</pdfrwt>
<pdfrwt beam="2">  1       22 0.97540358E-01 0.51098871E+02</pdfrwt>
<totfact> 0.14581981E+00</totfact>
</mgrwt>
</event>
<event>
 4    1  0.2437479E+000  0.6322710E+02  0.7957747E-01  0.1384767E+00
         13   -1    0    0    0    0  0.00000000000E+00  0.00000000000E+00  0.99999944185E+02  0.10000000001E+03  0.10566000000E+00 0.  1.
         22   -1    0    0    0    0 -0.00000000000E+00 -0.00000000000E+00 -0.34903965328E+02  0.34903965328E+02  0.00000000000E+00 0. -1.
         13    1    1    2    0    0 -0.20324092534E+02 -0.32933231917E+02 -0.66572204848E+01  0.39268260089E+02  0.10566000000E+00 0. -1.
        996    1    1    2    0    0  0.20324092534E+02  0.32933231917E+02  0.71753199342E+02  0.95635705244E+02  0.50000000000E+02 0.  0.
<mgrwt>
<rscale>  0 0.63227103E+02</rscale>
<asrwt>0</asrwt>
<pdfrwt beam="1">  1       13 0.10000000E+01 0.63227103E+02</pdfrwt>
<pdfrwt beam="2">  1       22 0.34903984E+00 0.63227103E+02</pdfrwt>
<totfact> 0.15957336E-01</totfact>
</mgrwt>
</event>
<event>
 4    1  0.2437479E+000  0.5570276E+02  0.7957747E-01  0.1416804E+00
         13   -1    0    0    0    0  0.00000000000E+00  0.00000000000E+00  0.99999944183E+02  0.10000000000E+03  0.10566000000E+00 0.  1.
         22   -1    0    0    0    0 -0.00000000000E+00 -0.00000000000E+00 -0.32166350868E+02  0.32166350868E+02  0.00000000000E+00 0. -1.
         13    1    1    2    0    0 -0.24193007749E+01 -0.24432439420E+02 -0.17578099357E+02  0.30195990682E+02  0.10566000000E+00 0. -1.
        996    1    1    2    0    0  0.24193007749E+01  0.24432439420E+02  0.85411692672E+02  0.10197036019E+03  0.50000000000E+02 0.  0.
<mgrwt>
<rscale>  0 0.55702757E+02</rscale>
<asrwt>0</asrwt>
<pdfrwt beam="1">  1       13 0.10000000E+01 0.55702757E+02</pdfrwt>
<pdfrwt beam="2">  1       22 0.32166370E+00 0.55702757E+02</pdfrwt>
<totfact> 0.18306324E-01</totfact>
</mgrwt>
</event>
<event>
 4    1  0.2437479E+000  0.5451324E+02  0.7957747E-01  0.1422415E+00
         13   -1    0    0    0    0  0.00000000000E+00  0.00000000000E+00  0.99999944175E+02  0.99999999995E+02  0.10566000000E+00 0. -1.
         22   -1    0    0    0    0 -0.00000000000E+00 -0.00000000000E+00 -0.16705000789E+02  0.16705000789E+02  0.00000000000E+00 0.  1.
         13    1    1    2    0    0  0.80054980640E+01 -0.20189244649E+02  0.67711923930E+01  0.22749808993E+02  0.10566000000E+00 0.  1.
        996    1    1    2    0    0 -0.80054980640E+01  0.20189244649E+02  0.76523750993E+02  0.93955191792E+02  0.50000000000E+02 0.  0.
<mgrwt>
<rscale>  0 0.54513242E+02</rscale>
<asrwt>0</asrwt>
<pdfrwt beam="1">  1       13 0.10000000E+01 0.54513242E+02</pdfrwt>
<pdfrwt beam="2">  1       22 0.16705024E+00 0.54513242E+02</pdfrwt>
<totfact> 0.62985930E-01</totfact>
</mgrwt>
</event>
<event>
 4    1  0.2437479E+000  0.7427914E+02  0.7957747E-01  0.1346118E+00
         13   -1    0    0    0    0  0.00000000000E+00  0.00000000000E+00  0.99999944183E+02  0.10000000000E+03  0.10566000000E+00 0.  1.
         22   -1    0    0    0    0 -0.00000000000E+00 -0.00000000000E+00 -0.62210370354E+02  0.62210370354E+02  0.00000000000E+00 0. -1.
         13    1    1    2    0    0  0.19024275940E+02  0.51531231564E+02 -0.29178700639E+02  0.62199667496E+02  0.10566000000E+00 0. -1.
        996    1    1    2    0    0 -0.19024275940E+02 -0.51531231564E+02  0.66968274467E+02  0.10001070286E+03  0.50000000000E+02 0.  0.
<mgrwt>
<rscale>  0 0.74279142E+02</rscale>
<asrwt>0</asrwt>
<pdfrwt beam="1">  1       13 0.10000000E+01 0.74279142E+02</pdfrwt>
<pdfrwt beam="2">  1       22 0.62210381E+00 0.74279142E+02</pdfrwt>
<totfact> 0.74241324E-02</totfact>
</mgrwt>
</event>
<event>
 4    1  0.2437479E+000  0.5108196E+02  0.7957747E-01  0.1439592E+00
         13   -1    0    0    0    0  0.00000000000E+00  0.00000000000E+00  0.99999944176E+02  0.99999999996E+02  0.10566000000E+00 0. -1.
         22   -1    0    0    0    0 -0.00000000000E+00 -0.00000000000E+00 -0.12253134996E+02  0.12253134996E+02  0.00000000000E+00 0.  1.
         13    1    1    2    0    0  0.54877051613E+01  0.89023695056E+01 -0.29825942375E+00  0.10462658050E+02  0.10566000000E+00 0.  1.
        996    1    1    2    0    0 -0.54877051613E+01 -0.89023695056E+01  0.88045068603E+02  0.10179047694E+03  0.50000000000E+02 0.  0.
<mgrwt>
<rscale>  0 0.51081964E+02</rscale>
<asrwt>0</asrwt>
<pdfrwt beam="1">  1       13 0.10000000E+01 0.51081964E+02</pdfrwt>
<pdfrwt beam="2">  1       22 0.12253159E+00 0.51081964E+02</pdfrwt>
<totfact> 0.10388546E+00</totfact>
</mgrwt>
</event>
<event>
 4    1  0.2437479E+000  0.5142235E+02  0.7957747E-01  0.1437817E+00
         13   -1    0    0    0    0  0.00000000000E+00  0.00000000000E+00  0.99999944181E+02  0.10000000000E+03  0.10566000000E+00 0. -1.
         22   -1    0    0    0    0 -0.00000000000E+00 -0.00000000000E+00 -0.10779513491E+02  0.10779513491E+02  0.00000000000E+00 0.  1.
         13    1    1    2    0    0  0.11677180082E+02 -0.28110073947E+01  0.72952184788E+01  0.14053101933E+02  0.10566000000E+00 0.  1.
        996    1    1    2    0    0 -0.11677180082E+02  0.28110073947E+01  0.81925212211E+02  0.96726411559E+02  0.50000000000E+02 0.  0.
<mgrwt>
<rscale>  0 0.51422352E+02</rscale>
<asrwt>0</asrwt>
<pdfrwt beam="1">  1       13 0.10000000E+01 0.51422352E+02</pdfrwt>
<pdfrwt beam="2">  1       22 0.10779538E+00 0.51422352E+02</pdfrwt>
<totfact> 0.12613941E+00</totfact>
</mgrwt>
</event>
<event>
 4    1  0.2437479E+000  0.5455272E+02  0.7957747E-01  0.1422226E+00
         13   -1    0    0    0    0  0.00000000000E+00  0.00000000000E+00  0.99999944182E+02  0.10000000000E+03  0.10566000000E+00 0. -1.
         22   -1    0    0    0    0 -0.00000000000E+00 -0.00000000000E+00 -0.35427700689E+02  0.35427700689E+02  0.00000000000E+00 0.  1.
         13    1    1    2    0    0 -0.15175348826E+02 -0.15675061715E+02 -0.23349763370E+02  0.31956554652E+02  0.10566000000E+00 0.  1.
        996    1    1    2    0    0  0.15175348826E+02  0.15675061715E+02  0.87922006863E+02  0.10347114604E+03  0.50000000000E+02 0.  0.
<mgrwt>
<rscale>  0 0.54552716E+02</rscale>
<asrwt>0</asrwt>
<pdfrwt beam="1">  1       13 0.10000000E+01 0.54552716E+02</pdfrwt>
<pdfrwt beam="2">  1       22 0.35427719E+00 0.54552716E+02</pdfrwt>
<totfact> 0.15424063E-01</totfact>
</mgrwt>
</event>
<event>
 4    1  0.2437479E+000  0.5179699E+02  0.7957747E-01  0.1435883E+00
         13   -1    0    0    0    0  0.00000000000E+00  0.00000000000E+00  0.99999944182E+02  0.10000000000E+03  0.10566000000E+00 0. -1.
         22   -1    0    0    0    0 -0.00000000000E+00 -0.00000000000E+00 -0.22326840038E+02  0.22326840038E+02  0.00000000000E+00 0.  1.
         13    1    1    2    0    0 -0.12806195556E+02 -0.43507768732E+01 -0.12447449390E+02  0.18381459800E+02  0.10566000000E+00 0.  1.
        996    1    1    2    0    0  0.12806195556E+02  0.43507768732E+01  0.90120553534E+02  0.10394538024E+03  0.50000000000E+02 0.  0.
<mgrwt>
<rscale>  0 0.51796987E+02</rscale>
<asrwt>0</asrwt>
<pdfrwt beam="1">  1       13 0.10000000E+01 0.51796987E+02</pdfrwt>
<pdfrwt beam="2">  1       22 0.22326862E+00 0.51796987E+02</pdfrwt>
<totfact> 0.36749070E-01</totfact>
</mgrwt>
</event>
<event>
 4    1  0.2437479E+000  0.5121139E+02  0.7957747E-01  0.1438915E+00
         13   -1    0    0    0    0  0.00000000000E+00  0.00000000000E+00  0.99999944183E+02  0.10000000000E+03  0.10566000000E+00 0. -1.
         22   -1    0    0    0    0 -0.00000000000E+00 -0.00000000000E+00 -0.14211643155E+02  0.14211643155E+02  0.00000000000E+00 0. -1.
         13    1    1    2    0    0  0.10621539835E+02 -0.31287508541E+01 -0.32116550313E+01  0.11529617619E+02  0.10566000000E+00 0.  1.
        996    1    1    2    0    0 -0.10621539835E+02  0.31287508541E+01  0.88999956059E+02  0.10268202554E+03  0.50000000000E+02 0.  0.
<mgrwt>
<rscale>  0 0.51211387E+02</rscale>
<asrwt>0</asrwt>
<pdfrwt beam="1">  1       13 0.10000000E+01 0.51211387E+02</pdfrwt>
<pdfrwt beam="2">  1       22 0.14211667E+00 0.51211387E+02</pdfrwt>
<totfact> 0.82159398E-01</totfact>
</mgrwt>
</event>
<event>
 4    1  0.2437479E+000  0.5196229E+02  0.7957747E-01  0.1435036E+00
         13   -1    0    0    0    0  0.00000000000E+00  0.00000000000E+00  0.99999944176E+02  0.99999999996E+02  0.10566000000E+00 0.  1.
         22   -1    0    0    0    0 -0.00000000000E+00 -0.00000000000E+00 -0.44637258829E+02  0.44637258829E+02  0.00000000000E+00 0. -1.
         13    1    1    2    0    0 -0.12411385927E+02  0.67850941869E+01 -0.36473074265E+02  0.39120024465E+02  0.10566000000E+00 0. -1.
        996    1    1    2    0    0  0.12411385927E+02 -0.67850941869E+01  0.91835759611E+02  0.10551723436E+03  0.50000000000E+02 0.  0.
<mgrwt>
<rscale>  0 0.51962294E+02</rscale>
<asrwt>0</asrwt>
<pdfrwt beam="1">  1       13 0.10000000E+01 0.51962294E+02</pdfrwt>
<pdfrwt beam="2">  1       22 0.44637274E+00 0.51962294E+02</pdfrwt>
<totfact> 0.98449273E-02</totfact>
</mgrwt>
</event>
<event>
 4    1  0.2437479E+000  0.5103331E+02  0.7957747E-01  0.1439847E+00
         13   -1    0    0    0    0  0.00000000000E+00  0.00000000000E+00  0.99999944179E+02  0.99999999999E+02  0.10566000000E+00 0. -1.
         22   -1    0    0    0    0 -0.00000000000E+00 -0.00000000000E+00 -0.10061541006E+02  0.10061541006E+02  0.00000000000E+00 0. -1.
         13    1    1    2    0    0 -0.91120930234E+01  0.46226117641E+01  0.60653766785E+01  0.11882707481E+02  0.10566000000E+00 0.  1.
        996    1    1    2    0    0  0.91120930234E+01 -0.46226117641E+01  0.83873026494E+02  0.98178833524E+02  0.50000000000E+02 0.  0.
<mgrwt>
<rscale>  0 0.51033310E+02</rscale>
<asrwt>0</asrwt>
<pdfrwt beam="1">  1       13 0.10000000E+01 0.51033310E+02</pdfrwt>
<pdfrwt beam="2">  1       22 0.10061566E+00 0.51033310E+02</pdfrwt>
<totfact> 0.13940404E+00</totfact>
</mgrwt>
</event>
<event>
 4    1  0.2437479E+000  0.7690787E+02  0.7957747E-01  0.1338063E+00
         13   -1    0    0    0    0  0.00000000000E+00  0.00000000000E+00  0.99999944183E+02  0.10000000000E+03  0.10566000000E+00 0.  1.
         22   -1    0    0    0    0 -0.00000000000E+00 -0.00000000000E+00 -0.45998554351E+02  0.45998554351E+02  0.00000000000E+00 0. -1.
         13    1    1    2    0    0 -0.47947854032E+02 -0.33403957581E+02  0.18524464268E+02  0.61302430855E+02  0.10566000000E+00 0. -1.
        996    1    1    2    0    0  0.47947854032E+02  0.33403957581E+02  0.35476925564E+02  0.84696123499E+02  0.50000000000E+02 0.  0.
<mgrwt>
<rscale>  0 0.76907874E+02</rscale>
<asrwt>0</asrwt>
<pdfrwt beam="1">  1       13 0.10000000E+01 0.76907874E+02</pdfrwt>
<pdfrwt beam="2">  1       22 0.45998569E+00 0.76907874E+02</pdfrwt>
<totfact> 0.92727914E-02</totfact>
</mgrwt>
</event>
<event>
 4    1  0.2437479E+000  0.5143531E+02  0.7957747E-01  0.1437750E+00
         13   -1    0    0    0    0  0.00000000000E+00  0.00000000000E+00  0.99999944175E+02  0.99999999995E+02  0.10566000000E+00 0.  1.
         22   -1    0    0    0    0 -0.00000000000E+00 -0.00000000000E+00 -0.18185501649E+02  0.18185501649E+02  0.00000000000E+00 0. -1.
         13    1    1    2    0    0 -0.10509081184E+02 -0.59287750394E+01 -0.81460470249E+01  0.14558860085E+02  0.10566000000E+00 0. -1.
        996    1    1    2    0    0  0.10509081184E+02  0.59287750394E+01  0.89960489550E+02  0.10362664156E+03  0.50000000000E+02 0.  0.
<mgrwt>
<rscale>  0 0.51435310E+02</rscale>
<asrwt>0</asrwt>
<pdfrwt beam="1">  1       13 0.10000000E+01 0.51435310E+02</pdfrwt>
<pdfrwt beam="2">  1       22 0.18185524E+00 0.51435310E+02</pdfrwt>
<totfact> 0.53880136E-01</totfact>
</mgrwt>
</event>
<event>
 4    1  0.2437479E+000  0.5099420E+02  0.7957747E-01  0.1440052E+00
         13   -1    0    0    0    0  0.00000000000E+00  0.00000000000E+00  0.99999944180E+02  0.10000000000E+03  0.10566000000E+00 0. -1.
         22   -1    0    0    0    0 -0.00000000000E+00 -0.00000000000E+00 -0.53214782209E+02  0.53214782209E+02  0.00000000000E+00 0.  1.
         13    1    1    2    0    0 -0.47574620016E+01  0.88190326094E+01 -0.46140806999E+02  0.47216459158E+02  0.10566000000E+00 0.  1.
        996    1    1    2    0    0  0.47574620016E+01 -0.88190326094E+01  0.92925968969E+02  0.10599832305E+03  0.50000000000E+02 0.  0.
<mgrwt>
<rscale>  0 0.50994203E+02</rscale>
<asrwt>0</asrwt>
<pdfrwt beam="1">  1       13 0.10000000E+01 0.50994203E+02</pdfrwt>
<pdfrwt beam="2">  1       22 0.53214795E+00 0.50994203E+02</pdfrwt>
<totfact> 0.62513307E-02</totfact>
</mgrwt>
</event>
<event>
 4    1  0.2437479E+000  0.6228318E+02  0.7957747E-01  0.1388493E+00
         13   -1    0    0    0    0  0.00000000000E+00  0.00000000000E+00  0.99999944180E+02  0.10000000000E+03  0.10566000000E+00 0. -1.
         22   -1    0    0    0    0 -0.00000000000E+00 -0.00000000000E+00 -0.88548462589E+02  0.88548462589E+02  0.00000000000E+00 0.  1.
         13    1    1    2    0    0  0.17156928801E+01 -0.37097860362E+02 -0.74006658115E+02  0.82802122285E+02  0.10566000000E+00 0.  1.
        996    1    1    2    0    0 -0.17156928801E+01  0.37097860362E+02  0.85458139707E+02  0.10574634030E+03  0.50000000000E+02 0.  0.
<mgrwt>
<rscale>  0 0.62283183E+02</rscale>
<asrwt>0</asrwt>
<pdfrwt beam="1">  1       13 0.10000000E+01 0.62283183E+02</pdfrwt>
<pdfrwt beam="2">  1       22 0.88548466E+00 0.62283183E+02</pdfrwt>
<totfact> 0.12611383E-02</totfact>
</mgrwt>
</event>
<event>
 4    1  0.2437479E+000  0.5128116E+02  0.7957747E-01  0.1438551E+00
         13   -1    0    0    0    0  0.00000000000E+00  0.00000000000E+00  0.99999944181E+02  0.10000000000E+03  0.10566000000E+00 0.  1.
         22   -1    0    0    0    0 -0.00000000000E+00 -0.00000000000E+00 -0.10746978864E+02  0.10746978864E+02  0.00000000000E+00 0.  1.
         13    1    1    2    0    0  0.32179194449E+01 -0.10927138873E+02  0.31582741354E+02  0.33574366487E+02  0.10566000000E+00 0. -1.
        996    1    1    2    0    0 -0.32179194449E+01  0.10927138873E+02  0.57670223962E+02  0.77172612379E+02  0.50000000000E+02 0.  0.
<mgrwt>
<rscale>  0 0.51281160E+02</rscale>
<asrwt>0</asrwt>
<pdfrwt beam="1">  1       13 0.10000000E+01 0.51281160E+02</pdfrwt>
<pdfrwt beam="2">  1       22 0.10747004E+00 0.51281160E+02</pdfrwt>
<totfact> 0.12666196E+00</totfact>
</mgrwt>
</event>
<event>
 4    1  0.2437479E+000  0.5591219E+02  0.7957747E-01  0.1415834E+00
         13   -1    0    0    0    0  0.00000000000E+00  0.00000000000E+00  0.99999944173E+02  0.99999999994E+02  0.10566000000E+00 0.  1.
         22   -1    0    0    0    0 -0.00000000000E+00 -0.00000000000E+00 -0.67987735289E+02  0.67987735289E+02  0.00000000000E+00 0. -1.
         13    1    1    2    0    0 -0.23017525578E+02 -0.98166161441E+01 -0.57352105380E+02  0.62573537472E+02  0.10566000000E+00 0. -1.
        996    1    1    2    0    0  0.23017525578E+02  0.98166161441E+01  0.89364314264E+02  0.10541419781E+03  0.50000000000E+02 0.  0.
<mgrwt>
<rscale>  0 0.55912185E+02</rscale>
<asrwt>0</asrwt>
<pdfrwt beam="1">  1       13 0.10000000E+01 0.55912185E+02</pdfrwt>
<pdfrwt beam="2">  1       22 0.67987744E+00 0.55912185E+02</pdfrwt>
<totfact> 0.83514361E-02</totfact>
</mgrwt>
</event>
<event>
 4    1  0.2437479E+000  0.5410000E+02  0.7957747E-01  0.1424404E+00
         13   -1    0    0    0    0  0.00000000000E+00  0.00000000000E+00  0.99999944182E+02  0.10000000000E+03  0.10566000000E+00 0.  1.
         22   -1    0    0    0    0 -0.00000000000E+00 -0.00000000000E+00 -0.13990503554E+02  0.13990503554E+02  0.00000000000E+00 0. -1.
         13    1    1    2    0    0 -0.20214129790E+02 -0.42660476302E+01  0.21963948694E+02  0.30153547251E+02  0.10566000000E+00 0. -1.
        996    1    1    2    0    0  0.20214129790E+02  0.42660476302E+01  0.64045491933E+02  0.83836956305E+02  0.50000000000E+02 0.  0.
<mgrwt>
<rscale>  0 0.54100002E+02</rscale>
<asrwt>0</asrwt>
<pdfrwt beam="1">  1       13 0.10000000E+01 0.54100002E+02</pdfrwt>
<pdfrwt beam="2">  1       22 0.13990528E+00 0.54100002E+02</pdfrwt>
<totfact> 0.84785975E-01</totfact>
</mgrwt>
</event>
<event>
 4    1  0.2437479E+000  0.5434907E+02  0.7957747E-01  0.1423202E+00
         13   -1    0    0    0    0  0.00000000000E+00  0.00000000000E+00  0.99999944179E+02  0.99999999999E+02  0.10566000000E+00 0. -1.
         22   -1    0    0    0    0 -0.00000000000E+00 -0.00000000000E+00 -0.16517810640E+02  0.16517810640E+02  0.00000000000E+00 0. -1.
         13    1    1    2    0    0  0.57115979384E+01  0.20523142669E+02  0.64795156587E+01  0.22266949123E+02  0.10566000000E+00 0.  1.
        996    1    1    2    0    0 -0.57115979384E+01 -0.20523142669E+02  0.77002617880E+02  0.94250861516E+02  0.50000000000E+02 0.  0.
<mgrwt>
<rscale>  0 0.54349073E+02</rscale>
<asrwt>0</asrwt>
<pdfrwt beam="1">  1       13 0.10000000E+01 0.54349073E+02</pdfrwt>
<pdfrwt beam="2">  1       22 0.16517834E+00 0.54349073E+02</pdfrwt>
<totfact> 0.64211939E-01</totfact>
</mgrwt>
</event>
<event>
 4    1  0.2437479E+000  0.5322514E+02  0.7957747E-01  0.1428684E+00
         13   -1    0    0    0    0  0.00000000000E+00  0.00000000000E+00  0.99999944172E+02  0.99999999992E+02  0.10566000000E+00 0. -1.
         22   -1    0    0    0    0 -0.00000000000E+00 -0.00000000000E+00 -0.28622965292E+02  0.28622965292E+02  0.00000000000E+00 0.  1.
         13    1    1    2    0    0  0.16921616370E+02 -0.68245739278E+01 -0.17335607356E+02  0.25168439688E+02  0.10566000000E+00 0.  1.
        996    1    1    2    0    0 -0.16921616370E+02  0.68245739278E+01  0.88712586235E+02  0.10345452560E+03  0.50000000000E+02 0.  0.
<mgrwt>
<rscale>  0 0.53225144E+02</rscale>
<asrwt>0</asrwt>
<pdfrwt beam="1">  1       13 0.10000000E+01 0.53225144E+02</pdfrwt>
<pdfrwt beam="2">  1       22 0.28622985E+00 0.53225144E+02</pdfrwt>
<totfact> 0.22668905E-01</totfact>
</mgrwt>
</event>
<event>
 4    1  0.2437479E+000  0.5150881E+02  0.7957747E-01  0.1437369E+00
         13   -1    0    0    0    0  0.00000000000E+00  0.00000000000E+00  0.99999944183E+02  0.10000000000E+03  0.10566000000E+00 0. -1.
         22   -1    0    0    0    0 -0.00000000000E+00 -0.00000000000E+00 -0.48371974096E+02  0.48371974096E+02  0.00000000000E+00 0.  1.
         13    1    1    2    0    0 -0.12367132258E+02 -0.45940809810E+00 -0.40758833630E+02  0.42596369552E+02  0.10566000000E+00 0.  1.
        996    1    1    2    0    0  0.12367132258E+02  0.45940809810E+00  0.92386803718E+02  0.10577560455E+03  0.50000000000E+02 0.  0.
<mgrwt>
<rscale>  0 0.51508805E+02</rscale>
<asrwt>0</asrwt>
<pdfrwt beam="1">  1       13 0.10000000E+01 0.51508805E+02</pdfrwt>
<pdfrwt beam="2">  1       22 0.48371989E+00 0.51508805E+02</pdfrwt>
<totfact> 0.80565775E-02</totfact>
</mgrwt>
</event>
<event>
 4    1  0.2437479E+000  0.5273351E+02  0.7957747E-01  0.1431132E+00
         13   -1    0    0    0    0  0.00000000000E+00  0.00000000000E+00  0.99999944175E+02  0.99999999996E+02  0.10566000000E+00 0. -1.
         22   -1    0    0    0    0 -0.00000000000E+00 -0.00000000000E+00 -0.12093375566E+02  0.12093375566E+02  0.00000000000E+00 0.  1.
         13    1    1    2    0    0 -0.44240048199E+01 -0.16163278550E+02  0.19254182556E+02  0.25525636173E+02  0.10566000000E+00 0.  1.
        996    1    1    2    0    0  0.44240048199E+01  0.16163278550E+02  0.68652386053E+02  0.86567739389E+02  0.50000000000E+02 0.  0.
<mgrwt>
<rscale>  0 0.52733513E+02</rscale>
<asrwt>0</asrwt>
<pdfrwt beam="1">  1       13 0.10000000E+01 0.52733513E+02</pdfrwt>
<pdfrwt beam="2">  1       22 0.12093400E+00 0.52733513E+02</pdfrwt>
<totfact> 0.10639597E+00</totfact>
</mgrwt>
</event>
<event>
 4    1  0.2437479E+000  0.5101641E+02  0.7957747E-01  0.1439935E+00
         13   -1    0    0    0    0  0.00000000000E+00  0.00000000000E+00  0.99999944186E+02  0.10000000001E+03  0.10566000000E+00 0.  1.
         22   -1    0    0    0    0 -0.00000000000E+00 -0.00000000000E+00 -0.94700827826E+01  0.94700827826E+01  0.00000000000E+00 0.  1.
         13    1    1    2    0    0  0.91434539190E+01 -0.43670372730E+01  0.20032996065E+02  0.22450074822E+02  0.10566000000E+00 0. -1.
        996    1    1    2    0    0 -0.91434539190E+01  0.43670372730E+01  0.70496865339E+02  0.87020007968E+02  0.50000000000E+02 0.  0.
<mgrwt>
<rscale>  0 0.51016407E+02</rscale>
<asrwt>0</asrwt>
<pdfrwt beam="1">  1       13 0.10000000E+01 0.51016407E+02</pdfrwt>
<pdfrwt beam="2">  1       22 0.94701081E-01 0.51016407E+02</pdfrwt>
<totfact> 0.15209382E+00</totfact>
</mgrwt>
</event>
<event>
 4    1  0.2437479E+000  0.5132251E+02  0.7957747E-01  0.1438336E+00
         13   -1    0    0    0    0  0.00000000000E+00  0.00000000000E+00  0.99999944168E+02  0.99999999989E+02  0.10566000000E+00 0.  1.
         22   -1    0    0    0    0 -0.00000000000E+00 -0.00000000000E+00 -0.22252175507E+02  0.22252175507E+02  0.00000000000E+00 0. -1.
         13    1    1    2    0    0 -0.11574782744E+02  0.15776702800E+00 -0.13363508487E+02  0.17680356589E+02  0.10566000000E+00 0. -1.
        996    1    1    2    0    0  0.11574782744E+02 -0.15776702800E+00  0.91111277148E+02  0.10457181891E+03  0.50000000000E+02 0.  0.
<mgrwt>
<rscale>  0 0.51322514E+02</rscale>
<asrwt>0</asrwt>
<pdfrwt beam="1">  1       13 0.10000000E+01 0.51322514E+02</pdfrwt>
<pdfrwt beam="2">  1       22 0.22252197E+00 0.51322514E+02</pdfrwt>
<totfact> 0.36957325E-01</totfact>
</mgrwt>
</event>
<event>
 4    1  0.2437479E+000  0.5157456E+02  0.7957747E-01  0.1437029E+00
         13   -1    0    0    0    0  0.00000000000E+00  0.00000000000E+00  0.99999944176E+02  0.99999999996E+02  0.10566000000E+00 0. -1.
         22   -1    0    0    0    0 -0.00000000000E+00 -0.00000000000E+00 -0.22611713998E+02  0.22611713998E+02  0.00000000000E+00 0.  1.
         13    1    1    2    0    0  0.11940994968E+02  0.41650650797E+01 -0.13256576192E+02  0.18321656702E+02  0.10566000000E+00 0.  1.
        996    1    1    2    0    0 -0.11940994968E+02 -0.41650650797E+01  0.90644806370E+02  0.10429005729E+03  0.50000000000E+02 0.  0.
<mgrwt>
<rscale>  0 0.51574559E+02</rscale>
<asrwt>0</asrwt>
<pdfrwt beam="1">  1       13 0.10000000E+01 0.51574559E+02</pdfrwt>
<pdfrwt beam="2">  1       22 0.22611736E+00 0.51574559E+02</pdfrwt>
<totfact> 0.35845945E-01</totfact>
</mgrwt>
</event>
<event>
 4    1  0.2437479E+000  0.5102006E+02  0.7957747E-01  0.1439916E+00
         13   -1    0    0    0    0  0.00000000000E+00  0.00000000000E+00  0.99999944183E+02  0.10000000000E+03  0.10566000000E+00 0.  1.
         22   -1    0    0    0    0 -0.00000000000E+00 -0.00000000000E+00 -0.13373615943E+02  0.13373615943E+02  0.00000000000E+00 0. -1.
         13    1    1    2    0    0  0.14202628256E+01 -0.10051345059E+02 -0.26990619823E+01  0.10504417338E+02  0.10566000000E+00 0. -1.
        996    1    1    2    0    0 -0.14202628256E+01  0.10051345059E+02  0.89325390222E+02  0.10286919861E+03  0.50000000000E+02 0.  0.
<mgrwt>
<rscale>  0 0.51020062E+02</rscale>
<asrwt>0</asrwt>
<pdfrwt beam="1">  1       13 0.10000000E+01 0.51020062E+02</pdfrwt>
<pdfrwt beam="2">  1       22 0.13373640E+00 0.51020062E+02</pdfrwt>
<totfact> 0.90568862E-01</totfact>
</mgrwt>
</event>
<event>
 4    1  0.2437479E+000  0.5207931E+02  0.7957747E-01  0.1434438E+00
         13   -1    0    0    0    0  0.00000000000E+00  0.00000000000E+00  0.99999944181E+02  0.10000000000E+03  0.10566000000E+00 0.  1.
         22   -1    0    0    0    0 -0.00000000000E+00 -0.00000000000E+00 -0.19598108975E+02  0.19598108975E+02  0.00000000000E+00 0.  1.
         13    1    1    2    0    0 -0.12760550293E+02 -0.70301388462E+01 -0.82778691436E+01  0.16756753193E+02  0.10566000000E+00 0. -1.
        996    1    1    2    0    0  0.12760550293E+02  0.70301388462E+01  0.88679704350E+02  0.10284135578E+03  0.50000000000E+02 0.  0.
<mgrwt>
<rscale>  0 0.52079310E+02</rscale>
<asrwt>0</asrwt>
<pdfrwt beam="1">  1       13 0.10000000E+01 0.52079310E+02</pdfrwt>
<pdfrwt beam="2">  1       22 0.19598131E+00 0.52079310E+02</pdfrwt>
<totfact> 0.47056757E-01</totfact>
</mgrwt>
</event>
<event>
 4    1  0.2437479E+000  0.5409950E+02  0.7957747E-01  0.1424406E+00
         13   -1    0    0    0    0  0.00000000000E+00  0.00000000000E+00  0.99999944174E+02  0.99999999994E+02  0.10566000000E+00 0.  1.
         22   -1    0    0    0    0 -0.00000000000E+00 -0.00000000000E+00 -0.14147777704E+02  0.14147777704E+02  0.00000000000E+00 0.  1.
         13    1    1    2    0    0 -0.57070944908E+01  0.19854092750E+02  0.18261329334E+02  0.27572508763E+02  0.10566000000E+00 0. -1.
        996    1    1    2    0    0  0.57070944908E+01 -0.19854092750E+02  0.67590837136E+02  0.86575268935E+02  0.50000000000E+02 0.  0.
<mgrwt>
<rscale>  0 0.54099500E+02</rscale>
<asrwt>0</asrwt>
<pdfrwt beam="1">  1       13 0.10000000E+01 0.54099500E+02</pdfrwt>
<pdfrwt beam="2">  1       22 0.14147802E+00 0.54099500E+02</pdfrwt>
<totfact> 0.83259195E-01</totfact>
</mgrwt>
</event>
<event>
 4    1  0.2437479E+000  0.5242505E+02  0.7957747E-01  0.1432684E+00
         13   -1    0    0    0    0  0.00000000000E+00  0.00000000000E+00  0.99999944172E+02  0.99999999993E+02  0.10566000000E+00 0. -1.
         22   -1    0    0    0    0 -0.00000000000E+00 -0.00000000000E+00 -0.64027528747E+02  0.64027528747E+02  0.00000000000E+00 0.  1.
         13    1    1    2    0    0 -0.43508356591E+01  0.15147795810E+02 -0.55993106064E+02  0.58168931395E+02  0.10566000000E+00 0.  1.
        996    1    1    2    0    0  0.43508356591E+01 -0.15147795810E+02  0.91965521490E+02  0.10585859734E+03  0.50000000000E+02 0.  0.
<mgrwt>
<rscale>  0 0.52425046E+02</rscale>
<asrwt>0</asrwt>
<pdfrwt beam="1">  1       13 0.10000000E+01 0.52425046E+02</pdfrwt>
<pdfrwt beam="2">  1       22 0.64027539E+00 0.52425046E+02</pdfrwt>
<totfact> 0.83463217E-02</totfact>
</mgrwt>
</event>
<event>
 4    1  0.2437479E+000  0.5165715E+02  0.7957747E-01  0.1436603E+00
         13   -1    0    0    0    0  0.00000000000E+00  0.00000000000E+00  0.99999944179E+02  0.99999999999E+02  0.10566000000E+00 0.  1.
         22   -1    0    0    0    0 -0.00000000000E+00 -0.00000000000E+00 -0.11128330826E+02  0.11128330826E+02  0.00000000000E+00 0.  1.
         13    1    1    2    0    0 -0.11147625911E+02 -0.66476787086E+01  0.30700408581E+02  0.33331478316E+02  0.10566000000E+00 0. -1.
        996    1    1    2    0    0  0.11147625911E+02  0.66476787086E+01  0.58171204772E+02  0.77796852509E+02  0.50000000000E+02 0.  0.
<mgrwt>
<rscale>  0 0.51657150E+02</rscale>
<asrwt>0</asrwt>
<pdfrwt beam="1">  1       13 0.10000000E+01 0.51657150E+02</pdfrwt>
<pdfrwt beam="2">  1       22 0.11128356E+00 0.51657150E+02</pdfrwt>
<totfact> 0.12037620E+00</totfact>
</mgrwt>
</event>
<event>
 4    1  0.2437479E+000  0.5677974E+02  0.7957747E-01  0.1411865E+00
         13   -1    0    0    0    0  0.00000000000E+00  0.00000000000E+00  0.99999944176E+02  0.99999999996E+02  0.10566000000E+00 0. -1.
         22   -1    0    0    0    0 -0.00000000000E+00 -0.00000000000E+00 -0.18171811130E+02  0.18171811130E+02  0.00000000000E+00 0.  1.
         13    1    1    2    0    0 -0.41460795542E+01  0.26584741866E+02  0.16268100098E+02  0.31442021573E+02  0.10566000000E+00 0.  1.
        996    1    1    2    0    0  0.41460795542E+01 -0.26584741866E+02  0.65560032948E+02  0.86729789553E+02  0.50000000000E+02 0.  0.
<mgrwt>
<rscale>  0 0.56779736E+02</rscale>
<asrwt>0</asrwt>
<pdfrwt beam="1">  1       13 0.10000000E+01 0.56779736E+02</pdfrwt>
<pdfrwt beam="2">  1       22 0.18171834E+00 0.56779736E+02</pdfrwt>
<totfact> 0.54475480E-01</totfact>
</mgrwt>
</event>
<event>
 4    1  0.2437479E+000  0.5249810E+02  0.7957747E-01  0.1432315E+00
         13   -1    0    0    0    0  0.00000000000E+00  0.00000000000E+00  0.99999944183E+02  0.10000000000E+03  0.10566000000E+00 0.  1.
         22   -1    0    0    0    0 -0.00000000000E+00 -0.00000000000E+00 -0.11923763798E+02  0.11923763798E+02  0.00000000000E+00 0.  1.
         13    1    1    2    0    0 -0.13777186385E+02  0.81387675856E+01  0.14908284982E+02  0.21870494453E+02  0.10566000000E+00 0. -1.
        996    1    1    2    0    0  0.13777186385E+02 -0.81387675856E+01  0.73167895403E+02  0.90053269348E+02  0.50000000000E+02 0.  0.
<mgrwt>
<rscale>  0 0.52498099E+02</rscale>
<asrwt>0</asrwt>
<pdfrwt beam="1">  1       13 0.10000000E+01 0.52498099E+02</pdfrwt>
<pdfrwt beam="2">  1       22 0.11923788E+00 0.52498099E+02</pdfrwt>
<totfact> 0.10866799E+00</totfact>
</mgrwt>
</event>
<event>
 4    1  0.2437479E+000  0.5201071E+02  0.7957747E-01  0.1434789E+00
         13   -1    0    0    0    0  0.00000000000E+00  0.00000000000E+00  0.99999944172E+02  0.99999999993E+02  0.10566000000E+00 0. -1.
         22   -1    0    0    0    0 -0.00000000000E+00 -0.00000000000E+00 -0.17515326293E+02  0.17515326293E+02  0.00000000000E+00 0.  1.
         13    1    1    2    0    0  0.13668889872E+02 -0.42749194059E+01 -0.54718820510E+01  0.15331866927E+02  0.10566000000E+00 0.  1.
        996    1    1    2    0    0 -0.13668889872E+02  0.42749194059E+01  0.87956499931E+02  0.10218345936E+03  0.50000000000E+02 0.  0.
<mgrwt>
<rscale>  0 0.52010705E+02</rscale>
<asrwt>0</asrwt>
<pdfrwt beam="1">  1       13 0.10000000E+01 0.52010705E+02</pdfrwt>
<pdfrwt beam="2">  1       22 0.17515349E+00 0.52010705E+02</pdfrwt>
<totfact> 0.57681813E-01</totfact>
</mgrwt>
</event>
<event>
 4    1  0.2437479E+000  0.5875842E+02  0.7957747E-01  0.1403117E+00
         13   -1    0    0    0    0  0.00000000000E+00  0.00000000000E+00  0.99999944189E+02  0.10000000001E+03  0.10566000000E+00 0.  1.
         22   -1    0    0    0    0 -0.00000000000E+00 -0.00000000000E+00 -0.23007395527E+02  0.23007395527E+02  0.00000000000E+00 0. -1.
         13    1    1    2    0    0 -0.20635551300E+02  0.22950500957E+02  0.70490312156E+01  0.31658355560E+02  0.10566000000E+00 0. -1.
        996    1    1    2    0    0  0.20635551300E+02 -0.22950500957E+02  0.69943517447E+02  0.91349039976E+02  0.50000000000E+02 0.  0.
<mgrwt>
<rscale>  0 0.58758416E+02</rscale>
<asrwt>0</asrwt>
<pdfrwt beam="1">  1       13 0.10000000E+01 0.58758416E+02</pdfrwt>
<pdfrwt beam="2">  1       22 0.23007417E+00 0.58758416E+02</pdfrwt>
<totfact> 0.35050642E-01</totfact>
</mgrwt>
</event>
<event>
 4    1  0.2437479E+000  0.5371048E+02  0.7957747E-01  0.1426297E+00
         13   -1    0    0    0    0  0.00000000000E+00  0.00000000000E+00  0.99999944187E+02  0.10000000001E+03  0.10566000000E+00 0. -1.
         22   -1    0    0    0    0 -0.00000000000E+00 -0.00000000000E+00 -0.17890423811E+02  0.17890423811E+02  0.00000000000E+00 0.  1.
         13    1    1    2    0    0 -0.19578520005E+02 -0.12237632465E+01 -0.18672819632E+00  0.19617901864E+02  0.10566000000E+00 0.  1.
        996    1    1    2    0    0  0.19578520005E+02  0.12237632465E+01  0.82296248572E+02  0.98272521954E+02  0.50000000000E+02 0.  0.
<mgrwt>
<rscale>  0 0.53710484E+02</rscale>
<asrwt>0</asrwt>
<pdfrwt beam="1">  1       13 0.10000000E+01 0.53710484E+02</pdfrwt>
<pdfrwt beam="2">  1       22 0.17890447E+00 0.53710484E+02</pdfrwt>
<totfact> 0.55721544E-01</totfact>
</mgrwt>
</event>
<event>
 4    1  0.2437479E+000  0.5130483E+02  0.7957747E-01  0.1438428E+00
         13   -1    0    0    0    0  0.00000000000E+00  0.00000000000E+00  0.99999944178E+02  0.99999999998E+02  0.10566000000E+00 0.  1.
         22   -1    0    0    0    0 -0.00000000000E+00 -0.00000000000E+00 -0.16387042034E+02  0.16387042034E+02  0.00000000000E+00 0. -1.
         13    1    1    2    0    0 -0.92043929278E+01  0.68894883110E+01 -0.61182843043E+01  0.13024226089E+02  0.10566000000E+00 0. -1.
        996    1    1    2    0    0  0.92043929278E+01 -0.68894883110E+01  0.89731186448E+02  0.10336281594E+03  0.50000000000E+02 0.  0.
<mgrwt>
<rscale>  0 0.51304833E+02</rscale>
<asrwt>0</asrwt>
<pdfrwt beam="1">  1       13 0.10000000E+01 0.51304833E+02</pdfrwt>
<pdfrwt beam="2">  1       22 0.16387065E+00 0.51304833E+02</pdfrwt>
<totfact> 0.64718973E-01</totfact>
</mgrwt>
</event>
<event>
 4    1  0.2437479E+000  0.5171048E+02  0.7957747E-01  0.1436328E+00
         13   -1    0    0    0    0  0.00000000000E+00  0.00000000000E+00  0.99999944179E+02  0.99999999999E+02  0.10566000000E+00 0. -1.
         22   -1    0    0    0    0 -0.00000000000E+00 -0.00000000000E+00 -0.11037709232E+02  0.11037709232E+02  0.00000000000E+00 0. -1.
         13    1    1    2    0    0  0.40912764870E+01  0.12539343109E+02  0.28993896026E+02  0.31853270471E+02  0.10566000000E+00 0.  1.
        996    1    1    2    0    0 -0.40912764870E+01 -0.12539343109E+02  0.59968338921E+02  0.79184438761E+02  0.50000000000E+02 0.  0.
<mgrwt>
<rscale>  0 0.51710479E+02</rscale>
<asrwt>0</asrwt>
<pdfrwt beam="1">  1       13 0.10000000E+01 0.51710479E+02</pdfrwt>
<pdfrwt beam="2">  1       22 0.11037734E+00 0.51710479E+02</pdfrwt>
<totfact> 0.12186784E+00</totfact>
</mgrwt>
</event>
<event>
 4    1  0.2437479E+000  0.5511106E+02  0.7957747E-01  0.1419574E+00
         13   -1    0    0    0    0  0.00000000000E+00  0.00000000000E+00  0.99999944182E+02  0.10000000000E+03  0.10566000000E+00 0. -1.
         22   -1    0    0    0    0 -0.00000000000E+00 -0.00000000000E+00 -0.32987298649E+02  0.32987298649E+02  0.00000000000E+00 0.  1.
         13    1    1    2    0    0 -0.85713880513E+01 -0.21535092340E+02 -0.19582000685E+02  0.30342953220E+02  0.10566000000E+00 0.  1.
        996    1    1    2    0    0  0.85713880513E+01  0.21535092340E+02  0.86594646219E+02  0.10264434543E+03  0.50000000000E+02 0.  0.
<mgrwt>
<rscale>  0 0.55111060E+02</rscale>
<asrwt>0</asrwt>
<pdfrwt beam="1">  1       13 0.10000000E+01 0.55111060E+02</pdfrwt>
<pdfrwt beam="2">  1       22 0.32987317E+00 0.55111060E+02</pdfrwt>
<totfact> 0.17491269E-01</totfact>
</mgrwt>
</event>
<event>
 4    1  0.2437479E+000  0.5114101E+02  0.7957747E-01  0.1439283E+00
         13   -1    0    0    0    0  0.00000000000E+00  0.00000000000E+00  0.99999944175E+02  0.99999999995E+02  0.10566000000E+00 0.  1.
         22   -1    0    0    0    0 -0.00000000000E+00 -0.00000000000E+00 -0.19373232949E+02  0.19373232949E+02  0.00000000000E+00 0.  1.
         13    1    1    2    0    0  0.78254304431E+01  0.73597144855E+01 -0.10407477897E+02  0.14957590686E+02  0.10566000000E+00 0. -1.
        996    1    1    2    0    0 -0.78254304431E+01 -0.73597144855E+01  0.91034189122E+02  0.10441564226E+03  0.50000000000E+02 0.  0.
<mgrwt>
<rscale>  0 0.51141009E+02</rscale>
<asrwt>0</asrwt>
<pdfrwt beam="1">  1       13 0.10000000E+01 0.51141009E+02</pdfrwt>
<pdfrwt beam="2">  1       22 0.19373255E+00 0.51141009E+02</pdfrwt>
<totfact> 0.47988306E-01</totfact>
</mgrwt>
</event>
<event>
 4    1  0.2437479E+000  0.6619906E+02  0.7957747E-01  0.1373517E+00
         13   -1    0    0    0    0  0.00000000000E+00  0.00000000000E+00  0.99999944171E+02  0.99999999991E+02  0.10566000000E+00 0.  1.
         22   -1    0    0    0    0 -0.00000000000E+00 -0.00000000000E+00 -0.30145274245E+02  0.30145274245E+02  0.00000000000E+00 0. -1.
         13    1    1    2    0    0 -0.26052602219E+01  0.43307372439E+02  0.23616799170E+02  0.49397168497E+02  0.10566000000E+00 0. -1.
        996    1    1    2    0    0  0.26052602219E+01 -0.43307372439E+02  0.46237870756E+02  0.80748105739E+02  0.50000000000E+02 0.  0.
<mgrwt>
<rscale>  0 0.66199063E+02</rscale>
<asrwt>0</asrwt>
<pdfrwt beam="1">  1       13 0.10000000E+01 0.66199063E+02</pdfrwt>
<pdfrwt beam="2">  1       22 0.30145294E+00 0.66199063E+02</pdfrwt>
<totfact> 0.20854977E-01</totfact>
</mgrwt>
</event>
<event>
 4    1  0.2437479E+000  0.5328826E+02  0.7957747E-01  0.1428372E+00
         13   -1    0    0    0    0  0.00000000000E+00  0.00000000000E+00  0.99999944177E+02  0.99999999998E+02  0.10566000000E+00 0.  1.
         22   -1    0    0    0    0 -0.00000000000E+00 -0.00000000000E+00 -0.13056156448E+02  0.13056156448E+02  0.00000000000E+00 0. -1.
         13    1    1    2    0    0 -0.17309958890E+02  0.63249014128E+01  0.16571018305E+02  0.24784044592E+02  0.10566000000E+00 0. -1.
        996    1    1    2    0    0  0.17309958890E+02 -0.63249014128E+01  0.70372769425E+02  0.88272111854E+02  0.50000000000E+02 0.  0.
<mgrwt>
<rscale>  0 0.53288264E+02</rscale>
<asrwt>0</asrwt>
<pdfrwt beam="1">  1       13 0.10000000E+01 0.53288264E+02</pdfrwt>
<pdfrwt beam="2">  1       22 0.13056181E+00 0.53288264E+02</pdfrwt>
<totfact> 0.94542998E-01</totfact>
</mgrwt>
</event>
<event>
 4    1  0.2437479E+000  0.5171083E+02  0.7957747E-01  0.1436326E+00
         13   -1    0    0    0    0  0.00000000000E+00  0.00000000000E+00  0.99999944178E+02  0.99999999998E+02  0.10566000000E+00 0.  1.
         22   -1    0    0    0    0 -0.00000000000E+00 -0.00000000000E+00 -0.17576779733E+02  0.17576779733E+02  0.00000000000E+00 0. -1.
         13    1    1    2    0    0 -0.11549848372E+02  0.63726370982E+01 -0.65038282632E+01  0.14707836249E+02  0.10566000000E+00 0. -1.
        996    1    1    2    0    0  0.11549848372E+02 -0.63726370982E+01  0.88926992708E+02  0.10286894348E+03  0.50000000000E+02 0.  0.
<mgrwt>
<rscale>  0 0.51710826E+02</rscale>
<asrwt>0</asrwt>
<pdfrwt beam="1">  1       13 0.10000000E+01 0.51710826E+02</pdfrwt>
<pdfrwt beam="2">  1       22 0.17576803E+00 0.51710826E+02</pdfrwt>
<totfact> 0.57291474E-01</totfact>
</mgrwt>
</event>
<event>
 4    1  0.2437479E+000  0.5129767E+02  0.7957747E-01  0.1438465E+00
         13   -1    0    0    0    0  0.00000000000E+00  0.00000000000E+00  0.99999944182E+02  0.10000000000E+03  0.10566000000E+00 0.  1.
         22   -1    0    0    0    0 -0.00000000000E+00 -0.00000000000E+00 -0.99663119151E+01  0.99663119151E+01  0.00000000000E+00 0.  1.
         13    1    1    2    0    0 -0.10460514831E+02 -0.46935123893E+01  0.21432926805E+02  0.24307055447E+02  0.10566000000E+00 0. -1.
        996    1    1    2    0    0  0.10460514831E+02  0.46935123893E+01  0.68600705463E+02  0.85659256470E+02  0.50000000000E+02 0.  0.
<mgrwt>
<rscale>  0 0.51297675E+02</rscale>
<asrwt>0</asrwt>
<pdfrwt beam="1">  1       13 0.10000000E+01 0.51297675E+02</pdfrwt>
<pdfrwt beam="2">  1       22 0.99663370E-01 0.51297675E+02</pdfrwt>
<totfact> 0.14142864E+00</totfact>
</mgrwt>
</event>
<event>
 4    1  0.2437479E+000  0.5324321E+02  0.7957747E-01  0.1428594E+00
         13   -1    0    0    0    0  0.00000000000E+00  0.00000000000E+00  0.99999944168E+02  0.99999999988E+02  0.10566000000E+00 0.  1.
         22   -1    0    0    0    0 -0.00000000000E+00 -0.00000000000E+00 -0.29469463445E+02  0.29469463445E+02  0.00000000000E+00 0. -1.
         13    1    1    2    0    0  0.22771792986E+01 -0.18156379238E+02 -0.18316092959E+02  0.25890733437E+02  0.10566000000E+00 0. -1.
        996    1    1    2    0    0 -0.22771792986E+01  0.18156379238E+02  0.88846573682E+02  0.10357873000E+03  0.50000000000E+02 0.  0.
<mgrwt>
<rscale>  0 0.53243212E+02</rscale>
<asrwt>0</asrwt>
<pdfrwt beam="1">  1       13 0.10000000E+01 0.53243212E+02</pdfrwt>
<pdfrwt beam="2">  1       22 0.29469483E+00 0.53243212E+02</pdfrwt>
<totfact> 0.21444815E-01</totfact>
</mgrwt>
</event>
<event>
 4    1  0.2437479E+000  0.5106263E+02  0.7957747E-01  0.1439693E+00
         13   -1    0    0    0    0  0.00000000000E+00  0.00000000000E+00  0.99999944182E+02  0.10000000000E+03  0.10566000000E+00 0. -1.
         22   -1    0    0    0    0 -0.00000000000E+00 -0.00000000000E+00 -0.13023754491E+02  0.13023754491E+02  0.00000000000E+00 0. -1.
         13    1    1    2    0    0  0.52719603213E+00 -0.10349600424E+02 -0.18874729616E+01  0.10534034498E+02  0.10566000000E+00 0.  1.
        996    1    1    2    0    0 -0.52719603213E+00  0.10349600424E+02  0.88863662653E+02  0.10248971999E+03  0.50000000000E+02 0.  0.
<mgrwt>
<rscale>  0 0.51062630E+02</rscale>
<asrwt>0</asrwt>
<pdfrwt beam="1">  1       13 0.10000000E+01 0.51062630E+02</pdfrwt>
<pdfrwt beam="2">  1       22 0.13023779E+00 0.51062630E+02</pdfrwt>
<totfact> 0.94460106E-01</totfact>
</mgrwt>
</event>
<event>
 4    1  0.2437479E+000  0.6154530E+02  0.7957747E-01  0.1391459E+00
         13   -1    0    0    0    0  0.00000000000E+00  0.00000000000E+00  0.99999944174E+02  0.99999999994E+02  0.10566000000E+00 0. -1.
         22   -1    0    0    0    0 -0.00000000000E+00 -0.00000000000E+00 -0.28223522099E+02  0.28223522099E+02  0.00000000000E+00 0. -1.
         13    1    1    2    0    0 -0.22763062227E+02  0.27742873156E+02  0.31230451842E+01  0.36022056967E+02  0.10566000000E+00 0.  1.
        996    1    1    2    0    0  0.22763062227E+02 -0.27742873156E+02  0.68653376891E+02  0.92201465126E+02  0.50000000000E+02 0.  0.
<mgrwt>
<rscale>  0 0.61545300E+02</rscale>
<asrwt>0</asrwt>
<pdfrwt beam="1">  1       13 0.10000000E+01 0.61545300E+02</pdfrwt>
<pdfrwt beam="2">  1       22 0.28223542E+00 0.61545300E+02</pdfrwt>
<totfact> 0.23538721E-01</totfact>
</mgrwt>
</event>
<event>
 4    1  0.2437479E+000  0.5193877E+02  0.7957747E-01  0.1435156E+00
         13   -1    0    0    0    0  0.00000000000E+00  0.00000000000E+00  0.99999944179E+02  0.99999999999E+02  0.10566000000E+00 0.  1.
         22   -1    0    0    0    0 -0.00000000000E+00 -0.00000000000E+00 -0.15436536596E+02  0.15436536596E+02  0.00000000000E+00 0. -1.
         13    1    1    2    0    0  0.88242353769E+01  0.10943879806E+02 -0.22841024665E+01  0.14243030692E+02  0.10566000000E+00 0. -1.
        996    1    1    2    0    0 -0.88242353769E+01 -0.10943879806E+02  0.86847510049E+02  0.10119350590E+03  0.50000000000E+02 0.  0.
<mgrwt>
<rscale>  0 0.51938768E+02</rscale>
<asrwt>0</asrwt>
<pdfrwt beam="1">  1       13 0.10000000E+01 0.51938768E+02</pdfrwt>
<pdfrwt beam="2">  1       22 0.15436560E+00 0.51938768E+02</pdfrwt>
<totfact> 0.71751910E-01</totfact>
</mgrwt>
</event>
<event>
 4    1  0.2437479E+000  0.5311791E+02  0.7957747E-01  0.1429215E+00
         13   -1    0    0    0    0  0.00000000000E+00  0.00000000000E+00  0.99999944177E+02  0.99999999997E+02  0.10566000000E+00 0.  1.
         22   -1    0    0    0    0 -0.00000000000E+00 -0.00000000000E+00 -0.12863240788E+02  0.12863240788E+02  0.00000000000E+00 0.  1.
         13    1    1    2    0    0  0.17707600492E+02  0.28201469734E+01  0.15635424602E+02  0.23790544564E+02  0.10566000000E+00 0. -1.
        996    1    1    2    0    0 -0.17707600492E+02 -0.28201469734E+01  0.71501278786E+02  0.89072696221E+02  0.50000000000E+02 0.  0.
<mgrwt>
<rscale>  0 0.53117910E+02</rscale>
<asrwt>0</asrwt>
<pdfrwt beam="1">  1       13 0.10000000E+01 0.53117910E+02</pdfrwt>
<pdfrwt beam="2">  1       22 0.12863265E+00 0.53117910E+02</pdfrwt>
<totfact> 0.96750550E-01</totfact>
</mgrwt>
</event>
<event>
 4    1  0.2437479E+000  0.5288310E+02  0.7957747E-01  0.1430383E+00
         13   -1    0    0    0    0  0.00000000000E+00  0.00000000000E+00  0.99999944179E+02  0.99999999999E+02  0.10566000000E+00 0. -1.
         22   -1    0    0    0    0 -0.00000000000E+00 -0.00000000000E+00 -0.19806125849E+02  0.19806125849E+02  0.00000000000E+00 0.  1.
         13    1    1    2    0    0  0.10398595158E+02 -0.13729228681E+02 -0.63730017407E+01  0.18364335454E+02  0.10566000000E+00 0.  1.
        996    1    1    2    0    0 -0.10398595158E+02  0.13729228681E+02  0.86566820070E+02  0.10144179039E+03  0.50000000000E+02 0.  0.
<mgrwt>
<rscale>  0 0.52883102E+02</rscale>
<asrwt>0</asrwt>
<pdfrwt beam="1">  1       13 0.10000000E+01 0.52883102E+02</pdfrwt>
<pdfrwt beam="2">  1       22 0.19806148E+00 0.52883102E+02</pdfrwt>
<totfact> 0.46210185E-01</totfact>
</mgrwt>
</event>
<event>
 4    1  0.2437479E+000  0.5131542E+02  0.7957747E-01  0.1438373E+00
         13   -1    0    0    0    0  0.00000000000E+00  0.00000000000E+00  0.99999944179E+02  0.99999999999E+02  0.10566000000E+00 0.  1.
         22   -1    0    0    0    0 -0.00000000000E+00 -0.00000000000E+00 -0.10142780090E+02  0.10142780090E+02  0.00000000000E+00 0.  1.
         13    1    1    2    0    0  0.89028457637E+00 -0.11509982368E+02  0.10300031223E+02  0.15471719618E+02  0.10566000000E+00 0. -1.
        996    1    1    2    0    0 -0.89028457637E+00  0.11509982368E+02  0.79557132866E+02  0.94671060471E+02  0.50000000000E+02 0.  0.
<mgrwt>
<rscale>  0 0.51315420E+02</rscale>
<asrwt>0</asrwt>
<pdfrwt beam="1">  1       13 0.10000000E+01 0.51315420E+02</pdfrwt>
<pdfrwt beam="2">  1       22 0.10142805E+00 0.51315420E+02</pdfrwt>
<totfact> 0.13788025E+00</totfact>
</mgrwt>
</event>
<event>
 4    1  0.2437479E+000  0.5889096E+02  0.7957747E-01  0.1402546E+00
         13   -1    0    0    0    0  0.00000000000E+00  0.00000000000E+00  0.99999944178E+02  0.99999999998E+02  0.10566000000E+00 0.  1.
         22   -1    0    0    0    0 -0.00000000000E+00 -0.00000000000E+00 -0.21972036589E+02  0.21972036589E+02  0.00000000000E+00 0. -1.
         13    1    1    2    0    0  0.11198552864E+02 -0.29029933103E+02  0.11622736040E+02  0.33215113417E+02  0.10566000000E+00 0. -1.
        996    1    1    2    0    0 -0.11198552864E+02  0.29029933103E+02  0.66405171549E+02  0.88756923170E+02  0.50000000000E+02 0.  0.
<mgrwt>
<rscale>  0 0.58890955E+02</rscale>
<asrwt>0</asrwt>
<pdfrwt beam="1">  1       13 0.10000000E+01 0.58890955E+02</pdfrwt>
<pdfrwt beam="2">  1       22 0.21972058E+00 0.58890955E+02</pdfrwt>
<totfact> 0.38332657E-01</totfact>
</mgrwt>
</event>
<event>
 4    1  0.2437479E+000  0.5099223E+02  0.7957747E-01  0.1440062E+00
         13   -1    0    0    0    0  0.00000000000E+00  0.00000000000E+00  0.99999944180E+02  0.10000000000E+03  0.10566000000E+00 0. -1.
         22   -1    0    0    0    0 -0.00000000000E+00 -0.00000000000E+00 -0.20003629221E+02  0.20003629221E+02  0.00000000000E+00 0. -1.
         13    1    1    2    0    0  0.98547447355E+01 -0.17582599878E+01 -0.11506405544E+02  0.15251754147E+02  0.10566000000E+00 0.  1.
        996    1    1    2    0    0 -0.98547447355E+01  0.17582599878E+01  0.91502720503E+02  0.10475187507E+03  0.50000000000E+02 0.  0.
<mgrwt>
<rscale>  0 0.50992230E+02</rscale>
<asrwt>0</asrwt>
<pdfrwt beam="1">  1       13 0.10000000E+01 0.50992230E+02</pdfrwt>
<pdfrwt beam="2">  1       22 0.20003652E+00 0.50992230E+02</pdfrwt>
<totfact> 0.45209828E-01</totfact>
</mgrwt>
</event>
<event>
 4    1  0.2437479E+000  0.5144267E+02  0.7957747E-01  0.1437712E+00
         13   -1    0    0    0    0  0.00000000000E+00  0.00000000000E+00  0.99999944179E+02  0.99999999999E+02  0.10566000000E+00 0. -1.
         22   -1    0    0    0    0 -0.00000000000E+00 -0.00000000000E+00 -0.14053709063E+02  0.14053709063E+02  0.00000000000E+00 0. -1.
         13    1    1    2    0    0 -0.11732525625E+02 -0.29488956882E+01 -0.19070443337E+01  0.12247290535E+02  0.10566000000E+00 0.  1.
        996    1    1    2    0    0  0.11732525625E+02  0.29488956882E+01  0.87853279449E+02  0.10180641853E+03  0.50000000000E+02 0.  0.
<mgrwt>
<rscale>  0 0.51442669E+02</rscale>
<asrwt>0</asrwt>
<pdfrwt beam="1">  1       13 0.10000000E+01 0.51442669E+02</pdfrwt>
<pdfrwt beam="2">  1       22 0.14053733E+00 0.51442669E+02</pdfrwt>
<totfact> 0.83706998E-01</totfact>
</mgrwt>
</event>
<event>
 4    1  0.2437479E+000  0.5327525E+02  0.7957747E-01  0.1428436E+00
         13   -1    0    0    0    0  0.00000000000E+00  0.00000000000E+00  0.99999944176E+02  0.99999999996E+02  0.10566000000E+00 0.  1.
         22   -1    0    0    0    0 -0.00000000000E+00 -0.00000000000E+00 -0.40569756294E+02  0.40569756294E+02  0.00000000000E+00 0. -1.
         13    1    1    2    0    0 -0.55812482644E+01 -0.17524319373E+02 -0.30748862630E+02  0.35829538355E+02  0.10566000000E+00 0. -1.
        996    1    1    2    0    0  0.55812482644E+01  0.17524319373E+02  0.90179050512E+02  0.10474021793E+03  0.50000000000E+02 0.  0.
<mgrwt>
<rscale>  0 0.53275248E+02</rscale>
<asrwt>0</asrwt>
<pdfrwt beam="1">  1       13 0.10000000E+01 0.53275248E+02</pdfrwt>
<pdfrwt beam="2">  1       22 0.40569773E+00 0.53275248E+02</pdfrwt>
<totfact> 0.12048524E-01</totfact>
</mgrwt>
</event>
<event>
 4    1  0.2437479E+000  0.5163484E+02  0.7957747E-01  0.1436718E+00
         13   -1    0    0    0    0  0.00000000000E+00  0.00000000000E+00  0.99999944171E+02  0.99999999991E+02  0.10566000000E+00 0. -1.
         22   -1    0    0    0    0 -0.00000000000E+00 -0.00000000000E+00 -0.33617286436E+02  0.33617286436E+02  0.00000000000E+00 0. -1.
         13    1    1    2    0    0  0.10161949758E+02 -0.79304194310E+01 -0.25299811463E+02  0.28394513542E+02  0.10566000000E+00 0.  1.
        996    1    1    2    0    0 -0.10161949758E+02  0.79304194310E+01  0.91682469198E+02  0.10522277288E+03  0.50000000000E+02 0.  0.
<mgrwt>
<rscale>  0 0.51634841E+02</rscale>
<asrwt>0</asrwt>
<pdfrwt beam="1">  1       13 0.10000000E+01 0.51634841E+02</pdfrwt>
<pdfrwt beam="2">  1       22 0.33617305E+00 0.51634841E+02</pdfrwt>
<totfact> 0.16853507E-01</totfact>
</mgrwt>
</event>
<event>
 4    1  0.2437479E+000  0.5209353E+02  0.7957747E-01  0.1434366E+00
         13   -1    0    0    0    0  0.00000000000E+00  0.00000000000E+00  0.99999944178E+02  0.99999999998E+02  0.10566000000E+00 0. -1.
         22   -1    0    0    0    0 -0.00000000000E+00 -0.00000000000E+00 -0.11572721508E+02  0.11572721508E+02  0.00000000000E+00 0.  1.
         13    1    1    2    0    0 -0.31439599384E+01 -0.14277659314E+02  0.11195097559E+02  0.18414054767E+02  0.10566000000E+00 0.  1.
        996    1    1    2    0    0  0.31439599384E+01  0.14277659314E+02  0.77232125110E+02  0.93158666739E+02  0.50000000000E+02 0.  0.
<mgrwt>
<rscale>  0 0.52093532E+02</rscale>
<asrwt>0</asrwt>
<pdfrwt beam="1">  1       13 0.10000000E+01 0.52093532E+02</pdfrwt>
<pdfrwt beam="2">  1       22 0.11572746E+00 0.52093532E+02</pdfrwt>
<totfact> 0.11361358E+00</totfact>
</mgrwt>
</event>
<event>
 4    1  0.2437479E+000  0.5559894E+02  0.7957747E-01  0.1417288E+00
         13   -1    0    0    0    0  0.00000000000E+00  0.00000000000E+00  0.99999944179E+02  0.99999999999E+02  0.10566000000E+00 0.  1.
         22   -1    0    0    0    0 -0.00000000000E+00 -0.00000000000E+00 -0.16010873236E+02  0.16010873236E+02  0.00000000000E+00 0.  1.
         13    1    1    2    0    0  0.12867125328E+01 -0.24281397382E+02  0.22770402915E+02  0.33312824871E+02  0.10566000000E+00 0. -1.
        996    1    1    2    0    0 -0.12867125328E+01  0.24281397382E+02  0.61218668028E+02  0.82698048363E+02  0.50000000000E+02 0.  0.
<mgrwt>
<rscale>  0 0.55598938E+02</rscale>
<asrwt>0</asrwt>
<pdfrwt beam="1">  1       13 0.10000000E+01 0.55598938E+02</pdfrwt>
<pdfrwt beam="2">  1       22 0.16010897E+00 0.55598938E+02</pdfrwt>
<totfact> 0.67913281E-01</totfact>
</mgrwt>
</event>
<event>
 4    1  0.2437479E+000  0.5113827E+02  0.7957747E-01  0.1439297E+00
         13   -1    0    0    0    0  0.00000000000E+00  0.00000000000E+00  0.99999944174E+02  0.99999999995E+02  0.10566000000E+00 0. -1.
         22   -1    0    0    0    0 -0.00000000000E+00 -0.00000000000E+00 -0.57688389230E+02  0.57688389230E+02  0.00000000000E+00 0.  1.
         13    1    1    2    0    0 -0.26746159216E+01  0.10390830937E+02 -0.50550454486E+02  0.51676711880E+02  0.10566000000E+00 0.  1.
        996    1    1    2    0    0  0.26746159216E+01 -0.10390830937E+02  0.92862009431E+02  0.10601167734E+03  0.50000000000E+02 0.  0.
<mgrwt>
<rscale>  0 0.51138273E+02</rscale>
<asrwt>0</asrwt>
<pdfrwt beam="1">  1       13 0.10000000E+01 0.51138273E+02</pdfrwt>
<pdfrwt beam="2">  1       22 0.57688401E+00 0.51138273E+02</pdfrwt>
<totfact> 0.57925755E-02</totfact>
</mgrwt>
</event>
<event>
 4    1  0.2437479E+000  0.5106127E+02  0.7957747E-01  0.1439700E+00
         13   -1    0    0    0    0  0.00000000000E+00  0.00000000000E+00  0.99999944176E+02  0.99999999996E+02  0.10566000000E+00 0.  1.
         22   -1    0    0    0    0 -0.00000000000E+00 -0.00000000000E+00 -0.57076432699E+02  0.57076432699E+02  0.00000000000E+00 0. -1.
         13    1    1    2    0    0  0.72362744414E+01 -0.74087574011E+01 -0.49992779806E+02  0.51054309816E+02  0.10566000000E+00 0. -1.
        996    1    1    2    0    0 -0.72362744414E+01  0.74087574011E+01  0.92916291283E+02  0.10602212288E+03  0.50000000000E+02 0.  0.
<mgrwt>
<rscale>  0 0.51061271E+02</rscale>
<asrwt>0</asrwt>
<pdfrwt beam="1">  1       13 0.10000000E+01 0.51061271E+02</pdfrwt>
<pdfrwt beam="2">  1       22 0.57076445E+00 0.51061271E+02</pdfrwt>
<totfact> 0.57794045E-02</totfact>
</mgrwt>
</event>
<event>
 4    1  0.2437479E+000  0.6039234E+02  0.7957747E-01  0.1396193E+00
         13   -1    0    0    0    0  0.00000000000E+00  0.00000000000E+00  0.99999944170E+02  0.99999999991E+02  0.10566000000E+00 0.  1.
         22   -1    0    0    0    0 -0.00000000000E+00 -0.00000000000E+00 -0.42665520841E+02  0.42665520841E+02  0.00000000000E+00 0. -1.
         13    1    1    2    0    0  0.69534511819E+01  0.33149431403E+02 -0.23890867356E+02  0.41449004726E+02  0.10566000000E+00 0. -1.
        996    1    1    2    0    0 -0.69534511819E+01 -0.33149431403E+02  0.81225290685E+02  0.10121651611E+03  0.50000000000E+02 0.  0.
<mgrwt>
<rscale>  0 0.60392345E+02</rscale>
<asrwt>0</asrwt>
<pdfrwt beam="1">  1       13 0.10000000E+01 0.60392345E+02</pdfrwt>
<pdfrwt beam="2">  1       22 0.42665537E+00 0.60392345E+02</pdfrwt>
<totfact> 0.10931909E-01</totfact>
</mgrwt>
</event>
