<event>
 5    1  0.1300052E-008  0.3777069E+03  0.7957747E-01  0.3461204E+00
         13   -1    0    0    0    0  0.00000000000E+00  0.00000000000E+00  0.14999999963E+04  0.15000000000E+04  0.10566000000E+00 0. -1.
        994   -1    0    0    0    0 -0.00000000000E+00 -0.00000000000E+00  0.11368683772E-12  0.17120000000E+03  0.17120000000E+03 0.  0.
         13    1    1    2    0    0  0.16399273750E+02 -0.14142907581E+02  0.46935285830E+02  0.51690330182E+02  0.10566000000E+00 0. -1.
        994    1    1    2    0    0  0.65089156416E+01 -0.19204790929E+02  0.66814780135E+01  0.17252614911E+03  0.17120000000E+03 0.  0.
        998    1    1    2    0    0 -0.22908189391E+02  0.33347698510E+02  0.14463832324E+04  0.14469835207E+04  0.10000000000E+02 0. -1.
</event>
<event>
 5    1  0.1300052E-008  0.3853245E+03  0.7957747E-01  0.3428297E+00
         13   -1    0    0    0    0  0.00000000000E+00  0.00000000000E+00  0.14999999963E+04  0.15000000000E+04  0.10566000000E+00 0.  1.
        994   -1    0    0    0    0 -0.00000000000E+00 -0.00000000000E+00  0.11368683772E-12  0.17120000000E+03  0.17120000000E+03 0.  0.
         13    1    1    2    0    0 -0.19147010411E+01  0.10709151786E+02  0.40592408192E+02  0.42025073217E+02  0.10566000000E+00 0.  1.
        994    1    1    2    0    0  0.52523875785E+01 -0.51984463513E+01  0.16485480604E+01  0.17136735141E+03  0.17120000000E+03 0.  0.
        998    1    1    2    0    0 -0.33376865375E+01 -0.55107054348E+01  0.14577590400E+04  0.14578075754E+04  0.10000000000E+02 0.  1.
</event>
<event>
 5    1  0.1300052E-008  0.3755877E+03  0.7957747E-01  0.3470598E+00
         13   -1    0    0    0    0  0.00000000000E+00  0.00000000000E+00  0.14999999963E+04  0.15000000000E+04  0.10566000000E+00 0. -1.
        994   -1    0    0    0    0 -0.00000000000E+00 -0.00000000000E+00  0.11368683772E-12  0.17120000000E+03  0.17120000000E+03 0.  0.
         13    1    1    2    0    0  0.15466062145E+02 -0.10882331348E+02  0.35562122295E+02  0.40277784447E+02  0.10566000000E+00 0. -1.
        994    1    1    2    0    0  0.98795456622E+02 -0.47665624029E+02  0.48357775205E+02  0.20899872819E+03  0.17120000000E+03 0.  0.
        998    1    1    2    0    0 -0.11426151877E+03  0.58547955378E+02  0.14160800988E+04  0.14219234874E+04  0.10000000000E+02 0. -1.
</event>
<event>
 5    1  0.1300052E-008  0.3731114E+03  0.7957747E-01  0.3481713E+00
         13   -1    0    0    0    0  0.00000000000E+00  0.00000000000E+00  0.14999999963E+04  0.15000000000E+04  0.10566000000E+00 0. -1.
        994   -1    0    0    0    0 -0.00000000000E+00 -0.00000000000E+00  0.11368683772E-12  0.17120000000E+03  0.17120000000E+03 0.  0.
         13    1    1    2    0    0 -0.48548000609E+02  0.29805740479E+02  0.20881393737E+03  0.21644528669E+03  0.10566000000E+00 0. -1.
        994    1    1    2    0    0  0.36607960836E+02 -0.52603887452E+01  0.12345479952E+02  0.17558378445E+03  0.17120000000E+03 0.  0.
        998    1    1    2    0    0  0.11940039774E+02 -0.24545351733E+02  0.12788405790E+04  0.12791709289E+04  0.10000000000E+02 0. -1.
</event>
<event>
 5    1  0.1300052E-008  0.3705525E+03  0.7957747E-01  0.3493356E+00
         13   -1    0    0    0    0  0.00000000000E+00  0.00000000000E+00  0.14999999963E+04  0.15000000000E+04  0.10566000000E+00 0.  1.
        994   -1    0    0    0    0 -0.00000000000E+00 -0.00000000000E+00  0.11368683772E-12  0.17120000000E+03  0.17120000000E+03 0.  0.
         13    1    1    2    0    0  0.10256162078E+02  0.34413240547E+01  0.22611068625E+01  0.11052390696E+02  0.10566000000E+00 0.  1.
        994    1    1    2    0    0 -0.13930995816E+02 -0.79703590319E+01  0.98700437612E+01  0.17223372791E+03  0.17120000000E+03 0.  0.
        998    1    1    2    0    0  0.36748337377E+01  0.45290349772E+01  0.14878688457E+04  0.14879138814E+04  0.10000000000E+02 0.  1.
</event>
<event>
 5    1  0.1300052E-008  0.3835025E+03  0.7957747E-01  0.3436048E+00
         13   -1    0    0    0    0  0.00000000000E+00  0.00000000000E+00  0.14999999963E+04  0.15000000000E+04  0.10566000000E+00 0.  1.
        994   -1    0    0    0    0 -0.00000000000E+00 -0.00000000000E+00  0.11368683772E-12  0.17120000000E+03  0.17120000000E+03 0.  0.
         13    1    1    2    0    0  0.12034782805E+02  0.58372641813E+01  0.36767272943E+02  0.39124840881E+02  0.10566000000E+00 0.  1.
        994    1    1    2    0    0 -0.80247908401E+01 -0.70980062828E+01  0.27548598073E+01  0.17155701156E+03  0.17120000000E+03 0.  0.
        998    1    1    2    0    0 -0.40099919646E+01  0.12607421016E+01  0.14604778635E+04  0.14605181476E+04  0.10000000000E+02 0.  1.
</event>
<event>
 5    1  0.1300052E-008  0.3892534E+03  0.7957747E-01  0.3411831E+00
         13   -1    0    0    0    0  0.00000000000E+00  0.00000000000E+00  0.14999999963E+04  0.15000000000E+04  0.10566000000E+00 0.  1.
        994   -1    0    0    0    0 -0.00000000000E+00 -0.00000000000E+00  0.11368683772E-12  0.17120000000E+03  0.17120000000E+03 0.  0.
         13    1    1    2    0    0 -0.10282193312E+02  0.25638845928E+02  0.82555752427E+01  0.28831226239E+02  0.10566000000E+00 0.  1.
        994    1    1    2    0    0  0.20235166695E+02 -0.29220409023E+02  0.26259391768E+02  0.17681145305E+03  0.17120000000E+03 0.  0.
        998    1    1    2    0    0 -0.99529733830E+01  0.35815630958E+01  0.14654850293E+04  0.14655573207E+04  0.10000000000E+02 0.  1.
</event>
<event>
 5    1  0.1300052E-008  0.3806461E+03  0.7957747E-01  0.3448350E+00
         13   -1    0    0    0    0  0.00000000000E+00  0.00000000000E+00  0.14999999963E+04  0.15000000000E+04  0.10566000000E+00 0. -1.
        994   -1    0    0    0    0 -0.00000000000E+00 -0.00000000000E+00  0.11368683772E-12  0.17120000000E+03  0.17120000000E+03 0.  0.
         13    1    1    2    0    0  0.16407360953E+01  0.13358344883E+02  0.22397359161E+02  0.26130255536E+02  0.10566000000E+00 0. -1.
        994    1    1    2    0    0 -0.60106216190E+01 -0.62187085765E+01  0.40569182045E+01  0.17146631883E+03  0.17120000000E+03 0.  0.
        998    1    1    2    0    0  0.43698855236E+01 -0.71396363065E+01  0.14735457189E+04  0.14736034256E+04  0.10000000000E+02 0. -1.
</event>
<event>
 5    1  0.1300052E-008  0.3775574E+03  0.7957747E-01  0.3461864E+00
         13   -1    0    0    0    0  0.00000000000E+00  0.00000000000E+00  0.14999999963E+04  0.15000000000E+04  0.10566000000E+00 0. -1.
        994   -1    0    0    0    0 -0.00000000000E+00 -0.00000000000E+00  0.11368683772E-12  0.17120000000E+03  0.17120000000E+03 0.  0.
         13    1    1    2    0    0  0.55438800200E+01 -0.34715009102E+02  0.10584916785E+03  0.11153440707E+03  0.10566000000E+00 0. -1.
        994    1    1    2    0    0  0.89065863153E+00  0.36037119754E+02  0.97631514849E+01  0.17522621493E+03  0.17120000000E+03 0.  0.
        998    1    1    2    0    0 -0.64345386515E+01 -0.13221106519E+01  0.13843876769E+04  0.13844393780E+04  0.10000000000E+02 0. -1.
</event>
<event>
 5    1  0.1300052E-008  0.3818694E+03  0.7957747E-01  0.3443059E+00
         13   -1    0    0    0    0  0.00000000000E+00  0.00000000000E+00  0.14999999963E+04  0.15000000000E+04  0.10566000000E+00 0. -1.
        994   -1    0    0    0    0 -0.00000000000E+00 -0.00000000000E+00  0.11368683772E-12  0.17120000000E+03  0.17120000000E+03 0.  0.
         13    1    1    2    0    0 -0.42457853783E+01  0.11000151104E+02  0.20183518078E+02  0.23375533872E+02  0.10566000000E+00 0. -1.
        994    1    1    2    0    0  0.65667667874E+01 -0.12217855084E+02  0.38319461850E+01  0.17180373168E+03  0.17120000000E+03 0.  0.
        998    1    1    2    0    0 -0.23209814091E+01  0.12177039804E+01  0.14759845320E+04  0.14760207344E+04  0.10000000000E+02 0. -1.
</event>
<event>
 5    1  0.1300052E-008  0.3979037E+03  0.7957747E-01  0.3376724E+00
         13   -1    0    0    0    0  0.00000000000E+00  0.00000000000E+00  0.14999999963E+04  0.15000000000E+04  0.10566000000E+00 0. -1.
        994   -1    0    0    0    0 -0.00000000000E+00 -0.00000000000E+00  0.11368683772E-12  0.17120000000E+03  0.17120000000E+03 0.  0.
         13    1    1    2    0    0 -0.97947114193E+02  0.38839882286E+01  0.16739919404E+03  0.19398769000E+03  0.10566000000E+00 0. -1.
        994    1    1    2    0    0  0.75758932828E+02 -0.51239087598E+01  0.49277828323E+02  0.19365798385E+03  0.17120000000E+03 0.  0.
        998    1    1    2    0    0  0.22188181365E+02  0.12399205311E+01  0.12833229739E+04  0.12835543261E+04  0.10000000000E+02 0. -1.
</event>
<event>
 5    1  0.1300052E-008  0.3846943E+03  0.7957747E-01  0.3430970E+00
         13   -1    0    0    0    0  0.00000000000E+00  0.00000000000E+00  0.14999999963E+04  0.15000000000E+04  0.10566000000E+00 0.  1.
        994   -1    0    0    0    0 -0.00000000000E+00 -0.00000000000E+00  0.11368683772E-12  0.17120000000E+03  0.17120000000E+03 0.  0.
         13    1    1    2    0    0 -0.37756460599E+01  0.12622170099E+02  0.46912481383E+02  0.48727474331E+02  0.10566000000E+00 0.  1.
        994    1    1    2    0    0  0.84441618637E+01 -0.13379506734E+02  0.26064322709E+01  0.17194926158E+03  0.17120000000E+03 0.  0.
        998    1    1    2    0    0 -0.46685158037E+01  0.75733663540E+00  0.14504810826E+04  0.14505232641E+04  0.10000000000E+02 0.  1.
</event>
<event>
 5    1  0.1300052E-008  0.3759971E+03  0.7957747E-01  0.3468775E+00
         13   -1    0    0    0    0  0.00000000000E+00  0.00000000000E+00  0.14999999963E+04  0.15000000000E+04  0.10566000000E+00 0. -1.
        994   -1    0    0    0    0 -0.00000000000E+00 -0.00000000000E+00  0.11368683772E-12  0.17120000000E+03  0.17120000000E+03 0.  0.
         13    1    1    2    0    0  0.35045454824E+01  0.49256181816E+02  0.24163755916E+03  0.24663165743E+03  0.10566000000E+00 0. -1.
        994    1    1    2    0    0  0.50743573040E+01  0.85530720962E+00  0.62573168374E+01  0.17139158283E+03  0.17120000000E+03 0.  0.
        998    1    1    2    0    0 -0.85789027863E+01 -0.50111489025E+02  0.12521051203E+04  0.12531767597E+04  0.10000000000E+02 0. -1.
</event>
<event>
 5    1  0.1300052E-008  0.3785223E+03  0.7957747E-01  0.3457618E+00
         13   -1    0    0    0    0  0.00000000000E+00  0.00000000000E+00  0.14999999963E+04  0.15000000000E+04  0.10566000000E+00 0.  1.
        994   -1    0    0    0    0 -0.00000000000E+00 -0.00000000000E+00  0.11368683772E-12  0.17120000000E+03  0.17120000000E+03 0.  0.
         13    1    1    2    0    0 -0.10829123670E+02  0.59069129255E+02  0.29768869426E+03  0.30368569576E+03  0.10566000000E+00 0.  1.
        994    1    1    2    0    0 -0.10677468592E+00 -0.60726005233E+02  0.17370491250E+02  0.18247967854E+03  0.17120000000E+03 0.  0.
        998    1    1    2    0    0  0.10935898356E+02  0.16568759774E+01  0.11849408108E+04  0.11850346257E+04  0.10000000000E+02 0.  1.
</event>
<event>
 5    1  0.1300052E-008  0.3810831E+03  0.7957747E-01  0.3446456E+00
         13   -1    0    0    0    0  0.00000000000E+00  0.00000000000E+00  0.14999999963E+04  0.15000000000E+04  0.10566000000E+00 0.  1.
        994   -1    0    0    0    0 -0.00000000000E+00 -0.00000000000E+00  0.11368683772E-12  0.17120000000E+03  0.17120000000E+03 0.  0.
         13    1    1    2    0    0 -0.16237893936E+03 -0.47812511353E+01  0.93046918683E+03  0.94454364596E+03  0.10566000000E+00 0.  1.
        994    1    1    2    0    0  0.17112499444E+03  0.12416342349E+02  0.10881220982E+03  0.26568301844E+03  0.17120000000E+03 0.  0.
        998    1    1    2    0    0 -0.87460550856E+01 -0.76350912136E+01  0.46071859963E+03  0.46097333561E+03  0.10000000000E+02 0.  1.
</event>
<event>
 5    1  0.1300052E-008  0.3827959E+03  0.7957747E-01  0.3439074E+00
         13   -1    0    0    0    0  0.00000000000E+00  0.00000000000E+00  0.14999999963E+04  0.15000000000E+04  0.10566000000E+00 0.  1.
        994   -1    0    0    0    0 -0.00000000000E+00 -0.00000000000E+00  0.11368683772E-12  0.17120000000E+03  0.17120000000E+03 0.  0.
         13    1    1    2    0    0  0.47757424139E+01  0.20034444391E+02  0.76959538539E+02  0.79667863118E+02  0.10566000000E+00 0.  1.
        994    1    1    2    0    0 -0.14985511427E+01 -0.12997669673E+02  0.32956118609E+01  0.17173085375E+03  0.17120000000E+03 0.  0.
        998    1    1    2    0    0 -0.32771912713E+01 -0.70367747181E+01  0.14197448459E+04  0.14198012831E+04  0.10000000000E+02 0.  1.
</event>
<event>
 5    1  0.1300052E-008  0.3735535E+03  0.7957747E-01  0.3479717E+00
         13   -1    0    0    0    0  0.00000000000E+00  0.00000000000E+00  0.14999999963E+04  0.15000000000E+04  0.10566000000E+00 0. -1.
        994   -1    0    0    0    0 -0.00000000000E+00 -0.00000000000E+00  0.11368683772E-12  0.17120000000E+03  0.17120000000E+03 0.  0.
         13    1    1    2    0    0 -0.35454079490E+01  0.54312725394E+02  0.18432453193E+03  0.19219257606E+03  0.10566000000E+00 0. -1.
        994    1    1    2    0    0 -0.13914045970E+02 -0.45364181718E+02  0.15153588897E+02  0.17829913324E+03  0.17120000000E+03 0.  0.
        998    1    1    2    0    0  0.17459453920E+02 -0.89485436756E+01  0.13005218755E+04  0.13007082907E+04  0.10000000000E+02 0. -1.
</event>
<event>
 5    1  0.1300052E-008  0.3769453E+03  0.7957747E-01  0.3464568E+00
         13   -1    0    0    0    0  0.00000000000E+00  0.00000000000E+00  0.14999999963E+04  0.15000000000E+04  0.10566000000E+00 0. -1.
        994   -1    0    0    0    0 -0.00000000000E+00 -0.00000000000E+00  0.11368683772E-12  0.17120000000E+03  0.17120000000E+03 0.  0.
         13    1    1    2    0    0 -0.12474808138E+02 -0.29365098657E+02  0.86819891887E+02  0.92496673716E+02  0.10566000000E+00 0. -1.
        994    1    1    2    0    0  0.16915415994E+02  0.16304319874E+02  0.75493867208E+01  0.17296934811E+03  0.17120000000E+03 0.  0.
        998    1    1    2    0    0 -0.44406078562E+01  0.13060778783E+02  0.14056307177E+04  0.14057339782E+04  0.10000000000E+02 0. -1.
</event>
<event>
 5    1  0.1300052E-008  0.3802914E+03  0.7957747E-01  0.3449891E+00
         13   -1    0    0    0    0  0.00000000000E+00  0.00000000000E+00  0.14999999963E+04  0.15000000000E+04  0.10566000000E+00 0. -1.
        994   -1    0    0    0    0 -0.00000000000E+00 -0.00000000000E+00  0.11368683772E-12  0.17120000000E+03  0.17120000000E+03 0.  0.
         13    1    1    2    0    0 -0.95171665739E+01  0.61836178397E+01  0.14478106655E+02  0.18396747689E+02  0.10566000000E+00 0. -1.
        994    1    1    2    0    0  0.57904563274E+01 -0.44798020295E+01  0.41651351106E+01  0.17140707792E+03  0.17120000000E+03 0.  0.
        998    1    1    2    0    0  0.37267102464E+01 -0.17038158102E+01  0.14813567545E+04  0.14813961744E+04  0.10000000000E+02 0. -1.
</event>
<event>
 5    1  0.1300052E-008  0.3848920E+03  0.7957747E-01  0.3430130E+00
         13   -1    0    0    0    0  0.00000000000E+00  0.00000000000E+00  0.14999999963E+04  0.15000000000E+04  0.10566000000E+00 0. -1.
        994   -1    0    0    0    0 -0.00000000000E+00 -0.00000000000E+00  0.11368683772E-12  0.17120000000E+03  0.17120000000E+03 0.  0.
         13    1    1    2    0    0  0.56023842762E+01  0.10230124549E+02  0.39260171841E+02  0.40956250011E+02  0.10566000000E+00 0. -1.
        994    1    1    2    0    0 -0.45577566067E+01 -0.12112333449E+02  0.22349340600E+01  0.17170298977E+03  0.17120000000E+03 0.  0.
        998    1    1    2    0    0 -0.10446276695E+01  0.18822088999E+01  0.14585048904E+04  0.14585407602E+04  0.10000000000E+02 0. -1.
</event>
<event>
 5    1  0.1300052E-008  0.3847787E+03  0.7957747E-01  0.3430611E+00
         13   -1    0    0    0    0  0.00000000000E+00  0.00000000000E+00  0.14999999963E+04  0.15000000000E+04  0.10566000000E+00 0. -1.
        994   -1    0    0    0    0 -0.00000000000E+00 -0.00000000000E+00  0.11368683772E-12  0.17120000000E+03  0.17120000000E+03 0.  0.
         13    1    1    2    0    0  0.35913460329E+01  0.11631866605E+02  0.41177498505E+02  0.42939441475E+02  0.10566000000E+00 0. -1.
        994    1    1    2    0    0 -0.92890503707E+00 -0.14385575802E+02  0.24242525631E+01  0.17182294566E+03  0.17120000000E+03 0.  0.
        998    1    1    2    0    0 -0.26624409959E+01  0.27537091968E+01  0.14563982452E+04  0.14564376129E+04  0.10000000000E+02 0. -1.
</event>
<event>
 5    1  0.1300052E-008  0.3791458E+03  0.7957747E-01  0.3454886E+00
         13   -1    0    0    0    0  0.00000000000E+00  0.00000000000E+00  0.14999999963E+04  0.15000000000E+04  0.10566000000E+00 0. -1.
        994   -1    0    0    0    0 -0.00000000000E+00 -0.00000000000E+00  0.11368683772E-12  0.17120000000E+03  0.17120000000E+03 0.  0.
         13    1    1    2    0    0  0.58958497740E+02  0.17374211185E+03  0.98740586221E+03  0.10043071113E+04  0.10566000000E+00 0. -1.
        994    1    1    2    0    0 -0.46584771601E+02 -0.17880544762E+03  0.12912826424E+03  0.28306373429E+03  0.17120000000E+03 0.  0.
        998    1    1    2    0    0 -0.12373726139E+02  0.50633357621E+01  0.38346586982E+03  0.38382915442E+03  0.10000000000E+02 0. -1.
</event>
<event>
 5    1  0.1300052E-008  0.3787328E+03  0.7957747E-01  0.3456695E+00
         13   -1    0    0    0    0  0.00000000000E+00  0.00000000000E+00  0.14999999963E+04  0.15000000000E+04  0.10566000000E+00 0. -1.
        994   -1    0    0    0    0 -0.00000000000E+00 -0.00000000000E+00  0.11368683772E-12  0.17120000000E+03  0.17120000000E+03 0.  0.
         13    1    1    2    0    0  0.10579325501E+02 -0.86805538812E+01  0.17518469593E+02  0.22230206581E+02  0.10566000000E+00 0. -1.
        994    1    1    2    0    0 -0.88617730200E+01  0.63280841877E+01  0.51723670827E+01  0.17162391748E+03  0.17120000000E+03 0.  0.
        998    1    1    2    0    0 -0.17175524811E+01  0.23524696935E+01  0.14773091596E+04  0.14773458759E+04  0.10000000000E+02 0. -1.
</event>
<event>
 5    1  0.1300052E-008  0.3798202E+03  0.7957747E-01  0.3451942E+00
         13   -1    0    0    0    0  0.00000000000E+00  0.00000000000E+00  0.14999999963E+04  0.15000000000E+04  0.10566000000E+00 0.  1.
        994   -1    0    0    0    0 -0.00000000000E+00 -0.00000000000E+00  0.11368683772E-12  0.17120000000E+03  0.17120000000E+03 0.  0.
         13    1    1    2    0    0  0.30073922234E+02 -0.16802923127E+02  0.17067126396E+03  0.17411338412E+03  0.10566000000E+00 0.  1.
        994    1    1    2    0    0  0.64366886629E+01 -0.74732437746E+01  0.45493911898E+01  0.17154421382E+03  0.17120000000E+03 0.  0.
        998    1    1    2    0    0 -0.36510610897E+02  0.24276166901E+02  0.13247793411E+04  0.13255424021E+04  0.10000000000E+02 0.  1.
</event>
<event>
 5    1  0.1300052E-008  0.3857264E+03  0.7957747E-01  0.3426597E+00
         13   -1    0    0    0    0  0.00000000000E+00  0.00000000000E+00  0.14999999963E+04  0.15000000000E+04  0.10566000000E+00 0. -1.
        994   -1    0    0    0    0 -0.00000000000E+00 -0.00000000000E+00  0.11368683772E-12  0.17120000000E+03  0.17120000000E+03 0.  0.
         13    1    1    2    0    0 -0.11611859436E+02  0.88988979962E+01  0.88010786364E+02  0.89218469756E+02  0.10566000000E+00 0. -1.
        994    1    1    2    0    0  0.78344086652E+01  0.15112664761E+01  0.14788068756E+01  0.17139220739E+03  0.17120000000E+03 0.  0.
        998    1    1    2    0    0  0.37774507709E+01 -0.10410164472E+02  0.14105104030E+04  0.14105893229E+04  0.10000000000E+02 0. -1.
</event>
<event>
 5    1  0.1300052E-008  0.3839672E+03  0.7957747E-01  0.3434064E+00
         13   -1    0    0    0    0  0.00000000000E+00  0.00000000000E+00  0.14999999963E+04  0.15000000000E+04  0.10566000000E+00 0.  1.
        994   -1    0    0    0    0 -0.00000000000E+00 -0.00000000000E+00  0.11368683772E-12  0.17120000000E+03  0.17120000000E+03 0.  0.
         13    1    1    2    0    0 -0.12606189616E+02 -0.42720929410E+01  0.39830335879E+02  0.41995638047E+02  0.10566000000E+00 0.  1.
        994    1    1    2    0    0  0.13219725712E+02  0.56911567127E+01  0.28276248185E+01  0.17182719772E+03  0.17120000000E+03 0.  0.
        998    1    1    2    0    0 -0.61353609610E+00 -0.14190637717E+01  0.14573420356E+04  0.14573771642E+04  0.10000000000E+02 0.  1.
</event>
<event>
 5    1  0.1300052E-008  0.3848100E+03  0.7957747E-01  0.3430479E+00
         13   -1    0    0    0    0  0.00000000000E+00  0.00000000000E+00  0.14999999963E+04  0.15000000000E+04  0.10566000000E+00 0. -1.
        994   -1    0    0    0    0 -0.00000000000E+00 -0.00000000000E+00  0.11368683772E-12  0.17120000000E+03  0.17120000000E+03 0.  0.
         13    1    1    2    0    0  0.10804160391E+02  0.91396601722E+01  0.55671131568E+02  0.57441703700E+02  0.10566000000E+00 0. -1.
        994    1    1    2    0    0 -0.15640466956E+02 -0.70122286437E+01  0.26918974699E+01  0.17207696496E+03  0.17120000000E+03 0.  0.
        998    1    1    2    0    0  0.48363065649E+01 -0.21274315285E+01  0.14416369672E+04  0.14416813313E+04  0.10000000000E+02 0. -1.
</event>
<event>
 5    1  0.1300052E-008  0.3963162E+03  0.7957747E-01  0.3383052E+00
         13   -1    0    0    0    0  0.00000000000E+00  0.00000000000E+00  0.14999999963E+04  0.15000000000E+04  0.10566000000E+00 0.  1.
        994   -1    0    0    0    0 -0.00000000000E+00 -0.00000000000E+00  0.11368683772E-12  0.17120000000E+03  0.17120000000E+03 0.  0.
         13    1    1    2    0    0 -0.36763375674E+02 -0.34491755849E+01  0.16042084203E+02  0.40259188179E+02  0.10566000000E+00 0.  1.
        994    1    1    2    0    0  0.37294337715E+02  0.40555845265E+01  0.31041412769E+02  0.17798967582E+03  0.17120000000E+03 0.  0.
        998    1    1    2    0    0 -0.53096204034E+00 -0.60640894161E+00  0.14529164993E+04  0.14529511360E+04  0.10000000000E+02 0.  0.
</event>
<event>
 5    1  0.1300052E-008  0.3767938E+03  0.7957747E-01  0.3465239E+00
         13   -1    0    0    0    0  0.00000000000E+00  0.00000000000E+00  0.14999999963E+04  0.15000000000E+04  0.10566000000E+00 0. -1.
        994   -1    0    0    0    0 -0.00000000000E+00 -0.00000000000E+00  0.11368683772E-12  0.17120000000E+03  0.17120000000E+03 0.  0.
         13    1    1    2    0    0  0.11771255181E+02  0.21731330943E+02  0.49236380506E+02  0.55091247240E+02  0.10566000000E+00 0. -1.
        994    1    1    2    0    0  0.14725974066E+00 -0.29124478501E+02  0.86318396798E+01  0.17387410845E+03  0.17120000000E+03 0.  0.
        998    1    1    2    0    0 -0.11918514921E+02  0.73931475589E+01  0.14421317761E+04  0.14422346443E+04  0.10000000000E+02 0. -1.
</event>
<event>
 5    1  0.1300052E-008  0.3855960E+03  0.7957747E-01  0.3427148E+00
         13   -1    0    0    0    0  0.00000000000E+00  0.00000000000E+00  0.14999999963E+04  0.15000000000E+04  0.10566000000E+00 0.  1.
        994   -1    0    0    0    0 -0.00000000000E+00 -0.00000000000E+00  0.11368683772E-12  0.17120000000E+03  0.17120000000E+03 0.  0.
         13    1    1    2    0    0  0.69333039049E+00 -0.11553489271E+02  0.54483826864E+02  0.55699752020E+02  0.10566000000E+00 0.  1.
        994    1    1    2    0    0 -0.38411663857E+01 -0.42374656145E+01  0.14418835746E+01  0.17130157531E+03  0.17120000000E+03 0.  0.
        998    1    1    2    0    0  0.31478359952E+01  0.15790954886E+02  0.14440742858E+04  0.14441986727E+04  0.10000000000E+02 0.  1.
</event>
<event>
 5    1  0.1300052E-008  0.3809758E+03  0.7957747E-01  0.3446921E+00
         13   -1    0    0    0    0  0.00000000000E+00  0.00000000000E+00  0.14999999963E+04  0.15000000000E+04  0.10566000000E+00 0. -1.
        994   -1    0    0    0    0 -0.00000000000E+00 -0.00000000000E+00  0.11368683772E-12  0.17120000000E+03  0.17120000000E+03 0.  0.
         13    1    1    2    0    0  0.58606532907E+01 -0.82469580116E+01  0.12455908956E+02  0.16047442332E+02  0.10566000000E+00 0. -1.
        994    1    1    2    0    0 -0.38271242618E+01  0.74869343818E+01  0.38770215101E+01  0.17145020374E+03  0.17120000000E+03 0.  0.
        998    1    1    2    0    0 -0.20335290289E+01  0.76002362976E+00  0.14836670658E+04  0.14837023539E+04  0.10000000000E+02 0. -1.
</event>
<event>
 5    1  0.1300052E-008  0.3851471E+03  0.7957747E-01  0.3429049E+00
         13   -1    0    0    0    0  0.00000000000E+00  0.00000000000E+00  0.14999999963E+04  0.15000000000E+04  0.10566000000E+00 0. -1.
        994   -1    0    0    0    0 -0.00000000000E+00 -0.00000000000E+00  0.11368683772E-12  0.17120000000E+03  0.17120000000E+03 0.  0.
         13    1    1    2    0    0  0.10686890482E+02 -0.13367029598E+02  0.92945425488E+02  0.94507938247E+02  0.10566000000E+00 0. -1.
        994    1    1    2    0    0 -0.70258663856E+01  0.10715990355E+02  0.20970473579E+01  0.17169167963E+03  0.17120000000E+03 0.  0.
        998    1    1    2    0    0 -0.36610240968E+01  0.26510392430E+01  0.14049575234E+04  0.14050003821E+04  0.10000000000E+02 0. -1.
</event>
<event>
 5    1  0.1300052E-008  0.3689712E+03  0.7957747E-01  0.3500632E+00
         13   -1    0    0    0    0  0.00000000000E+00  0.00000000000E+00  0.14999999963E+04  0.15000000000E+04  0.10566000000E+00 0. -1.
        994   -1    0    0    0    0 -0.00000000000E+00 -0.00000000000E+00  0.11368683772E-12  0.17120000000E+03  0.17120000000E+03 0.  0.
         13    1    1    2    0    0 -0.36457126357E+01  0.94855427965E+01  0.33601233995E-01  0.10162629376E+02  0.10566000000E+00 0. -1.
        994    1    1    2    0    0  0.24097727694E+01 -0.16478357155E+02  0.11362525258E+02  0.17238297549E+03  0.17120000000E+03 0.  0.
        998    1    1    2    0    0  0.12359398663E+01  0.69928143583E+01  0.14886038698E+04  0.14886543951E+04  0.10000000000E+02 0. -1.
</event>
<event>
 5    1  0.1300052E-008  0.3778725E+03  0.7957747E-01  0.3460475E+00
         13   -1    0    0    0    0  0.00000000000E+00  0.00000000000E+00  0.14999999963E+04  0.15000000000E+04  0.10566000000E+00 0. -1.
        994   -1    0    0    0    0 -0.00000000000E+00 -0.00000000000E+00  0.11368683772E-12  0.17120000000E+03  0.17120000000E+03 0.  0.
         13    1    1    2    0    0  0.11228074396E+02  0.39062921509E+01  0.12044970819E+02  0.16923984728E+02  0.10566000000E+00 0. -1.
        994    1    1    2    0    0  0.22013247517E+02  0.31042843889E+01  0.68766018860E+01  0.17277426690E+03  0.17120000000E+03 0.  0.
        998    1    1    2    0    0 -0.33241321913E+02 -0.70105765399E+01  0.14810784236E+04  0.14815017484E+04  0.10000000000E+02 0. -1.
</event>
<event>
 5    1  0.1300052E-008  0.3725611E+03  0.7957747E-01  0.3484203E+00
         13   -1    0    0    0    0  0.00000000000E+00  0.00000000000E+00  0.14999999963E+04  0.15000000000E+04  0.10566000000E+00 0.  1.
        994   -1    0    0    0    0 -0.00000000000E+00 -0.00000000000E+00  0.11368683772E-12  0.17120000000E+03  0.17120000000E+03 0.  0.
         13    1    1    2    0    0 -0.15197043933E+02  0.15471757678E+01  0.10945294920E+02  0.18792406500E+02  0.10566000000E+00 0.  1.
        994    1    1    2    0    0  0.19225462572E+02 -0.41917376945E+01  0.92647077397E+01  0.17257596555E+03  0.17120000000E+03 0.  0.
        998    1    1    2    0    0 -0.40284186386E+01  0.26445619267E+01  0.14797899936E+04  0.14798316279E+04  0.10000000000E+02 0.  1.
</event>
<event>
 5    1  0.1300052E-008  0.3824683E+03  0.7957747E-01  0.3440481E+00
         13   -1    0    0    0    0  0.00000000000E+00  0.00000000000E+00  0.14999999963E+04  0.15000000000E+04  0.10566000000E+00 0. -1.
        994   -1    0    0    0    0 -0.00000000000E+00 -0.00000000000E+00  0.11368683772E-12  0.17120000000E+03  0.17120000000E+03 0.  0.
         13    1    1    2    0    0 -0.14272474813E+02  0.42458713715E+01  0.36262402321E+02  0.39200815644E+02  0.10566000000E+00 0. -1.
        994    1    1    2    0    0  0.16478471399E+02 -0.70195989281E+01  0.39568437644E+01  0.17217988094E+03  0.17120000000E+03 0.  0.
        998    1    1    2    0    0 -0.22059965862E+01  0.27737275566E+01  0.14597807502E+04  0.14598193034E+04  0.10000000000E+02 0. -1.
</event>
<event>
 5    1  0.1300052E-008  0.3818937E+03  0.7957747E-01  0.3442954E+00
         13   -1    0    0    0    0  0.00000000000E+00  0.00000000000E+00  0.14999999963E+04  0.15000000000E+04  0.10566000000E+00 0.  1.
        994   -1    0    0    0    0 -0.00000000000E+00 -0.00000000000E+00  0.11368683772E-12  0.17120000000E+03  0.17120000000E+03 0.  0.
         13    1    1    2    0    0  0.11351712764E+02  0.34042681888E+02  0.19000259964E+03  0.19336174546E+03  0.10566000000E+00 0.  1.
        994    1    1    2    0    0 -0.15854392327E+01 -0.29232834385E+02  0.60327621185E+01  0.17378983412E+03  0.17120000000E+03 0.  0.
        998    1    1    2    0    0 -0.97662735308E+01 -0.48098475035E+01  0.13039646345E+04  0.13040484204E+04  0.10000000000E+02 0.  1.
</event>
<event>
 5    1  0.1300052E-008  0.3839792E+03  0.7957747E-01  0.3434013E+00
         13   -1    0    0    0    0  0.00000000000E+00  0.00000000000E+00  0.14999999963E+04  0.15000000000E+04  0.10566000000E+00 0. -1.
        994   -1    0    0    0    0 -0.00000000000E+00 -0.00000000000E+00  0.11368683772E-12  0.17120000000E+03  0.17120000000E+03 0.  0.
         13    1    1    2    0    0 -0.24298849483E+02 -0.27379441070E+00  0.14499734163E+03  0.14701955412E+03  0.10566000000E+00 0. -1.
        994    1    1    2    0    0  0.86989006489E+01 -0.29646097403E+01  0.24165278601E+01  0.17146352204E+03  0.17120000000E+03 0.  0.
        998    1    1    2    0    0  0.15599948834E+02  0.32384041510E+01  0.13525861268E+04  0.13527169238E+04  0.10000000000E+02 0.  0.
</event>
<event>
 5    1  0.1300052E-008  0.3816013E+03  0.7957747E-01  0.3444215E+00
         13   -1    0    0    0    0  0.00000000000E+00  0.00000000000E+00  0.14999999963E+04  0.15000000000E+04  0.10566000000E+00 0. -1.
        994   -1    0    0    0    0 -0.00000000000E+00 -0.00000000000E+00  0.11368683772E-12  0.17120000000E+03  0.17120000000E+03 0.  0.
         13    1    1    2    0    0 -0.19014334021E+01 -0.10176984131E+02  0.14555897970E+02  0.17862580573E+02  0.10566000000E+00 0. -1.
        994    1    1    2    0    0 -0.63883892034E+01  0.13020726622E+02  0.40267782668E+01  0.17186042529E+03  0.17120000000E+03 0.  0.
        998    1    1    2    0    0  0.82898226056E+01 -0.28437424909E+01  0.14814173200E+04  0.14814769941E+04  0.10000000000E+02 0. -1.
</event>
<event>
 5    1  0.1300052E-008  0.3848606E+03  0.7957747E-01  0.3430263E+00
         13   -1    0    0    0    0  0.00000000000E+00  0.00000000000E+00  0.14999999963E+04  0.15000000000E+04  0.10566000000E+00 0.  1.
        994   -1    0    0    0    0 -0.00000000000E+00 -0.00000000000E+00  0.11368683772E-12  0.17120000000E+03  0.17120000000E+03 0.  0.
         13    1    1    2    0    0 -0.10993739056E+02 -0.85030926912E+00  0.36612470160E+02  0.38237016875E+02  0.10566000000E+00 0.  1.
        994    1    1    2    0    0  0.30225687714E+00  0.14057112601E+02  0.23500491762E+01  0.17179248093E+03  0.17120000000E+03 0.  0.
        998    1    1    2    0    0  0.10691482178E+02 -0.13206803332E+02  0.14610374769E+04  0.14611705022E+04  0.10000000000E+02 0.  1.
</event>
<event>
 5    1  0.1300052E-008  0.3831983E+03  0.7957747E-01  0.3437349E+00
         13   -1    0    0    0    0  0.00000000000E+00  0.00000000000E+00  0.14999999963E+04  0.15000000000E+04  0.10566000000E+00 0. -1.
        994   -1    0    0    0    0 -0.00000000000E+00 -0.00000000000E+00  0.11368683772E-12  0.17120000000E+03  0.17120000000E+03 0.  0.
         13    1    1    2    0    0 -0.20082936408E+02  0.10620294143E+02  0.71461273162E+01  0.23815819996E+02  0.10566000000E+00 0. -1.
        994    1    1    2    0    0 -0.17390850544E+02  0.53255967597E+01  0.19309130881E+02  0.17324285324E+03  0.17120000000E+03 0.  0.
        998    1    1    2    0    0  0.37473786952E+02 -0.15945890902E+02  0.14735447381E+04  0.14741413268E+04  0.10000000000E+02 0. -1.
</event>
<event>
 5    1  0.1300052E-008  0.3818965E+03  0.7957747E-01  0.3442942E+00
         13   -1    0    0    0    0  0.00000000000E+00  0.00000000000E+00  0.14999999963E+04  0.15000000000E+04  0.10566000000E+00 0. -1.
        994   -1    0    0    0    0 -0.00000000000E+00 -0.00000000000E+00  0.11368683772E-12  0.17120000000E+03  0.17120000000E+03 0.  0.
         13    1    1    2    0    0 -0.25702577922E+02  0.80253358872E+01  0.11576080636E+03  0.11885118418E+03  0.10566000000E+00 0. -1.
        994    1    1    2    0    0  0.18380447023E+02  0.15447628528E+02  0.50963170662E+01  0.17295052040E+03  0.17120000000E+03 0.  0.
        998    1    1    2    0    0  0.73221308997E+01 -0.23472964415E+02  0.13791428729E+04  0.13793982954E+04  0.10000000000E+02 0. -1.
</event>
<event>
 5    1  0.1300052E-008  0.3823524E+03  0.7957747E-01  0.3440979E+00
         13   -1    0    0    0    0  0.00000000000E+00  0.00000000000E+00  0.14999999963E+04  0.15000000000E+04  0.10566000000E+00 0. -1.
        994   -1    0    0    0    0 -0.00000000000E+00 -0.00000000000E+00  0.11368683772E-12  0.17120000000E+03  0.17120000000E+03 0.  0.
         13    1    1    2    0    0 -0.23777779669E+02  0.66260193788E+01  0.11723832574E+03  0.11980869386E+03  0.10566000000E+00 0. -1.
        994    1    1    2    0    0 -0.46609913148E+01  0.34382800299E+01  0.30616627019E+01  0.17132530574E+03  0.17120000000E+03 0.  0.
        998    1    1    2    0    0  0.28438770984E+02 -0.10064299409E+02  0.13797000078E+04  0.13800660004E+04  0.10000000000E+02 0. -1.
</event>
<event>
 5    1  0.1300052E-008  0.4078934E+03  0.7957747E-01  0.3338026E+00
         13   -1    0    0    0    0  0.00000000000E+00  0.00000000000E+00  0.14999999963E+04  0.15000000000E+04  0.10566000000E+00 0.  1.
        994   -1    0    0    0    0 -0.00000000000E+00 -0.00000000000E+00  0.11368683772E-12  0.17120000000E+03  0.17120000000E+03 0.  0.
         13    1    1    2    0    0 -0.87712207079E+01 -0.33104237161E+02  0.45764943874E+01  0.34551125823E+02  0.10566000000E+00 0.  1.
        994    1    1    2    0    0  0.44039044959E+01  0.34472935804E+02  0.37484182443E+02  0.17866807664E+03  0.17120000000E+03 0.  0.
        998    1    1    2    0    0  0.43673162119E+01 -0.13686986431E+01  0.14579393194E+04  0.14579807975E+04  0.10000000000E+02 0.  1.
</event>
<event>
 5    1  0.1300052E-008  0.3815769E+03  0.7957747E-01  0.3444321E+00
         13   -1    0    0    0    0  0.00000000000E+00  0.00000000000E+00  0.14999999963E+04  0.15000000000E+04  0.10566000000E+00 0. -1.
        994   -1    0    0    0    0 -0.00000000000E+00 -0.00000000000E+00  0.11368683772E-12  0.17120000000E+03  0.17120000000E+03 0.  0.
         13    1    1    2    0    0 -0.10263123919E+02 -0.30381176832E+01  0.17011753899E+02  0.20099074764E+02  0.10566000000E+00 0. -1.
        994    1    1    2    0    0 -0.21429429321E+02  0.32658537175E+00  0.48682910541E+01  0.17260494592E+03  0.17120000000E+03 0.  0.
        998    1    1    2    0    0  0.31692553240E+02  0.27115323115E+01  0.14781199513E+04  0.14784959793E+04  0.10000000000E+02 0. -1.
</event>
<event>
 5    1  0.1300052E-008  0.3727062E+03  0.7957747E-01  0.3483545E+00
         13   -1    0    0    0    0  0.00000000000E+00  0.00000000000E+00  0.14999999963E+04  0.15000000000E+04  0.10566000000E+00 0.  1.
        994   -1    0    0    0    0 -0.00000000000E+00 -0.00000000000E+00  0.11368683772E-12  0.17120000000E+03  0.17120000000E+03 0.  0.
         13    1    1    2    0    0 -0.15283187820E+02  0.11091915623E+01  0.11191929765E+02  0.18975684224E+02  0.10566000000E+00 0.  1.
        994    1    1    2    0    0  0.20576830292E+02  0.32275239806E+01  0.93489349272E+01  0.17271556224E+03  0.17120000000E+03 0.  0.
        998    1    1    2    0    0 -0.52936424719E+01 -0.43367155429E+01  0.14794591316E+04  0.14795087535E+04  0.10000000000E+02 0.  1.
</event>
<event>
 5    1  0.1300052E-008  0.3820469E+03  0.7957747E-01  0.3442294E+00
         13   -1    0    0    0    0  0.00000000000E+00  0.00000000000E+00  0.14999999963E+04  0.15000000000E+04  0.10566000000E+00 0.  1.
        994   -1    0    0    0    0 -0.00000000000E+00 -0.00000000000E+00  0.11368683772E-12  0.17120000000E+03  0.17120000000E+03 0.  0.
         13    1    1    2    0    0  0.33601177330E+01  0.11697698580E+02  0.22373862469E+02  0.25470128171E+02  0.10566000000E+00 0.  1.
        994    1    1    2    0    0 -0.24758343969E+01 -0.12511328716E+02  0.36437477325E+01  0.17171307463E+03  0.17120000000E+03 0.  0.
        998    1    1    2    0    0 -0.88428333610E+00  0.81363013583E+00  0.14739823861E+04  0.14740167972E+04  0.10000000000E+02 0.  1.
</event>
<event>
 5    1  0.1300052E-008  0.3839623E+03  0.7957747E-01  0.3434085E+00
         13   -1    0    0    0    0  0.00000000000E+00  0.00000000000E+00  0.14999999963E+04  0.15000000000E+04  0.10566000000E+00 0. -1.
        994   -1    0    0    0    0 -0.00000000000E+00 -0.00000000000E+00  0.11368683772E-12  0.17120000000E+03  0.17120000000E+03 0.  0.
         13    1    1    2    0    0 -0.20591352769E+02 -0.14797597188E+02  0.15294448576E+03  0.15503225335E+03  0.10566000000E+00 0. -1.
        994    1    1    2    0    0  0.78001109781E+01  0.10701156299E+02  0.27250457014E+01  0.17173299727E+03  0.17120000000E+03 0.  0.
        998    1    1    2    0    0  0.12791241791E+02  0.40964408887E+01  0.13443304648E+04  0.13444347494E+04  0.10000000000E+02 0. -1.
</event>
<event>
 5    1  0.1300052E-008  0.3789413E+03  0.7957747E-01  0.3455781E+00
         13   -1    0    0    0    0  0.00000000000E+00  0.00000000000E+00  0.14999999963E+04  0.15000000000E+04  0.10566000000E+00 0. -1.
        994   -1    0    0    0    0 -0.00000000000E+00 -0.00000000000E+00  0.11368683772E-12  0.17120000000E+03  0.17120000000E+03 0.  0.
         13    1    1    2    0    0 -0.24814259497E+02  0.36952238080E+02  0.20272944711E+03  0.20755831774E+03  0.10566000000E+00 0. -1.
        994    1    1    2    0    0  0.40184709801E+02 -0.11631369645E+02  0.10561994330E+02  0.17655337829E+03  0.17120000000E+03 0.  0.
        998    1    1    2    0    0 -0.15370450304E+02 -0.25320868435E+02  0.12867085548E+04  0.12870883040E+04  0.10000000000E+02 0. -1.
</event>
<event>
 5    1  0.1300052E-008  0.3814845E+03  0.7957747E-01  0.3444720E+00
         13   -1    0    0    0    0  0.00000000000E+00  0.00000000000E+00  0.14999999963E+04  0.15000000000E+04  0.10566000000E+00 0. -1.
        994   -1    0    0    0    0 -0.00000000000E+00 -0.00000000000E+00  0.11368683772E-12  0.17120000000E+03  0.17120000000E+03 0.  0.
         13    1    1    2    0    0  0.54707350986E+01  0.18100622595E+02  0.49713420390E+02  0.53188314616E+02  0.10566000000E+00 0. -1.
        994    1    1    2    0    0 -0.21519836948E+02 -0.16207418049E+02  0.58037840028E+01  0.17340388603E+03  0.17120000000E+03 0.  0.
        998    1    1    2    0    0  0.16049101849E+02 -0.18932045467E+01  0.14444827919E+04  0.14446077994E+04  0.10000000000E+02 0. -1.
</event>
<event>
 5    1  0.2350901E-008  0.3860311E+03  0.7957747E-01  0.3425311E+00
         13   -1    0    0    0    0  0.00000000000E+00  0.00000000000E+00  0.14999999963E+04  0.15000000000E+04  0.10566000000E+00 0.  1.
        994   -1    0    0    0    0 -0.00000000000E+00 -0.00000000000E+00  0.11368683772E-12  0.17120000000E+03  0.17120000000E+03 0.  0.
         13    1    1    2    0    0 -0.85216570217E+01 -0.68344287659E+01  0.53928928532E+02  0.55024254212E+02  0.10566000000E+00 0.  1.
        994    1    1    2    0    0  0.29180050275E+01  0.83286170677E+01  0.13743844074E+01  0.17143281351E+03  0.17120000000E+03 0.  0.
        998    1    1    2    0    0  0.56036519941E+01 -0.14941883018E+01  0.14446966833E+04  0.14447429323E+04  0.10000000000E+02 0.  1.
</event>
<event>
 5    1  0.1300052E-008  0.3846017E+03  0.7957747E-01  0.3431363E+00
         13   -1    0    0    0    0  0.00000000000E+00  0.00000000000E+00  0.14999999963E+04  0.15000000000E+04  0.10566000000E+00 0.  1.
        994   -1    0    0    0    0 -0.00000000000E+00 -0.00000000000E+00  0.11368683772E-12  0.17120000000E+03  0.17120000000E+03 0.  0.
         13    1    1    2    0    0  0.10334388556E+02  0.17222370995E+02  0.10184743388E+03  0.10380905837E+03  0.10566000000E+00 0.  1.
        994    1    1    2    0    0 -0.15466523386E+02 -0.17883550422E+02  0.36710439182E+01  0.17286396757E+03  0.17120000000E+03 0.  0.
        998    1    1    2    0    0  0.51321348297E+01  0.66117942671E+00  0.13944815185E+04  0.13945269741E+04  0.10000000000E+02 0.  1.
</event>
<event>
 5    1  0.1300052E-008  0.3753830E+03  0.7957747E-01  0.3471511E+00
         13   -1    0    0    0    0  0.00000000000E+00  0.00000000000E+00  0.14999999963E+04  0.15000000000E+04  0.10566000000E+00 0. -1.
        994   -1    0    0    0    0 -0.00000000000E+00 -0.00000000000E+00  0.11368683772E-12  0.17120000000E+03  0.17120000000E+03 0.  0.
         13    1    1    2    0    0 -0.71254086679E+00  0.45169092366E+02  0.16287046307E+03  0.16901938802E+03  0.10566000000E+00 0. -1.
        994    1    1    2    0    0 -0.37606223279E+02 -0.19601824436E+02  0.12612130898E+02  0.17682467417E+03  0.17120000000E+03 0.  0.
        998    1    1    2    0    0  0.38318764146E+02 -0.25567267929E+02  0.13245174023E+04  0.13253559378E+04  0.10000000000E+02 0. -1.
</event>
<event>
 5    1  0.1300052E-008  0.3741861E+03  0.7957747E-01  0.3476871E+00
         13   -1    0    0    0    0  0.00000000000E+00  0.00000000000E+00  0.14999999963E+04  0.15000000000E+04  0.10566000000E+00 0. -1.
        994   -1    0    0    0    0 -0.00000000000E+00 -0.00000000000E+00  0.11368683772E-12  0.17120000000E+03  0.17120000000E+03 0.  0.
         13    1    1    2    0    0  0.57019945518E+02 -0.18180684201E+02  0.21654654403E+03  0.22466470207E+03  0.10566000000E+00 0. -1.
        994    1    1    2    0    0 -0.45406495524E+02  0.55258519737E+02  0.24738250708E+02  0.18718086143E+03  0.17120000000E+03 0.  0.
        998    1    1    2    0    0 -0.11613449994E+02 -0.37077835536E+02  0.12587152015E+04  0.12593544365E+04  0.10000000000E+02 0. -1.
</event>
<event>
 5    1  0.1300052E-008  0.3844300E+03  0.7957747E-01  0.3432093E+00
         13   -1    0    0    0    0  0.00000000000E+00  0.00000000000E+00  0.14999999963E+04  0.15000000000E+04  0.10566000000E+00 0. -1.
        994   -1    0    0    0    0 -0.00000000000E+00 -0.00000000000E+00  0.11368683772E-12  0.17120000000E+03  0.17120000000E+03 0.  0.
         13    1    1    2    0    0 -0.21013462887E+01  0.17105148748E+02  0.78722120889E+02  0.80586507873E+02  0.10566000000E+00 0. -1.
        994    1    1    2    0    0 -0.39997365811E+01 -0.90357041148E+01  0.22351737998E+01  0.17149949809E+03  0.17120000000E+03 0.  0.
        998    1    1    2    0    0  0.61010828698E+01 -0.80694446333E+01  0.14190427016E+04  0.14191139940E+04  0.10000000000E+02 0. -1.
</event>
<event>
 5    1  0.1300052E-008  0.3828591E+03  0.7957747E-01  0.3438803E+00
         13   -1    0    0    0    0  0.00000000000E+00  0.00000000000E+00  0.14999999963E+04  0.15000000000E+04  0.10566000000E+00 0.  1.
        994   -1    0    0    0    0 -0.00000000000E+00 -0.00000000000E+00  0.11368683772E-12  0.17120000000E+03  0.17120000000E+03 0.  0.
         13    1    1    2    0    0  0.91014581952E+01 -0.64488375740E+01  0.21824735961E+02  0.24510289903E+02  0.10566000000E+00 0.  1.
        994    1    1    2    0    0 -0.85089049349E+01  0.76644647492E+01  0.31312265407E+01  0.17161115949E+03  0.17120000000E+03 0.  0.
        998    1    1    2    0    0 -0.59255326031E+00 -0.12156271752E+01  0.14750440338E+04  0.14750785506E+04  0.10000000000E+02 0.  1.
</event>
<event>
 5    1  0.1300052E-008  0.3758567E+03  0.7957747E-01  0.3469400E+00
         13   -1    0    0    0    0  0.00000000000E+00  0.00000000000E+00  0.14999999963E+04  0.15000000000E+04  0.10566000000E+00 0. -1.
        994   -1    0    0    0    0 -0.00000000000E+00 -0.00000000000E+00  0.11368683772E-12  0.17120000000E+03  0.17120000000E+03 0.  0.
         13    1    1    2    0    0 -0.33213186067E-01 -0.20344244530E+02  0.30146985797E+02  0.36369510655E+02  0.10566000000E+00 0. -1.
        994    1    1    2    0    0  0.30646802428E+01  0.19420678106E+02  0.75507523466E+01  0.17249060515E+03  0.17120000000E+03 0.  0.
        998    1    1    2    0    0 -0.30314670568E+01  0.92356642388E+00  0.14623022581E+04  0.14623398842E+04  0.10000000000E+02 0. -1.
</event>
<event>
 5    1  0.1300052E-008  0.3798791E+03  0.7957747E-01  0.3451685E+00
         13   -1    0    0    0    0  0.00000000000E+00  0.00000000000E+00  0.14999999963E+04  0.15000000000E+04  0.10566000000E+00 0. -1.
        994   -1    0    0    0    0 -0.00000000000E+00 -0.00000000000E+00  0.11368683772E-12  0.17120000000E+03  0.17120000000E+03 0.  0.
         13    1    1    2    0    0 -0.81341290880E+02  0.25331379960E+02  0.20297286761E+03  0.22012741892E+03  0.10566000000E+00 0. -1.
        994    1    1    2    0    0  0.66879419404E+02 -0.18311842327E+02  0.33889097907E+02  0.18779268161E+03  0.17120000000E+03 0.  0.
        998    1    1    2    0    0  0.14461871476E+02 -0.70195376331E+01  0.12631380308E+04  0.12632798995E+04  0.10000000000E+02 0.  0.
</event>
<event>
 5    1  0.1300052E-008  0.3845305E+03  0.7957747E-01  0.3431666E+00
         13   -1    0    0    0    0  0.00000000000E+00  0.00000000000E+00  0.14999999963E+04  0.15000000000E+04  0.10566000000E+00 0.  1.
        994   -1    0    0    0    0 -0.00000000000E+00 -0.00000000000E+00  0.11368683772E-12  0.17120000000E+03  0.17120000000E+03 0.  0.
         13    1    1    2    0    0 -0.16402520302E+02 -0.16278348159E+02  0.13011057371E+03  0.13214688739E+03  0.10566000000E+00 0.  1.
        994    1    1    2    0    0  0.97905320434E+01  0.26902630484E+02  0.45675655933E+01  0.17363729064E+03  0.17120000000E+03 0.  0.
        998    1    1    2    0    0  0.66119882585E+01 -0.10624282325E+02  0.13653218570E+04  0.13654158220E+04  0.10000000000E+02 0.  1.
</event>
<event>
 5    1  0.1494254E-008  0.3861251E+03  0.7957747E-01  0.3424915E+00
         13   -1    0    0    0    0  0.00000000000E+00  0.00000000000E+00  0.14999999963E+04  0.15000000000E+04  0.10566000000E+00 0. -1.
        994   -1    0    0    0    0 -0.00000000000E+00 -0.00000000000E+00  0.11368683772E-12  0.17120000000E+03  0.17120000000E+03 0.  0.
         13    1    1    2    0    0  0.11459771756E+02 -0.27873389684E+01  0.61031318060E+02  0.62160506557E+02  0.10566000000E+00 0. -1.
        994    1    1    2    0    0 -0.19496405346E+02 -0.39021521448E+01  0.23690598258E+01  0.17236701847E+03  0.17120000000E+03 0.  0.
        998    1    1    2    0    0  0.80366335906E+01  0.66894911132E+01  0.14365996184E+04  0.14366724750E+04  0.10000000000E+02 0. -1.
</event>
<event>
 5    1  0.1300052E-008  0.3855859E+03  0.7957747E-01  0.3427191E+00
         13   -1    0    0    0    0  0.00000000000E+00  0.00000000000E+00  0.14999999963E+04  0.15000000000E+04  0.10566000000E+00 0. -1.
        994   -1    0    0    0    0 -0.00000000000E+00 -0.00000000000E+00  0.11368683772E-12  0.17120000000E+03  0.17120000000E+03 0.  0.
         13    1    1    2    0    0 -0.11617105401E+02  0.51790472284E+01  0.55848799319E+02  0.57278959641E+02  0.10566000000E+00 0. -1.
        994    1    1    2    0    0  0.19835726286E+02 -0.88082438039E+01  0.28872210819E+01  0.17259437199E+03  0.17120000000E+03 0.  0.
        998    1    1    2    0    0 -0.82186208847E+01  0.36291965755E+01  0.14412639759E+04  0.14413266684E+04  0.10000000000E+02 0. -1.
</event>
<event>
 5    1  0.1300052E-008  0.3909534E+03  0.7957747E-01  0.3404809E+00
         13   -1    0    0    0    0  0.00000000000E+00  0.00000000000E+00  0.14999999963E+04  0.15000000000E+04  0.10566000000E+00 0.  1.
        994   -1    0    0    0    0 -0.00000000000E+00 -0.00000000000E+00  0.11368683772E-12  0.17120000000E+03  0.17120000000E+03 0.  0.
         13    1    1    2    0    0  0.83647284947E+02  0.41844930731E+02  0.16635811076E+03  0.19084784172E+03  0.10566000000E+00 0.  1.
        994    1    1    2    0    0 -0.82161180421E+02 -0.46299359318E+02  0.56911791589E+02  0.20357426719E+03  0.17120000000E+03 0.  0.
        998    1    1    2    0    0 -0.14861045256E+01  0.44544285868E+01  0.12767300939E+04  0.12767778911E+04  0.10000000000E+02 0.  1.
</event>
<event>
 5    1  0.1300052E-008  0.3845478E+03  0.7957747E-01  0.3431592E+00
         13   -1    0    0    0    0  0.00000000000E+00  0.00000000000E+00  0.14999999963E+04  0.15000000000E+04  0.10566000000E+00 0. -1.
        994   -1    0    0    0    0 -0.00000000000E+00 -0.00000000000E+00  0.11368683772E-12  0.17120000000E+03  0.17120000000E+03 0.  0.
         13    1    1    2    0    0  0.11111439246E+02  0.20869353310E+02  0.12863384565E+03  0.13078865165E+03  0.10566000000E+00 0. -1.
        994    1    1    2    0    0 -0.86877541593E+00 -0.38279577974E+02  0.66982894305E+01  0.17555736368E+03  0.17120000000E+03 0.  0.
        998    1    1    2    0    0 -0.10242663830E+02  0.17410224664E+02  0.13646678612E+04  0.13648539847E+04  0.10000000000E+02 0. -1.
</event>
<event>
 5    1  0.1300052E-008  0.3801328E+03  0.7957747E-01  0.3450581E+00
         13   -1    0    0    0    0  0.00000000000E+00  0.00000000000E+00  0.14999999963E+04  0.15000000000E+04  0.10566000000E+00 0. -1.
        994   -1    0    0    0    0 -0.00000000000E+00 -0.00000000000E+00  0.11368683772E-12  0.17120000000E+03  0.17120000000E+03 0.  0.
         13    1    1    2    0    0  0.11505145084E+02  0.65866110873E+01  0.19505624149E+02  0.23584578574E+02  0.10566000000E+00 0. -1.
        994    1    1    2    0    0 -0.14422443152E+02 -0.91867876360E+01  0.50437922890E+01  0.17212577894E+03  0.17120000000E+03 0.  0.
        998    1    1    2    0    0  0.29172980685E+01  0.26001765487E+01  0.14754505798E+04  0.14754896425E+04  0.10000000000E+02 0. -1.
</event>
<event>
 5    1  0.1300052E-008  0.3826171E+03  0.7957747E-01  0.3439842E+00
         13   -1    0    0    0    0  0.00000000000E+00  0.00000000000E+00  0.14999999963E+04  0.15000000000E+04  0.10566000000E+00 0. -1.
        994   -1    0    0    0    0 -0.00000000000E+00 -0.00000000000E+00  0.11368683772E-12  0.17120000000E+03  0.17120000000E+03 0.  0.
         13    1    1    2    0    0  0.19199088746E+02  0.68782023863E+01  0.68559404492E+02  0.71528440393E+02  0.10566000000E+00 0. -1.
        994    1    1    2    0    0 -0.24060148646E+02 -0.79104405338E+01  0.49467208932E+01  0.17313398242E+03  0.17120000000E+03 0.  0.
        998    1    1    2    0    0  0.48610599001E+01  0.10322381474E+01  0.14264938709E+04  0.14265375772E+04  0.10000000000E+02 0. -1.
</event>
<event>
 5    1  0.1300052E-008  0.3857043E+03  0.7957747E-01  0.3426691E+00
         13   -1    0    0    0    0  0.00000000000E+00  0.00000000000E+00  0.14999999963E+04  0.15000000000E+04  0.10566000000E+00 0.  1.
        994   -1    0    0    0    0 -0.00000000000E+00 -0.00000000000E+00  0.11368683772E-12  0.17120000000E+03  0.17120000000E+03 0.  0.
         13    1    1    2    0    0  0.63701521949E+01  0.14294989647E+02  0.94606859118E+02  0.95892619758E+02  0.10566000000E+00 0.  1.
        994    1    1    2    0    0 -0.92365914763E+01 -0.92325873347E+01  0.18406976283E+01  0.17170726094E+03  0.17120000000E+03 0.  0.
        998    1    1    2    0    0  0.28664392814E+01 -0.50624023125E+01  0.14035524395E+04  0.14036001193E+04  0.10000000000E+02 0.  1.
</event>
<event>
 5    1  0.1300052E-008  0.3726878E+03  0.7957747E-01  0.3483629E+00
         13   -1    0    0    0    0  0.00000000000E+00  0.00000000000E+00  0.14999999963E+04  0.15000000000E+04  0.10566000000E+00 0. -1.
        994   -1    0    0    0    0 -0.00000000000E+00 -0.00000000000E+00  0.11368683772E-12  0.17120000000E+03  0.17120000000E+03 0.  0.
         13    1    1    2    0    0 -0.11219841244E+02 -0.60261269962E+02  0.22096665953E+03  0.22931110152E+03  0.10566000000E+00 0. -1.
        994    1    1    2    0    0  0.20294792005E+02  0.44063657124E+02  0.15977106835E+02  0.17865663269E+03  0.17120000000E+03 0.  0.
        998    1    1    2    0    0 -0.90749507606E+01  0.16197612837E+02  0.12630562299E+04  0.12632322658E+04  0.10000000000E+02 0. -1.
</event>
<event>
 5    1  0.1300052E-008  0.3771975E+03  0.7957747E-01  0.3463453E+00
         13   -1    0    0    0    0  0.00000000000E+00  0.00000000000E+00  0.14999999963E+04  0.15000000000E+04  0.10566000000E+00 0.  1.
        994   -1    0    0    0    0 -0.00000000000E+00 -0.00000000000E+00  0.11368683772E-12  0.17120000000E+03  0.17120000000E+03 0.  0.
         13    1    1    2    0    0  0.87277464906E+01 -0.11789567477E+02  0.16722099602E+02  0.22244263063E+02  0.10566000000E+00 0.  1.
        994    1    1    2    0    0 -0.37319508408E+01  0.17532432751E+02  0.66394951922E+01  0.17226385736E+03  0.17120000000E+03 0.  0.
        998    1    1    2    0    0 -0.49957956498E+01 -0.57428652737E+01  0.14766384015E+04  0.14766918796E+04  0.10000000000E+02 0.  1.
</event>
<event>
 5    1  0.1300052E-008  0.3819673E+03  0.7957747E-01  0.3442637E+00
         13   -1    0    0    0    0  0.00000000000E+00  0.00000000000E+00  0.14999999963E+04  0.15000000000E+04  0.10566000000E+00 0.  1.
        994   -1    0    0    0    0 -0.00000000000E+00 -0.00000000000E+00  0.11368683772E-12  0.17120000000E+03  0.17120000000E+03 0.  0.
         13    1    1    2    0    0  0.40439615526E+01  0.16972987683E+02  0.50918756081E+02  0.53825336235E+02  0.10566000000E+00 0.  1.
        994    1    1    2    0    0  0.25997806418E+01  0.51638666397E+01  0.32543748528E+01  0.17132850123E+03  0.17120000000E+03 0.  0.
        998    1    1    2    0    0 -0.66437421944E+01 -0.22136854322E+02  0.14458268653E+04  0.14460461625E+04  0.10000000000E+02 0.  1.
</event>
<event>
 5    1  0.1300052E-008  0.3794600E+03  0.7957747E-01  0.3453513E+00
         13   -1    0    0    0    0  0.00000000000E+00  0.00000000000E+00  0.14999999963E+04  0.15000000000E+04  0.10566000000E+00 0. -1.
        994   -1    0    0    0    0 -0.00000000000E+00 -0.00000000000E+00  0.11368683772E-12  0.17120000000E+03  0.17120000000E+03 0.  0.
         13    1    1    2    0    0 -0.95493358130E+02 -0.11817375458E+03  0.75022187835E+03  0.76545208579E+03  0.10566000000E+00 0. -1.
        994    1    1    2    0    0  0.10262754967E+03  0.14330537478E+03  0.11665110828E+03  0.27200324530E+03  0.17120000000E+03 0.  0.
        998    1    1    2    0    0 -0.71341915367E+01 -0.25131620206E+02  0.63312700965E+03  0.63374466891E+03  0.10000000000E+02 0. -1.
</event>
<event>
 5    1  0.1300052E-008  0.3006585E+03  0.7957747E-01  0.3891329E+00
         13   -1    0    0    0    0  0.00000000000E+00  0.00000000000E+00  0.14999999963E+04  0.15000000000E+04  0.10566000000E+00 0.  1.
        994   -1    0    0    0    0 -0.00000000000E+00 -0.00000000000E+00  0.11368683772E-12  0.17120000000E+03  0.17120000000E+03 0.  0.
         13    1    1    2    0    0  0.19343293747E+03  0.46891991567E+02  0.71464985802E+03  0.74184876552E+03  0.10566000000E+00 0.  1.
        994    1    1    2    0    0 -0.13193026047E+03 -0.49924691314E+02  0.10373037287E+03  0.24488262226E+03  0.17120000000E+03 0.  0.
        998    1    1    2    0    0 -0.61502677003E+02  0.30326997472E+01  0.68161976539E+03  0.68446861222E+03  0.10000000000E+02 0. -1.
</event>
<event>
 5    1  0.1300052E-008  0.3825994E+03  0.7957747E-01  0.3439918E+00
         13   -1    0    0    0    0  0.00000000000E+00  0.00000000000E+00  0.14999999963E+04  0.15000000000E+04  0.10566000000E+00 0. -1.
        994   -1    0    0    0    0 -0.00000000000E+00 -0.00000000000E+00  0.11368683772E-12  0.17120000000E+03  0.17120000000E+03 0.  0.
         13    1    1    2    0    0 -0.25202679219E+02 -0.20269677334E+02  0.15643875521E+03  0.15974708184E+03  0.10566000000E+00 0. -1.
        994    1    1    2    0    0  0.28601429688E+02  0.29749762197E+02  0.84921413114E+01  0.17630838493E+03  0.17120000000E+03 0.  0.
        998    1    1    2    0    0 -0.33987504685E+01 -0.94800848627E+01  0.13350690998E+04  0.13351445332E+04  0.10000000000E+02 0. -1.
</event>
<event>
 5    1  0.1300052E-008  0.3712240E+03  0.7957747E-01  0.3490284E+00
         13   -1    0    0    0    0  0.00000000000E+00  0.00000000000E+00  0.14999999963E+04  0.15000000000E+04  0.10566000000E+00 0. -1.
        994   -1    0    0    0    0 -0.00000000000E+00 -0.00000000000E+00  0.11368683772E-12  0.17120000000E+03  0.17120000000E+03 0.  0.
         13    1    1    2    0    0  0.21829004261E+02  0.27463933360E+02  0.71146334761E+02  0.79325816583E+02  0.10566000000E+00 0. -1.
        994    1    1    2    0    0 -0.94044303675E+01 -0.46600520318E+01  0.90100664923E+01  0.17175791305E+03  0.17120000000E+03 0.  0.
        998    1    1    2    0    0 -0.12424573893E+02 -0.22803881328E+02  0.14198435950E+04  0.14201162704E+04  0.10000000000E+02 0. -1.
</event>
<event>
 5    1  0.1300052E-008  0.3824274E+03  0.7957747E-01  0.3440657E+00
         13   -1    0    0    0    0  0.00000000000E+00  0.00000000000E+00  0.14999999963E+04  0.15000000000E+04  0.10566000000E+00 0. -1.
        994   -1    0    0    0    0 -0.00000000000E+00 -0.00000000000E+00  0.11368683772E-12  0.17120000000E+03  0.17120000000E+03 0.  0.
         13    1    1    2    0    0 -0.72679494873E+01 -0.21493876935E+02  0.91925427049E+02  0.94684239120E+02  0.10566000000E+00 0. -1.
        994    1    1    2    0    0  0.11193781875E+01  0.55083183978E+01  0.30176024772E+01  0.17131882706E+03  0.17120000000E+03 0.  0.
        998    1    1    2    0    0  0.61485712999E+01  0.15985558537E+02  0.14050569668E+04  0.14051969338E+04  0.10000000000E+02 0. -1.
</event>
<event>
 5    1  0.1300052E-008  0.3814724E+03  0.7957747E-01  0.3444772E+00
         13   -1    0    0    0    0  0.00000000000E+00  0.00000000000E+00  0.14999999963E+04  0.15000000000E+04  0.10566000000E+00 0.  1.
        994   -1    0    0    0    0 -0.00000000000E+00 -0.00000000000E+00  0.11368683772E-12  0.17120000000E+03  0.17120000000E+03 0.  0.
         13    1    1    2    0    0 -0.90035828573E+01  0.16775589831E+02  0.59840323021E+02  0.62796180949E+02  0.10566000000E+00 0.  1.
        994    1    1    2    0    0 -0.33832679492E+02  0.17225436060E+01  0.72189431139E+01  0.17466874505E+03  0.17120000000E+03 0.  0.
        998    1    1    2    0    0  0.42836262349E+02 -0.18498133437E+02  0.14329407301E+04  0.14337350740E+04  0.10000000000E+02 0.  1.
</event>
<event>
 5    1  0.1300052E-008  0.3805157E+03  0.7957747E-01  0.3448916E+00
         13   -1    0    0    0    0  0.00000000000E+00  0.00000000000E+00  0.14999999963E+04  0.15000000000E+04  0.10566000000E+00 0. -1.
        994   -1    0    0    0    0 -0.00000000000E+00 -0.00000000000E+00  0.11368683772E-12  0.17120000000E+03  0.17120000000E+03 0.  0.
         13    1    1    2    0    0  0.13580416413E+02 -0.78735698828E+01  0.29728558525E+02  0.33618732408E+02  0.10566000000E+00 0. -1.
        994    1    1    2    0    0 -0.12351050294E+02  0.11989316201E+02  0.48624400791E+01  0.17213185490E+03  0.17120000000E+03 0.  0.
        998    1    1    2    0    0 -0.12293661189E+01 -0.41157463187E+01  0.14654089977E+04  0.14654494127E+04  0.10000000000E+02 0. -1.
</event>
<event>
 5    1  0.1300052E-008  0.3862151E+03  0.7957747E-01  0.3424535E+00
         13   -1    0    0    0    0  0.00000000000E+00  0.00000000000E+00  0.14999999963E+04  0.15000000000E+04  0.10566000000E+00 0.  1.
        994   -1    0    0    0    0 -0.00000000000E+00 -0.00000000000E+00  0.11368683772E-12  0.17120000000E+03  0.17120000000E+03 0.  0.
         13    1    1    2    0    0 -0.10553099494E+02  0.50900392654E+00  0.55119085720E+02  0.56122649336E+02  0.10566000000E+00 0.  1.
        994    1    1    2    0    0  0.76734722871E+01  0.81438424740E+01  0.14383115617E+01  0.17157130613E+03  0.17120000000E+03 0.  0.
        998    1    1    2    0    0  0.28796272065E+01 -0.86528464005E+01  0.14434425990E+04  0.14435060445E+04  0.10000000000E+02 0.  1.
</event>
<event>
 5    1  0.1300052E-008  0.3803821E+03  0.7957747E-01  0.3449496E+00
         13   -1    0    0    0    0  0.00000000000E+00  0.00000000000E+00  0.14999999963E+04  0.15000000000E+04  0.10566000000E+00 0.  1.
        994   -1    0    0    0    0 -0.00000000000E+00 -0.00000000000E+00  0.11368683772E-12  0.17120000000E+03  0.17120000000E+03 0.  0.
         13    1    1    2    0    0 -0.30999806920E+01 -0.13526096720E+02  0.24166554437E+02  0.27867520345E+02  0.10566000000E+00 0.  1.
        994    1    1    2    0    0  0.24387548357E+01 -0.10890621142E+02  0.43563268997E+01  0.17161867829E+03  0.17120000000E+03 0.  0.
        998    1    1    2    0    0  0.66122585632E+00  0.24416717862E+02  0.14714771149E+04  0.14717138014E+04  0.10000000000E+02 0.  1.
</event>
<event>
 5    1  0.1300052E-008  0.3847868E+03  0.7957747E-01  0.3430577E+00
         13   -1    0    0    0    0  0.00000000000E+00  0.00000000000E+00  0.14999999963E+04  0.15000000000E+04  0.10566000000E+00 0.  1.
        994   -1    0    0    0    0 -0.00000000000E+00 -0.00000000000E+00  0.11368683772E-12  0.17120000000E+03  0.17120000000E+03 0.  0.
         13    1    1    2    0    0 -0.88337595753E+01 -0.13678734483E+02  0.63447987800E+02  0.65504209065E+02  0.10566000000E+00 0.  1.
        994    1    1    2    0    0  0.80877643529E+01  0.44977929082E+02  0.86393258510E+01  0.17740491534E+03  0.17120000000E+03 0.  0.
        998    1    1    2    0    0  0.74599522238E+00 -0.31299194599E+02  0.14279126826E+04  0.14282908756E+04  0.10000000000E+02 0.  1.
</event>
<event>
 5    1  0.1300052E-008  0.3859692E+03  0.7957747E-01  0.3425572E+00
         13   -1    0    0    0    0  0.00000000000E+00  0.00000000000E+00  0.14999999963E+04  0.15000000000E+04  0.10566000000E+00 0.  1.
        994   -1    0    0    0    0 -0.00000000000E+00 -0.00000000000E+00  0.11368683772E-12  0.17120000000E+03  0.17120000000E+03 0.  0.
         13    1    1    2    0    0  0.11604641980E+02 -0.40416420582E+01  0.69676465402E+02  0.70751845071E+02  0.10566000000E+00 0.  1.
        994    1    1    2    0    0 -0.38517750743E+01 -0.47383187942E+01  0.12719525516E+01  0.17131358878E+03  0.17120000000E+03 0.  0.
        998    1    1    2    0    0 -0.77528669060E+01  0.87799608524E+01  0.14290515783E+04  0.14291345662E+04  0.10000000000E+02 0.  1.
</event>
<event>
 5    1  0.1300052E-008  0.3742359E+03  0.7957747E-01  0.3476647E+00
         13   -1    0    0    0    0  0.00000000000E+00  0.00000000000E+00  0.14999999963E+04  0.15000000000E+04  0.10566000000E+00 0. -1.
        994   -1    0    0    0    0 -0.00000000000E+00 -0.00000000000E+00  0.11368683772E-12  0.17120000000E+03  0.17120000000E+03 0.  0.
         13    1    1    2    0    0 -0.51243849722E+01 -0.27151985492E+02  0.47844254024E+02  0.55250099046E+02  0.10566000000E+00 0. -1.
        994    1    1    2    0    0  0.49147704335E+01  0.40166279506E+02  0.12672663508E+02  0.17637324451E+03  0.17120000000E+03 0.  0.
        998    1    1    2    0    0  0.20961453869E+00 -0.13014294015E+02  0.14394830787E+04  0.14395766564E+04  0.10000000000E+02 0. -1.
</event>
<event>
 5    1  0.1300052E-008  0.3691978E+03  0.7957747E-01  0.3499586E+00
         13   -1    0    0    0    0  0.00000000000E+00  0.00000000000E+00  0.14999999963E+04  0.15000000000E+04  0.10566000000E+00 0.  1.
        994   -1    0    0    0    0 -0.00000000000E+00 -0.00000000000E+00  0.11368683772E-12  0.17120000000E+03  0.17120000000E+03 0.  0.
         13    1    1    2    0    0 -0.10169090645E+02  0.77822818199E+02  0.27699043904E+03  0.28789497377E+03  0.10566000000E+00 0.  1.
        994    1    1    2    0    0 -0.14109513351E+02 -0.55943916622E+02  0.22211711637E+02  0.18202087877E+03  0.17120000000E+03 0.  0.
        998    1    1    2    0    0  0.24278603996E+02 -0.21878901577E+02  0.12007978456E+04  0.12012841475E+04  0.10000000000E+02 0.  1.
</event>
<event>
 5    1  0.1300052E-008  0.3841910E+03  0.7957747E-01  0.3433111E+00
         13   -1    0    0    0    0  0.00000000000E+00  0.00000000000E+00  0.14999999963E+04  0.15000000000E+04  0.10566000000E+00 0. -1.
        994   -1    0    0    0    0 -0.00000000000E+00 -0.00000000000E+00  0.11368683772E-12  0.17120000000E+03  0.17120000000E+03 0.  0.
         13    1    1    2    0    0 -0.17663569987E+02 -0.77581308208E+01  0.10557025784E+03  0.10731859486E+03  0.10566000000E+00 0. -1.
        994    1    1    2    0    0 -0.10442368311E+02  0.59641457483E+01  0.25093125147E+01  0.17164017810E+03  0.17120000000E+03 0.  0.
        998    1    1    2    0    0  0.28105938298E+02  0.17939850725E+01  0.13919204259E+04  0.13922412270E+04  0.10000000000E+02 0. -1.
</event>
<event>
 5    1  0.1300052E-008  0.3852765E+03  0.7957747E-01  0.3428500E+00
         13   -1    0    0    0    0  0.00000000000E+00  0.00000000000E+00  0.14999999963E+04  0.15000000000E+04  0.10566000000E+00 0.  1.
        994   -1    0    0    0    0 -0.00000000000E+00 -0.00000000000E+00  0.11368683772E-12  0.17120000000E+03  0.17120000000E+03 0.  0.
         13    1    1    2    0    0 -0.74776658276E+01 -0.94236271138E+01  0.52426151075E+02  0.53788778707E+02  0.10566000000E+00 0.  1.
        994    1    1    2    0    0  0.22499315597E+01 -0.77043060130E+01  0.17046100732E+01  0.17139651169E+03  0.17120000000E+03 0.  0.
        998    1    1    2    0    0  0.52277342679E+01  0.17127933127E+02  0.14458692351E+04  0.14460147096E+04  0.10000000000E+02 0.  1.
</event>
<event>
 5    1  0.1300052E-008  0.3848128E+03  0.7957747E-01  0.3430466E+00
         13   -1    0    0    0    0  0.00000000000E+00  0.00000000000E+00  0.14999999963E+04  0.15000000000E+04  0.10566000000E+00 0.  1.
        994   -1    0    0    0    0 -0.00000000000E+00 -0.00000000000E+00  0.11368683772E-12  0.17120000000E+03  0.17120000000E+03 0.  0.
         13    1    1    2    0    0  0.18440103001E+01  0.10800632920E+02  0.37367438433E+02  0.38940861117E+02  0.10566000000E+00 0.  1.
        994    1    1    2    0    0 -0.21113575411E+01  0.91820211071E+01  0.20152537326E+01  0.17147089721E+03  0.17120000000E+03 0.  0.
        998    1    1    2    0    0  0.26734724091E+00 -0.19982654027E+02  0.14606173041E+04  0.14607882417E+04  0.10000000000E+02 0.  1.
</event>
<event>
 5    1  0.1300052E-008  0.3878417E+03  0.7957747E-01  0.3417709E+00
         13   -1    0    0    0    0  0.00000000000E+00  0.00000000000E+00  0.14999999963E+04  0.15000000000E+04  0.10566000000E+00 0. -1.
        994   -1    0    0    0    0 -0.00000000000E+00 -0.00000000000E+00  0.11368683772E-12  0.17120000000E+03  0.17120000000E+03 0.  0.
         13    1    1    2    0    0 -0.51421890252E+02 -0.31926961100E+02  0.81344530158E+02  0.10139272850E+03  0.10566000000E+00 0. -1.
        994    1    1    2    0    0  0.54574419548E+02 -0.64863464943E+01  0.32060943289E+02  0.18264113459E+03  0.17120000000E+03 0.  0.
        998    1    1    2    0    0 -0.31525292966E+01  0.38413307594E+02  0.13865945228E+04  0.13871661369E+04  0.10000000000E+02 0. -1.
</event>
<event>
 5    1  0.1300052E-008  0.3816432E+03  0.7957747E-01  0.3444035E+00
         13   -1    0    0    0    0  0.00000000000E+00  0.00000000000E+00  0.14999999963E+04  0.15000000000E+04  0.10566000000E+00 0. -1.
        994   -1    0    0    0    0 -0.00000000000E+00 -0.00000000000E+00  0.11368683772E-12  0.17120000000E+03  0.17120000000E+03 0.  0.
         13    1    1    2    0    0 -0.17900209378E+02 -0.17977567992E+02  0.91982912502E+02  0.95417387321E+02  0.10566000000E+00 0. -1.
        994    1    1    2    0    0  0.16909051568E+02  0.17057363449E+02  0.52263211264E+01  0.17295555529E+03  0.17120000000E+03 0.  0.
        998    1    1    2    0    0  0.99115781043E+00  0.92020454273E+00  0.14027907626E+04  0.14028270574E+04  0.10000000000E+02 0.  0.
</event>
<event>
 5    1  0.1300052E-008  0.3818657E+03  0.7957747E-01  0.3443075E+00
         13   -1    0    0    0    0  0.00000000000E+00  0.00000000000E+00  0.14999999963E+04  0.15000000000E+04  0.10566000000E+00 0. -1.
        994   -1    0    0    0    0 -0.00000000000E+00 -0.00000000000E+00  0.11368683772E-12  0.17120000000E+03  0.17120000000E+03 0.  0.
         13    1    1    2    0    0  0.23526602301E+02  0.16251260009E+02  0.11921981752E+03  0.12260089935E+03  0.10566000000E+00 0. -1.
        994    1    1    2    0    0 -0.26985695218E+02 -0.90442022894E+01  0.58902162039E+01  0.17364953207E+03  0.17120000000E+03 0.  0.
        998    1    1    2    0    0  0.34590929165E+01 -0.72070577192E+01  0.13748899626E+04  0.13749495686E+04  0.10000000000E+02 0. -1.
</event>
<event>
 5    1  0.1665797E-008  0.3864220E+03  0.7957747E-01  0.3423664E+00
         13   -1    0    0    0    0  0.00000000000E+00  0.00000000000E+00  0.14999999963E+04  0.15000000000E+04  0.10566000000E+00 0. -1.
        994   -1    0    0    0    0 -0.00000000000E+00 -0.00000000000E+00  0.11368683772E-12  0.17120000000E+03  0.17120000000E+03 0.  0.
         13    1    1    2    0    0 -0.30550750222E+01  0.10785820129E+02  0.66913768393E+02  0.67846377677E+02  0.10566000000E+00 0. -1.
        994    1    1    2    0    0  0.41513450513E+01 -0.10770167316E+02  0.13620190294E+01  0.17159407118E+03  0.17120000000E+03 0.  0.
        998    1    1    2    0    0 -0.10962700291E+01 -0.15652813065E-01  0.14317242089E+04  0.14317595511E+04  0.10000000000E+02 0.  0.
</event>
<event>
 5    1  0.1300052E-008  0.3846460E+03  0.7957747E-01  0.3431175E+00
         13   -1    0    0    0    0  0.00000000000E+00  0.00000000000E+00  0.14999999963E+04  0.15000000000E+04  0.10566000000E+00 0. -1.
        994   -1    0    0    0    0 -0.00000000000E+00 -0.00000000000E+00  0.11368683772E-12  0.17120000000E+03  0.17120000000E+03 0.  0.
         13    1    1    2    0    0  0.23322725092E+01  0.16060015816E+02  0.72222754428E+02  0.74023651789E+02  0.10566000000E+00 0. -1.
        994    1    1    2    0    0 -0.10630129147E+02 -0.10426007048E+02  0.25362519823E+01  0.17186498725E+03  0.17120000000E+03 0.  0.
        998    1    1    2    0    0  0.82978566376E+01 -0.56340087674E+01  0.14252409899E+04  0.14253113610E+04  0.10000000000E+02 0. -1.
</event>
<event>
 5    1  0.1300052E-008  0.3858198E+03  0.7957747E-01  0.3426203E+00
         13   -1    0    0    0    0  0.00000000000E+00  0.00000000000E+00  0.14999999963E+04  0.15000000000E+04  0.10566000000E+00 0. -1.
        994   -1    0    0    0    0 -0.00000000000E+00 -0.00000000000E+00  0.11368683772E-12  0.17120000000E+03  0.17120000000E+03 0.  0.
         13    1    1    2    0    0  0.12010147861E+02 -0.56910346237E+01  0.75545520532E+02  0.76705725752E+02  0.10566000000E+00 0. -1.
        994    1    1    2    0    0 -0.49864623080E+01 -0.89822140144E+00  0.13078722319E+01  0.17127995253E+03  0.17120000000E+03 0.  0.
        998    1    1    2    0    0 -0.70236855526E+01  0.65892560251E+01  0.14231466035E+04  0.14232143217E+04  0.10000000000E+02 0. -1.
</event>
<event>
 5    1  0.1300052E-008  0.3834828E+03  0.7957747E-01  0.3436132E+00
         13   -1    0    0    0    0  0.00000000000E+00  0.00000000000E+00  0.14999999963E+04  0.15000000000E+04  0.10566000000E+00 0. -1.
        994   -1    0    0    0    0 -0.00000000000E+00 -0.00000000000E+00  0.11368683772E-12  0.17120000000E+03  0.17120000000E+03 0.  0.
         13    1    1    2    0    0 -0.14892697051E+02 -0.17716896847E+02  0.12943622784E+03  0.13148927371E+03  0.10566000000E+00 0. -1.
        994    1    1    2    0    0  0.12766783277E+02 -0.16256924124E+02  0.37986574289E+01  0.17248521135E+03  0.17120000000E+03 0.  0.
        998    1    1    2    0    0  0.21259137742E+01  0.33973820971E+02  0.13667651110E+04  0.13672255149E+04  0.10000000000E+02 0. -1.
</event>
<event>
 5    1  0.1300052E-008  0.3799320E+03  0.7957747E-01  0.3451455E+00
         13   -1    0    0    0    0  0.00000000000E+00  0.00000000000E+00  0.14999999963E+04  0.15000000000E+04  0.10566000000E+00 0.  1.
        994   -1    0    0    0    0 -0.00000000000E+00 -0.00000000000E+00  0.11368683772E-12  0.17120000000E+03  0.17120000000E+03 0.  0.
         13    1    1    2    0    0 -0.38424154776E+02 -0.17723804904E+02  0.18417106115E+03  0.18896967974E+03  0.10566000000E+00 0.  1.
        994    1    1    2    0    0  0.40752156600E+02  0.21263053379E+02  0.11264735661E+02  0.17762091649E+03  0.17120000000E+03 0.  0.
        998    1    1    2    0    0 -0.23280018237E+01 -0.35392484744E+01  0.13045641995E+04  0.13046094038E+04  0.10000000000E+02 0.  1.
</event>
<event>
 5    1  0.1300052E-008  0.3843544E+03  0.7957747E-01  0.3432415E+00
         13   -1    0    0    0    0  0.00000000000E+00  0.00000000000E+00  0.14999999963E+04  0.15000000000E+04  0.10566000000E+00 0. -1.
        994   -1    0    0    0    0 -0.00000000000E+00 -0.00000000000E+00  0.11368683772E-12  0.17120000000E+03  0.17120000000E+03 0.  0.
         13    1    1    2    0    0  0.75069329463E+00  0.25795565914E+02  0.15441794102E+03  0.15655953000E+03  0.10566000000E+00 0. -1.
        994    1    1    2    0    0 -0.81970445248E+00 -0.26586507032E+02  0.42861226857E+01  0.17330702559E+03  0.17120000000E+03 0.  0.
        998    1    1    2    0    0  0.69011157850E-01  0.79094111817E+00  0.13412959326E+04  0.13413334444E+04  0.10000000000E+02 0. -1.
</event>
<event>
 5    1  0.1300052E-008  0.3797948E+03  0.7957747E-01  0.3452053E+00
         13   -1    0    0    0    0  0.00000000000E+00  0.00000000000E+00  0.14999999963E+04  0.15000000000E+04  0.10566000000E+00 0. -1.
        994   -1    0    0    0    0 -0.00000000000E+00 -0.00000000000E+00  0.11368683772E-12  0.17120000000E+03  0.17120000000E+03 0.  0.
         13    1    1    2    0    0  0.12584020571E+02 -0.27665046459E+01  0.17611420417E+02  0.21821650140E+02  0.10566000000E+00 0.  1.
        994    1    1    2    0    0 -0.13057779012E+02  0.20796168410E+01  0.48218325454E+01  0.17177753191E+03  0.17120000000E+03 0.  0.
        998    1    1    2    0    0  0.47375844100E+00  0.68688780492E+00  0.14775667433E+04  0.14776008180E+04  0.10000000000E+02 0. -1.
</event>
<event>
 5    1  0.1300052E-008  0.2513624E+03  0.7957747E-01  0.4318957E+00
         13   -1    0    0    0    0  0.00000000000E+00  0.00000000000E+00  0.14999999963E+04  0.15000000000E+04  0.10566000000E+00 0.  1.
        994   -1    0    0    0    0 -0.00000000000E+00 -0.00000000000E+00  0.11368683772E-12  0.17120000000E+03  0.17120000000E+03 0.  0.
         13    1    1    2    0    0 -0.50043966411E+02 -0.16932620161E+03  0.15937517506E+03  0.23785755971E+03  0.10566000000E+00 0.  1.
        994    1    1    2    0    0  0.49806163349E+02  0.18483562862E+03  0.31003175647E+03  0.40258414467E+03  0.17120000000E+03 0.  0.
        998    1    1    2    0    0  0.23780306255E+00 -0.15509427016E+02  0.10305930648E+04  0.10307582956E+04  0.10000000000E+02 0.  1.
</event>
<event>
 5    1  0.1300052E-008  0.3839326E+03  0.7957747E-01  0.3434212E+00
         13   -1    0    0    0    0  0.00000000000E+00  0.00000000000E+00  0.14999999963E+04  0.15000000000E+04  0.10566000000E+00 0. -1.
        994   -1    0    0    0    0 -0.00000000000E+00 -0.00000000000E+00  0.11368683772E-12  0.17120000000E+03  0.17120000000E+03 0.  0.
         13    1    1    2    0    0  0.20720584489E+02 -0.10604045729E+02  0.11231055113E+03  0.11469725135E+03  0.10566000000E+00 0. -1.
        994    1    1    2    0    0 -0.26226838773E+02  0.12761774743E+02  0.49734828636E+01  0.17373797944E+03  0.17120000000E+03 0.  0.
        998    1    1    2    0    0  0.55062542841E+01 -0.21577290134E+01  0.13827159623E+04  0.13827647692E+04  0.10000000000E+02 0. -1.
</event>
<event>
 5    1  0.1300052E-008  0.3836578E+03  0.7957747E-01  0.3435385E+00
         13   -1    0    0    0    0  0.00000000000E+00  0.00000000000E+00  0.14999999963E+04  0.15000000000E+04  0.10566000000E+00 0. -1.
        994   -1    0    0    0    0 -0.00000000000E+00 -0.00000000000E+00  0.11368683772E-12  0.17120000000E+03  0.17120000000E+03 0.  0.
         13    1    1    2    0    0 -0.93509996161E+01  0.14122569067E+02  0.64297214838E+02  0.66490835089E+02  0.10566000000E+00 0. -1.
        994    1    1    2    0    0  0.33992013903E+01 -0.24387302316E+01  0.23557845253E+01  0.17126731065E+03  0.17120000000E+03 0.  0.
        998    1    1    2    0    0  0.59517982258E+01 -0.11683838835E+02  0.14333469969E+04  0.14334418543E+04  0.10000000000E+02 0. -1.
</event>
<event>
 5    1  0.1459163E-008  0.3857049E+03  0.7957747E-01  0.3426688E+00
         13   -1    0    0    0    0  0.00000000000E+00  0.00000000000E+00  0.14999999963E+04  0.15000000000E+04  0.10566000000E+00 0.  1.
        994   -1    0    0    0    0 -0.00000000000E+00 -0.00000000000E+00  0.11368683772E-12  0.17120000000E+03  0.17120000000E+03 0.  0.
         13    1    1    2    0    0 -0.39289716125E+01 -0.11838705606E+02  0.59365482690E+02  0.60661878205E+02  0.10566000000E+00 0.  1.
        994    1    1    2    0    0  0.26652988567E+01  0.12642080127E+02  0.18284834818E+01  0.17169656188E+03  0.17120000000E+03 0.  0.
        998    1    1    2    0    0  0.12636727558E+01 -0.80337452172E+00  0.14388060301E+04  0.14388415599E+04  0.10000000000E+02 0.  1.
</event>
<event>
 5    1  0.1300052E-008  0.3853771E+03  0.7957747E-01  0.3428074E+00
         13   -1    0    0    0    0  0.00000000000E+00  0.00000000000E+00  0.14999999963E+04  0.15000000000E+04  0.10566000000E+00 0.  1.
        994   -1    0    0    0    0 -0.00000000000E+00 -0.00000000000E+00  0.11368683772E-12  0.17120000000E+03  0.17120000000E+03 0.  0.
         13    1    1    2    0    0  0.15843298387E+02  0.11644042568E+02  0.11236210111E+03  0.11406948216E+03  0.10566000000E+00 0.  1.
        994    1    1    2    0    0 -0.17710219138E+02 -0.32936747543E+02  0.60500590936E+01  0.17534116578E+03  0.17120000000E+03 0.  0.
        998    1    1    2    0    0  0.18669207517E+01  0.21292704975E+02  0.13815878361E+04  0.13817893521E+04  0.10000000000E+02 0.  1.
</event>
<event>
 5    1  0.1300052E-008  0.3832497E+03  0.7957747E-01  0.3437130E+00
         13   -1    0    0    0    0  0.00000000000E+00  0.00000000000E+00  0.14999999963E+04  0.15000000000E+04  0.10566000000E+00 0. -1.
        994   -1    0    0    0    0 -0.00000000000E+00 -0.00000000000E+00  0.11368683772E-12  0.17120000000E+03  0.17120000000E+03 0.  0.
         13    1    1    2    0    0  0.17334752171E+02  0.68809377476E+01  0.67878255552E+02  0.70393960522E+02  0.10566000000E+00 0. -1.
        994    1    1    2    0    0 -0.13549071409E+02 -0.56115347291E+01  0.32132809113E+01  0.17185700984E+03  0.17120000000E+03 0.  0.
        998    1    1    2    0    0 -0.37856807621E+01 -0.12694030185E+01  0.14289084598E+04  0.14289490296E+04  0.10000000000E+02 0. -1.
</event>
<event>
 5    1  0.1300052E-008  0.3860512E+03  0.7957747E-01  0.3425226E+00
         13   -1    0    0    0    0  0.00000000000E+00  0.00000000000E+00  0.14999999963E+04  0.15000000000E+04  0.10566000000E+00 0. -1.
        994   -1    0    0    0    0 -0.00000000000E+00 -0.00000000000E+00  0.11368683772E-12  0.17120000000E+03  0.17120000000E+03 0.  0.
         13    1    1    2    0    0  0.10482691329E+02 -0.68982619280E+01  0.73692354916E+02  0.74753241884E+02  0.10566000000E+00 0. -1.
        994    1    1    2    0    0  0.88036272624E+00  0.11171883608E+02  0.15208245608E+01  0.17157312997E+03  0.17120000000E+03 0.  0.
        998    1    1    2    0    0 -0.11363054055E+02 -0.42736216805E+01  0.14247868168E+04  0.14248736281E+04  0.10000000000E+02 0. -1.
</event>
<event>
 5    1  0.1300052E-008  0.3820935E+03  0.7957747E-01  0.3442093E+00
         13   -1    0    0    0    0  0.00000000000E+00  0.00000000000E+00  0.14999999963E+04  0.15000000000E+04  0.10566000000E+00 0. -1.
        994   -1    0    0    0    0 -0.00000000000E+00 -0.00000000000E+00  0.11368683772E-12  0.17120000000E+03  0.17120000000E+03 0.  0.
         13    1    1    2    0    0  0.14381767391E+02 -0.95541825146E+01  0.47321713160E+02  0.50373339549E+02  0.10566000000E+00 0. -1.
        994    1    1    2    0    0 -0.12879543061E+02  0.14547950894E+01  0.36380316455E+01  0.17172849016E+03  0.17120000000E+03 0.  0.
        998    1    1    2    0    0 -0.15022243300E+01  0.80993874251E+01  0.14490402515E+04  0.14490981703E+04  0.10000000000E+02 0. -1.
</event>
<event>
 5    1  0.1300052E-008  0.3849656E+03  0.7957747E-01  0.3429818E+00
         13   -1    0    0    0    0  0.00000000000E+00  0.00000000000E+00  0.14999999963E+04  0.15000000000E+04  0.10566000000E+00 0.  1.
        994   -1    0    0    0    0 -0.00000000000E+00 -0.00000000000E+00  0.11368683772E-12  0.17120000000E+03  0.17120000000E+03 0.  0.
         13    1    1    2    0    0 -0.77165861954E+01 -0.68234286579E+01  0.31908771208E+02  0.33530370192E+02  0.10566000000E+00 0.  1.
        994    1    1    2    0    0  0.68234243971E+01  0.36374778559E+01  0.18438804103E+01  0.17138445163E+03  0.17120000000E+03 0.  0.
        998    1    1    2    0    0  0.89316179828E+00  0.31859508020E+01  0.14662473447E+04  0.14662851782E+04  0.10000000000E+02 0.  1.
</event>
<event>
 5    1  0.1300052E-008  0.3987098E+03  0.7957747E-01  0.3373530E+00
         13   -1    0    0    0    0  0.00000000000E+00  0.00000000000E+00  0.14999999963E+04  0.15000000000E+04  0.10566000000E+00 0. -1.
        994   -1    0    0    0    0 -0.00000000000E+00 -0.00000000000E+00  0.11368683772E-12  0.17120000000E+03  0.17120000000E+03 0.  0.
         13    1    1    2    0    0  0.60963852986E+02  0.21258390466E+02  0.78327257917E+02  0.10150704918E+03  0.10566000000E+00 0. -1.
        994    1    1    2    0    0 -0.76523719537E+01  0.37548502806E+02  0.32748652821E+02  0.17846670031E+03  0.17120000000E+03 0.  0.
        998    1    1    2    0    0 -0.53311481033E+02 -0.58806893271E+02  0.13889240855E+04  0.13912262505E+04  0.10000000000E+02 0. -1.
</event>
<event>
 5    1  0.1300052E-008  0.3830709E+03  0.7957747E-01  0.3437895E+00
         13   -1    0    0    0    0  0.00000000000E+00  0.00000000000E+00  0.14999999963E+04  0.15000000000E+04  0.10566000000E+00 0. -1.
        994   -1    0    0    0    0 -0.00000000000E+00 -0.00000000000E+00  0.11368683772E-12  0.17120000000E+03  0.17120000000E+03 0.  0.
         13    1    1    2    0    0  0.15370812408E+02  0.19298227951E+01  0.47963045894E+02  0.50402887076E+02  0.10566000000E+00 0. -1.
        994    1    1    2    0    0  0.24276104153E+01 -0.90721522507E+01  0.28828580048E+01  0.17148162616E+03  0.17120000000E+03 0.  0.
        998    1    1    2    0    0 -0.17798422824E+02  0.71423294556E+01  0.14491540924E+04  0.14493154868E+04  0.10000000000E+02 0. -1.
</event>
<event>
 5    1  0.1300052E-008  0.3838088E+03  0.7957747E-01  0.3434740E+00
         13   -1    0    0    0    0  0.00000000000E+00  0.00000000000E+00  0.14999999963E+04  0.15000000000E+04  0.10566000000E+00 0. -1.
        994   -1    0    0    0    0 -0.00000000000E+00 -0.00000000000E+00  0.11368683772E-12  0.17120000000E+03  0.17120000000E+03 0.  0.
         13    1    1    2    0    0 -0.29268474991E+01 -0.21729505648E+02  0.10700220300E+03  0.10922554858E+03  0.10566000000E+00 0. -1.
        994    1    1    2    0    0  0.44643973026E+01  0.14021961413E+02  0.29379154231E+01  0.17185638653E+03  0.17120000000E+03 0.  0.
        998    1    1    2    0    0 -0.15375498035E+01  0.77075442347E+01  0.13900598779E+04  0.13901180649E+04  0.10000000000E+02 0. -1.
</event>
<event>
 5    1  0.1300052E-008  0.3839921E+03  0.7957747E-01  0.3433958E+00
         13   -1    0    0    0    0  0.00000000000E+00  0.00000000000E+00  0.14999999963E+04  0.15000000000E+04  0.10566000000E+00 0.  1.
        994   -1    0    0    0    0 -0.00000000000E+00 -0.00000000000E+00  0.11368683772E-12  0.17120000000E+03  0.17120000000E+03 0.  0.
         13    1    1    2    0    0 -0.20029018213E+02  0.10122504442E+01  0.10306563204E+03  0.10499867567E+03  0.10566000000E+00 0.  1.
        994    1    1    2    0    0 -0.66931013404E+00 -0.82368441345E+01  0.23567345690E+01  0.17141554123E+03  0.17120000000E+03 0.  0.
        998    1    1    2    0    0  0.20698328347E+02  0.72245936903E+01  0.13945776297E+04  0.13947857831E+04  0.10000000000E+02 0.  1.
</event>
<event>
 5    1  0.1300052E-008  0.3749691E+03  0.7957747E-01  0.3473361E+00
         13   -1    0    0    0    0  0.00000000000E+00  0.00000000000E+00  0.14999999963E+04  0.15000000000E+04  0.10566000000E+00 0. -1.
        994   -1    0    0    0    0 -0.00000000000E+00 -0.00000000000E+00  0.11368683772E-12  0.17120000000E+03  0.17120000000E+03 0.  0.
         13    1    1    2    0    0  0.12138564630E+03 -0.52667358617E+02  0.49641908833E+03  0.51375115398E+03  0.10566000000E+00 0. -1.
        994    1    1    2    0    0 -0.15784437154E+03  0.86002593627E+02  0.12592790941E+03  0.27834972626E+03  0.17120000000E+03 0.  0.
        998    1    1    2    0    0  0.36458725244E+02 -0.33335235010E+02  0.87765299853E+03  0.87909911976E+03  0.10000000000E+02 0. -1.
</event>
<event>
 5    1  0.1300052E-008  0.3818063E+03  0.7957747E-01  0.3443331E+00
         13   -1    0    0    0    0  0.00000000000E+00  0.00000000000E+00  0.14999999963E+04  0.15000000000E+04  0.10566000000E+00 0.  1.
        994   -1    0    0    0    0 -0.00000000000E+00 -0.00000000000E+00  0.11368683772E-12  0.17120000000E+03  0.17120000000E+03 0.  0.
         13    1    1    2    0    0  0.79988161645E+01  0.15346666243E+02  0.44908204442E+02  0.48127530739E+02  0.10566000000E+00 0.  1.
        994    1    1    2    0    0 -0.71832609655E+00 -0.15144622170E+02  0.39883809610E+01  0.17191632487E+03  0.17120000000E+03 0.  0.
        998    1    1    2    0    0 -0.72804900679E+01 -0.20204407343E+00  0.14511034109E+04  0.14511561444E+04  0.10000000000E+02 0.  1.
</event>
<event>
 5    1  0.1300052E-008  0.3772492E+03  0.7957747E-01  0.3463224E+00
         13   -1    0    0    0    0  0.00000000000E+00  0.00000000000E+00  0.14999999963E+04  0.15000000000E+04  0.10566000000E+00 0. -1.
        994   -1    0    0    0    0 -0.00000000000E+00 -0.00000000000E+00  0.11368683772E-12  0.17120000000E+03  0.17120000000E+03 0.  0.
         13    1    1    2    0    0  0.15919435492E+02  0.27268502436E+02  0.92936698410E+02  0.98154168158E+02  0.10566000000E+00 0. -1.
        994    1    1    2    0    0 -0.14982044757E+02 -0.11639287098E+00  0.62858574317E+01  0.17196926242E+03  0.17120000000E+03 0.  0.
        998    1    1    2    0    0 -0.93739073506E+00 -0.27152109565E+02  0.14007774404E+04  0.14010765694E+04  0.10000000000E+02 0. -1.
</event>
<event>
 5    1  0.1300052E-008  0.3837512E+03  0.7957747E-01  0.3434986E+00
         13   -1    0    0    0    0  0.00000000000E+00  0.00000000000E+00  0.14999999963E+04  0.15000000000E+04  0.10566000000E+00 0.  1.
        994   -1    0    0    0    0 -0.00000000000E+00 -0.00000000000E+00  0.11368683772E-12  0.17120000000E+03  0.17120000000E+03 0.  0.
         13    1    1    2    0    0 -0.86806163409E+01  0.12649610809E+02  0.50955172341E+02  0.53214720764E+02  0.10566000000E+00 0.  1.
        994    1    1    2    0    0  0.10086059795E+02 -0.91094505295E+01  0.28615842548E+01  0.17176245037E+03  0.17120000000E+03 0.  0.
        998    1    1    2    0    0 -0.14054434540E+01 -0.35401602791E+01  0.14461832397E+04  0.14462228289E+04  0.10000000000E+02 0.  1.
</event>
<event>
 5    1  0.1300052E-008  0.3830829E+03  0.7957747E-01  0.3437844E+00
         13   -1    0    0    0    0  0.00000000000E+00  0.00000000000E+00  0.14999999963E+04  0.15000000000E+04  0.10566000000E+00 0.  1.
        994   -1    0    0    0    0 -0.00000000000E+00 -0.00000000000E+00  0.11368683772E-12  0.17120000000E+03  0.17120000000E+03 0.  0.
         13    1    1    2    0    0  0.25468077644E+02  0.10953355798E+02  0.16285377613E+03  0.16519673890E+03  0.10566000000E+00 0.  1.
        994    1    1    2    0    0 -0.71811257547E+01  0.38639898448E+01  0.28050452192E+01  0.17141705651E+03  0.17120000000E+03 0.  0.
        998    1    1    2    0    0 -0.18286951890E+02 -0.14817345643E+02  0.13343411749E+04  0.13345862046E+04  0.10000000000E+02 0.  1.
</event>
<event>
 5    1  0.1300052E-008  0.3629240E+03  0.7957747E-01  0.3529056E+00
         13   -1    0    0    0    0  0.00000000000E+00  0.00000000000E+00  0.14999999963E+04  0.15000000000E+04  0.10566000000E+00 0. -1.
        994   -1    0    0    0    0 -0.00000000000E+00 -0.00000000000E+00  0.11368683772E-12  0.17120000000E+03  0.17120000000E+03 0.  0.
         13    1    1    2    0    0 -0.10186701987E+03 -0.20244645332E+03  0.11330235370E+04  0.11554669198E+04  0.10566000000E+00 0. -1.
        994    1    1    2    0    0  0.87239783253E+02  0.17994491192E+03  0.16272446799E+03  0.30948286478E+03  0.17120000000E+03 0.  0.
        998    1    1    2    0    0  0.14627236622E+02  0.22501541396E+02  0.20425199130E+03  0.20625021543E+03  0.10000000000E+02 0.  1.
</event>
<event>
 5    1  0.1300052E-008  0.3737243E+03  0.7957747E-01  0.3478948E+00
         13   -1    0    0    0    0  0.00000000000E+00  0.00000000000E+00  0.14999999963E+04  0.15000000000E+04  0.10566000000E+00 0.  1.
        994   -1    0    0    0    0 -0.00000000000E+00 -0.00000000000E+00  0.11368683772E-12  0.17120000000E+03  0.17120000000E+03 0.  0.
         13    1    1    2    0    0 -0.11031426540E+03  0.28244140252E+02  0.54209634271E+03  0.55392727370E+03  0.10566000000E+00 0.  1.
        994    1    1    2    0    0  0.11010825642E+03 -0.30603539385E+02  0.53323303629E+02  0.21263400355E+03  0.17120000000E+03 0.  0.
        998    1    1    2    0    0  0.20600897996E+00  0.23593991326E+01  0.90458034994E+03  0.90463872275E+03  0.10000000000E+02 0.  0.
</event>
<event>
 5    1  0.1300052E-008  0.3724687E+03  0.7957747E-01  0.3484622E+00
         13   -1    0    0    0    0  0.00000000000E+00  0.00000000000E+00  0.14999999963E+04  0.15000000000E+04  0.10566000000E+00 0.  1.
        994   -1    0    0    0    0 -0.00000000000E+00 -0.00000000000E+00  0.11368683772E-12  0.17120000000E+03  0.17120000000E+03 0.  0.
         13    1    1    2    0    0 -0.32979546933E+02  0.16389830372E+02  0.44987840326E+02  0.58139435814E+02  0.10566000000E+00 0.  1.
        994    1    1    2    0    0  0.79086534406E+02  0.67948366659E+01  0.34815873130E+02  0.19189172664E+03  0.17120000000E+03 0.  0.
        998    1    1    2    0    0 -0.46106987473E+02 -0.23184667038E+02  0.14201962828E+04  0.14211688376E+04  0.10000000000E+02 0.  1.
</event>
<event>
 5    1  0.1300052E-008  0.3847217E+03  0.7957747E-01  0.3430853E+00
         13   -1    0    0    0    0  0.00000000000E+00  0.00000000000E+00  0.14999999963E+04  0.15000000000E+04  0.10566000000E+00 0.  1.
        994   -1    0    0    0    0 -0.00000000000E+00 -0.00000000000E+00  0.11368683772E-12  0.17120000000E+03  0.17120000000E+03 0.  0.
         13    1    1    2    0    0  0.70243570614E+00  0.12602786361E+02  0.45535841818E+02  0.47253017830E+02  0.10566000000E+00 0.  1.
        994    1    1    2    0    0 -0.66247661808E+01 -0.51285794513E+01  0.19994320951E+01  0.17141653241E+03  0.17120000000E+03 0.  0.
        998    1    1    2    0    0  0.59223304747E+01 -0.74742069100E+01  0.14524647224E+04  0.14525304498E+04  0.10000000000E+02 0.  1.
</event>
<event>
 5    1  0.1300052E-008  0.3815272E+03  0.7957747E-01  0.3444536E+00
         13   -1    0    0    0    0  0.00000000000E+00  0.00000000000E+00  0.14999999963E+04  0.15000000000E+04  0.10566000000E+00 0.  1.
        994   -1    0    0    0    0 -0.00000000000E+00 -0.00000000000E+00  0.11368683772E-12  0.17120000000E+03  0.17120000000E+03 0.  0.
         13    1    1    2    0    0  0.13416795424E+02 -0.23526022948E+01  0.26648158257E+02  0.29927924077E+02  0.10566000000E+00 0.  1.
        994    1    1    2    0    0 -0.76507454281E+01 -0.15148719830E+02  0.43227744060E+01  0.17209341648E+03  0.17120000000E+03 0.  0.
        998    1    1    2    0    0 -0.57660499960E+01  0.17501322125E+02  0.14690290636E+04  0.14691786594E+04  0.10000000000E+02 0.  1.
</event>
<event>
 5    1  0.1300052E-008  0.3820723E+03  0.7957747E-01  0.3442185E+00
         13   -1    0    0    0    0  0.00000000000E+00  0.00000000000E+00  0.14999999963E+04  0.15000000000E+04  0.10566000000E+00 0.  1.
        994   -1    0    0    0    0 -0.00000000000E+00 -0.00000000000E+00  0.11368683772E-12  0.17120000000E+03  0.17120000000E+03 0.  0.
         13    1    1    2    0    0 -0.23902968786E+01 -0.24706406498E+02  0.11191605045E+03  0.11463565568E+03  0.10566000000E+00 0.  1.
        994    1    1    2    0    0 -0.87501991062E+01 -0.37925756480E+01  0.33927311500E+01  0.17149898029E+03  0.17120000000E+03 0.  0.
        998    1    1    2    0    0  0.11140495985E+02  0.28498982146E+02  0.13846912147E+04  0.13850653640E+04  0.10000000000E+02 0.  1.
</event>
<event>
 5    1  0.1300052E-008  0.3733831E+03  0.7957747E-01  0.3480486E+00
         13   -1    0    0    0    0  0.00000000000E+00  0.00000000000E+00  0.14999999963E+04  0.15000000000E+04  0.10566000000E+00 0.  1.
        994   -1    0    0    0    0 -0.00000000000E+00 -0.00000000000E+00  0.11368683772E-12  0.17120000000E+03  0.17120000000E+03 0.  0.
         13    1    1    2    0    0 -0.89152138685E+01  0.84624925084E+02  0.35790400835E+03  0.36788061832E+03  0.10566000000E+00 0.  1.
        994    1    1    2    0    0  0.17352003637E+02 -0.85417870291E+02  0.33940524248E+02  0.19508640081E+03  0.17120000000E+03 0.  0.
        998    1    1    2    0    0 -0.84367897688E+01  0.79294520667E+00  0.11081554637E+04  0.11082329809E+04  0.10000000000E+02 0.  1.
</event>
<event>
 5    1  0.1300052E-008  0.3840559E+03  0.7957747E-01  0.3433686E+00
         13   -1    0    0    0    0  0.00000000000E+00  0.00000000000E+00  0.14999999963E+04  0.15000000000E+04  0.10566000000E+00 0.  1.
        994   -1    0    0    0    0 -0.00000000000E+00 -0.00000000000E+00  0.11368683772E-12  0.17120000000E+03  0.17120000000E+03 0.  0.
         13    1    1    2    0    0 -0.51755941498E+01 -0.17491052399E+02  0.82209978154E+02  0.84209354356E+02  0.10566000000E+00 0.  1.
        994    1    1    2    0    0  0.39200461075E-01  0.53233661999E+01  0.21930893051E+01  0.17129678749E+03  0.17120000000E+03 0.  0.
        998    1    1    2    0    0  0.51363936888E+01  0.12167686200E+02  0.14155969288E+04  0.14156938582E+04  0.10000000000E+02 0.  1.
</event>
<event>
 5    1  0.1300052E-008  0.3793213E+03  0.7957747E-01  0.3454119E+00
         13   -1    0    0    0    0  0.00000000000E+00  0.00000000000E+00  0.14999999963E+04  0.15000000000E+04  0.10566000000E+00 0. -1.
        994   -1    0    0    0    0 -0.00000000000E+00 -0.00000000000E+00  0.11368683772E-12  0.17120000000E+03  0.17120000000E+03 0.  0.
         13    1    1    2    0    0 -0.40925634780E+01  0.94502513191E+01  0.98613911350E+01  0.14258840239E+02  0.10566000000E+00 0. -1.
        994    1    1    2    0    0  0.25904841326E+01 -0.65506219445E+01  0.46424334351E+01  0.17140774033E+03  0.17120000000E+03 0.  0.
        998    1    1    2    0    0  0.15020793455E+01 -0.28996293746E+01  0.14854961717E+04  0.14855334194E+04  0.10000000000E+02 0. -1.
</event>
<event>
 5    1  0.1300052E-008  0.3815244E+03  0.7957747E-01  0.3444548E+00
         13   -1    0    0    0    0  0.00000000000E+00  0.00000000000E+00  0.14999999963E+04  0.15000000000E+04  0.10566000000E+00 0. -1.
        994   -1    0    0    0    0 -0.00000000000E+00 -0.00000000000E+00  0.11368683772E-12  0.17120000000E+03  0.17120000000E+03 0.  0.
         13    1    1    2    0    0  0.79511465128E+01  0.10167397958E+02  0.23184020174E+02  0.26535008339E+02  0.10566000000E+00 0. -1.
        994    1    1    2    0    0 -0.39503037025E+01 -0.12659698742E+02  0.39507972834E+01  0.17175832344E+03  0.17120000000E+03 0.  0.
        998    1    1    2    0    0 -0.40008428103E+01  0.24923007843E+01  0.14728651788E+04  0.14729066682E+04  0.10000000000E+02 0. -1.
</event>
<event>
 5    1  0.1300052E-008  0.3788738E+03  0.7957747E-01  0.3456077E+00
         13   -1    0    0    0    0  0.00000000000E+00  0.00000000000E+00  0.14999999963E+04  0.15000000000E+04  0.10566000000E+00 0. -1.
        994   -1    0    0    0    0 -0.00000000000E+00 -0.00000000000E+00  0.11368683772E-12  0.17120000000E+03  0.17120000000E+03 0.  0.
         13    1    1    2    0    0  0.36107234877E+01  0.20708858140E+02  0.42514917036E+02  0.47428087292E+02  0.10566000000E+00 0. -1.
        994    1    1    2    0    0 -0.15613385023E+01 -0.32094075933E+02  0.81748379411E+01  0.17438100660E+03  0.17120000000E+03 0.  0.
        998    1    1    2    0    0 -0.20493849854E+01  0.11385217793E+02  0.14493102413E+04  0.14493909061E+04  0.10000000000E+02 0. -1.
</event>
<event>
 5    1  0.1300052E-008  0.3803974E+03  0.7957747E-01  0.3449430E+00
         13   -1    0    0    0    0  0.00000000000E+00  0.00000000000E+00  0.14999999963E+04  0.15000000000E+04  0.10566000000E+00 0. -1.
        994   -1    0    0    0    0 -0.00000000000E+00 -0.00000000000E+00  0.11368683772E-12  0.17120000000E+03  0.17120000000E+03 0.  0.
         13    1    1    2    0    0  0.21994929946E+01 -0.38921668876E+02  0.16480538022E+03  0.16935335423E+03  0.10566000000E+00 0. -1.
        994    1    1    2    0    0  0.14426419282E+02  0.46860984380E+02  0.12000803659E+02  0.17848678584E+03  0.17120000000E+03 0.  0.
        998    1    1    2    0    0 -0.16625912277E+02 -0.79393155034E+01  0.13231938124E+04  0.13233598599E+04  0.10000000000E+02 0. -1.
</event>
<event>
 5    1  0.1300052E-008  0.3856011E+03  0.7957747E-01  0.3427127E+00
         13   -1    0    0    0    0  0.00000000000E+00  0.00000000000E+00  0.14999999963E+04  0.15000000000E+04  0.10566000000E+00 0.  1.
        994   -1    0    0    0    0 -0.00000000000E+00 -0.00000000000E+00  0.11368683772E-12  0.17120000000E+03  0.17120000000E+03 0.  0.
         13    1    1    2    0    0  0.21958188265E+01 -0.23754025847E+02  0.14053275693E+03  0.14254312435E+03  0.10566000000E+00 0.  1.
        994    1    1    2    0    0  0.44703312238E+02  0.69291025282E+02  0.23977272202E+02  0.19153062912E+03  0.17120000000E+03 0.  0.
        998    1    1    2    0    0 -0.46899131065E+02 -0.45536999435E+02  0.13354899671E+04  0.13371262465E+04  0.10000000000E+02 0.  1.
</event>
<event>
 5    1  0.1300052E-008  0.3862176E+03  0.7957747E-01  0.3424524E+00
         13   -1    0    0    0    0  0.00000000000E+00  0.00000000000E+00  0.14999999963E+04  0.15000000000E+04  0.10566000000E+00 0. -1.
        994   -1    0    0    0    0 -0.00000000000E+00 -0.00000000000E+00  0.11368683772E-12  0.17120000000E+03  0.17120000000E+03 0.  0.
         13    1    1    2    0    0 -0.52564432535E+00  0.12149783107E+02  0.72663970794E+02  0.73674672359E+02  0.10566000000E+00 0. -1.
        994    1    1    2    0    0  0.33103741743E+01 -0.86804848858E+01  0.13095867244E+01  0.17145688791E+03  0.17120000000E+03 0.  0.
        998    1    1    2    0    0 -0.27847298490E+01 -0.34692982214E+01  0.14260264388E+04  0.14260684397E+04  0.10000000000E+02 0. -1.
</event>
<event>
 5    1  0.1300052E-008  0.3836421E+03  0.7957747E-01  0.3435452E+00
         13   -1    0    0    0    0  0.00000000000E+00  0.00000000000E+00  0.14999999963E+04  0.15000000000E+04  0.10566000000E+00 0. -1.
        994   -1    0    0    0    0 -0.00000000000E+00 -0.00000000000E+00  0.11368683772E-12  0.17120000000E+03  0.17120000000E+03 0.  0.
         13    1    1    2    0    0 -0.15131054897E+02 -0.19473538275E+02  0.12642212690E+03  0.12880501873E+03  0.10566000000E+00 0. -1.
        994    1    1    2    0    0  0.35319698490E+02 -0.44638287989E+00  0.64380729731E+01  0.17492446696E+03  0.17120000000E+03 0.  0.
        998    1    1    2    0    0 -0.20188643593E+02  0.19919921155E+02  0.13671397964E+04  0.13674705143E+04  0.10000000000E+02 0. -1.
</event>
<event>
 5    1  0.1300052E-008  0.3775762E+03  0.7957747E-01  0.3461781E+00
         13   -1    0    0    0    0  0.00000000000E+00  0.00000000000E+00  0.14999999963E+04  0.15000000000E+04  0.10566000000E+00 0.  1.
        994   -1    0    0    0    0 -0.00000000000E+00 -0.00000000000E+00  0.11368683772E-12  0.17120000000E+03  0.17120000000E+03 0.  0.
         13    1    1    2    0    0 -0.24110733209E+02 -0.26809227460E+02  0.11390421305E+03  0.11947486366E+03  0.10566000000E+00 0.  1.
        994    1    1    2    0    0  0.20215558485E+02  0.23833504869E+02  0.86601596261E+01  0.17424449238E+03  0.17120000000E+03 0.  0.
        998    1    1    2    0    0  0.38951747248E+01  0.29757225910E+01  0.13774356236E+04  0.13774806440E+04  0.10000000000E+02 0.  1.
</event>
<event>
 5    1  0.1300052E-008  0.3691845E+03  0.7957747E-01  0.3499647E+00
         13   -1    0    0    0    0  0.00000000000E+00  0.00000000000E+00  0.14999999963E+04  0.15000000000E+04  0.10566000000E+00 0. -1.
        994   -1    0    0    0    0 -0.00000000000E+00 -0.00000000000E+00  0.11368683772E-12  0.17120000000E+03  0.17120000000E+03 0.  0.
         13    1    1    2    0    0 -0.73636712126E+00 -0.16160694727E+02  0.86951982717E+01  0.18366489257E+02  0.10566000000E+00 0. -1.
        994    1    1    2    0    0  0.56834810079E+01  0.32042831549E+02  0.13376954134E+02  0.17477822494E+03  0.17120000000E+03 0.  0.
        998    1    1    2    0    0 -0.49471138866E+01 -0.15882136822E+02  0.14779278439E+04  0.14780552858E+04  0.10000000000E+02 0. -1.
</event>
<event>
 5    1  0.1300052E-008  0.3800833E+03  0.7957747E-01  0.3450796E+00
         13   -1    0    0    0    0  0.00000000000E+00  0.00000000000E+00  0.14999999963E+04  0.15000000000E+04  0.10566000000E+00 0. -1.
        994   -1    0    0    0    0 -0.00000000000E+00 -0.00000000000E+00  0.11368683772E-12  0.17120000000E+03  0.17120000000E+03 0.  0.
         13    1    1    2    0    0  0.17118563042E+02 -0.36578678704E+02  0.19305108943E+03  0.19723026956E+03  0.10566000000E+00 0. -1.
        994    1    1    2    0    0 -0.58710771119E+01  0.26904679394E+02  0.66295480708E+01  0.17352729534E+03  0.17120000000E+03 0.  0.
        998    1    1    2    0    0 -0.11247485930E+02  0.96739993098E+01  0.13003193588E+04  0.13004424351E+04  0.10000000000E+02 0. -1.
</event>
<event>
 5    1  0.1300052E-008  0.3706693E+03  0.7957747E-01  0.3492821E+00
         13   -1    0    0    0    0  0.00000000000E+00  0.00000000000E+00  0.14999999963E+04  0.15000000000E+04  0.10566000000E+00 0.  1.
        994   -1    0    0    0    0 -0.00000000000E+00 -0.00000000000E+00  0.11368683772E-12  0.17120000000E+03  0.17120000000E+03 0.  0.
         13    1    1    2    0    0  0.10554155629E+03 -0.21607475966E+02  0.54973198750E+03  0.56018851503E+03  0.10566000000E+00 0.  1.
        994    1    1    2    0    0 -0.64409879209E+02 -0.26553358016E+02  0.28501253097E+02  0.18701731147E+03  0.17120000000E+03 0.  0.
        998    1    1    2    0    0 -0.41131677079E+02  0.48160833983E+02  0.92176675568E+03  0.92399417350E+03  0.10000000000E+02 0.  1.
</event>
<event>
 5    1  0.1300052E-008  0.3834931E+03  0.7957747E-01  0.3436088E+00
         13   -1    0    0    0    0  0.00000000000E+00  0.00000000000E+00  0.14999999963E+04  0.15000000000E+04  0.10566000000E+00 0. -1.
        994   -1    0    0    0    0 -0.00000000000E+00 -0.00000000000E+00  0.11368683772E-12  0.17120000000E+03  0.17120000000E+03 0.  0.
         13    1    1    2    0    0  0.85522026326E+01  0.10466889285E+02  0.35729047362E+02  0.38200417937E+02  0.10566000000E+00 0. -1.
        994    1    1    2    0    0 -0.10246302492E+02 -0.20420064557E+02  0.41070425261E+01  0.17276652902E+03  0.17120000000E+03 0.  0.
        998    1    1    2    0    0  0.16940998598E+01  0.99531752718E+01  0.14601639064E+04  0.14602330530E+04  0.10000000000E+02 0. -1.
</event>
<event>
 5    1  0.1300052E-008  0.3806072E+03  0.7957747E-01  0.3448519E+00
         13   -1    0    0    0    0  0.00000000000E+00  0.00000000000E+00  0.14999999963E+04  0.15000000000E+04  0.10566000000E+00 0.  1.
        994   -1    0    0    0    0 -0.00000000000E+00 -0.00000000000E+00  0.11368683772E-12  0.17120000000E+03  0.17120000000E+03 0.  0.
         13    1    1    2    0    0  0.80713598041E+01  0.20627193218E+02  0.68570106119E+01  0.23187447201E+02  0.10566000000E+00 0.  1.
        994    1    1    2    0    0 -0.85801881898E+00 -0.43503321405E+02  0.23568462398E+02  0.17820827026E+03  0.17120000000E+03 0.  0.
        998    1    1    2    0    0 -0.72133409851E+01  0.22876128187E+02  0.14695745233E+04  0.14698042825E+04  0.10000000000E+02 0.  1.
</event>
<event>
 5    1  0.1300052E-008  0.3783362E+03  0.7957747E-01  0.3458435E+00
         13   -1    0    0    0    0  0.00000000000E+00  0.00000000000E+00  0.14999999963E+04  0.15000000000E+04  0.10566000000E+00 0. -1.
        994   -1    0    0    0    0 -0.00000000000E+00 -0.00000000000E+00  0.11368683772E-12  0.17120000000E+03  0.17120000000E+03 0.  0.
         13    1    1    2    0    0  0.43711598421E+02  0.12872515908E+02  0.18571068051E+03  0.19121943814E+03  0.10566000000E+00 0. -1.
        994    1    1    2    0    0 -0.36781855643E+02 -0.29423368418E+02  0.12469599549E+02  0.17799879333E+03  0.17120000000E+03 0.  0.
        998    1    1    2    0    0 -0.69297427782E+01  0.16550852511E+02  0.13018197162E+04  0.13019817685E+04  0.10000000000E+02 0. -1.
</event>
<event>
 5    1  0.1300052E-008  0.3840441E+03  0.7957747E-01  0.3433736E+00
         13   -1    0    0    0    0  0.00000000000E+00  0.00000000000E+00  0.14999999963E+04  0.15000000000E+04  0.10566000000E+00 0. -1.
        994   -1    0    0    0    0 -0.00000000000E+00 -0.00000000000E+00  0.11368683772E-12  0.17120000000E+03  0.17120000000E+03 0.  0.
         13    1    1    2    0    0 -0.94323953261E+01  0.11006624060E+02  0.49523033308E+02  0.51600948120E+02  0.10566000000E+00 0. -1.
        994    1    1    2    0    0 -0.25407066695E+00 -0.12534707462E+02  0.26241587878E+01  0.17167850667E+03  0.17120000000E+03 0.  0.
        998    1    1    2    0    0  0.96864659931E+01  0.15280834018E+01  0.14478528042E+04  0.14479205452E+04  0.10000000000E+02 0. -1.
</event>
<event>
 5    1  0.1300052E-008  0.3842573E+03  0.7957747E-01  0.3432828E+00
         13   -1    0    0    0    0  0.00000000000E+00  0.00000000000E+00  0.14999999963E+04  0.15000000000E+04  0.10566000000E+00 0.  1.
        994   -1    0    0    0    0 -0.00000000000E+00 -0.00000000000E+00  0.11368683772E-12  0.17120000000E+03  0.17120000000E+03 0.  0.
         13    1    1    2    0    0  0.12066244611E+02  0.87757406898E+01  0.54436159711E+02  0.56443906064E+02  0.10566000000E+00 0.  1.
        994    1    1    2    0    0 -0.10707972864E+02 -0.71950577770E+01  0.25481856232E+01  0.17170428879E+03  0.17120000000E+03 0.  0.
        998    1    1    2    0    0 -0.13582717474E+01 -0.15806829127E+01  0.14430156509E+04  0.14430518051E+04  0.10000000000E+02 0.  1.
</event>
<event>
 5    1  0.1300052E-008  0.3756512E+03  0.7957747E-01  0.3470315E+00
         13   -1    0    0    0    0  0.00000000000E+00  0.00000000000E+00  0.14999999963E+04  0.15000000000E+04  0.10566000000E+00 0. -1.
        994   -1    0    0    0    0 -0.00000000000E+00 -0.00000000000E+00  0.11368683772E-12  0.17120000000E+03  0.17120000000E+03 0.  0.
         13    1    1    2    0    0  0.12023438960E+02  0.43047869055E+02  0.17045669557E+03  0.17621912026E+03  0.10566000000E+00 0. -1.
        994    1    1    2    0    0 -0.73597503525E+01 -0.81372825147E+01  0.67531046615E+01  0.17168408696E+03  0.17120000000E+03 0.  0.
        998    1    1    2    0    0 -0.46636886078E+01 -0.34910586540E+02  0.13227901960E+04  0.13232967928E+04  0.10000000000E+02 0. -1.
</event>
<event>
 5    1  0.1430217E-008  0.3859657E+03  0.7957747E-01  0.3425587E+00
         13   -1    0    0    0    0  0.00000000000E+00  0.00000000000E+00  0.14999999963E+04  0.15000000000E+04  0.10566000000E+00 0.  1.
        994   -1    0    0    0    0 -0.00000000000E+00 -0.00000000000E+00  0.11368683772E-12  0.17120000000E+03  0.17120000000E+03 0.  0.
         13    1    1    2    0    0 -0.14109905795E+02 -0.23557900647E+01  0.80452792011E+02  0.81714760569E+02  0.10566000000E+00 0.  1.
        994    1    1    2    0    0  0.25256343349E+02 -0.10346871921E+02  0.35974358062E+01  0.17339931425E+03  0.17120000000E+03 0.  0.
        998    1    1    2    0    0 -0.11146437553E+02  0.12702661985E+02  0.14159497685E+04  0.14160859252E+04  0.10000000000E+02 0.  1.
</event>
<event>
 5    1  0.1300052E-008  0.3763786E+03  0.7957747E-01  0.3467080E+00
         13   -1    0    0    0    0  0.00000000000E+00  0.00000000000E+00  0.14999999963E+04  0.15000000000E+04  0.10566000000E+00 0. -1.
        994   -1    0    0    0    0 -0.00000000000E+00 -0.00000000000E+00  0.11368683772E-12  0.17120000000E+03  0.17120000000E+03 0.  0.
         13    1    1    2    0    0 -0.30498541041E+02 -0.12539066070E+02  0.94829270564E+02  0.10039915788E+03  0.10566000000E+00 0. -1.
        994    1    1    2    0    0  0.12431625715E+02 -0.15688943686E+02  0.73293811307E+01  0.17252202207E+03  0.17120000000E+03 0.  0.
        998    1    1    2    0    0  0.18066915326E+02  0.28228009756E+02  0.13978413446E+04  0.13982788200E+04  0.10000000000E+02 0. -1.
</event>
<event>
 5    1  0.1300052E-008  0.3729208E+03  0.7957747E-01  0.3482574E+00
         13   -1    0    0    0    0  0.00000000000E+00  0.00000000000E+00  0.14999999963E+04  0.15000000000E+04  0.10566000000E+00 0. -1.
        994   -1    0    0    0    0 -0.00000000000E+00 -0.00000000000E+00  0.11368683772E-12  0.17120000000E+03  0.17120000000E+03 0.  0.
         13    1    1    2    0    0 -0.31482613407E+02  0.24709415520E+02  0.12070500134E+03  0.12716689300E+03  0.10566000000E+00 0. -1.
        994    1    1    2    0    0 -0.30798060028E+02 -0.12880598876E+02  0.11574805984E+02  0.17480802745E+03  0.17120000000E+03 0.  0.
        998    1    1    2    0    0  0.62280673435E+02 -0.11828816644E+02  0.13677201890E+04  0.13692250795E+04  0.10000000000E+02 0. -1.
</event>
<event>
 5    1  0.1300052E-008  0.3836335E+03  0.7957747E-01  0.3435488E+00
         13   -1    0    0    0    0  0.00000000000E+00  0.00000000000E+00  0.14999999963E+04  0.15000000000E+04  0.10566000000E+00 0.  1.
        994   -1    0    0    0    0 -0.00000000000E+00 -0.00000000000E+00  0.11368683772E-12  0.17120000000E+03  0.17120000000E+03 0.  0.
         13    1    1    2    0    0 -0.81437252946E+01 -0.79827939431E+01  0.27119126076E+02  0.29419439559E+02  0.10566000000E+00 0.  1.
        994    1    1    2    0    0 -0.14708033943E+00  0.15697642464E+02  0.31245802034E+01  0.17194662141E+03  0.17120000000E+03 0.  0.
        998    1    1    2    0    0  0.82908056341E+01 -0.77148485213E+01  0.14697562900E+04  0.14698339390E+04  0.10000000000E+02 0.  1.
</event>
<event>
 5    1  0.1300052E-008  0.3849192E+03  0.7957747E-01  0.3430015E+00
         13   -1    0    0    0    0  0.00000000000E+00  0.00000000000E+00  0.14999999963E+04  0.15000000000E+04  0.10566000000E+00 0.  1.
        994   -1    0    0    0    0 -0.00000000000E+00 -0.00000000000E+00  0.11368683772E-12  0.17120000000E+03  0.17120000000E+03 0.  0.
         13    1    1    2    0    0  0.12129202335E+02  0.46234846755E+01  0.51819182365E+02  0.53420342426E+02  0.10566000000E+00 0.  1.
        994    1    1    2    0    0 -0.39224007811E+01  0.28515502404E+00  0.17211466085E+01  0.17125381423E+03  0.17120000000E+03 0.  0.
        998    1    1    2    0    0 -0.82068015537E+01 -0.49086396995E+01  0.14464596673E+04  0.14465258433E+04  0.10000000000E+02 0.  1.
</event>
<event>
 5    1  0.1300052E-008  0.3821747E+03  0.7957747E-01  0.3441744E+00
         13   -1    0    0    0    0  0.00000000000E+00  0.00000000000E+00  0.14999999963E+04  0.15000000000E+04  0.10566000000E+00 0. -1.
        994   -1    0    0    0    0 -0.00000000000E+00 -0.00000000000E+00  0.11368683772E-12  0.17120000000E+03  0.17120000000E+03 0.  0.
         13    1    1    2    0    0 -0.42818493488E+01  0.10264443669E+02  0.19445846290E+02  0.22401900358E+02  0.10566000000E+00 0. -1.
        994    1    1    2    0    0 -0.31088672468E+01 -0.40766627650E+01  0.31266181027E+01  0.17130528298E+03  0.17120000000E+03 0.  0.
        998    1    1    2    0    0  0.73907165956E+01 -0.61877809035E+01  0.14774275319E+04  0.14774928167E+04  0.10000000000E+02 0. -1.
</event>
<event>
 5    1  0.1300052E-008  0.3848752E+03  0.7957747E-01  0.3430201E+00
         13   -1    0    0    0    0  0.00000000000E+00  0.00000000000E+00  0.14999999963E+04  0.15000000000E+04  0.10566000000E+00 0.  1.
        994   -1    0    0    0    0 -0.00000000000E+00 -0.00000000000E+00  0.11368683772E-12  0.17120000000E+03  0.17120000000E+03 0.  0.
         13    1    1    2    0    0  0.15382326300E+02 -0.49930845464E+01  0.78161943687E+02  0.79817588667E+02  0.10566000000E+00 0.  1.
        994    1    1    2    0    0 -0.21187602164E+01  0.24234942455E+02  0.36415906228E+01  0.17295815321E+03  0.17120000000E+03 0.  0.
        998    1    1    2    0    0 -0.13263566084E+02 -0.19241857909E+02  0.14181964620E+04  0.14184242581E+04  0.10000000000E+02 0.  1.
</event>
<event>
 5    1  0.1300052E-008  0.3823789E+03  0.7957747E-01  0.3440865E+00
         13   -1    0    0    0    0  0.00000000000E+00  0.00000000000E+00  0.14999999963E+04  0.15000000000E+04  0.10566000000E+00 0. -1.
        994   -1    0    0    0    0 -0.00000000000E+00 -0.00000000000E+00  0.11368683772E-12  0.17120000000E+03  0.17120000000E+03 0.  0.
         13    1    1    2    0    0 -0.16680835824E+02  0.83915747583E+01  0.57881549071E+02  0.60819024142E+02  0.10566000000E+00 0. -1.
        994    1    1    2    0    0  0.92455434039E+01 -0.13079144025E+02  0.37884385365E+01  0.17198934952E+03  0.17120000000E+03 0.  0.
        998    1    1    2    0    0  0.74352924202E+01  0.46875692672E+01  0.14383300087E+04  0.14383916263E+04  0.10000000000E+02 0. -1.
</event>
<event>
 5    1  0.1300052E-008  0.3791318E+03  0.7957747E-01  0.3454948E+00
         13   -1    0    0    0    0  0.00000000000E+00  0.00000000000E+00  0.14999999963E+04  0.15000000000E+04  0.10566000000E+00 0. -1.
        994   -1    0    0    0    0 -0.00000000000E+00 -0.00000000000E+00  0.11368683772E-12  0.17120000000E+03  0.17120000000E+03 0.  0.
         13    1    1    2    0    0  0.34372808506E+02  0.10820987203E+03  0.67993304630E+03  0.68934739064E+03  0.10566000000E+00 0. -1.
        994    1    1    2    0    0 -0.38881488514E+02 -0.11207640961E+03  0.53297890185E+02  0.21499534144E+03  0.17120000000E+03 0.  0.
        998    1    1    2    0    0  0.45086800078E+01  0.38665375841E+01  0.76676905980E+03  0.76685726792E+03  0.10000000000E+02 0.  0.
</event>
<event>
 5    1  0.1300052E-008  0.3886277E+03  0.7957747E-01  0.3414431E+00
         13   -1    0    0    0    0  0.00000000000E+00  0.00000000000E+00  0.14999999963E+04  0.15000000000E+04  0.10566000000E+00 0. -1.
        994   -1    0    0    0    0 -0.00000000000E+00 -0.00000000000E+00  0.11368683772E-12  0.17120000000E+03  0.17120000000E+03 0.  0.
         13    1    1    2    0    0  0.35230083969E+02  0.36028540392E+02  0.51728430763E+02  0.72215346378E+02  0.10566000000E+00 0. -1.
        994    1    1    2    0    0 -0.29552483662E+02 -0.30538492898E+02  0.27938429882E+02  0.17859435798E+03  0.17120000000E+03 0.  0.
        998    1    1    2    0    0 -0.56776003067E+01 -0.54900474941E+01  0.14203331356E+04  0.14203902956E+04  0.10000000000E+02 0. -1.
</event>
<event>
 5    1  0.1300052E-008  0.3839587E+03  0.7957747E-01  0.3434100E+00
         13   -1    0    0    0    0  0.00000000000E+00  0.00000000000E+00  0.14999999963E+04  0.15000000000E+04  0.10566000000E+00 0. -1.
        994   -1    0    0    0    0 -0.00000000000E+00 -0.00000000000E+00  0.11368683772E-12  0.17120000000E+03  0.17120000000E+03 0.  0.
         13    1    1    2    0    0 -0.77749723953E+01 -0.79460110004E+01  0.26905322900E+02  0.29111799170E+02  0.10566000000E+00 0. -1.
        994    1    1    2    0    0  0.10973073953E+02  0.16779666554E+02  0.34755245542E+01  0.17240500234E+03  0.17120000000E+03 0.  0.
        998    1    1    2    0    0 -0.31981015582E+01 -0.88336555533E+01  0.14696191488E+04  0.14696831985E+04  0.10000000000E+02 0. -1.
</event>
<event>
 5    1  0.1300052E-008  0.2125552E+03  0.7957747E-01  0.4823233E+00
         13   -1    0    0    0    0  0.00000000000E+00  0.00000000000E+00  0.14999999963E+04  0.15000000000E+04  0.10566000000E+00 0.  1.
        994   -1    0    0    0    0 -0.00000000000E+00 -0.00000000000E+00  0.11368683772E-12  0.17120000000E+03  0.17120000000E+03 0.  0.
         13    1    1    2    0    0  0.50994200787E+01 -0.13891374963E+03  0.13143860242E+03  0.19130904655E+03  0.10566000000E+00 0.  1.
        994    1    1    2    0    0 -0.70705056695E+02  0.35201745383E+02  0.11616061918E+03  0.22145224625E+03  0.17120000000E+03 0.  0.
        998    1    1    2    0    0  0.65605636617E+02  0.10371200424E+03  0.12524007747E+04  0.12584387072E+04  0.10000000000E+02 0.  1.
</event>
<event>
 5    1  0.1300052E-008  0.3751303E+03  0.7957747E-01  0.3472640E+00
         13   -1    0    0    0    0  0.00000000000E+00  0.00000000000E+00  0.14999999963E+04  0.15000000000E+04  0.10566000000E+00 0. -1.
        994   -1    0    0    0    0 -0.00000000000E+00 -0.00000000000E+00  0.11368683772E-12  0.17120000000E+03  0.17120000000E+03 0.  0.
         13    1    1    2    0    0  0.11389294181E+02 -0.68431030321E+02  0.31758733372E+03  0.32507575677E+03  0.10566000000E+00 0. -1.
        994    1    1    2    0    0 -0.19648867334E+02  0.54156426244E+02  0.17973577077E+02  0.18152544164E+03  0.17120000000E+03 0.  0.
        998    1    1    2    0    0  0.82595731535E+01  0.14274604077E+02  0.11644390855E+04  0.11645988016E+04  0.10000000000E+02 0. -1.
</event>
<event>
 5    1  0.1300052E-008  0.3807574E+03  0.7957747E-01  0.3447867E+00
         13   -1    0    0    0    0  0.00000000000E+00  0.00000000000E+00  0.14999999963E+04  0.15000000000E+04  0.10566000000E+00 0. -1.
        994   -1    0    0    0    0 -0.00000000000E+00 -0.00000000000E+00  0.11368683772E-12  0.17120000000E+03  0.17120000000E+03 0.  0.
         13    1    1    2    0    0 -0.15527718291E+02  0.52653431233E+01  0.35687887057E+02  0.39274295922E+02  0.10566000000E+00 0. -1.
        994    1    1    2    0    0  0.10996725286E+02  0.31439771091E+02  0.74594602085E+01  0.17456938655E+03  0.17120000000E+03 0.  0.
        998    1    1    2    0    0  0.45309930056E+01 -0.36705114215E+02  0.14568526490E+04  0.14573563175E+04  0.10000000000E+02 0. -1.
</event>
<event>
 5    1  0.1300052E-008  0.3699643E+03  0.7957747E-01  0.3496055E+00
         13   -1    0    0    0    0  0.00000000000E+00  0.00000000000E+00  0.14999999963E+04  0.15000000000E+04  0.10566000000E+00 0. -1.
        994   -1    0    0    0    0 -0.00000000000E+00 -0.00000000000E+00  0.11368683772E-12  0.17120000000E+03  0.17120000000E+03 0.  0.
         13    1    1    2    0    0  0.12034157559E+02 -0.13817957790E+02  0.10642635421E+02  0.21190416663E+02  0.10566000000E+00 0. -1.
        994    1    1    2    0    0 -0.87317480831E+01  0.53416344438E+01  0.11286288676E+02  0.17187669067E+03  0.17120000000E+03 0.  0.
        998    1    1    2    0    0 -0.33024094760E+01  0.84763233458E+01  0.14780710722E+04  0.14781328927E+04  0.10000000000E+02 0. -1.
</event>
<event>
 5    1  0.1300052E-008  0.3854608E+03  0.7957747E-01  0.3427720E+00
         13   -1    0    0    0    0  0.00000000000E+00  0.00000000000E+00  0.14999999963E+04  0.15000000000E+04  0.10566000000E+00 0.  1.
        994   -1    0    0    0    0 -0.00000000000E+00 -0.00000000000E+00  0.11368683772E-12  0.17120000000E+03  0.17120000000E+03 0.  0.
         13    1    1    2    0    0  0.47280667039E+01 -0.13147953590E+02  0.74143575176E+02  0.75448685888E+02  0.10566000000E+00 0.  1.
        994    1    1    2    0    0  0.77727668246E+01  0.43242188906E+01  0.16613605494E+01  0.17143895383E+03  0.17120000000E+03 0.  0.
        998    1    1    2    0    0 -0.12500833529E+02  0.88237346991E+01  0.14241950606E+04  0.14243123603E+04  0.10000000000E+02 0.  1.
</event>
<event>
 5    1  0.1300052E-008  0.3859911E+03  0.7957747E-01  0.3425480E+00
         13   -1    0    0    0    0  0.00000000000E+00  0.00000000000E+00  0.14999999963E+04  0.15000000000E+04  0.10566000000E+00 0.  1.
        994   -1    0    0    0    0 -0.00000000000E+00 -0.00000000000E+00  0.11368683772E-12  0.17120000000E+03  0.17120000000E+03 0.  0.
         13    1    1    2    0    0 -0.95631013518E+01  0.39797134818E+01  0.46895680409E+02  0.48026107815E+02  0.10566000000E+00 0.  1.
        994    1    1    2    0    0  0.54806891028E+01 -0.11700049303E+02  0.16862608731E+01  0.17169511520E+03  0.17120000000E+03 0.  0.
        998    1    1    2    0    0  0.40824122490E+01  0.77203358209E+01  0.14514180550E+04  0.14514787770E+04  0.10000000000E+02 0.  1.
</event>
<event>
 5    1  0.1300052E-008  0.3832985E+03  0.7957747E-01  0.3436921E+00
         13   -1    0    0    0    0  0.00000000000E+00  0.00000000000E+00  0.14999999963E+04  0.15000000000E+04  0.10566000000E+00 0. -1.
        994   -1    0    0    0    0 -0.00000000000E+00 -0.00000000000E+00  0.11368683772E-12  0.17120000000E+03  0.17120000000E+03 0.  0.
         13    1    1    2    0    0 -0.14586407401E+02  0.17554663563E+01  0.42107583164E+02  0.44597137430E+02  0.10566000000E+00 0. -1.
        994    1    1    2    0    0  0.14509521125E+02  0.46447524701E+01  0.32451624475E+01  0.17190715811E+03  0.17120000000E+03 0.  0.
        998    1    1    2    0    0  0.76886276176E-01 -0.64002188264E+01  0.14546472507E+04  0.14546957045E+04  0.10000000000E+02 0. -1.
</event>
<event>
 5    1  0.1300052E-008  0.3701569E+03  0.7957747E-01  0.3495170E+00
         13   -1    0    0    0    0  0.00000000000E+00  0.00000000000E+00  0.14999999963E+04  0.15000000000E+04  0.10566000000E+00 0. -1.
        994   -1    0    0    0    0 -0.00000000000E+00 -0.00000000000E+00  0.11368683772E-12  0.17120000000E+03  0.17120000000E+03 0.  0.
         13    1    1    2    0    0  0.50552711013E+02 -0.61715485377E+02  0.39741525250E+03  0.40534339986E+03  0.10566000000E+00 0. -1.
        994    1    1    2    0    0 -0.88302943779E+01 -0.32030202442E+01  0.11330504400E+02  0.17183146908E+03  0.17120000000E+03 0.  0.
        998    1    1    2    0    0 -0.41722416636E+02  0.64918505621E+02  0.10912542394E+04  0.10940251311E+04  0.10000000000E+02 0. -1.
</event>
<event>
 5    1  0.1300052E-008  0.3847265E+03  0.7957747E-01  0.3430833E+00
         13   -1    0    0    0    0  0.00000000000E+00  0.00000000000E+00  0.14999999963E+04  0.15000000000E+04  0.10566000000E+00 0.  1.
        994   -1    0    0    0    0 -0.00000000000E+00 -0.00000000000E+00  0.11368683772E-12  0.17120000000E+03  0.17120000000E+03 0.  0.
         13    1    1    2    0    0  0.10695334593E+02 -0.15290274389E+02  0.99436594467E+02  0.10117227958E+03  0.10566000000E+00 0.  1.
        994    1    1    2    0    0  0.83623364894E+00  0.13651137110E+02  0.23819005250E+01  0.17176194655E+03  0.17120000000E+03 0.  0.
        998    1    1    2    0    0 -0.11531568242E+02  0.16391372794E+01  0.13981815013E+04  0.13982657739E+04  0.10000000000E+02 0.  1.
</event>
<event>
 5    1  0.1300052E-008  0.3852587E+03  0.7957747E-01  0.3428576E+00
         13   -1    0    0    0    0  0.00000000000E+00  0.00000000000E+00  0.14999999963E+04  0.15000000000E+04  0.10566000000E+00 0. -1.
        994   -1    0    0    0    0 -0.00000000000E+00 -0.00000000000E+00  0.11368683772E-12  0.17120000000E+03  0.17120000000E+03 0.  0.
         13    1    1    2    0    0  0.13631628437E+02  0.73182150883E+01  0.84173576950E+02  0.85583758895E+02  0.10566000000E+00 0. -1.
        994    1    1    2    0    0 -0.68424330915E+00 -0.55875529505E+01  0.16059088506E+01  0.17130005219E+03  0.17120000000E+03 0.  0.
        998    1    1    2    0    0 -0.12947385128E+02 -0.17306621378E+01  0.14142205105E+04  0.14143161889E+04  0.10000000000E+02 0. -1.
</event>
<event>
 5    1  0.1300052E-008  0.3855150E+03  0.7957747E-01  0.3427491E+00
         13   -1    0    0    0    0  0.00000000000E+00  0.00000000000E+00  0.14999999963E+04  0.15000000000E+04  0.10566000000E+00 0. -1.
        994   -1    0    0    0    0 -0.00000000000E+00 -0.00000000000E+00  0.11368683772E-12  0.17120000000E+03  0.17120000000E+03 0.  0.
         13    1    1    2    0    0 -0.43771304317E+01  0.12153314506E+02  0.59657513422E+02  0.61040088434E+02  0.10566000000E+00 0. -1.
        994    1    1    2    0    0  0.18517378133E+00 -0.12714695055E+02  0.19057243708E+01  0.17168217597E+03  0.17120000000E+03 0.  0.
        998    1    1    2    0    0  0.41919566504E+01  0.56138054884E+00  0.14384367585E+04  0.14384777356E+04  0.10000000000E+02 0. -1.
</event>
<event>
 5    1  0.1300052E-008  0.3849111E+03  0.7957747E-01  0.3430049E+00
         13   -1    0    0    0    0  0.00000000000E+00  0.00000000000E+00  0.14999999963E+04  0.15000000000E+04  0.10566000000E+00 0. -1.
        994   -1    0    0    0    0 -0.00000000000E+00 -0.00000000000E+00  0.11368683772E-12  0.17120000000E+03  0.17120000000E+03 0.  0.
         13    1    1    2    0    0 -0.11422366439E+02 -0.63943689171E+01  0.53909036761E+02  0.55475704749E+02  0.10566000000E+00 0. -1.
        994    1    1    2    0    0  0.33860141069E+01 -0.71583297426E+01  0.18805884767E+01  0.17139335865E+03  0.17120000000E+03 0.  0.
        998    1    1    2    0    0  0.80363523322E+01  0.13552698660E+02  0.14442103710E+04  0.14443309366E+04  0.10000000000E+02 0. -1.
</event>
<event>
 5    1  0.1300052E-008  0.3853043E+03  0.7957747E-01  0.3428383E+00
         13   -1    0    0    0    0  0.00000000000E+00  0.00000000000E+00  0.14999999963E+04  0.15000000000E+04  0.10566000000E+00 0. -1.
        994   -1    0    0    0    0 -0.00000000000E+00 -0.00000000000E+00  0.11368683772E-12  0.17120000000E+03  0.17120000000E+03 0.  0.
         13    1    1    2    0    0 -0.14448793256E+02  0.99972694183E+01  0.83698546791E+02  0.85522926291E+02  0.10566000000E+00 0. -1.
        994    1    1    2    0    0  0.44169144421E+02 -0.11112387499E+02  0.83242712222E+01  0.17735030862E+03  0.17120000000E+03 0.  0.
        998    1    1    2    0    0 -0.29720351165E+02  0.11151180802E+01  0.14079771783E+04  0.14083267651E+04  0.10000000000E+02 0. -1.
</event>
<event>
 5    1  0.1300052E-008  0.3847457E+03  0.7957747E-01  0.3430751E+00
         13   -1    0    0    0    0  0.00000000000E+00  0.00000000000E+00  0.14999999963E+04  0.15000000000E+04  0.10566000000E+00 0.  1.
        994   -1    0    0    0    0 -0.00000000000E+00 -0.00000000000E+00  0.11368683772E-12  0.17120000000E+03  0.17120000000E+03 0.  0.
         13    1    1    2    0    0  0.14469844539E+02 -0.27219943599E+01  0.58503543710E+02  0.60327949120E+02  0.10566000000E+00 0.  1.
        994    1    1    2    0    0 -0.13999414654E+02  0.30385792030E+02  0.54491079051E+01  0.17452338739E+03  0.17120000000E+03 0.  0.
        998    1    1    2    0    0 -0.47042988555E+00 -0.27663797670E+02  0.14360473447E+04  0.14363486635E+04  0.10000000000E+02 0.  1.
</event>
<event>
 5    1  0.1300052E-008  0.3842776E+03  0.7957747E-01  0.3432742E+00
         13   -1    0    0    0    0  0.00000000000E+00  0.00000000000E+00  0.14999999963E+04  0.15000000000E+04  0.10566000000E+00 0. -1.
        994   -1    0    0    0    0 -0.00000000000E+00 -0.00000000000E+00  0.11368683772E-12  0.17120000000E+03  0.17120000000E+03 0.  0.
         13    1    1    2    0    0 -0.43706137619E+00 -0.12092324390E+02  0.35864572379E+02  0.37850945137E+02  0.10566000000E+00 0. -1.
        994    1    1    2    0    0 -0.22463196329E+01  0.11388941818E+02  0.24335691706E+01  0.17161036159E+03  0.17120000000E+03 0.  0.
        998    1    1    2    0    0  0.26833810091E+01  0.70338257224E+00  0.14617018547E+04  0.14617386933E+04  0.10000000000E+02 0. -1.
</event>
<event>
 5    1  0.1300052E-008  0.3831055E+03  0.7957747E-01  0.3437747E+00
         13   -1    0    0    0    0  0.00000000000E+00  0.00000000000E+00  0.14999999963E+04  0.15000000000E+04  0.10566000000E+00 0.  1.
        994   -1    0    0    0    0 -0.00000000000E+00 -0.00000000000E+00  0.11368683772E-12  0.17120000000E+03  0.17120000000E+03 0.  0.
         13    1    1    2    0    0 -0.16861261607E+02 -0.93003877684E+01  0.70638933457E+02  0.73216592652E+02  0.10566000000E+00 0.  1.
        994    1    1    2    0    0  0.12205351897E+02  0.71123789161E+01  0.32342659930E+01  0.17181227263E+03  0.17120000000E+03 0.  0.
        998    1    1    2    0    0  0.46559097099E+01  0.21880088524E+01  0.14261267968E+04  0.14261711347E+04  0.10000000000E+02 0.  1.
</event>
<event>
 5    1  0.1300052E-008  0.3854655E+03  0.7957747E-01  0.3427701E+00
         13   -1    0    0    0    0  0.00000000000E+00  0.00000000000E+00  0.14999999963E+04  0.15000000000E+04  0.10566000000E+00 0. -1.
        994   -1    0    0    0    0 -0.00000000000E+00 -0.00000000000E+00  0.11368683772E-12  0.17120000000E+03  0.17120000000E+03 0.  0.
         13    1    1    2    0    0  0.50447999926E+01  0.14450601059E+02  0.75026439261E+02  0.76571846197E+02  0.10566000000E+00 0. -1.
        994    1    1    2    0    0 -0.67027718830E+01 -0.25160507812E+02  0.36286669760E+01  0.17320677102E+03  0.17120000000E+03 0.  0.
        998    1    1    2    0    0  0.16579718903E+01  0.10709906753E+02  0.14213448900E+04  0.14214213828E+04  0.10000000000E+02 0. -1.
</event>
<event>
 5    1  0.1300052E-008  0.3693310E+03  0.7957747E-01  0.3498971E+00
         13   -1    0    0    0    0  0.00000000000E+00  0.00000000000E+00  0.14999999963E+04  0.15000000000E+04  0.10566000000E+00 0.  1.
        994   -1    0    0    0    0 -0.00000000000E+00 -0.00000000000E+00  0.11368683772E-12  0.17120000000E+03  0.17120000000E+03 0.  0.
         13    1    1    2    0    0  0.22556959871E+02  0.16175274680E+02  0.36435485103E+02  0.45804057553E+02  0.10566000000E+00 0.  1.
        994    1    1    2    0    0 -0.17701259555E+02 -0.36367731514E+01  0.10751724901E+02  0.17248652207E+03  0.17120000000E+03 0.  0.
        998    1    1    2    0    0 -0.48557003163E+01 -0.12538501528E+02  0.14528127863E+04  0.14529094204E+04  0.10000000000E+02 0.  1.
</event>
<event>
 5    1  0.1300052E-008  0.3757952E+03  0.7957747E-01  0.3469674E+00
         13   -1    0    0    0    0  0.00000000000E+00  0.00000000000E+00  0.14999999963E+04  0.15000000000E+04  0.10566000000E+00 0.  1.
        994   -1    0    0    0    0 -0.00000000000E+00 -0.00000000000E+00  0.11368683772E-12  0.17120000000E+03  0.17120000000E+03 0.  0.
         13    1    1    2    0    0 -0.40755772565E+02 -0.53581839653E+02  0.17243955303E+03  0.18511471349E+03  0.10566000000E+00 0.  1.
        994    1    1    2    0    0  0.72082091932E+01  0.18610190128E+02  0.15459059725E+02  0.17305120625E+03  0.17120000000E+03 0.  0.
        998    1    1    2    0    0  0.33547563372E+02  0.34971649525E+02  0.13121013835E+04  0.13130340803E+04  0.10000000000E+02 0.  1.
</event>
<event>
 5    1  0.1300052E-008  0.3826725E+03  0.7957747E-01  0.3439604E+00
         13   -1    0    0    0    0  0.00000000000E+00  0.00000000000E+00  0.14999999963E+04  0.15000000000E+04  0.10566000000E+00 0. -1.
        994   -1    0    0    0    0 -0.00000000000E+00 -0.00000000000E+00  0.11368683772E-12  0.17120000000E+03  0.17120000000E+03 0.  0.
         13    1    1    2    0    0  0.95397765366E+01 -0.15011921295E+02  0.54216950781E+02  0.57060091425E+02  0.10566000000E+00 0. -1.
        994    1    1    2    0    0  0.37659284437E+01  0.23932860942E+02  0.47375269592E+01  0.17297065708E+03  0.17120000000E+03 0.  0.
        998    1    1    2    0    0 -0.13305704980E+02 -0.89209396471E+01  0.14410455185E+04  0.14411692515E+04  0.10000000000E+02 0. -1.
</event>
<event>
 5    1  0.1300052E-008  0.3855807E+03  0.7957747E-01  0.3427213E+00
         13   -1    0    0    0    0  0.00000000000E+00  0.00000000000E+00  0.14999999963E+04  0.15000000000E+04  0.10566000000E+00 0.  1.
        994   -1    0    0    0    0 -0.00000000000E+00 -0.00000000000E+00  0.11368683772E-12  0.17120000000E+03  0.17120000000E+03 0.  0.
         13    1    1    2    0    0 -0.10399704784E+02  0.75872554973E+01  0.69722868312E+02  0.70901409261E+02  0.10566000000E+00 0.  1.
        994    1    1    2    0    0 -0.83569867560E+01  0.66817720517E+00  0.15728637794E+01  0.17141236708E+03  0.17120000000E+03 0.  0.
        998    1    1    2    0    0  0.18756691540E+02 -0.82554327025E+01  0.14287042642E+04  0.14288862237E+04  0.10000000000E+02 0.  1.
</event>
<event>
 5    1  0.1300052E-008  0.3820611E+03  0.7957747E-01  0.3442233E+00
         13   -1    0    0    0    0  0.00000000000E+00  0.00000000000E+00  0.14999999963E+04  0.15000000000E+04  0.10566000000E+00 0. -1.
        994   -1    0    0    0    0 -0.00000000000E+00 -0.00000000000E+00  0.11368683772E-12  0.17120000000E+03  0.17120000000E+03 0.  0.
         13    1    1    2    0    0 -0.91405651426E+01 -0.11923276155E+02  0.34476471473E+02  0.37607880752E+02  0.10566000000E+00 0. -1.
        994    1    1    2    0    0  0.12276029197E+02  0.12043279266E+02  0.40788895054E+01  0.17210990328E+03  0.17120000000E+03 0.  0.
        998    1    1    2    0    0 -0.31354640540E+01 -0.12000311121E+00  0.14614446353E+04  0.14614822160E+04  0.10000000000E+02 0. -1.
</event>
<event>
 5    1  0.1300052E-008  0.3821204E+03  0.7957747E-01  0.3441977E+00
         13   -1    0    0    0    0  0.00000000000E+00  0.00000000000E+00  0.14999999963E+04  0.15000000000E+04  0.10566000000E+00 0. -1.
        994   -1    0    0    0    0 -0.00000000000E+00 -0.00000000000E+00  0.11368683772E-12  0.17120000000E+03  0.17120000000E+03 0.  0.
         13    1    1    2    0    0  0.27794343304E+02  0.10859567117E+02  0.15793408584E+03  0.16072847399E+03  0.10566000000E+00 0. -1.
        994    1    1    2    0    0 -0.31474051666E+01 -0.76537416228E+01  0.32939694872E+01  0.17143154947E+03  0.17120000000E+03 0.  0.
        998    1    1    2    0    0 -0.24646938138E+02 -0.32058254942E+01  0.13387719410E+04  0.13390399765E+04  0.10000000000E+02 0. -1.
</event>
<event>
 5    1  0.1300052E-008  0.3707018E+03  0.7957747E-01  0.3492672E+00
         13   -1    0    0    0    0  0.00000000000E+00  0.00000000000E+00  0.14999999963E+04  0.15000000000E+04  0.10566000000E+00 0. -1.
        994   -1    0    0    0    0 -0.00000000000E+00 -0.00000000000E+00  0.11368683772E-12  0.17120000000E+03  0.17120000000E+03 0.  0.
         13    1    1    2    0    0  0.17483459387E+02 -0.35296624435E+02  0.63521877586E+02  0.74743315051E+02  0.10566000000E+00 0. -1.
        994    1    1    2    0    0 -0.90853553608E+01  0.30019357819E+02  0.14765669331E+02  0.17467447013E+03  0.17120000000E+03 0.  0.
        998    1    1    2    0    0 -0.83981040263E+01  0.52772666167E+01  0.14217124494E+04  0.14217822148E+04  0.10000000000E+02 0. -1.
</event>
<event>
 5    1  0.1300052E-008  0.3842625E+03  0.7957747E-01  0.3432806E+00
         13   -1    0    0    0    0  0.00000000000E+00  0.00000000000E+00  0.14999999963E+04  0.15000000000E+04  0.10566000000E+00 0.  1.
        994   -1    0    0    0    0 -0.00000000000E+00 -0.00000000000E+00  0.11368683772E-12  0.17120000000E+03  0.17120000000E+03 0.  0.
         13    1    1    2    0    0  0.18979979992E+02  0.80079313670E+01  0.10276593366E+03  0.10481037588E+03  0.10566000000E+00 0.  1.
        994    1    1    2    0    0 -0.16357531254E+02 -0.53675434806E+01  0.29743888613E+01  0.17208912325E+03  0.17120000000E+03 0.  0.
        998    1    1    2    0    0 -0.26224487384E+01 -0.26403878864E+01  0.13942596738E+04  0.13943005009E+04  0.10000000000E+02 0.  1.
</event>
<event>
 5    1  0.1300052E-008  0.3847405E+03  0.7957747E-01  0.3430773E+00
         13   -1    0    0    0    0  0.00000000000E+00  0.00000000000E+00  0.14999999963E+04  0.15000000000E+04  0.10566000000E+00 0. -1.
        994   -1    0    0    0    0 -0.00000000000E+00 -0.00000000000E+00  0.11368683772E-12  0.17120000000E+03  0.17120000000E+03 0.  0.
         13    1    1    2    0    0  0.10857477407E+02  0.81458620771E+00  0.35403593091E+02  0.37040166497E+02  0.10566000000E+00 0. -1.
        994    1    1    2    0    0  0.43088310777E+01  0.10892680044E+02  0.22107795743E+01  0.17161452168E+03  0.17120000000E+03 0.  0.
        998    1    1    2    0    0 -0.15166308484E+02 -0.11707266252E+02  0.14623856236E+04  0.14625453118E+04  0.10000000000E+02 0. -1.
</event>
<event>
 5    1  0.1300052E-008  0.3746506E+03  0.7957747E-01  0.3474787E+00
         13   -1    0    0    0    0  0.00000000000E+00  0.00000000000E+00  0.14999999963E+04  0.15000000000E+04  0.10566000000E+00 0. -1.
        994   -1    0    0    0    0 -0.00000000000E+00 -0.00000000000E+00  0.11368683772E-12  0.17120000000E+03  0.17120000000E+03 0.  0.
         13    1    1    2    0    0 -0.10326770126E+02  0.66834219182E+01  0.75656225905E+01  0.14441610678E+02  0.10566000000E+00 0. -1.
        994    1    1    2    0    0  0.38039000395E+02  0.97669122083E+01  0.12125332705E+02  0.17606482277E+03  0.17120000000E+03 0.  0.
        998    1    1    2    0    0 -0.27712230269E+02 -0.16450334127E+02  0.14803090410E+04  0.14806935665E+04  0.10000000000E+02 0. -1.
</event>
<event>
 5    1  0.1300052E-008  0.3796670E+03  0.7957747E-01  0.3452610E+00
         13   -1    0    0    0    0  0.00000000000E+00  0.00000000000E+00  0.14999999963E+04  0.15000000000E+04  0.10566000000E+00 0.  1.
        994   -1    0    0    0    0 -0.00000000000E+00 -0.00000000000E+00  0.11368683772E-12  0.17120000000E+03  0.17120000000E+03 0.  0.
         13    1    1    2    0    0 -0.27320505234E+02 -0.18368908096E+02  0.13934986467E+03  0.14318597257E+03  0.10566000000E+00 0.  1.
        994    1    1    2    0    0  0.77422124825E+01 -0.93665205095E+01  0.47956692239E+01  0.17169773442E+03  0.17120000000E+03 0.  0.
        998    1    1    2    0    0  0.19578292751E+02  0.27735428605E+02  0.13558544624E+04  0.13563162930E+04  0.10000000000E+02 0.  1.
</event>
<event>
 5    1  0.1300052E-008  0.3835827E+03  0.7957747E-01  0.3435705E+00
         13   -1    0    0    0    0  0.00000000000E+00  0.00000000000E+00  0.14999999963E+04  0.15000000000E+04  0.10566000000E+00 0. -1.
        994   -1    0    0    0    0 -0.00000000000E+00 -0.00000000000E+00  0.11368683772E-12  0.17120000000E+03  0.17120000000E+03 0.  0.
         13    1    1    2    0    0  0.14290176995E+02 -0.26473084947E+02  0.17023418420E+03  0.17287198159E+03  0.10566000000E+00 0. -1.
        994    1    1    2    0    0 -0.10264172080E+02  0.31464922800E+02  0.59628420807E+01  0.17447174580E+03  0.17120000000E+03 0.  0.
        998    1    1    2    0    0 -0.40260049156E+01 -0.49918378529E+01  0.13238029700E+04  0.13238562726E+04  0.10000000000E+02 0. -1.
</event>
<event>
 5    1  0.1300052E-008  0.3846018E+03  0.7957747E-01  0.3431363E+00
         13   -1    0    0    0    0  0.00000000000E+00  0.00000000000E+00  0.14999999963E+04  0.15000000000E+04  0.10566000000E+00 0. -1.
        994   -1    0    0    0    0 -0.00000000000E+00 -0.00000000000E+00  0.11368683772E-12  0.17120000000E+03  0.17120000000E+03 0.  0.
         13    1    1    2    0    0  0.15876489641E+02  0.62681648702E+01  0.75850568003E+02  0.77747492850E+02  0.10566000000E+00 0. -1.
        994    1    1    2    0    0 -0.16653511799E+02 -0.79894693229E+01  0.29521902520E+01  0.17221883318E+03  0.17120000000E+03 0.  0.
        998    1    1    2    0    0  0.77702215840E+00  0.17213044528E+01  0.14211972380E+04  0.14212336740E+04  0.10000000000E+02 0. -1.
</event>
<event>
 5    1  0.1300052E-008  0.3794013E+03  0.7957747E-01  0.3453770E+00
         13   -1    0    0    0    0  0.00000000000E+00  0.00000000000E+00  0.14999999963E+04  0.15000000000E+04  0.10566000000E+00 0.  1.
        994   -1    0    0    0    0 -0.00000000000E+00 -0.00000000000E+00  0.11368683772E-12  0.17120000000E+03  0.17120000000E+03 0.  0.
         13    1    1    2    0    0  0.81344849439E+02  0.51298726340E+02  0.56388934500E+03  0.57203124777E+03  0.10566000000E+00 0.  1.
        994    1    1    2    0    0 -0.97979995340E+02 -0.42543538492E+02  0.43654567152E+02  0.20645869657E+03  0.17120000000E+03 0.  0.
        998    1    1    2    0    0  0.16635145902E+02 -0.87551878477E+01  0.89245608413E+03  0.89271005567E+03  0.10000000000E+02 0.  1.
</event>
<event>
 5    1  0.1300052E-008  0.3785798E+03  0.7957747E-01  0.3457366E+00
         13   -1    0    0    0    0  0.00000000000E+00  0.00000000000E+00  0.14999999963E+04  0.15000000000E+04  0.10566000000E+00 0. -1.
        994   -1    0    0    0    0 -0.00000000000E+00 -0.00000000000E+00  0.11368683772E-12  0.17120000000E+03  0.17120000000E+03 0.  0.
         13    1    1    2    0    0  0.15947618935E+03  0.37958796195E+02  0.82500740093E+03  0.84113658102E+03  0.10566000000E+00 0. -1.
        994    1    1    2    0    0 -0.17217329714E+03 -0.39166549609E+02  0.11790991545E+03  0.27274502932E+03  0.17120000000E+03 0.  0.
        998    1    1    2    0    0  0.12697107784E+02  0.12077534140E+01  0.55708267990E+03  0.55731838966E+03  0.10000000000E+02 0. -1.
</event>
<event>
 5    1  0.1300052E-008  0.3837471E+03  0.7957747E-01  0.3435003E+00
         13   -1    0    0    0    0  0.00000000000E+00  0.00000000000E+00  0.14999999963E+04  0.15000000000E+04  0.10566000000E+00 0.  1.
        994   -1    0    0    0    0 -0.00000000000E+00 -0.00000000000E+00  0.11368683772E-12  0.17120000000E+03  0.17120000000E+03 0.  0.
         13    1    1    2    0    0 -0.27511434677E+02 -0.19272237890E+01  0.15298764703E+03  0.15545360896E+03  0.10566000000E+00 0.  1.
        994    1    1    2    0    0  0.27774448710E+02  0.35143397944E+01  0.48457903994E+01  0.17354161538E+03  0.17120000000E+03 0.  0.
        998    1    1    2    0    0 -0.26301403304E+00 -0.15871160054E+01  0.13421665588E+04  0.13422047757E+04  0.10000000000E+02 0.  1.
</event>
<event>
 5    1  0.1300052E-008  0.3734682E+03  0.7957747E-01  0.3480102E+00
         13   -1    0    0    0    0  0.00000000000E+00  0.00000000000E+00  0.14999999963E+04  0.15000000000E+04  0.10566000000E+00 0.  1.
        994   -1    0    0    0    0 -0.00000000000E+00 -0.00000000000E+00  0.11368683772E-12  0.17120000000E+03  0.17120000000E+03 0.  0.
         13    1    1    2    0    0 -0.32663861038E+01  0.52392800755E+02  0.95492386757E+02  0.10897009655E+03  0.10566000000E+00 0.  1.
        994    1    1    2    0    0 -0.27895503932E+01 -0.57956144747E+02  0.24796700272E+02  0.18245824906E+03  0.17120000000E+03 0.  0.
        998    1    1    2    0    0  0.60559364970E+01  0.55633439919E+01  0.13797109092E+04  0.13797716544E+04  0.10000000000E+02 0.  1.
</event>
<event>
 5    1  0.1300052E-008  0.3784713E+03  0.7957747E-01  0.3457842E+00
         13   -1    0    0    0    0  0.00000000000E+00  0.00000000000E+00  0.14999999963E+04  0.15000000000E+04  0.10566000000E+00 0. -1.
        994   -1    0    0    0    0 -0.00000000000E+00 -0.00000000000E+00  0.11368683772E-12  0.17120000000E+03  0.17120000000E+03 0.  0.
         13    1    1    2    0    0 -0.25062999236E+02 -0.40510772265E+01  0.65871688747E+02  0.70595011862E+02  0.10566000000E+00 0. -1.
        994    1    1    2    0    0  0.70924801909E+01  0.83346790209E+01  0.53093145448E+01  0.17163157918E+03  0.17120000000E+03 0.  0.
        998    1    1    2    0    0  0.17970519045E+02 -0.42836017944E+01  0.14288189930E+04  0.14289734090E+04  0.10000000000E+02 0. -1.
</event>
<event>
 5    1  0.1300052E-008  0.3857229E+03  0.7957747E-01  0.3426612E+00
         13   -1    0    0    0    0  0.00000000000E+00  0.00000000000E+00  0.14999999963E+04  0.15000000000E+04  0.10566000000E+00 0.  1.
        994   -1    0    0    0    0 -0.00000000000E+00 -0.00000000000E+00  0.11368683772E-12  0.17120000000E+03  0.17120000000E+03 0.  0.
         13    1    1    2    0    0 -0.45861734451E+01  0.13262113906E+02  0.81594746214E+02  0.82792695486E+02  0.10566000000E+00 0.  1.
        994    1    1    2    0    0 -0.25450776018E+01 -0.47568837799E+01  0.13671357516E+01  0.17129043880E+03  0.17120000000E+03 0.  0.
        998    1    1    2    0    0  0.71312510470E+01 -0.85052301265E+01  0.14170381143E+04  0.14171168657E+04  0.10000000000E+02 0.  1.
</event>
<event>
 5    1  0.1300052E-008  0.3814474E+03  0.7957747E-01  0.3444880E+00
         13   -1    0    0    0    0  0.00000000000E+00  0.00000000000E+00  0.14999999963E+04  0.15000000000E+04  0.10566000000E+00 0.  1.
        994   -1    0    0    0    0 -0.00000000000E+00 -0.00000000000E+00  0.11368683772E-12  0.17120000000E+03  0.17120000000E+03 0.  0.
         13    1    1    2    0    0 -0.22633413885E+02  0.38689993054E+02  0.23349733502E+03  0.23776081177E+03  0.10566000000E+00 0.  1.
        994    1    1    2    0    0  0.72956576337E+01 -0.58101913844E+02  0.14898035435E+02  0.18155013212E+03  0.17120000000E+03 0.  0.
        998    1    1    2    0    0  0.15337756251E+02  0.19411920789E+02  0.12516046258E+04  0.12518890561E+04  0.10000000000E+02 0.  1.
</event>
<event>
 5    1  0.1300052E-008  0.3696064E+03  0.7957747E-01  0.3497702E+00
         13   -1    0    0    0    0  0.00000000000E+00  0.00000000000E+00  0.14999999963E+04  0.15000000000E+04  0.10566000000E+00 0.  1.
        994   -1    0    0    0    0 -0.00000000000E+00 -0.00000000000E+00  0.11368683772E-12  0.17120000000E+03  0.17120000000E+03 0.  0.
         13    1    1    2    0    0 -0.15707439296E+02  0.64212853560E+02  0.29320308946E+03  0.30056293358E+03  0.10566000000E+00 0.  1.
        994    1    1    2    0    0  0.15050700304E+02  0.31570191103E+01  0.10294164683E+02  0.17219727110E+03  0.17120000000E+03 0.  0.
        998    1    1    2    0    0  0.65673899215E+00 -0.67369872670E+02  0.11965027421E+04  0.11984397953E+04  0.10000000000E+02 0.  1.
</event>
<event>
 5    1  0.1300052E-008  0.3812197E+03  0.7957747E-01  0.3445865E+00
         13   -1    0    0    0    0  0.00000000000E+00  0.00000000000E+00  0.14999999963E+04  0.15000000000E+04  0.10566000000E+00 0.  1.
        994   -1    0    0    0    0 -0.00000000000E+00 -0.00000000000E+00  0.11368683772E-12  0.17120000000E+03  0.17120000000E+03 0.  0.
         13    1    1    2    0    0 -0.39236006531E+01 -0.28496912432E+02  0.11271618116E+03  0.11632891867E+03  0.10566000000E+00 0.  1.
        994    1    1    2    0    0  0.29083610404E+01  0.22703032794E+02  0.52649181822E+01  0.17280348846E+03  0.17120000000E+03 0.  0.
        998    1    1    2    0    0  0.10152396127E+01  0.57938796381E+01  0.13820188969E+04  0.13820675929E+04  0.10000000000E+02 0.  1.
</event>
<event>
 5    1  0.1300052E-008  0.3848836E+03  0.7957747E-01  0.3430166E+00
         13   -1    0    0    0    0  0.00000000000E+00  0.00000000000E+00  0.14999999963E+04  0.15000000000E+04  0.10566000000E+00 0. -1.
        994   -1    0    0    0    0 -0.00000000000E+00 -0.00000000000E+00  0.11368683772E-12  0.17120000000E+03  0.17120000000E+03 0.  0.
         13    1    1    2    0    0  0.13450453045E+02  0.70544372183E+01  0.72462083404E+02  0.74036777799E+02  0.10566000000E+00 0. -1.
        994    1    1    2    0    0 -0.57500492910E+01  0.84438974217E+01  0.20313633014E+01  0.17151655578E+03  0.17120000000E+03 0.  0.
        998    1    1    2    0    0 -0.77004037540E+01 -0.15498334640E+02  0.14255065496E+04  0.14256466664E+04  0.10000000000E+02 0. -1.
</event>
<event>
 5    1  0.1300052E-008  0.3810544E+03  0.7957747E-01  0.3446580E+00
         13   -1    0    0    0    0  0.00000000000E+00  0.00000000000E+00  0.14999999963E+04  0.15000000000E+04  0.10566000000E+00 0.  1.
        994   -1    0    0    0    0 -0.00000000000E+00 -0.00000000000E+00  0.11368683772E-12  0.17120000000E+03  0.17120000000E+03 0.  0.
         13    1    1    2    0    0  0.12043913093E+02  0.12943273458E+02  0.44276293630E+02  0.47675837822E+02  0.10566000000E+00 0.  1.
        994    1    1    2    0    0 -0.84108274604E+00  0.32868733098E+01  0.36401856687E+01  0.17127230339E+03  0.17120000000E+03 0.  0.
        998    1    1    2    0    0 -0.11202830347E+02 -0.16230146767E+02  0.14520835170E+04  0.14522518588E+04  0.10000000000E+02 0.  1.
</event>
<event>
 5    1  0.1300052E-008  0.3840416E+03  0.7957747E-01  0.3433747E+00
         13   -1    0    0    0    0  0.00000000000E+00  0.00000000000E+00  0.14999999963E+04  0.15000000000E+04  0.10566000000E+00 0. -1.
        994   -1    0    0    0    0 -0.00000000000E+00 -0.00000000000E+00  0.11368683772E-12  0.17120000000E+03  0.17120000000E+03 0.  0.
         13    1    1    2    0    0 -0.97692308125E+01 -0.37844088282E+01  0.24710590055E+02  0.26839971046E+02  0.10566000000E+00 0. -1.
        994    1    1    2    0    0  0.14232916933E+02  0.49603410434E+01  0.28565218865E+01  0.17188595238E+03  0.17120000000E+03 0.  0.
        998    1    1    2    0    0 -0.44636861202E+01 -0.11759322152E+01  0.14724328843E+04  0.14724740766E+04  0.10000000000E+02 0. -1.
</event>
<event>
 5    1  0.1300052E-008  0.3827390E+03  0.7957747E-01  0.3439318E+00
         13   -1    0    0    0    0  0.00000000000E+00  0.00000000000E+00  0.14999999963E+04  0.15000000000E+04  0.10566000000E+00 0.  1.
        994   -1    0    0    0    0 -0.00000000000E+00 -0.00000000000E+00  0.11368683772E-12  0.17120000000E+03  0.17120000000E+03 0.  0.
         13    1    1    2    0    0 -0.24531876320E+02  0.45289606533E+01  0.13962741313E+03  0.14183846482E+03  0.10566000000E+00 0.  1.
        994    1    1    2    0    0 -0.15219984885E+02 -0.78417458883E+01  0.37286047485E+01  0.17209440262E+03  0.17120000000E+03 0.  0.
        998    1    1    2    0    0  0.39751861204E+02  0.33127852350E+01  0.13566439784E+04  0.13572671326E+04  0.10000000000E+02 0.  1.
</event>
<event>
 5    1  0.1300052E-008  0.3711470E+03  0.7957747E-01  0.3490636E+00
         13   -1    0    0    0    0  0.00000000000E+00  0.00000000000E+00  0.14999999963E+04  0.15000000000E+04  0.10566000000E+00 0.  1.
        994   -1    0    0    0    0 -0.00000000000E+00 -0.00000000000E+00  0.11368683772E-12  0.17120000000E+03  0.17120000000E+03 0.  0.
         13    1    1    2    0    0 -0.27963007949E+02  0.28042353930E+02  0.60967623447E+02  0.72700520633E+02  0.10566000000E+00 0.  1.
        994    1    1    2    0    0  0.34063122649E+02 -0.24116438223E+02  0.17685779877E+02  0.17709919742E+03  0.17120000000E+03 0.  0.
        998    1    1    2    0    0 -0.61001147004E+01 -0.39259157072E+01  0.14213465930E+04  0.14214002819E+04  0.10000000000E+02 0.  1.
</event>
<event>
 5    1  0.1300052E-008  0.3838628E+03  0.7957747E-01  0.3434510E+00
         13   -1    0    0    0    0  0.00000000000E+00  0.00000000000E+00  0.14999999963E+04  0.15000000000E+04  0.10566000000E+00 0. -1.
        994   -1    0    0    0    0 -0.00000000000E+00 -0.00000000000E+00  0.11368683772E-12  0.17120000000E+03  0.17120000000E+03 0.  0.
         13    1    1    2    0    0  0.83394013401E+01  0.14249787541E+02  0.60069429747E+02  0.62297268109E+02  0.10566000000E+00 0. -1.
        994    1    1    2    0    0 -0.13057045676E+02 -0.10351680314E+02  0.31127931427E+01  0.17203712741E+03  0.17120000000E+03 0.  0.
        998    1    1    2    0    0  0.47176443356E+01 -0.38981072270E+01  0.14368177734E+04  0.14368656045E+04  0.10000000000E+02 0. -1.
</event>
<event>
 5    1  0.1300052E-008  0.3837470E+03  0.7957747E-01  0.3435004E+00
         13   -1    0    0    0    0  0.00000000000E+00  0.00000000000E+00  0.14999999963E+04  0.15000000000E+04  0.10566000000E+00 0.  1.
        994   -1    0    0    0    0 -0.00000000000E+00 -0.00000000000E+00  0.11368683772E-12  0.17120000000E+03  0.17120000000E+03 0.  0.
         13    1    1    2    0    0 -0.20905728285E+02 -0.17243745317E+02  0.14969611124E+03  0.15212933022E+03  0.10566000000E+00 0.  1.
        994    1    1    2    0    0  0.14700227241E+02  0.23521472975E+02  0.47980843235E+01  0.17349875500E+03  0.17120000000E+03 0.  0.
        998    1    1    2    0    0  0.62055010443E+01 -0.62777276577E+01  0.13455058007E+04  0.13455719148E+04  0.10000000000E+02 0.  1.
</event>
<event>
 5    1  0.1300052E-008  0.3806592E+03  0.7957747E-01  0.3448293E+00
         13   -1    0    0    0    0  0.00000000000E+00  0.00000000000E+00  0.14999999963E+04  0.15000000000E+04  0.10566000000E+00 0.  1.
        994   -1    0    0    0    0 -0.00000000000E+00 -0.00000000000E+00  0.11368683772E-12  0.17120000000E+03  0.17120000000E+03 0.  0.
         13    1    1    2    0    0  0.12099542065E+02 -0.43827817887E+02  0.26225945002E+03  0.26617157404E+03  0.10566000000E+00 0.  1.
        994    1    1    2    0    0  0.78903572908E+01  0.33314627707E+02  0.77204220339E+01  0.17476031321E+03  0.17120000000E+03 0.  0.
        998    1    1    2    0    0 -0.19989899356E+02  0.10513190180E+02  0.12300201242E+04  0.12302681128E+04  0.10000000000E+02 0.  1.
</event>
<event>
 5    1  0.1300052E-008  0.3660497E+03  0.7957747E-01  0.3514245E+00
         13   -1    0    0    0    0  0.00000000000E+00  0.00000000000E+00  0.14999999963E+04  0.15000000000E+04  0.10566000000E+00 0.  1.
        994   -1    0    0    0    0 -0.00000000000E+00 -0.00000000000E+00  0.11368683772E-12  0.17120000000E+03  0.17120000000E+03 0.  0.
         13    1    1    2    0    0 -0.22222302139E+03 -0.16982588856E+03  0.98740068540E+03  0.10262475473E+04  0.10566000000E+00 0.  1.
        994    1    1    2    0    0  0.21684925867E+03  0.16025176444E+03  0.32117757704E+03  0.45295552208E+03  0.17120000000E+03 0.  0.
        998    1    1    2    0    0  0.53737627195E+01  0.95741241222E+01  0.19142173384E+03  0.19199693061E+03  0.10000000000E+02 0.  0.
</event>
<event>
 5    1  0.1300052E-008  0.3840806E+03  0.7957747E-01  0.3433581E+00
         13   -1    0    0    0    0  0.00000000000E+00  0.00000000000E+00  0.14999999963E+04  0.15000000000E+04  0.10566000000E+00 0.  1.
        994   -1    0    0    0    0 -0.00000000000E+00 -0.00000000000E+00  0.11368683772E-12  0.17120000000E+03  0.17120000000E+03 0.  0.
         13    1    1    2    0    0  0.25942468240E+01  0.17463587663E+02  0.70996194199E+02  0.73158579575E+02  0.10566000000E+00 0.  1.
        994    1    1    2    0    0  0.12407008587E+02 -0.21425210302E+02  0.41117651670E+01  0.17302982434E+03  0.17120000000E+03 0.  0.
        998    1    1    2    0    0 -0.15001255411E+02  0.39616226386E+01  0.14248920369E+04  0.14250115961E+04  0.10000000000E+02 0.  1.
</event>
<event>
 5    1  0.1300052E-008  0.3837835E+03  0.7957747E-01  0.3434848E+00
         13   -1    0    0    0    0  0.00000000000E+00  0.00000000000E+00  0.14999999963E+04  0.15000000000E+04  0.10566000000E+00 0.  1.
        994   -1    0    0    0    0 -0.00000000000E+00 -0.00000000000E+00  0.11368683772E-12  0.17120000000E+03  0.17120000000E+03 0.  0.
         13    1    1    2    0    0 -0.29338947809E+02 -0.79751564494E+01  0.17198022609E+03  0.17464703350E+03  0.10566000000E+00 0.  1.
        994    1    1    2    0    0  0.39066870420E+02  0.44201085651E+01  0.73556940665E+01  0.17581042051E+03  0.17120000000E+03 0.  0.
        998    1    1    2    0    0 -0.97279226103E+01  0.35550478843E+01  0.13206640761E+04  0.13207425460E+04  0.10000000000E+02 0.  1.
</event>
<event>
 5    1  0.1300052E-008  0.3720759E+03  0.7957747E-01  0.3486405E+00
         13   -1    0    0    0    0  0.00000000000E+00  0.00000000000E+00  0.14999999963E+04  0.15000000000E+04  0.10566000000E+00 0.  1.
        994   -1    0    0    0    0 -0.00000000000E+00 -0.00000000000E+00  0.11368683772E-12  0.17120000000E+03  0.17120000000E+03 0.  0.
         13    1    1    2    0    0  0.11771319688E+02  0.67700510931E+02  0.21909150730E+03  0.22961494482E+03  0.10566000000E+00 0.  1.
        994    1    1    2    0    0 -0.57057967341E+01 -0.87290442370E+02  0.34934566885E+02  0.19540225538E+03  0.17120000000E+03 0.  0.
        998    1    1    2    0    0 -0.60655229537E+01  0.19589931438E+02  0.12459739221E+04  0.12461827998E+04  0.10000000000E+02 0.  1.
</event>
<event>
 5    1  0.1300052E-008  0.3841427E+03  0.7957747E-01  0.3433316E+00
         13   -1    0    0    0    0  0.00000000000E+00  0.00000000000E+00  0.14999999963E+04  0.15000000000E+04  0.10566000000E+00 0. -1.
        994   -1    0    0    0    0 -0.00000000000E+00 -0.00000000000E+00  0.11368683772E-12  0.17120000000E+03  0.17120000000E+03 0.  0.
         13    1    1    2    0    0  0.24613105636E+02 -0.12708290887E+01  0.14230643969E+03  0.14442490754E+03  0.10566000000E+00 0. -1.
        994    1    1    2    0    0 -0.18727127323E+02  0.96490934911E+01  0.35213395718E+01  0.17252724462E+03  0.17120000000E+03 0.  0.
        998    1    1    2    0    0 -0.58859783128E+01 -0.83782644023E+01  0.13541722170E+04  0.13542478478E+04  0.10000000000E+02 0. -1.
</event>
<event>
 5    1  0.1300052E-008  0.3784419E+03  0.7957747E-01  0.3457971E+00
         13   -1    0    0    0    0  0.00000000000E+00  0.00000000000E+00  0.14999999963E+04  0.15000000000E+04  0.10566000000E+00 0. -1.
        994   -1    0    0    0    0 -0.00000000000E+00 -0.00000000000E+00  0.11368683772E-12  0.17120000000E+03  0.17120000000E+03 0.  0.
         13    1    1    2    0    0  0.22900716634E+02  0.38333409324E+01  0.58438823686E+02  0.62882784631E+02  0.10566000000E+00 0. -1.
        994    1    1    2    0    0  0.97859248214E+01  0.10392420052E+02  0.56067369856E+01  0.17188554977E+03  0.17120000000E+03 0.  0.
        998    1    1    2    0    0 -0.32686641456E+02 -0.14225760985E+02  0.14359544356E+04  0.14364316656E+04  0.10000000000E+02 0. -1.
</event>
<event>
 5    1  0.1300052E-008  0.3850301E+03  0.7957747E-01  0.3429544E+00
         13   -1    0    0    0    0  0.00000000000E+00  0.00000000000E+00  0.14999999963E+04  0.15000000000E+04  0.10566000000E+00 0. -1.
        994   -1    0    0    0    0 -0.00000000000E+00 -0.00000000000E+00  0.11368683772E-12  0.17120000000E+03  0.17120000000E+03 0.  0.
         13    1    1    2    0    0  0.26740505177E+01  0.15431782696E+02  0.79560327460E+02  0.81087282190E+02  0.10566000000E+00 0. -1.
        994    1    1    2    0    0  0.25072573784E+02 -0.91514851277E+01  0.39612362979E+01  0.17331334348E+03  0.17120000000E+03 0.  0.
        998    1    1    2    0    0 -0.27746624302E+02 -0.62802975683E+01  0.14164784325E+04  0.14167993743E+04  0.10000000000E+02 0. -1.
</event>
<event>
 5    1  0.1300052E-008  0.3829021E+03  0.7957747E-01  0.3438619E+00
         13   -1    0    0    0    0  0.00000000000E+00  0.00000000000E+00  0.14999999963E+04  0.15000000000E+04  0.10566000000E+00 0. -1.
        994   -1    0    0    0    0 -0.00000000000E+00 -0.00000000000E+00  0.11368683772E-12  0.17120000000E+03  0.17120000000E+03 0.  0.
         13    1    1    2    0    0  0.10868694971E+02  0.29310478255E+01  0.23138408432E+02  0.25731628019E+02  0.10566000000E+00 0. -1.
        994    1    1    2    0    0 -0.18723683459E+00 -0.72025587832E+01  0.28472238319E+01  0.17137519831E+03  0.17120000000E+03 0.  0.
        998    1    1    2    0    0 -0.10681458136E+02  0.42715109577E+01  0.14740143640E+04  0.14740931737E+04  0.10000000000E+02 0. -1.
</event>
<event>
 5    1  0.1300052E-008  0.3808120E+03  0.7957747E-01  0.3447630E+00
         13   -1    0    0    0    0  0.00000000000E+00  0.00000000000E+00  0.14999999963E+04  0.15000000000E+04  0.10566000000E+00 0. -1.
        994   -1    0    0    0    0 -0.00000000000E+00 -0.00000000000E+00  0.11368683772E-12  0.17120000000E+03  0.17120000000E+03 0.  0.
         13    1    1    2    0    0 -0.67156547152E+01 -0.10999033723E+02  0.20777405987E+02  0.24449755104E+02  0.10566000000E+00 0. -1.
        994    1    1    2    0    0  0.40931962164E+01  0.80965642147E+01  0.39982595455E+01  0.17148683532E+03  0.17120000000E+03 0.  0.
        998    1    1    2    0    0  0.26224584988E+01  0.29024695082E+01  0.14752243307E+04  0.14752634096E+04  0.10000000000E+02 0. -1.
</event>
<event>
 5    1  0.1300052E-008  0.3723282E+03  0.7957747E-01  0.3485259E+00
         13   -1    0    0    0    0  0.00000000000E+00  0.00000000000E+00  0.14999999963E+04  0.15000000000E+04  0.10566000000E+00 0. -1.
        994   -1    0    0    0    0 -0.00000000000E+00 -0.00000000000E+00  0.11368683772E-12  0.17120000000E+03  0.17120000000E+03 0.  0.
         13    1    1    2    0    0  0.96506041716E+02 -0.56153381076E+02  0.42677124845E+03  0.44113527173E+03  0.10566000000E+00 0. -1.
        994    1    1    2    0    0 -0.81556938716E+02  0.37032327462E+02  0.41019912158E+02  0.19752215249E+03  0.17120000000E+03 0.  0.
        998    1    1    2    0    0 -0.14949103000E+02  0.19121053613E+02  0.10322088357E+04  0.10325425758E+04  0.10000000000E+02 0. -1.
</event>
<event>
 5    1  0.1300052E-008  0.3810250E+03  0.7957747E-01  0.3446707E+00
         13   -1    0    0    0    0  0.00000000000E+00  0.00000000000E+00  0.14999999963E+04  0.15000000000E+04  0.10566000000E+00 0.  1.
        994   -1    0    0    0    0 -0.00000000000E+00 -0.00000000000E+00  0.11368683772E-12  0.17120000000E+03  0.17120000000E+03 0.  0.
         13    1    1    2    0    0  0.31187182758E+02 -0.29707538347E+02  0.22041048749E+03  0.22457954574E+03  0.10566000000E+00 0.  1.
        994    1    1    2    0    0 -0.27030561226E+02  0.33876351726E+02  0.98997308794E+01  0.17687765014E+03  0.17120000000E+03 0.  0.
        998    1    1    2    0    0 -0.41566215321E+01 -0.41688133785E+01  0.12696897779E+04  0.12697428041E+04  0.10000000000E+02 0.  1.
</event>
<event>
 5    1  0.1300052E-008  0.3796323E+03  0.7957747E-01  0.3452761E+00
         13   -1    0    0    0    0  0.00000000000E+00  0.00000000000E+00  0.14999999963E+04  0.15000000000E+04  0.10566000000E+00 0. -1.
        994   -1    0    0    0    0 -0.00000000000E+00 -0.00000000000E+00  0.11368683772E-12  0.17120000000E+03  0.17120000000E+03 0.  0.
         13    1    1    2    0    0  0.67284985672E+01  0.82398033711E+01  0.11091832067E+02  0.15369025838E+02  0.10566000000E+00 0. -1.
        994    1    1    2    0    0 -0.66052720571E+01 -0.96970889335E+01  0.47797363715E+01  0.17166813633E+03  0.17120000000E+03 0.  0.
        998    1    1    2    0    0 -0.12322651016E+00  0.14572855624E+01  0.14841284278E+04  0.14841628378E+04  0.10000000000E+02 0. -1.
</event>
<event>
 5    1  0.1300052E-008  0.3835913E+03  0.7957747E-01  0.3435669E+00
         13   -1    0    0    0    0  0.00000000000E+00  0.00000000000E+00  0.14999999963E+04  0.15000000000E+04  0.10566000000E+00 0. -1.
        994   -1    0    0    0    0 -0.00000000000E+00 -0.00000000000E+00  0.11368683772E-12  0.17120000000E+03  0.17120000000E+03 0.  0.
         13    1    1    2    0    0  0.28846595572E+02  0.35228001384E+02  0.27528859040E+03  0.27902859590E+03  0.10566000000E+00 0. -1.
        994    1    1    2    0    0 -0.22880641634E+02 -0.76622635866E+02  0.23751527070E+02  0.19044192586E+03  0.17120000000E+03 0.  0.
        998    1    1    2    0    0 -0.59659539384E+01  0.41394634482E+02  0.12009598788E+04  0.12017294782E+04  0.10000000000E+02 0. -1.
</event>
<event>
 5    1  0.1300052E-008  0.3848921E+03  0.7957747E-01  0.3430130E+00
         13   -1    0    0    0    0  0.00000000000E+00  0.00000000000E+00  0.14999999963E+04  0.15000000000E+04  0.10566000000E+00 0.  1.
        994   -1    0    0    0    0 -0.00000000000E+00 -0.00000000000E+00  0.11368683772E-12  0.17120000000E+03  0.17120000000E+03 0.  0.
         13    1    1    2    0    0 -0.25052993014E+01  0.10006402580E+02  0.30796257758E+02  0.32478073728E+02  0.10566000000E+00 0.  1.
        994    1    1    2    0    0  0.30052562011E+01 -0.10560713251E+02  0.20804386447E+01  0.17156435660E+03  0.17120000000E+03 0.  0.
        998    1    1    2    0    0 -0.49995689968E+00  0.55431067079E+00  0.14671232999E+04  0.14671575697E+04  0.10000000000E+02 0.  1.
</event>
<event>
 5    1  0.1300052E-008  0.3842174E+03  0.7957747E-01  0.3432998E+00
         13   -1    0    0    0    0  0.00000000000E+00  0.00000000000E+00  0.14999999963E+04  0.15000000000E+04  0.10566000000E+00 0. -1.
        994   -1    0    0    0    0 -0.00000000000E+00 -0.00000000000E+00  0.11368683772E-12  0.17120000000E+03  0.17120000000E+03 0.  0.
         13    1    1    2    0    0  0.11944130614E+02  0.19647475915E+01  0.34940887066E+02  0.36978361810E+02  0.10566000000E+00 0. -1.
        994    1    1    2    0    0 -0.15246244240E+02  0.66381039799E+01  0.29313558963E+01  0.17203065202E+03  0.17120000000E+03 0.  0.
        998    1    1    2    0    0  0.33021136264E+01 -0.86028515714E+01  0.14621277533E+04  0.14621909862E+04  0.10000000000E+02 0. -1.
</event>
<event>
 5    1  0.1300052E-008  0.3741102E+03  0.7957747E-01  0.3477212E+00
         13   -1    0    0    0    0  0.00000000000E+00  0.00000000000E+00  0.14999999963E+04  0.15000000000E+04  0.10566000000E+00 0.  1.
        994   -1    0    0    0    0 -0.00000000000E+00 -0.00000000000E+00  0.11368683772E-12  0.17120000000E+03  0.17120000000E+03 0.  0.
         13    1    1    2    0    0  0.29319460728E+02  0.84136039788E+01  0.29490519009E+02  0.42427837380E+02  0.10566000000E+00 0.  1.
        994    1    1    2    0    0 -0.28906921119E+02 -0.10911981144E+02  0.16522638440E+02  0.17474873105E+03  0.17120000000E+03 0.  0.
        998    1    1    2    0    0 -0.41253960919E+00  0.24983771650E+01  0.14539868388E+04  0.14540234316E+04  0.10000000000E+02 0.  1.
</event>
<event>
 5    1  0.1300052E-008  0.3791508E+03  0.7957747E-01  0.3454864E+00
         13   -1    0    0    0    0  0.00000000000E+00  0.00000000000E+00  0.14999999963E+04  0.15000000000E+04  0.10566000000E+00 0. -1.
        994   -1    0    0    0    0 -0.00000000000E+00 -0.00000000000E+00  0.11368683772E-12  0.17120000000E+03  0.17120000000E+03 0.  0.
         13    1    1    2    0    0 -0.19261752504E+01  0.11064841337E+02  0.11783194383E+02  0.16278688486E+02  0.10566000000E+00 0. -1.
        994    1    1    2    0    0 -0.83774313306E+00 -0.94632303732E+01  0.48650336400E+01  0.17153239663E+03  0.17120000000E+03 0.  0.
        998    1    1    2    0    0  0.27639183834E+01 -0.16016109641E+01  0.14833517683E+04  0.14833889149E+04  0.10000000000E+02 0. -1.
</event>
<event>
 5    1  0.1300052E-008  0.3861487E+03  0.7957747E-01  0.3424815E+00
         13   -1    0    0    0    0  0.00000000000E+00  0.00000000000E+00  0.14999999963E+04  0.15000000000E+04  0.10566000000E+00 0.  1.
        994   -1    0    0    0    0 -0.00000000000E+00 -0.00000000000E+00  0.11368683772E-12  0.17120000000E+03  0.17120000000E+03 0.  0.
         13    1    1    2    0    0  0.43096533471E+01 -0.10620533214E+02  0.62340705069E+02  0.63385672752E+02  0.10566000000E+00 0.  1.
        994    1    1    2    0    0 -0.28263359789E+00  0.92082985695E+01  0.13390396428E+01  0.17145292553E+03  0.17120000000E+03 0.  0.
        998    1    1    2    0    0 -0.40270197492E+01  0.14122346443E+01  0.14363202516E+04  0.14363614017E+04  0.10000000000E+02 0.  1.
</event>
<event>
 5    1  0.1300052E-008  0.3849269E+03  0.7957747E-01  0.3429982E+00
         13   -1    0    0    0    0  0.00000000000E+00  0.00000000000E+00  0.14999999963E+04  0.15000000000E+04  0.10566000000E+00 0. -1.
        994   -1    0    0    0    0 -0.00000000000E+00 -0.00000000000E+00  0.11368683772E-12  0.17120000000E+03  0.17120000000E+03 0.  0.
         13    1    1    2    0    0 -0.10199035855E+02 -0.27565526580E+01  0.33320362823E+02  0.34955352346E+02  0.10566000000E+00 0. -1.
        994    1    1    2    0    0  0.13495334299E+02 -0.22359842633E+02  0.39133168540E+01  0.17322482691E+03  0.17120000000E+03 0.  0.
        998    1    1    2    0    0 -0.32962984436E+01  0.25116395291E+02  0.14627663166E+04  0.14630198207E+04  0.10000000000E+02 0. -1.
</event>
<event>
 5    1  0.1300052E-008  0.3801896E+03  0.7957747E-01  0.3450333E+00
         13   -1    0    0    0    0  0.00000000000E+00  0.00000000000E+00  0.14999999963E+04  0.15000000000E+04  0.10566000000E+00 0. -1.
        994   -1    0    0    0    0 -0.00000000000E+00 -0.00000000000E+00  0.11368683772E-12  0.17120000000E+03  0.17120000000E+03 0.  0.
         13    1    1    2    0    0  0.19629494009E+01 -0.18705348341E+02  0.44862156450E+02  0.48645323232E+02  0.10566000000E+00 0. -1.
        994    1    1    2    0    0  0.25817164977E+01 -0.36322663562E+01  0.41038088606E+01  0.17130715066E+03  0.17120000000E+03 0.  0.
        998    1    1    2    0    0 -0.45446658985E+01  0.22337614697E+02  0.14510340310E+04  0.14512475261E+04  0.10000000000E+02 0. -1.
</event>
<event>
 5    1  0.1300052E-008  0.3835835E+03  0.7957747E-01  0.3435702E+00
         13   -1    0    0    0    0  0.00000000000E+00  0.00000000000E+00  0.14999999963E+04  0.15000000000E+04  0.10566000000E+00 0. -1.
        994   -1    0    0    0    0 -0.00000000000E+00 -0.00000000000E+00  0.11368683772E-12  0.17120000000E+03  0.17120000000E+03 0.  0.
         13    1    1    2    0    0  0.20403244948E+02 -0.10220893335E+03  0.61509093748E+03  0.62385882297E+03  0.10566000000E+00 0. -1.
        994    1    1    2    0    0 -0.10116476450E+02  0.14882638167E+03  0.79692999137E+02  0.24064922416E+03  0.17120000000E+03 0.  0.
        998    1    1    2    0    0 -0.10286768498E+02 -0.46617448318E+02  0.80521605966E+03  0.80669195287E+03  0.10000000000E+02 0. -1.
</event>
<event>
 5    1  0.1300052E-008  0.3763425E+03  0.7957747E-01  0.3467241E+00
         13   -1    0    0    0    0  0.00000000000E+00  0.00000000000E+00  0.14999999963E+04  0.15000000000E+04  0.10566000000E+00 0.  1.
        994   -1    0    0    0    0 -0.00000000000E+00 -0.00000000000E+00  0.11368683772E-12  0.17120000000E+03  0.17120000000E+03 0.  0.
         13    1    1    2    0    0 -0.17350139693E+02  0.18579775107E+02  0.59938496421E+02  0.65106604178E+02  0.10566000000E+00 0.  1.
        994    1    1    2    0    0  0.61405562569E+01  0.40626868241E+02  0.11725207098E+02  0.17645160621E+03  0.17120000000E+03 0.  0.
        998    1    1    2    0    0  0.11209583436E+02 -0.59206643348E+02  0.14283362928E+04  0.14296417896E+04  0.10000000000E+02 0.  1.
</event>
<event>
 5    1  0.1300052E-008  0.3855818E+03  0.7957747E-01  0.3427209E+00
         13   -1    0    0    0    0  0.00000000000E+00  0.00000000000E+00  0.14999999963E+04  0.15000000000E+04  0.10566000000E+00 0.  1.
        994   -1    0    0    0    0 -0.00000000000E+00 -0.00000000000E+00  0.11368683772E-12  0.17120000000E+03  0.17120000000E+03 0.  0.
         13    1    1    2    0    0  0.74093859846E+01 -0.11206285772E+02  0.75136330715E+02  0.76327971274E+02  0.10566000000E+00 0.  1.
        994    1    1    2    0    0  0.24692588509E+01 -0.41875140136E+01  0.14191571497E+01  0.17127488584E+03  0.17120000000E+03 0.  0.
        998    1    1    2    0    0 -0.98786448355E+01  0.15393799786E+02  0.14234445084E+04  0.14235971429E+04  0.10000000000E+02 0.  1.
</event>
<event>
 5    1  0.1300052E-008  0.3798253E+03  0.7957747E-01  0.3451919E+00
         13   -1    0    0    0    0  0.00000000000E+00  0.00000000000E+00  0.14999999963E+04  0.15000000000E+04  0.10566000000E+00 0. -1.
        994   -1    0    0    0    0 -0.00000000000E+00 -0.00000000000E+00  0.11368683772E-12  0.17120000000E+03  0.17120000000E+03 0.  0.
         13    1    1    2    0    0  0.24080889624E+01 -0.67679813003E+02  0.15848859576E+03  0.17235139143E+03  0.10566000000E+00 0. -1.
        994    1    1    2    0    0  0.20810136362E+02  0.40826660287E+01  0.17861531535E+02  0.17343069004E+03  0.17120000000E+03 0.  0.
        998    1    1    2    0    0 -0.23218225325E+02  0.63597146974E+02  0.13236498690E+04  0.13254179185E+04  0.10000000000E+02 0. -1.
</event>
<event>
 5    1  0.1300052E-008  0.3695482E+03  0.7957747E-01  0.3497970E+00
         13   -1    0    0    0    0  0.00000000000E+00  0.00000000000E+00  0.14999999963E+04  0.15000000000E+04  0.10566000000E+00 0.  1.
        994   -1    0    0    0    0 -0.00000000000E+00 -0.00000000000E+00  0.11368683772E-12  0.17120000000E+03  0.17120000000E+03 0.  0.
         13    1    1    2    0    0  0.21847253377E+02  0.89897662703E+01  0.24984600282E+02  0.34385459034E+02  0.10566000000E+00 0.  1.
        994    1    1    2    0    0 -0.22123684254E+02 -0.75364785992E+01  0.11399392186E+02  0.17316362798E+03  0.17120000000E+03 0.  0.
        998    1    1    2    0    0  0.27643087715E+00 -0.14532876711E+01  0.14636160038E+04  0.14636509130E+04  0.10000000000E+02 0.  1.
</event>
<event>
 5    1  0.1300052E-008  0.3770102E+03  0.7957747E-01  0.3464281E+00
         13   -1    0    0    0    0  0.00000000000E+00  0.00000000000E+00  0.14999999963E+04  0.15000000000E+04  0.10566000000E+00 0. -1.
        994   -1    0    0    0    0 -0.00000000000E+00 -0.00000000000E+00  0.11368683772E-12  0.17120000000E+03  0.17120000000E+03 0.  0.
         13    1    1    2    0    0 -0.46089495561E+01  0.10974678171E+02  0.99870319606E+01  0.15538273662E+02  0.10566000000E+00 0. -1.
        994    1    1    2    0    0  0.45197316467E+01 -0.82479040522E+01  0.59487477128E+01  0.17156131118E+03  0.17120000000E+03 0.  0.
        998    1    1    2    0    0  0.89217909346E-01 -0.27267741186E+01  0.14840642166E+04  0.14841004152E+04  0.10000000000E+02 0. -1.
</event>
<event>
 5    1  0.1300052E-008  0.3862186E+03  0.7957747E-01  0.3424520E+00
         13   -1    0    0    0    0  0.00000000000E+00  0.00000000000E+00  0.14999999963E+04  0.15000000000E+04  0.10566000000E+00 0.  1.
        994   -1    0    0    0    0 -0.00000000000E+00 -0.00000000000E+00  0.11368683772E-12  0.17120000000E+03  0.17120000000E+03 0.  0.
         13    1    1    2    0    0  0.80799679907E+01 -0.95270845494E+01  0.75578336911E+02  0.76603834088E+02  0.10566000000E+00 0.  1.
        994    1    1    2    0    0 -0.74322472033E+01  0.77422827241E+01  0.14037034949E+01  0.17154180722E+03  0.17120000000E+03 0.  0.
        998    1    1    2    0    0 -0.64772078734E+00  0.17848018253E+01  0.14230179559E+04  0.14230543587E+04  0.10000000000E+02 0.  1.
</event>
<event>
 5    1  0.1300052E-008  0.3822228E+03  0.7957747E-01  0.3441537E+00
         13   -1    0    0    0    0  0.00000000000E+00  0.00000000000E+00  0.14999999963E+04  0.15000000000E+04  0.10566000000E+00 0.  1.
        994   -1    0    0    0    0 -0.00000000000E+00 -0.00000000000E+00  0.11368683772E-12  0.17120000000E+03  0.17120000000E+03 0.  0.
         13    1    1    2    0    0  0.44739740498E+02 -0.84105256832E+01  0.27379446789E+03  0.27755324378E+03  0.10566000000E+00 0.  1.
        994    1    1    2    0    0 -0.50402946887E+02  0.10135845905E+03  0.46773697573E+02  0.21050228754E+03  0.17120000000E+03 0.  0.
        998    1    1    2    0    0  0.56632063893E+01 -0.92947933363E+02  0.11794318308E+04  0.11831444687E+04  0.10000000000E+02 0.  1.
</event>
<event>
 5    1  0.1300052E-008  0.3782762E+03  0.7957747E-01  0.3458699E+00
         13   -1    0    0    0    0  0.00000000000E+00  0.00000000000E+00  0.14999999963E+04  0.15000000000E+04  0.10566000000E+00 0.  1.
        994   -1    0    0    0    0 -0.00000000000E+00 -0.00000000000E+00  0.11368683772E-12  0.17120000000E+03  0.17120000000E+03 0.  0.
         13    1    1    2    0    0 -0.37124877685E+02  0.27108968426E+02  0.17568022854E+03  0.18159489689E+03  0.10566000000E+00 0.  1.
        994    1    1    2    0    0  0.34293830034E+02 -0.46993318041E+02  0.16470165493E+02  0.18156306086E+03  0.17120000000E+03 0.  0.
        998    1    1    2    0    0  0.28310476518E+01  0.19884349615E+02  0.13078496022E+04  0.13080420422E+04  0.10000000000E+02 0.  1.
</event>
<event>
 5    1  0.1300052E-008  0.3842551E+03  0.7957747E-01  0.3432838E+00
         13   -1    0    0    0    0  0.00000000000E+00  0.00000000000E+00  0.14999999963E+04  0.15000000000E+04  0.10566000000E+00 0. -1.
        994   -1    0    0    0    0 -0.00000000000E+00 -0.00000000000E+00  0.11368683772E-12  0.17120000000E+03  0.17120000000E+03 0.  0.
         13    1    1    2    0    0  0.54239829739E+01  0.12746608887E+02  0.52528475001E+02  0.54324464833E+02  0.10566000000E+00 0. -1.
        994    1    1    2    0    0  0.87529803394E+01  0.65687178682E+01  0.23953364535E+01  0.17156613989E+03  0.17120000000E+03 0.  0.
        998    1    1    2    0    0 -0.14176963313E+02 -0.19315326756E+02  0.14450761848E+04  0.14453093953E+04  0.10000000000E+02 0. -1.
</event>
<event>
 5    1  0.1300052E-008  0.3860795E+03  0.7957747E-01  0.3425107E+00
         13   -1    0    0    0    0  0.00000000000E+00  0.00000000000E+00  0.14999999963E+04  0.15000000000E+04  0.10566000000E+00 0.  1.
        994   -1    0    0    0    0 -0.00000000000E+00 -0.00000000000E+00  0.11368683772E-12  0.17120000000E+03  0.17120000000E+03 0.  0.
         13    1    1    2    0    0  0.62277945247E+01 -0.12569237242E+02  0.84297486924E+02  0.85456706087E+02  0.10566000000E+00 0.  1.
        994    1    1    2    0    0 -0.40447722661E+01  0.18088748370E+02  0.22218573670E+01  0.17221480671E+03  0.17120000000E+03 0.  0.
        998    1    1    2    0    0 -0.21830222586E+01 -0.55195111280E+01  0.14134806520E+04  0.14135284872E+04  0.10000000000E+02 0.  1.
</event>
<event>
 5    1  0.1300052E-008  0.3268443E+03  0.7957747E-01  0.3721244E+00
         13   -1    0    0    0    0  0.00000000000E+00  0.00000000000E+00  0.14999999963E+04  0.15000000000E+04  0.10566000000E+00 0.  1.
        994   -1    0    0    0    0 -0.00000000000E+00 -0.00000000000E+00  0.11368683772E-12  0.17120000000E+03  0.17120000000E+03 0.  0.
         13    1    1    2    0    0 -0.22287392390E+03  0.68043699171E+02  0.75243039789E+03  0.78768918095E+03  0.10566000000E+00 0.  1.
        994    1    1    2    0    0  0.21922116087E+03 -0.65615728282E+02  0.23274078143E+03  0.36856621184E+03  0.17120000000E+03 0.  0.
        998    1    1    2    0    0  0.36527630231E+01 -0.24279708894E+01  0.51482881696E+03  0.51494460721E+03  0.10000000000E+02 0.  0.
</event>
<event>
 5    1  0.1300052E-008  0.3710725E+03  0.7957747E-01  0.3490976E+00
         13   -1    0    0    0    0  0.00000000000E+00  0.00000000000E+00  0.14999999963E+04  0.15000000000E+04  0.10566000000E+00 0. -1.
        994   -1    0    0    0    0 -0.00000000000E+00 -0.00000000000E+00  0.11368683772E-12  0.17120000000E+03  0.17120000000E+03 0.  0.
         13    1    1    2    0    0  0.11221728943E+02 -0.60903428219E+01  0.53807123627E+01  0.13855782393E+02  0.10566000000E+00 0. -1.
        994    1    1    2    0    0 -0.84157478239E+01  0.25810765453E+01  0.89765332143E+01  0.17166101746E+03  0.17120000000E+03 0.  0.
        998    1    1    2    0    0 -0.28059811192E+01  0.35092662766E+01  0.14856427507E+04  0.14856832001E+04  0.10000000000E+02 0. -1.
</event>
<event>
 5    1  0.1300052E-008  0.3857128E+03  0.7957747E-01  0.3426655E+00
         13   -1    0    0    0    0  0.00000000000E+00  0.00000000000E+00  0.14999999963E+04  0.15000000000E+04  0.10566000000E+00 0. -1.
        994   -1    0    0    0    0 -0.00000000000E+00 -0.00000000000E+00  0.11368683772E-12  0.17120000000E+03  0.17120000000E+03 0.  0.
         13    1    1    2    0    0  0.38261458611E+01 -0.13874920538E+02  0.79226133029E+02  0.80522941643E+02  0.10566000000E+00 0. -1.
        994    1    1    2    0    0  0.37460424055E+01  0.15046653366E+02  0.20659222944E+01  0.17191318346E+03  0.17120000000E+03 0.  0.
        998    1    1    2    0    0 -0.75721882666E+01 -0.11717328287E+01  0.14187079410E+04  0.14187638749E+04  0.10000000000E+02 0. -1.
</event>
<event>
 5    1  0.1300052E-008  0.3793384E+03  0.7957747E-01  0.3454044E+00
         13   -1    0    0    0    0  0.00000000000E+00  0.00000000000E+00  0.14999999963E+04  0.15000000000E+04  0.10566000000E+00 0.  1.
        994   -1    0    0    0    0 -0.00000000000E+00 -0.00000000000E+00  0.11368683772E-12  0.17120000000E+03  0.17120000000E+03 0.  0.
         13    1    1    2    0    0  0.18242739033E+02  0.28536233285E+01  0.36483591726E+02  0.40890149460E+02  0.10566000000E+00 0.  1.
        994    1    1    2    0    0 -0.10859904880E+02 -0.64337442379E+01  0.50014612780E+01  0.17173754748E+03  0.17120000000E+03 0.  0.
        998    1    1    2    0    0 -0.73828341526E+01  0.35801209094E+01  0.14585149433E+04  0.14585723031E+04  0.10000000000E+02 0.  1.
</event>
<event>
 5    1  0.1300052E-008  0.3844431E+03  0.7957747E-01  0.3432037E+00
         13   -1    0    0    0    0  0.00000000000E+00  0.00000000000E+00  0.14999999963E+04  0.15000000000E+04  0.10566000000E+00 0.  1.
        994   -1    0    0    0    0 -0.00000000000E+00 -0.00000000000E+00  0.11368683772E-12  0.17120000000E+03  0.17120000000E+03 0.  0.
         13    1    1    2    0    0  0.10575631680E+02  0.54940985461E+01  0.35904375655E+02  0.37830734324E+02  0.10566000000E+00 0.  1.
        994    1    1    2    0    0 -0.11496729094E+02 -0.81380587303E+01  0.25608035640E+01  0.17179755672E+03  0.17120000000E+03 0.  0.
        998    1    1    2    0    0  0.92109741414E+00  0.26439601842E+01  0.14615348171E+04  0.14615717090E+04  0.10000000000E+02 0.  1.
</event>
<event>
 5    1  0.1300052E-008  0.3785196E+03  0.7957747E-01  0.3457630E+00
         13   -1    0    0    0    0  0.00000000000E+00  0.00000000000E+00  0.14999999963E+04  0.15000000000E+04  0.10566000000E+00 0. -1.
        994   -1    0    0    0    0 -0.00000000000E+00 -0.00000000000E+00  0.11368683772E-12  0.17120000000E+03  0.17120000000E+03 0.  0.
         13    1    1    2    0    0 -0.73816521701E+01 -0.24836251385E+02  0.92608866183E+02  0.96165177852E+02  0.10566000000E+00 0. -1.
        994    1    1    2    0    0 -0.91754649938E+02 -0.20504140105E+02  0.35175193362E+02  0.19845923958E+03  0.17120000000E+03 0.  0.
        998    1    1    2    0    0  0.99136302108E+02  0.45340391490E+02  0.13722159367E+04  0.13765755826E+04  0.10000000000E+02 0. -1.
</event>
<event>
 5    1  0.1300052E-008  0.3844865E+03  0.7957747E-01  0.3431853E+00
         13   -1    0    0    0    0  0.00000000000E+00  0.00000000000E+00  0.14999999963E+04  0.15000000000E+04  0.10566000000E+00 0. -1.
        994   -1    0    0    0    0 -0.00000000000E+00 -0.00000000000E+00  0.11368683772E-12  0.17120000000E+03  0.17120000000E+03 0.  0.
         13    1    1    2    0    0  0.16347346871E+02  0.47595404853E+01  0.77747559576E+02  0.79590094606E+02  0.10566000000E+00 0. -1.
        994    1    1    2    0    0 -0.73736812134E+01 -0.63882727616E+01  0.21988820835E+01  0.17149185487E+03  0.17120000000E+03 0.  0.
        998    1    1    2    0    0 -0.89736656573E+01  0.16287322763E+01  0.14200535546E+04  0.14201180505E+04  0.10000000000E+02 0. -1.
</event>
<event>
 5    1  0.1300052E-008  0.3794414E+03  0.7957747E-01  0.3453595E+00
         13   -1    0    0    0    0  0.00000000000E+00  0.00000000000E+00  0.14999999963E+04  0.15000000000E+04  0.10566000000E+00 0. -1.
        994   -1    0    0    0    0 -0.00000000000E+00 -0.00000000000E+00  0.11368683772E-12  0.17120000000E+03  0.17120000000E+03 0.  0.
         13    1    1    2    0    0 -0.26496845867E+02 -0.85856462847E+01  0.79949763867E+02  0.84662695855E+02  0.10566000000E+00 0. -1.
        994    1    1    2    0    0  0.31992564807E+02  0.12531168963E+02  0.83793388317E+01  0.17481478118E+03  0.17120000000E+03 0.  0.
        998    1    1    2    0    0 -0.54957189399E+01 -0.39455226785E+01  0.14116708936E+04  0.14117225230E+04  0.10000000000E+02 0. -1.
</event>
<event>
 5    1  0.1300052E-008  0.3136004E+03  0.7957747E-01  0.3803467E+00
         13   -1    0    0    0    0  0.00000000000E+00  0.00000000000E+00  0.14999999963E+04  0.15000000000E+04  0.10566000000E+00 0.  1.
        994   -1    0    0    0    0 -0.00000000000E+00 -0.00000000000E+00  0.11368683772E-12  0.17120000000E+03  0.17120000000E+03 0.  0.
         13    1    1    2    0    0  0.12933042235E+03  0.16447596870E+03  0.77758467560E+03  0.80524321873E+03  0.10566000000E+00 0.  1.
        994    1    1    2    0    0 -0.17485920390E+03 -0.86908612309E+02  0.17982696058E+03  0.31587343009E+03  0.17120000000E+03 0.  0.
        998    1    1    2    0    0  0.45528781553E+02 -0.77567356395E+02  0.54258836010E+03  0.55008335118E+03  0.10000000000E+02 0. -1.
</event>
<event>
 5    1  0.1300052E-008  0.3770341E+03  0.7957747E-01  0.3464175E+00
         13   -1    0    0    0    0  0.00000000000E+00  0.00000000000E+00  0.14999999963E+04  0.15000000000E+04  0.10566000000E+00 0. -1.
        994   -1    0    0    0    0 -0.00000000000E+00 -0.00000000000E+00  0.11368683772E-12  0.17120000000E+03  0.17120000000E+03 0.  0.
         13    1    1    2    0    0 -0.31080918556E+02  0.31668427186E+01  0.82706116138E+02  0.88410209827E+02  0.10566000000E+00 0. -1.
        994    1    1    2    0    0  0.27399877814E+02  0.23471024867E+02  0.10044861367E+02  0.17524834251E+03  0.17120000000E+03 0.  0.
        998    1    1    2    0    0  0.36810407419E+01 -0.26637867585E+02  0.14072490188E+04  0.14075414477E+04  0.10000000000E+02 0. -1.
</event>
<event>
 5    1  0.1300052E-008  0.3858049E+03  0.7957747E-01  0.3426266E+00
         13   -1    0    0    0    0  0.00000000000E+00  0.00000000000E+00  0.14999999963E+04  0.15000000000E+04  0.10566000000E+00 0. -1.
        994   -1    0    0    0    0 -0.00000000000E+00 -0.00000000000E+00  0.11368683772E-12  0.17120000000E+03  0.17120000000E+03 0.  0.
         13    1    1    2    0    0  0.55483805252E+01 -0.12695600925E+02  0.77131646791E+02  0.78366223018E+02  0.10566000000E+00 0. -1.
        994    1    1    2    0    0 -0.44741139888E+01  0.10671346148E+02  0.16703347360E+01  0.17159873351E+03  0.17120000000E+03 0.  0.
        998    1    1    2    0    0 -0.10742665364E+01  0.20242547771E+01  0.14211980148E+04  0.14212350435E+04  0.10000000000E+02 0. -1.
</event>
<event>
 5    1  0.1300052E-008  0.3806800E+03  0.7957747E-01  0.3448203E+00
         13   -1    0    0    0    0  0.00000000000E+00  0.00000000000E+00  0.14999999963E+04  0.15000000000E+04  0.10566000000E+00 0. -1.
        994   -1    0    0    0    0 -0.00000000000E+00 -0.00000000000E+00  0.11368683772E-12  0.17120000000E+03  0.17120000000E+03 0.  0.
         13    1    1    2    0    0  0.29200509176E+01  0.38055416608E+02  0.18457033225E+03  0.18847535686E+03  0.10566000000E+00 0. -1.
        994    1    1    2    0    0 -0.15711981387E+02 -0.25887902171E+02  0.68550770697E+01  0.17399276399E+03  0.17120000000E+03 0.  0.
        998    1    1    2    0    0  0.12791930469E+02 -0.12167514437E+02  0.13085745870E+04  0.13087318792E+04  0.10000000000E+02 0. -1.
</event>
<event>
 5    1  0.1300052E-008  0.3847500E+03  0.7957747E-01  0.3430733E+00
         13   -1    0    0    0    0  0.00000000000E+00  0.00000000000E+00  0.14999999963E+04  0.15000000000E+04  0.10566000000E+00 0. -1.
        994   -1    0    0    0    0 -0.00000000000E+00 -0.00000000000E+00  0.11368683772E-12  0.17120000000E+03  0.17120000000E+03 0.  0.
         13    1    1    2    0    0 -0.14322411211E+02 -0.24158972665E+01  0.59615763933E+02  0.61359746543E+02  0.10566000000E+00 0. -1.
        994    1    1    2    0    0  0.11731657659E+02 -0.49870561956E+01  0.22893403523E+01  0.17168920642E+03  0.17120000000E+03 0.  0.
        998    1    1    2    0    0  0.25907535517E+01  0.74029534621E+01  0.14380948920E+04  0.14381510470E+04  0.10000000000E+02 0. -1.
</event>
<event>
 5    1  0.1300052E-008  0.3839465E+03  0.7957747E-01  0.3434152E+00
         13   -1    0    0    0    0  0.00000000000E+00  0.00000000000E+00  0.14999999963E+04  0.15000000000E+04  0.10566000000E+00 0. -1.
        994   -1    0    0    0    0 -0.00000000000E+00 -0.00000000000E+00  0.11368683772E-12  0.17120000000E+03  0.17120000000E+03 0.  0.
         13    1    1    2    0    0  0.11211630232E+02  0.47912766854E+01  0.32939471801E+02  0.35123737719E+02  0.10566000000E+00 0. -1.
        994    1    1    2    0    0 -0.15327830527E+02 -0.36949408046E+01  0.29748483869E+01  0.17195023902E+03  0.17120000000E+03 0.  0.
        998    1    1    2    0    0  0.41162002949E+01 -0.10963358807E+01  0.14640856761E+04  0.14641260233E+04  0.10000000000E+02 0. -1.
</event>
<event>
 5    1  0.1300052E-008  0.3784388E+03  0.7957747E-01  0.3457984E+00
         13   -1    0    0    0    0  0.00000000000E+00  0.00000000000E+00  0.14999999963E+04  0.15000000000E+04  0.10566000000E+00 0. -1.
        994   -1    0    0    0    0 -0.00000000000E+00 -0.00000000000E+00  0.11368683772E-12  0.17120000000E+03  0.17120000000E+03 0.  0.
         13    1    1    2    0    0 -0.11814268438E+02 -0.94159212979E+01  0.53507875506E+00  0.15117340570E+02  0.10566000000E+00 0. -1.
        994    1    1    2    0    0  0.75447736908E+01 -0.26064077037E+02  0.18129450796E+02  0.17428246242E+03  0.17120000000E+03 0.  0.
        998    1    1    2    0    0  0.42694947467E+01  0.35479998335E+02  0.14813354667E+04  0.14818001970E+04  0.10000000000E+02 0. -1.
</event>
<event>
 5    1  0.1300052E-008  0.3786359E+03  0.7957747E-01  0.3457120E+00
         13   -1    0    0    0    0  0.00000000000E+00  0.00000000000E+00  0.14999999963E+04  0.15000000000E+04  0.10566000000E+00 0. -1.
        994   -1    0    0    0    0 -0.00000000000E+00 -0.00000000000E+00  0.11368683772E-12  0.17120000000E+03  0.17120000000E+03 0.  0.
         13    1    1    2    0    0 -0.74930936867E+01  0.27235092192E+02  0.81878056614E+02  0.86613647992E+02  0.10566000000E+00 0. -1.
        994    1    1    2    0    0  0.47204268943E+01 -0.14271859377E+02  0.55825185977E+01  0.17194933240E+03  0.17120000000E+03 0.  0.
        998    1    1    2    0    0  0.27726667924E+01 -0.12963232815E+02  0.14125394211E+04  0.14126370196E+04  0.10000000000E+02 0. -1.
</event>
<event>
 5    1  0.1300052E-008  0.3807873E+03  0.7957747E-01  0.3447737E+00
         13   -1    0    0    0    0  0.00000000000E+00  0.00000000000E+00  0.14999999963E+04  0.15000000000E+04  0.10566000000E+00 0. -1.
        994   -1    0    0    0    0 -0.00000000000E+00 -0.00000000000E+00  0.11368683772E-12  0.17120000000E+03  0.17120000000E+03 0.  0.
         13    1    1    2    0    0  0.10353623340E+02  0.32199249077E+01  0.14114990688E+02  0.17799144891E+02  0.10566000000E+00 0. -1.
        994    1    1    2    0    0 -0.67030354308E+01 -0.68408622199E+01  0.40421380062E+01  0.17151532573E+03  0.17120000000E+03 0.  0.
        998    1    1    2    0    0 -0.36505879095E+01  0.36209373122E+01  0.14818428676E+04  0.14818855294E+04  0.10000000000E+02 0. -1.
</event>
<event>
 5    1  0.1300052E-008  0.3846102E+03  0.7957747E-01  0.3431327E+00
         13   -1    0    0    0    0  0.00000000000E+00  0.00000000000E+00  0.14999999963E+04  0.15000000000E+04  0.10566000000E+00 0.  1.
        994   -1    0    0    0    0 -0.00000000000E+00 -0.00000000000E+00  0.11368683772E-12  0.17120000000E+03  0.17120000000E+03 0.  0.
         13    1    1    2    0    0  0.98417117689E+01  0.23623347460E+01  0.27729197869E+02  0.29518799002E+02  0.10566000000E+00 0.  1.
        994    1    1    2    0    0 -0.66413931253E+01 -0.29867090311E-01  0.19690254549E+01  0.17134008888E+03  0.17120000000E+03 0.  0.
        998    1    1    2    0    0 -0.32003186436E+01 -0.23324676557E+01  0.14703017730E+04  0.14703411121E+04  0.10000000000E+02 0.  1.
</event>
<event>
 5    1  0.1300052E-008  0.3815122E+03  0.7957747E-01  0.3444600E+00
         13   -1    0    0    0    0  0.00000000000E+00  0.00000000000E+00  0.14999999963E+04  0.15000000000E+04  0.10566000000E+00 0. -1.
        994   -1    0    0    0    0 -0.00000000000E+00 -0.00000000000E+00  0.11368683772E-12  0.17120000000E+03  0.17120000000E+03 0.  0.
         13    1    1    2    0    0  0.11330927986E+02  0.64598638625E+02  0.10094695636E+03  0.12038136568E+03  0.10566000000E+00 0. -1.
        994    1    1    2    0    0 -0.52502348209E+01 -0.96247059164E+02  0.51854941582E+02  0.20319802246E+03  0.17120000000E+03 0.  0.
        998    1    1    2    0    0 -0.60806931648E+01  0.31648420539E+02  0.13471980983E+04  0.13476206119E+04  0.10000000000E+02 0.  0.
</event>
<event>
 5    1  0.1300052E-008  0.3819958E+03  0.7957747E-01  0.3442514E+00
         13   -1    0    0    0    0  0.00000000000E+00  0.00000000000E+00  0.14999999963E+04  0.15000000000E+04  0.10566000000E+00 0.  1.
        994   -1    0    0    0    0 -0.00000000000E+00 -0.00000000000E+00  0.11368683772E-12  0.17120000000E+03  0.17120000000E+03 0.  0.
         13    1    1    2    0    0 -0.12902587174E+02 -0.17908497802E+02  0.83250817519E+02  0.86127236290E+02  0.10566000000E+00 0.  1.
        994    1    1    2    0    0 -0.86147173435E+01  0.50236036356E+01  0.34593982599E+01  0.17152509258E+03  0.17120000000E+03 0.  0.
        998    1    1    2    0    0  0.21517304518E+02  0.12884894166E+02  0.14132897805E+04  0.14135476711E+04  0.10000000000E+02 0.  1.
</event>
<event>
 5    1  0.1300052E-008  0.3846195E+03  0.7957747E-01  0.3431287E+00
         13   -1    0    0    0    0  0.00000000000E+00  0.00000000000E+00  0.14999999963E+04  0.15000000000E+04  0.10566000000E+00 0. -1.
        994   -1    0    0    0    0 -0.00000000000E+00 -0.00000000000E+00  0.11368683772E-12  0.17120000000E+03  0.17120000000E+03 0.  0.
         13    1    1    2    0    0  0.17135051990E+02 -0.13391104804E+02  0.11613592349E+03  0.11815454110E+03  0.10566000000E+00 0. -1.
        994    1    1    2    0    0 -0.27995234917E+02  0.93136293089E+01  0.46906443349E+01  0.17378699322E+03  0.17120000000E+03 0.  0.
        998    1    1    2    0    0  0.10860182927E+02  0.40774754954E+01  0.13791734285E+04  0.13792584657E+04  0.10000000000E+02 0. -1.
</event>
<event>
 5    1  0.1300052E-008  0.3774568E+03  0.7957747E-01  0.3462307E+00
         13   -1    0    0    0    0  0.00000000000E+00  0.00000000000E+00  0.14999999963E+04  0.15000000000E+04  0.10566000000E+00 0. -1.
        994   -1    0    0    0    0 -0.00000000000E+00 -0.00000000000E+00  0.11368683772E-12  0.17120000000E+03  0.17120000000E+03 0.  0.
         13    1    1    2    0    0  0.11449757653E+03 -0.10090542988E+03  0.53350921403E+03  0.55490872532E+03  0.10566000000E+00 0. -1.
        994    1    1    2    0    0 -0.90394784514E+02  0.10592602509E+03  0.88290876744E+02  0.23768941662E+03  0.17120000000E+03 0.  0.
        998    1    1    2    0    0 -0.24102792021E+02 -0.50205952170E+01  0.87819990550E+03  0.87860185806E+03  0.10000000000E+02 0.  1.
</event>
<event>
 5    1  0.1300052E-008  0.3730236E+03  0.7957747E-01  0.3482109E+00
         13   -1    0    0    0    0  0.00000000000E+00  0.00000000000E+00  0.14999999963E+04  0.15000000000E+04  0.10566000000E+00 0.  1.
        994   -1    0    0    0    0 -0.00000000000E+00 -0.00000000000E+00  0.11368683772E-12  0.17120000000E+03  0.17120000000E+03 0.  0.
         13    1    1    2    0    0 -0.26655030146E+01  0.95042916955E+02  0.38248189623E+03  0.39412266247E+03  0.10566000000E+00 0.  1.
        994    1    1    2    0    0  0.14971547399E+02 -0.44873100397E+02  0.20495736244E+02  0.17879389692E+03  0.17120000000E+03 0.  0.
        998    1    1    2    0    0 -0.12306044384E+02 -0.50169816558E+02  0.10970223638E+04  0.10982834406E+04  0.10000000000E+02 0.  1.
</event>
<event>
 5    1  0.1300052E-008  0.2775611E+03  0.7957747E-01  0.4070495E+00
         13   -1    0    0    0    0  0.00000000000E+00  0.00000000000E+00  0.14999999963E+04  0.15000000000E+04  0.10566000000E+00 0.  1.
        994   -1    0    0    0    0 -0.00000000000E+00 -0.00000000000E+00  0.11368683772E-12  0.17120000000E+03  0.17120000000E+03 0.  0.
         13    1    1    2    0    0  0.17049562408E+03 -0.51299417676E+02  0.51111412841E+03  0.54123751857E+03  0.10566000000E+00 0.  1.
        994    1    1    2    0    0 -0.14783448252E+03  0.63459566847E+02  0.12590420833E+03  0.26653979163E+03  0.17120000000E+03 0.  0.
        998    1    1    2    0    0 -0.22661141569E+02 -0.12160149171E+02  0.86298165954E+03  0.86342268980E+03  0.10000000000E+02 0. -1.
</event>
<event>
 5    1  0.1300052E-008  0.3744916E+03  0.7957747E-01  0.3475500E+00
         13   -1    0    0    0    0  0.00000000000E+00  0.00000000000E+00  0.14999999963E+04  0.15000000000E+04  0.10566000000E+00 0.  1.
        994   -1    0    0    0    0 -0.00000000000E+00 -0.00000000000E+00  0.11368683772E-12  0.17120000000E+03  0.17120000000E+03 0.  0.
         13    1    1    2    0    0  0.71023001867E+02  0.43460602914E+02  0.39202237627E+03  0.40076757037E+03  0.10566000000E+00 0.  1.
        994    1    1    2    0    0 -0.64345340489E+02 -0.39664705898E+02  0.26651370686E+02  0.18903266198E+03  0.17120000000E+03 0.  0.
        998    1    1    2    0    0 -0.66776613780E+01 -0.37958970163E+01  0.10813262493E+04  0.10813997676E+04  0.10000000000E+02 0.  0.
</event>
<event>
 5    1  0.1300052E-008  0.2827318E+03  0.7957747E-01  0.4027572E+00
         13   -1    0    0    0    0  0.00000000000E+00  0.00000000000E+00  0.14999999963E+04  0.15000000000E+04  0.10566000000E+00 0. -1.
        994   -1    0    0    0    0 -0.00000000000E+00 -0.00000000000E+00  0.11368683772E-12  0.17120000000E+03  0.17120000000E+03 0.  0.
         13    1    1    2    0    0 -0.16723780816E+03 -0.29625722017E+02  0.60804932234E+03  0.63132413026E+03  0.10566000000E+00 0. -1.
        994    1    1    2    0    0  0.11271995410E+03  0.50907363557E+02  0.80139219503E+02  0.22589617575E+03  0.17120000000E+03 0.  0.
        998    1    1    2    0    0  0.54517854064E+02 -0.21281641540E+02  0.81181145443E+03  0.81397969399E+03  0.10000000000E+02 0. -1.
</event>
<event>
 5    1  0.1300052E-008  0.3810107E+03  0.7957747E-01  0.3446769E+00
         13   -1    0    0    0    0  0.00000000000E+00  0.00000000000E+00  0.14999999963E+04  0.15000000000E+04  0.10566000000E+00 0.  1.
        994   -1    0    0    0    0 -0.00000000000E+00 -0.00000000000E+00  0.11368683772E-12  0.17120000000E+03  0.17120000000E+03 0.  0.
         13    1    1    2    0    0 -0.24456968979E+01  0.17447337530E+02  0.43139975390E+02  0.46598923387E+02  0.10566000000E+00 0.  1.
        994    1    1    2    0    0  0.71345280316E+01 -0.23524859684E+00  0.37936011289E+01  0.17139074725E+03  0.17120000000E+03 0.  0.
        998    1    1    2    0    0 -0.46888311337E+01 -0.17212088933E+02  0.14530664198E+04  0.14532103294E+04  0.10000000000E+02 0.  1.
</event>
<event>
 5    1  0.1300052E-008  0.3781180E+03  0.7957747E-01  0.3459394E+00
         13   -1    0    0    0    0  0.00000000000E+00  0.00000000000E+00  0.14999999963E+04  0.15000000000E+04  0.10566000000E+00 0. -1.
        994   -1    0    0    0    0 -0.00000000000E+00 -0.00000000000E+00  0.11368683772E-12  0.17120000000E+03  0.17120000000E+03 0.  0.
         13    1    1    2    0    0  0.41287901180E+01  0.12707761562E+02  0.15639140189E+02  0.20570074907E+02  0.10566000000E+00 0. -1.
        994    1    1    2    0    0 -0.39648910117E+01 -0.37993271859E+00  0.51395449837E+01  0.17132343574E+03  0.17120000000E+03 0.  0.
        998    1    1    2    0    0 -0.16389910632E+00 -0.12327828844E+02  0.14792213111E+04  0.14793064894E+04  0.10000000000E+02 0. -1.
</event>
<event>
 5    1  0.1300052E-008  0.3849348E+03  0.7957747E-01  0.3429949E+00
         13   -1    0    0    0    0  0.00000000000E+00  0.00000000000E+00  0.14999999963E+04  0.15000000000E+04  0.10566000000E+00 0.  1.
        994   -1    0    0    0    0 -0.00000000000E+00 -0.00000000000E+00  0.11368683772E-12  0.17120000000E+03  0.17120000000E+03 0.  0.
         13    1    1    2    0    0 -0.11329062862E+02 -0.80270873169E+01  0.57821663226E+02  0.59465432802E+02  0.10566000000E+00 0.  1.
        994    1    1    2    0    0  0.57313084731E+01  0.84171352740E+01  0.20037025055E+01  0.17151428770E+03  0.17120000000E+03 0.  0.
        998    1    1    2    0    0  0.55977543886E+01 -0.39004795716E+00  0.14401746305E+04  0.14402202795E+04  0.10000000000E+02 0.  1.
</event>
<event>
 5    1  0.1300052E-008  0.3852905E+03  0.7957747E-01  0.3428441E+00
         13   -1    0    0    0    0  0.00000000000E+00  0.00000000000E+00  0.14999999963E+04  0.15000000000E+04  0.10566000000E+00 0. -1.
        994   -1    0    0    0    0 -0.00000000000E+00 -0.00000000000E+00  0.11368683772E-12  0.17120000000E+03  0.17120000000E+03 0.  0.
         13    1    1    2    0    0  0.13615633211E+02 -0.33123444166E+01  0.73761005176E+02  0.75080317939E+02  0.10566000000E+00 0. -1.
        994    1    1    2    0    0  0.76196102130E+01  0.78982243322E+01  0.18817887286E+01  0.17156171349E+03  0.17120000000E+03 0.  0.
        998    1    1    2    0    0 -0.21235243425E+02 -0.45858799156E+01  0.14243572024E+04  0.14245579686E+04  0.10000000000E+02 0. -1.
</event>
<event>
 5    1  0.1300052E-008  0.3696058E+03  0.7957747E-01  0.3497705E+00
         13   -1    0    0    0    0  0.00000000000E+00  0.00000000000E+00  0.14999999963E+04  0.15000000000E+04  0.10566000000E+00 0.  1.
        994   -1    0    0    0    0 -0.00000000000E+00 -0.00000000000E+00  0.11368683772E-12  0.17120000000E+03  0.17120000000E+03 0.  0.
         13    1    1    2    0    0  0.33555346316E+02  0.41119514017E+02  0.11749388216E+03  0.12892478120E+03  0.10566000000E+00 0.  1.
        994    1    1    2    0    0 -0.46952059306E+02 -0.32203864027E+02  0.22134558039E+02  0.18177173430E+03  0.17120000000E+03 0.  0.
        998    1    1    2    0    0  0.13396712990E+02 -0.89156499900E+01  0.13603715561E+04  0.13605034845E+04  0.10000000000E+02 0.  1.
</event>
<event>
 5    1  0.1300052E-008  0.3851338E+03  0.7957747E-01  0.3429105E+00
         13   -1    0    0    0    0  0.00000000000E+00  0.00000000000E+00  0.14999999963E+04  0.15000000000E+04  0.10566000000E+00 0. -1.
        994   -1    0    0    0    0 -0.00000000000E+00 -0.00000000000E+00  0.11368683772E-12  0.17120000000E+03  0.17120000000E+03 0.  0.
         13    1    1    2    0    0  0.16246553240E+02 -0.55913316624E+01  0.93682528951E+02  0.95245161959E+02  0.10566000000E+00 0. -1.
        994    1    1    2    0    0 -0.11968143629E+02  0.28192790740E+01  0.20608361618E+01  0.17165334789E+03  0.17120000000E+03 0.  0.
        998    1    1    2    0    0 -0.42784096110E+01  0.27720525884E+01  0.14042566312E+04  0.14043014902E+04  0.10000000000E+02 0. -1.
</event>
<event>
 5    1  0.1300052E-008  0.3798678E+03  0.7957747E-01  0.3451735E+00
         13   -1    0    0    0    0  0.00000000000E+00  0.00000000000E+00  0.14999999963E+04  0.15000000000E+04  0.10566000000E+00 0. -1.
        994   -1    0    0    0    0 -0.00000000000E+00 -0.00000000000E+00  0.11368683772E-12  0.17120000000E+03  0.17120000000E+03 0.  0.
         13    1    1    2    0    0  0.17239079575E+02  0.26236456620E+02  0.12838807070E+03  0.13217051631E+03  0.10566000000E+00 0. -1.
        994    1    1    2    0    0  0.47945494405E+01 -0.48188612554E+01  0.43544747280E+01  0.17139022895E+03  0.17120000000E+03 0.  0.
        998    1    1    2    0    0 -0.22033629015E+02 -0.21417595364E+02  0.13672574509E+04  0.13676392547E+04  0.10000000000E+02 0. -1.
</event>
<event>
 5    1  0.1300052E-008  0.3728548E+03  0.7957747E-01  0.3482873E+00
         13   -1    0    0    0    0  0.00000000000E+00  0.00000000000E+00  0.14999999963E+04  0.15000000000E+04  0.10566000000E+00 0. -1.
        994   -1    0    0    0    0 -0.00000000000E+00 -0.00000000000E+00  0.11368683772E-12  0.17120000000E+03  0.17120000000E+03 0.  0.
         13    1    1    2    0    0  0.89300080716E+01 -0.22040401247E+02  0.32471898788E+02  0.40248723038E+02  0.10566000000E+00 0. -1.
        994    1    1    2    0    0 -0.66648705538E+01  0.23270322106E+02  0.97932965167E+01  0.17317989793E+03  0.17120000000E+03 0.  0.
        998    1    1    2    0    0 -0.22651375179E+01 -0.12299208590E+01  0.14577348010E+04  0.14577713790E+04  0.10000000000E+02 0. -1.
</event>
<event>
 5    1  0.1300052E-008  0.3827600E+03  0.7957747E-01  0.3439228E+00
         13   -1    0    0    0    0  0.00000000000E+00  0.00000000000E+00  0.14999999963E+04  0.15000000000E+04  0.10566000000E+00 0. -1.
        994   -1    0    0    0    0 -0.00000000000E+00 -0.00000000000E+00  0.11368683772E-12  0.17120000000E+03  0.17120000000E+03 0.  0.
         13    1    1    2    0    0 -0.18510320625E+02  0.80313995694E+01  0.71746966611E+02  0.74530354425E+02  0.10566000000E+00 0. -1.
        994    1    1    2    0    0  0.14158992324E+02 -0.10026231644E+02  0.37441039423E+01  0.17211757812E+03  0.17120000000E+03 0.  0.
        998    1    1    2    0    0  0.43513283007E+01  0.19948320750E+01  0.14245089257E+04  0.14245520675E+04  0.10000000000E+02 0. -1.
</event>
<event>
 5    1  0.1300052E-008  0.3809640E+03  0.7957747E-01  0.3446972E+00
         13   -1    0    0    0    0  0.00000000000E+00  0.00000000000E+00  0.14999999963E+04  0.15000000000E+04  0.10566000000E+00 0.  1.
        994   -1    0    0    0    0 -0.00000000000E+00 -0.00000000000E+00  0.11368683772E-12  0.17120000000E+03  0.17120000000E+03 0.  0.
         13    1    1    2    0    0  0.49751009581E+02  0.23746979944E+02  0.28630768579E+03  0.29156677471E+03  0.10566000000E+00 0.  1.
        994    1    1    2    0    0 -0.66169223923E+02 -0.29947416619E+02  0.21430378085E+02  0.18720020048E+03  0.17120000000E+03 0.  0.
        998    1    1    2    0    0  0.16418214342E+02  0.62004366748E+01  0.11922619324E+04  0.11924330248E+04  0.10000000000E+02 0.  1.
</event>
<event>
 5    1  0.1300052E-008  0.3823096E+03  0.7957747E-01  0.3441163E+00
         13   -1    0    0    0    0  0.00000000000E+00  0.00000000000E+00  0.14999999963E+04  0.15000000000E+04  0.10566000000E+00 0.  1.
        994   -1    0    0    0    0 -0.00000000000E+00 -0.00000000000E+00  0.11368683772E-12  0.17120000000E+03  0.17120000000E+03 0.  0.
         13    1    1    2    0    0  0.11499505924E+02  0.52116390626E+01  0.25479110575E+02  0.28435823497E+02  0.10566000000E+00 0.  1.
        994    1    1    2    0    0 -0.84371465752E+01 -0.92896624803E+01  0.34944258208E+01  0.17169488718E+03  0.17120000000E+03 0.  0.
        998    1    1    2    0    0 -0.30623593487E+01  0.40780234177E+01  0.14710264599E+04  0.14710692893E+04  0.10000000000E+02 0.  1.
</event>
<event>
 5    1  0.1300052E-008  0.3842305E+03  0.7957747E-01  0.3432942E+00
         13   -1    0    0    0    0  0.00000000000E+00  0.00000000000E+00  0.14999999963E+04  0.15000000000E+04  0.10566000000E+00 0.  1.
        994   -1    0    0    0    0 -0.00000000000E+00 -0.00000000000E+00  0.11368683772E-12  0.17120000000E+03  0.17120000000E+03 0.  0.
         13    1    1    2    0    0 -0.17047653388E+02 -0.51934425066E+01  0.82814853477E+02  0.84710716273E+02  0.10566000000E+00 0.  1.
        994    1    1    2    0    0  0.43184012496E+01 -0.24739045085E+01  0.20943398870E+01  0.17128512794E+03  0.17120000000E+03 0.  0.
        998    1    1    2    0    0  0.12729252138E+02  0.76673470151E+01  0.14150908029E+04  0.14152041558E+04  0.10000000000E+02 0.  1.
</event>
<event>
 5    1  0.1300052E-008  0.3840880E+03  0.7957747E-01  0.3433549E+00
         13   -1    0    0    0    0  0.00000000000E+00  0.00000000000E+00  0.14999999963E+04  0.15000000000E+04  0.10566000000E+00 0.  1.
        994   -1    0    0    0    0 -0.00000000000E+00 -0.00000000000E+00  0.11368683772E-12  0.17120000000E+03  0.17120000000E+03 0.  0.
         13    1    1    2    0    0 -0.14489556164E+02  0.10702254698E+02  0.76545901210E+02  0.78636961091E+02  0.10566000000E+00 0.  1.
        994    1    1    2    0    0  0.12446610082E+02 -0.60042562027E+01  0.27137535642E+01  0.17177826886E+03  0.17120000000E+03 0.  0.
        998    1    1    2    0    0  0.20429460819E+01 -0.46979984953E+01  0.14207403415E+04  0.14207847700E+04  0.10000000000E+02 0.  1.
</event>
<event>
 5    1  0.1300052E-008  0.3662276E+03  0.7957747E-01  0.3513410E+00
         13   -1    0    0    0    0  0.00000000000E+00  0.00000000000E+00  0.14999999963E+04  0.15000000000E+04  0.10566000000E+00 0.  1.
        994   -1    0    0    0    0 -0.00000000000E+00 -0.00000000000E+00  0.11368683772E-12  0.17120000000E+03  0.17120000000E+03 0.  0.
         13    1    1    2    0    0 -0.11514408459E+03  0.21016762173E+03  0.11235536348E+04  0.11488260838E+04  0.10566000000E+00 0.  1.
        994    1    1    2    0    0  0.10861775744E+03 -0.19027524623E+03  0.19538983948E+03  0.33983689607E+03  0.17120000000E+03 0.  0.
        998    1    1    2    0    0  0.65263271542E+01 -0.19892375499E+02  0.18105652200E+03  0.18253702010E+03  0.10000000000E+02 0. -1.
</event>
<event>
 5    1  0.1300052E-008  0.3853229E+03  0.7957747E-01  0.3428304E+00
         13   -1    0    0    0    0  0.00000000000E+00  0.00000000000E+00  0.14999999963E+04  0.15000000000E+04  0.10566000000E+00 0. -1.
        994   -1    0    0    0    0 -0.00000000000E+00 -0.00000000000E+00  0.11368683772E-12  0.17120000000E+03  0.17120000000E+03 0.  0.
         13    1    1    2    0    0 -0.99683839831E+01  0.48797997989E+01  0.42449416344E+02  0.43876477039E+02  0.10566000000E+00 0. -1.
        994    1    1    2    0    0  0.80208330272E+01  0.42504208689E+01  0.17406549641E+01  0.17144932114E+03  0.17120000000E+03 0.  0.
        998    1    1    2    0    0  0.19475509559E+01 -0.91302206678E+01  0.14558099250E+04  0.14558742018E+04  0.10000000000E+02 0. -1.
</event>
<event>
 5    1  0.1300052E-008  0.3854095E+03  0.7957747E-01  0.3427937E+00
         13   -1    0    0    0    0  0.00000000000E+00  0.00000000000E+00  0.14999999963E+04  0.15000000000E+04  0.10566000000E+00 0.  1.
        994   -1    0    0    0    0 -0.00000000000E+00 -0.00000000000E+00  0.11368683772E-12  0.17120000000E+03  0.17120000000E+03 0.  0.
         13    1    1    2    0    0  0.10779006615E+02 -0.58748849180E+01  0.51242872297E+02  0.52692925348E+02  0.10566000000E+00 0.  1.
        994    1    1    2    0    0 -0.10862097384E+02  0.90020447460E+01  0.20808682982E+01  0.17179287524E+03  0.17120000000E+03 0.  0.
        998    1    1    2    0    0  0.83090768542E-01 -0.31271598280E+01  0.14466762557E+04  0.14467141994E+04  0.10000000000E+02 0.  1.
</event>
<event>
 5    1  0.1300052E-008  0.3738210E+03  0.7957747E-01  0.3478512E+00
         13   -1    0    0    0    0  0.00000000000E+00  0.00000000000E+00  0.14999999963E+04  0.15000000000E+04  0.10566000000E+00 0. -1.
        994   -1    0    0    0    0 -0.00000000000E+00 -0.00000000000E+00  0.11368683772E-12  0.17120000000E+03  0.17120000000E+03 0.  0.
         13    1    1    2    0    0 -0.29214935635E+02 -0.14814734973E+01  0.60290109372E+02  0.67012056229E+02  0.10566000000E+00 0. -1.
        994    1    1    2    0    0 -0.41671666589E+01  0.97045922124E+01  0.76661734327E+01  0.17169669363E+03  0.17120000000E+03 0.  0.
        998    1    1    2    0    0  0.33382102293E+02 -0.82231187151E+01  0.14320437135E+04  0.14324912501E+04  0.10000000000E+02 0. -1.
</event>
<event>
 5    1  0.1300052E-008  0.3852392E+03  0.7957747E-01  0.3428658E+00
         13   -1    0    0    0    0  0.00000000000E+00  0.00000000000E+00  0.14999999963E+04  0.15000000000E+04  0.10566000000E+00 0. -1.
        994   -1    0    0    0    0 -0.00000000000E+00 -0.00000000000E+00  0.11368683772E-12  0.17120000000E+03  0.17120000000E+03 0.  0.
         13    1    1    2    0    0  0.95111217680E+01 -0.11084817997E+02  0.66201217515E+02  0.67793414074E+02  0.10566000000E+00 0. -1.
        994    1    1    2    0    0 -0.25731301363E+02  0.44358122490E+01  0.37550226800E+01  0.17322042748E+03  0.17120000000E+03 0.  0.
        998    1    1    2    0    0  0.16220179595E+02  0.66490057482E+01  0.14300437561E+04  0.14301861584E+04  0.10000000000E+02 0. -1.
</event>
<event>
 5    1  0.1300052E-008  0.3825466E+03  0.7957747E-01  0.3440145E+00
         13   -1    0    0    0    0  0.00000000000E+00  0.00000000000E+00  0.14999999963E+04  0.15000000000E+04  0.10566000000E+00 0.  1.
        994   -1    0    0    0    0 -0.00000000000E+00 -0.00000000000E+00  0.11368683772E-12  0.17120000000E+03  0.17120000000E+03 0.  0.
         13    1    1    2    0    0 -0.11786070908E+02 -0.29572689535E+02  0.20292434961E+02  0.37752476932E+02  0.10566000000E+00 0.  1.
        994    1    1    2    0    0  0.17089545771E+02  0.40507681412E+02  0.24836693603E+02  0.17849152971E+03  0.17120000000E+03 0.  0.
        998    1    1    2    0    0 -0.53034748626E+01 -0.10934991877E+02  0.14548708677E+04  0.14549559934E+04  0.10000000000E+02 0.  1.
</event>
<event>
 5    1  0.1300052E-008  0.3837151E+03  0.7957747E-01  0.3435140E+00
         13   -1    0    0    0    0  0.00000000000E+00  0.00000000000E+00  0.14999999963E+04  0.15000000000E+04  0.10566000000E+00 0. -1.
        994   -1    0    0    0    0 -0.00000000000E+00 -0.00000000000E+00  0.11368683772E-12  0.17120000000E+03  0.17120000000E+03 0.  0.
         13    1    1    2    0    0 -0.16141571694E+02  0.10781933093E+02  0.77796077245E+02  0.80181302164E+02  0.10566000000E+00 0. -1.
        994    1    1    2    0    0  0.21709258938E+02 -0.77923495665E+01  0.40283068022E+01  0.17279374957E+03  0.17120000000E+03 0.  0.
        998    1    1    2    0    0 -0.55676872438E+01 -0.29895835265E+01  0.14181756122E+04  0.14182249483E+04  0.10000000000E+02 0. -1.
</event>
<event>
 5    1  0.1300052E-008  0.3831344E+03  0.7957747E-01  0.3437623E+00
         13   -1    0    0    0    0  0.00000000000E+00  0.00000000000E+00  0.14999999963E+04  0.15000000000E+04  0.10566000000E+00 0. -1.
        994   -1    0    0    0    0 -0.00000000000E+00 -0.00000000000E+00  0.11368683772E-12  0.17120000000E+03  0.17120000000E+03 0.  0.
         13    1    1    2    0    0 -0.44609833454E+01 -0.11333819763E+02  0.27628412570E+02  0.30194307212E+02  0.10566000000E+00 0. -1.
        994    1    1    2    0    0  0.62407344587E+01  0.11873635953E+02  0.31547676106E+01  0.17175366825E+03  0.17120000000E+03 0.  0.
        998    1    1    2    0    0 -0.17797511133E+01 -0.53981618981E+00  0.14692168161E+04  0.14692520245E+04  0.10000000000E+02 0. -1.
</event>
<event>
 5    1  0.1300052E-008  0.3845291E+03  0.7957747E-01  0.3431672E+00
         13   -1    0    0    0    0  0.00000000000E+00  0.00000000000E+00  0.14999999963E+04  0.15000000000E+04  0.10566000000E+00 0.  1.
        994   -1    0    0    0    0 -0.00000000000E+00 -0.00000000000E+00  0.11368683772E-12  0.17120000000E+03  0.17120000000E+03 0.  0.
         13    1    1    2    0    0  0.95845667025E+01 -0.15295916350E+02  0.91223666508E+02  0.92992459216E+02  0.10566000000E+00 0.  1.
        994    1    1    2    0    0 -0.29538909798E+01  0.42802849706E+01  0.19531882975E+01  0.17129010846E+03  0.17120000000E+03 0.  0.
        998    1    1    2    0    0 -0.66306757227E+01  0.11015631380E+02  0.14068231415E+04  0.14069174323E+04  0.10000000000E+02 0.  1.
</event>
<event>
 5    1  0.1300052E-008  0.3794988E+03  0.7957747E-01  0.3453344E+00
         13   -1    0    0    0    0  0.00000000000E+00  0.00000000000E+00  0.14999999963E+04  0.15000000000E+04  0.10566000000E+00 0. -1.
        994   -1    0    0    0    0 -0.00000000000E+00 -0.00000000000E+00  0.11368683772E-12  0.17120000000E+03  0.17120000000E+03 0.  0.
         13    1    1    2    0    0  0.19475479200E+02 -0.30590272109E+02  0.13722133368E+03  0.14193225362E+03  0.10566000000E+00 0. -1.
        994    1    1    2    0    0 -0.21699227943E+02  0.27544472599E+02  0.85144851650E+01  0.17496139838E+03  0.17120000000E+03 0.  0.
        998    1    1    2    0    0  0.22237487432E+01  0.30457995100E+01  0.13542641774E+04  0.13543063480E+04  0.10000000000E+02 0. -1.
</event>
<event>
 5    1  0.1300052E-008  0.3762869E+03  0.7957747E-01  0.3467487E+00
         13   -1    0    0    0    0  0.00000000000E+00  0.00000000000E+00  0.14999999963E+04  0.15000000000E+04  0.10566000000E+00 0.  1.
        994   -1    0    0    0    0 -0.00000000000E+00 -0.00000000000E+00  0.11368683772E-12  0.17120000000E+03  0.17120000000E+03 0.  0.
         13    1    1    2    0    0  0.13339150002E+02  0.54518023359E+01  0.47536462871E+00  0.14418467569E+02  0.10566000000E+00 0.  1.
        994    1    1    2    0    0 -0.26201120269E+02 -0.19810520211E+02  0.18169259132E+02  0.17526698888E+03  0.17120000000E+03 0.  0.
        998    1    1    2    0    0  0.12861970267E+02  0.14358717875E+02  0.14813553725E+04  0.14815145435E+04  0.10000000000E+02 0.  1.
</event>
<event>
 5    1  0.1300052E-008  0.3830068E+03  0.7957747E-01  0.3438170E+00
         13   -1    0    0    0    0  0.00000000000E+00  0.00000000000E+00  0.14999999963E+04  0.15000000000E+04  0.10566000000E+00 0.  1.
        994   -1    0    0    0    0 -0.00000000000E+00 -0.00000000000E+00  0.11368683772E-12  0.17120000000E+03  0.17120000000E+03 0.  0.
         13    1    1    2    0    0 -0.12844508431E-01  0.11759537521E+02  0.25897945436E+02  0.28442953952E+02  0.10566000000E+00 0.  1.
        994    1    1    2    0    0 -0.15160383166E+01 -0.28924921426E+01  0.26582723017E+01  0.17125177749E+03  0.17120000000E+03 0.  0.
        998    1    1    2    0    0  0.15288828250E+01 -0.88670453785E+01  0.14714437785E+04  0.14715052686E+04  0.10000000000E+02 0.  1.
</event>
<event>
 5    1  0.1300052E-008  0.3799093E+03  0.7957747E-01  0.3451554E+00
         13   -1    0    0    0    0  0.00000000000E+00  0.00000000000E+00  0.14999999963E+04  0.15000000000E+04  0.10566000000E+00 0.  1.
        994   -1    0    0    0    0 -0.00000000000E+00 -0.00000000000E+00  0.11368683772E-12  0.17120000000E+03  0.17120000000E+03 0.  0.
         13    1    1    2    0    0 -0.27645022595E+01 -0.41942654832E+02  0.24634574078E+03  0.24990611023E+03  0.10566000000E+00 0.  1.
        994    1    1    2    0    0 -0.59442446726E+01  0.58563172301E+01  0.44118195567E+01  0.17146000889E+03  0.17120000000E+03 0.  0.
        998    1    1    2    0    0  0.87087469321E+01  0.36086337602E+02  0.12492424359E+04  0.12498338809E+04  0.10000000000E+02 0.  1.
</event>
<event>
 5    1  0.1300052E-008  0.3795799E+03  0.7957747E-01  0.3452990E+00
         13   -1    0    0    0    0  0.00000000000E+00  0.00000000000E+00  0.14999999963E+04  0.15000000000E+04  0.10566000000E+00 0. -1.
        994   -1    0    0    0    0 -0.00000000000E+00 -0.00000000000E+00  0.11368683772E-12  0.17120000000E+03  0.17120000000E+03 0.  0.
         13    1    1    2    0    0  0.64333457264E+01 -0.19517003041E+02  0.44899788285E+02  0.49379180805E+02  0.10566000000E+00 0. -1.
        994    1    1    2    0    0  0.16676992665E+01  0.28068557282E+02  0.69965462235E+01  0.17363472230E+03  0.17120000000E+03 0.  0.
        998    1    1    2    0    0 -0.81010449930E+01 -0.85515542415E+01  0.14481036618E+04  0.14481860969E+04  0.10000000000E+02 0. -1.
</event>
<event>
 5    1  0.1300052E-008  0.3809931E+03  0.7957747E-01  0.3446846E+00
         13   -1    0    0    0    0  0.00000000000E+00  0.00000000000E+00  0.14999999963E+04  0.15000000000E+04  0.10566000000E+00 0.  1.
        994   -1    0    0    0    0 -0.00000000000E+00 -0.00000000000E+00  0.11368683772E-12  0.17120000000E+03  0.17120000000E+03 0.  0.
         13    1    1    2    0    0 -0.10453120485E+02  0.12510695505E+02  0.35149492369E+02  0.38746396062E+02  0.10566000000E+00 0.  1.
        994    1    1    2    0    0  0.68957376116E+01 -0.91925602011E+01  0.40727969153E+01  0.17163356908E+03  0.17120000000E+03 0.  0.
        998    1    1    2    0    0  0.35573828738E+01 -0.33181353037E+01  0.14607777070E+04  0.14608200349E+04  0.10000000000E+02 0.  1.
</event>
<event>
 5    1  0.1300052E-008  0.3843948E+03  0.7957747E-01  0.3432243E+00
         13   -1    0    0    0    0  0.00000000000E+00  0.00000000000E+00  0.14999999963E+04  0.15000000000E+04  0.10566000000E+00 0.  1.
        994   -1    0    0    0    0 -0.00000000000E+00 -0.00000000000E+00  0.11368683772E-12  0.17120000000E+03  0.17120000000E+03 0.  0.
         13    1    1    2    0    0  0.11646464619E+02 -0.17057007668E+02  0.10796070617E+03  0.10991863759E+03  0.10566000000E+00 0.  1.
        994    1    1    2    0    0 -0.75116141760E+00  0.18639745290E+02  0.30784389939E+01  0.17224088114E+03  0.17120000000E+03 0.  0.
        998    1    1    2    0    0 -0.10895303201E+02 -0.15827376222E+01  0.13889608511E+04  0.13890404813E+04  0.10000000000E+02 0.  1.
</event>
<event>
 5    1  0.1300052E-008  0.3765446E+03  0.7957747E-01  0.3466343E+00
         13   -1    0    0    0    0  0.00000000000E+00  0.00000000000E+00  0.14999999963E+04  0.15000000000E+04  0.10566000000E+00 0.  1.
        994   -1    0    0    0    0 -0.00000000000E+00 -0.00000000000E+00  0.11368683772E-12  0.17120000000E+03  0.17120000000E+03 0.  0.
         13    1    1    2    0    0 -0.66222236161E+01  0.37522172028E+02  0.11781550549E+03  0.12382355082E+03  0.10566000000E+00 0.  1.
        994    1    1    2    0    0 -0.40247477390E+01 -0.30069878374E+02  0.90063513607E+01  0.17410040363E+03  0.17120000000E+03 0.  0.
        998    1    1    2    0    0  0.10646971355E+02 -0.74522936542E+01  0.13731781394E+04  0.13732760456E+04  0.10000000000E+02 0.  1.
</event>
<event>
 5    1  0.1300052E-008  0.4189918E+03  0.7957747E-01  0.3297174E+00
         13   -1    0    0    0    0  0.00000000000E+00  0.00000000000E+00  0.14999999963E+04  0.15000000000E+04  0.10566000000E+00 0. -1.
        994   -1    0    0    0    0 -0.00000000000E+00 -0.00000000000E+00  0.11368683772E-12  0.17120000000E+03  0.17120000000E+03 0.  0.
         13    1    1    2    0    0 -0.11431898847E+03 -0.38159419297E+02  0.16656497563E+03  0.20559395584E+03  0.10566000000E+00 0. -1.
        994    1    1    2    0    0  0.90388136538E+02  0.33550559302E+02  0.80401694356E+02  0.21229584949E+03  0.17120000000E+03 0.  0.
        998    1    1    2    0    0  0.23930851936E+02  0.46088599948E+01  0.12530333263E+04  0.12533101947E+04  0.10000000000E+02 0. -1.
</event>
<event>
 5    1  0.1300052E-008  0.3818119E+03  0.7957747E-01  0.3443307E+00
         13   -1    0    0    0    0  0.00000000000E+00  0.00000000000E+00  0.14999999963E+04  0.15000000000E+04  0.10566000000E+00 0.  1.
        994   -1    0    0    0    0 -0.00000000000E+00 -0.00000000000E+00  0.11368683772E-12  0.17120000000E+03  0.17120000000E+03 0.  0.
         13    1    1    2    0    0  0.60593570143E+01 -0.11514892505E+02  0.24679363113E+02  0.27899653843E+02  0.10566000000E+00 0.  1.
        994    1    1    2    0    0 -0.67014752594E+01  0.11890709423E+02  0.38406268738E+01  0.17178617277E+03  0.17120000000E+03 0.  0.
        998    1    1    2    0    0  0.64211824509E+00 -0.37581691791E+00  0.14714800063E+04  0.14715141734E+04  0.10000000000E+02 0.  1.
</event>
<event>
 5    1  0.1300052E-008  0.3786784E+03  0.7957747E-01  0.3456933E+00
         13   -1    0    0    0    0  0.00000000000E+00  0.00000000000E+00  0.14999999963E+04  0.15000000000E+04  0.10566000000E+00 0.  1.
        994   -1    0    0    0    0 -0.00000000000E+00 -0.00000000000E+00  0.11368683772E-12  0.17120000000E+03  0.17120000000E+03 0.  0.
         13    1    1    2    0    0 -0.54930540823E+01  0.53756816404E+02  0.24810748550E+03  0.25392381629E+03  0.10566000000E+00 0.  1.
        994    1    1    2    0    0  0.10957356712E+02 -0.56226539290E+02  0.15899712368E+02  0.18122838696E+03  0.17120000000E+03 0.  0.
        998    1    1    2    0    0 -0.54643026296E+01  0.24697228863E+01  0.12359927984E+04  0.12360477968E+04  0.10000000000E+02 0.  1.
</event>
<event>
 5    1  0.1300052E-008  0.3838140E+03  0.7957747E-01  0.3434718E+00
         13   -1    0    0    0    0  0.00000000000E+00  0.00000000000E+00  0.14999999963E+04  0.15000000000E+04  0.10566000000E+00 0.  1.
        994   -1    0    0    0    0 -0.00000000000E+00 -0.00000000000E+00  0.11368683772E-12  0.17120000000E+03  0.17120000000E+03 0.  0.
         13    1    1    2    0    0 -0.96881645843E+01 -0.10278721272E+02  0.42191055246E+02  0.44492796617E+02  0.10566000000E+00 0.  1.
        994    1    1    2    0    0  0.31052146792E+01  0.25725753904E+02  0.44399740195E+01  0.17320684207E+03  0.17120000000E+03 0.  0.
        998    1    1    2    0    0  0.65829499050E+01 -0.15447032632E+02  0.14533689670E+04  0.14535003613E+04  0.10000000000E+02 0.  1.
</event>
<event>
 5    1  0.1300052E-008  0.3771610E+03  0.7957747E-01  0.3463614E+00
         13   -1    0    0    0    0  0.00000000000E+00  0.00000000000E+00  0.14999999963E+04  0.15000000000E+04  0.10566000000E+00 0.  1.
        994   -1    0    0    0    0 -0.00000000000E+00 -0.00000000000E+00  0.11368683772E-12  0.17120000000E+03  0.17120000000E+03 0.  0.
         13    1    1    2    0    0  0.37057537940E+02  0.30613925411E+02  0.22769662349E+03  0.23271492659E+03  0.10566000000E+00 0.  1.
        994    1    1    2    0    0 -0.69938753725E+01 -0.12096834047E+02  0.62323463713E+01  0.17188231389E+03  0.17120000000E+03 0.  0.
        998    1    1    2    0    0 -0.30063662567E+02 -0.18517091365E+02  0.12660710264E+04  0.12666027595E+04  0.10000000000E+02 0.  1.
</event>
<event>
 5    1  0.1300052E-008  0.3781485E+03  0.7957747E-01  0.3459260E+00
         13   -1    0    0    0    0  0.00000000000E+00  0.00000000000E+00  0.14999999963E+04  0.15000000000E+04  0.10566000000E+00 0. -1.
        994   -1    0    0    0    0 -0.00000000000E+00 -0.00000000000E+00  0.11368683772E-12  0.17120000000E+03  0.17120000000E+03 0.  0.
         13    1    1    2    0    0  0.37539528785E+02 -0.68383787489E+01  0.15396465055E+03  0.15862252182E+03  0.10566000000E+00 0. -1.
        994    1    1    2    0    0 -0.75441358412E+01  0.66967176064E+01  0.54130254722E+01  0.17158234425E+03  0.17120000000E+03 0.  0.
        998    1    1    2    0    0 -0.29995392944E+02  0.14166114256E+00  0.13406223203E+04  0.13409951339E+04  0.10000000000E+02 0. -1.
</event>
<event>
 5    1  0.1300052E-008  0.3831644E+03  0.7957747E-01  0.3437495E+00
         13   -1    0    0    0    0  0.00000000000E+00  0.00000000000E+00  0.14999999963E+04  0.15000000000E+04  0.10566000000E+00 0. -1.
        994   -1    0    0    0    0 -0.00000000000E+00 -0.00000000000E+00  0.11368683772E-12  0.17120000000E+03  0.17120000000E+03 0.  0.
         13    1    1    2    0    0  0.10934886868E+02 -0.20785061752E+01  0.22844283344E+02  0.25411894543E+02  0.10566000000E+00 0. -1.
        994    1    1    2    0    0 -0.15920963757E+02  0.95552375618E-01  0.33833142150E+01  0.17197201235E+03  0.17120000000E+03 0.  0.
        998    1    1    2    0    0  0.49860768889E+01  0.19829537996E+01  0.14737723987E+04  0.14738160931E+04  0.10000000000E+02 0. -1.
</event>
<event>
 5    1  0.1300052E-008  0.3753200E+03  0.7957747E-01  0.3471793E+00
         13   -1    0    0    0    0  0.00000000000E+00  0.00000000000E+00  0.14999999963E+04  0.15000000000E+04  0.10566000000E+00 0.  1.
        994   -1    0    0    0    0 -0.00000000000E+00 -0.00000000000E+00  0.11368683772E-12  0.17120000000E+03  0.17120000000E+03 0.  0.
         13    1    1    2    0    0 -0.78195555447E+02  0.10203735086E+03  0.70855053439E+03  0.72011807144E+03  0.10566000000E+00 0.  1.
        994    1    1    2    0    0  0.10738720692E+03 -0.76308020102E+02  0.67930717351E+02  0.22644855597E+03  0.17120000000E+03 0.  0.
        998    1    1    2    0    0 -0.29191651469E+02 -0.25729330757E+02  0.72351874454E+03  0.72463337259E+03  0.10000000000E+02 0.  1.
</event>
<event>
 5    1  0.1300052E-008  0.3691014E+03  0.7957747E-01  0.3500031E+00
         13   -1    0    0    0    0  0.00000000000E+00  0.00000000000E+00  0.14999999963E+04  0.15000000000E+04  0.10566000000E+00 0.  1.
        994   -1    0    0    0    0 -0.00000000000E+00 -0.00000000000E+00  0.11368683772E-12  0.17120000000E+03  0.17120000000E+03 0.  0.
         13    1    1    2    0    0  0.74444355661E+02 -0.17268447798E+02  0.24443403111E+03  0.25610187057E+03  0.10566000000E+00 0.  1.
        994    1    1    2    0    0 -0.76779504274E+02  0.18463600865E+02  0.31691486344E+02  0.19117998624E+03  0.17120000000E+03 0.  0.
        998    1    1    2    0    0  0.23351486128E+01 -0.11951530674E+01  0.12238744788E+04  0.12239181432E+04  0.10000000000E+02 0.  1.
</event>
<event>
 5    1  0.2082017E-008  0.3863795E+03  0.7957747E-01  0.3423843E+00
         13   -1    0    0    0    0  0.00000000000E+00  0.00000000000E+00  0.14999999963E+04  0.15000000000E+04  0.10566000000E+00 0. -1.
        994   -1    0    0    0    0 -0.00000000000E+00 -0.00000000000E+00  0.11368683772E-12  0.17120000000E+03  0.17120000000E+03 0.  0.
         13    1    1    2    0    0 -0.96360182905E+01 -0.38968544241E+01  0.54698765104E+02  0.55677683060E+02  0.10566000000E+00 0. -1.
        994    1    1    2    0    0  0.13992560841E+02  0.58820566540E+01  0.17014614910E+01  0.17187997359E+03  0.17120000000E+03 0.  0.
        998    1    1    2    0    0 -0.43565425504E+01 -0.19852022300E+01  0.14435997697E+04  0.14436423434E+04  0.10000000000E+02 0. -1.
</event>
<event>
 5    1  0.1300052E-008  0.3808461E+03  0.7957747E-01  0.3447483E+00
         13   -1    0    0    0    0  0.00000000000E+00  0.00000000000E+00  0.14999999963E+04  0.15000000000E+04  0.10566000000E+00 0. -1.
        994   -1    0    0    0    0 -0.00000000000E+00 -0.00000000000E+00  0.11368683772E-12  0.17120000000E+03  0.17120000000E+03 0.  0.
         13    1    1    2    0    0  0.20466648997E+02 -0.19355389425E+02  0.11236084995E+03  0.11583819140E+03  0.10566000000E+00 0. -1.
        994    1    1    2    0    0 -0.31085616559E+02 -0.21261217859E+02  0.84493471717E+01  0.17549696980E+03  0.17120000000E+03 0.  0.
        998    1    1    2    0    0  0.10618967562E+02  0.40616607284E+02  0.13791897992E+04  0.13798648388E+04  0.10000000000E+02 0. -1.
</event>
<event>
 5    1  0.1300052E-008  0.3807857E+03  0.7957747E-01  0.3447745E+00
         13   -1    0    0    0    0  0.00000000000E+00  0.00000000000E+00  0.14999999963E+04  0.15000000000E+04  0.10566000000E+00 0.  1.
        994   -1    0    0    0    0 -0.00000000000E+00 -0.00000000000E+00  0.11368683772E-12  0.17120000000E+03  0.17120000000E+03 0.  0.
         13    1    1    2    0    0 -0.10083009919E+02 -0.13222216295E+02  0.58086804189E+00  0.16638589619E+02  0.10566000000E+00 0.  1.
        994    1    1    2    0    0 -0.74055671108E+01  0.29313993674E+02  0.20088512530E+02  0.17500611699E+03  0.17120000000E+03 0.  0.
        998    1    1    2    0    0  0.17488577030E+02 -0.16091777379E+02  0.14793306157E+04  0.14795552934E+04  0.10000000000E+02 0.  1.
</event>
<event>
 5    1  0.1300052E-008  0.3782672E+03  0.7957747E-01  0.3458738E+00
         13   -1    0    0    0    0  0.00000000000E+00  0.00000000000E+00  0.14999999963E+04  0.15000000000E+04  0.10566000000E+00 0.  1.
        994   -1    0    0    0    0 -0.00000000000E+00 -0.00000000000E+00  0.11368683772E-12  0.17120000000E+03  0.17120000000E+03 0.  0.
         13    1    1    2    0    0  0.13261222984E+02  0.43526525968E+01  0.17602737295E+02  0.22464931426E+02  0.10566000000E+00 0.  1.
        994    1    1    2    0    0  0.34527583468E+01 -0.18268057558E+02  0.61733849282E+01  0.17231713249E+03  0.17120000000E+03 0.  0.
        998    1    1    2    0    0 -0.16713981331E+02  0.13915404962E+02  0.14762238741E+04  0.14764179361E+04  0.10000000000E+02 0.  1.
</event>
<event>
 5    1  0.1300052E-008  0.3782975E+03  0.7957747E-01  0.3458605E+00
         13   -1    0    0    0    0  0.00000000000E+00  0.00000000000E+00  0.14999999963E+04  0.15000000000E+04  0.10566000000E+00 0. -1.
        994   -1    0    0    0    0 -0.00000000000E+00 -0.00000000000E+00  0.11368683772E-12  0.17120000000E+03  0.17120000000E+03 0.  0.
         13    1    1    2    0    0 -0.57122919472E+01 -0.10510533113E+02  0.11963926278E+02  0.16918873533E+02  0.10566000000E+00 0. -1.
        994    1    1    2    0    0  0.77945375104E+00  0.15517388639E+02  0.58069614607E+01  0.17200162121E+03  0.17120000000E+03 0.  0.
        998    1    1    2    0    0  0.49328381962E+01 -0.50068555263E+01  0.14822291085E+04  0.14822795053E+04  0.10000000000E+02 0. -1.
</event>
<event>
 5    1  0.1300052E-008  0.3827441E+03  0.7957747E-01  0.3439296E+00
         13   -1    0    0    0    0  0.00000000000E+00  0.00000000000E+00  0.14999999963E+04  0.15000000000E+04  0.10566000000E+00 0. -1.
        994   -1    0    0    0    0 -0.00000000000E+00 -0.00000000000E+00  0.11368683772E-12  0.17120000000E+03  0.17120000000E+03 0.  0.
         13    1    1    2    0    0 -0.16106873760E+02 -0.18004418290E+02  0.11604774132E+03  0.11853556382E+03  0.10566000000E+00 0. -1.
        994    1    1    2    0    0 -0.31015783722E+01  0.30470621699E+01  0.28169317064E+01  0.17127836840E+03  0.17120000000E+03 0.  0.
        998    1    1    2    0    0  0.19208452132E+02  0.14957356120E+02  0.13811353233E+04  0.13813860678E+04  0.10000000000E+02 0. -1.
</event>
<event>
 5    1  0.1300052E-008  0.3883580E+03  0.7957747E-01  0.3415554E+00
         13   -1    0    0    0    0  0.00000000000E+00  0.00000000000E+00  0.14999999963E+04  0.15000000000E+04  0.10566000000E+00 0. -1.
        994   -1    0    0    0    0 -0.00000000000E+00 -0.00000000000E+00  0.11368683772E-12  0.17120000000E+03  0.17120000000E+03 0.  0.
         13    1    1    2    0    0 -0.45285819849E+01 -0.20586400087E+02  0.13130151056E+01  0.21119732386E+02  0.10566000000E+00 0. -1.
        994    1    1    2    0    0  0.59316376876E+01  0.17477208508E+02  0.22270735080E+02  0.17362621572E+03  0.17120000000E+03 0.  0.
        998    1    1    2    0    0 -0.14030557028E+01  0.31091915791E+01  0.14764162461E+04  0.14764540519E+04  0.10000000000E+02 0. -1.
</event>
<event>
 5    1  0.1300052E-008  0.3823857E+03  0.7957747E-01  0.3440836E+00
         13   -1    0    0    0    0  0.00000000000E+00  0.00000000000E+00  0.14999999963E+04  0.15000000000E+04  0.10566000000E+00 0.  1.
        994   -1    0    0    0    0 -0.00000000000E+00 -0.00000000000E+00  0.11368683772E-12  0.17120000000E+03  0.17120000000E+03 0.  0.
         13    1    1    2    0    0  0.24989197692E+02 -0.11094792343E+02  0.12914854260E+03  0.13201102848E+03  0.10566000000E+00 0.  1.
        994    1    1    2    0    0 -0.96488689481E+01  0.11504489710E+02  0.36817977461E+01  0.17189662472E+03  0.17120000000E+03 0.  0.
        998    1    1    2    0    0 -0.15340328744E+02 -0.40969736648E+00  0.13671696559E+04  0.13672923468E+04  0.10000000000E+02 0.  0.
</event>
<event>
 5    1  0.1300052E-008  0.3825303E+03  0.7957747E-01  0.3440214E+00
         13   -1    0    0    0    0  0.00000000000E+00  0.00000000000E+00  0.14999999963E+04  0.15000000000E+04  0.10566000000E+00 0. -1.
        994   -1    0    0    0    0 -0.00000000000E+00 -0.00000000000E+00  0.11368683772E-12  0.17120000000E+03  0.17120000000E+03 0.  0.
         13    1    1    2    0    0  0.22141683899E+01  0.13855391595E+02  0.34810195268E+02  0.37531790213E+02  0.10566000000E+00 0. -1.
        994    1    1    2    0    0 -0.28731977008E+01  0.19620573074E+01  0.29014042088E+01  0.17125992841E+03  0.17120000000E+03 0.  0.
        998    1    1    2    0    0  0.65902931091E+00 -0.15817448903E+02  0.14622883968E+04  0.14624082814E+04  0.10000000000E+02 0. -1.
</event>
<event>
 5    1  0.1300052E-008  0.3827044E+03  0.7957747E-01  0.3439467E+00
         13   -1    0    0    0    0  0.00000000000E+00  0.00000000000E+00  0.14999999963E+04  0.15000000000E+04  0.10566000000E+00 0. -1.
        994   -1    0    0    0    0 -0.00000000000E+00 -0.00000000000E+00  0.11368683772E-12  0.17120000000E+03  0.17120000000E+03 0.  0.
         13    1    1    2    0    0 -0.12862593379E+02 -0.87422397330E+01  0.44739711559E+02  0.47365873985E+02  0.10566000000E+00 0. -1.
        994    1    1    2    0    0 -0.36577061089E+01  0.41059853415E+01  0.28743381124E+01  0.17131240396E+03  0.17120000000E+03 0.  0.
        998    1    1    2    0    0  0.16520299488E+02  0.46362543915E+01  0.14523859466E+04  0.14525217221E+04  0.10000000000E+02 0. -1.
</event>
<event>
 5    1  0.1300052E-008  0.3837235E+03  0.7957747E-01  0.3435104E+00
         13   -1    0    0    0    0  0.00000000000E+00  0.00000000000E+00  0.14999999963E+04  0.15000000000E+04  0.10566000000E+00 0.  1.
        994   -1    0    0    0    0 -0.00000000000E+00 -0.00000000000E+00  0.11368683772E-12  0.17120000000E+03  0.17120000000E+03 0.  0.
         13    1    1    2    0    0 -0.14486106535E+02  0.85484872538E+01  0.62655562075E+02  0.64874143846E+02  0.10566000000E+00 0.  1.
        994    1    1    2    0    0  0.13258217761E+02  0.50387845405E+01  0.29298149652E+01  0.17181150574E+03  0.17120000000E+03 0.  0.
        998    1    1    2    0    0  0.12278887744E+01 -0.13587271794E+02  0.14344146192E+04  0.14345143504E+04  0.10000000000E+02 0.  1.
</event>
<event>
 5    1  0.1300052E-008  0.3841561E+03  0.7957747E-01  0.3433259E+00
         13   -1    0    0    0    0  0.00000000000E+00  0.00000000000E+00  0.14999999963E+04  0.15000000000E+04  0.10566000000E+00 0.  1.
        994   -1    0    0    0    0 -0.00000000000E+00 -0.00000000000E+00  0.11368683772E-12  0.17120000000E+03  0.17120000000E+03 0.  0.
         13    1    1    2    0    0  0.31450725288E+00  0.17686741586E+02  0.75773528510E+02  0.77811043751E+02  0.10566000000E+00 0.  1.
        994    1    1    2    0    0  0.51423651034E+01 -0.11958918278E+02  0.26087146950E+01  0.17171402109E+03  0.17120000000E+03 0.  0.
        998    1    1    2    0    0 -0.54568723563E+01 -0.57278233083E+01  0.14216177531E+04  0.14216749352E+04  0.10000000000E+02 0.  1.
</event>
<event>
 5    1  0.1300052E-008  0.4008302E+03  0.7957747E-01  0.3365189E+00
         13   -1    0    0    0    0  0.00000000000E+00  0.00000000000E+00  0.14999999963E+04  0.15000000000E+04  0.10566000000E+00 0.  1.
        994   -1    0    0    0    0 -0.00000000000E+00 -0.00000000000E+00  0.11368683772E-12  0.17120000000E+03  0.17120000000E+03 0.  0.
         13    1    1    2    0    0 -0.45314552086E+02 -0.34710683702E+02  0.39835056715E+02  0.69606631159E+02  0.10566000000E+00 0.  1.
        994    1    1    2    0    0  0.12094604433E+03  0.81360727243E+01  0.88702452606E+02  0.22775360901E+03  0.17120000000E+03 0.  0.
        998    1    1    2    0    0 -0.75631492240E+02  0.26574610977E+02  0.13714624870E+04  0.13738397598E+04  0.10000000000E+02 0.  1.
</event>
<event>
 5    1  0.1300052E-008  0.3732065E+03  0.7957747E-01  0.3481283E+00
         13   -1    0    0    0    0  0.00000000000E+00  0.00000000000E+00  0.14999999963E+04  0.15000000000E+04  0.10566000000E+00 0. -1.
        994   -1    0    0    0    0 -0.00000000000E+00 -0.00000000000E+00  0.11368683772E-12  0.17120000000E+03  0.17120000000E+03 0.  0.
         13    1    1    2    0    0  0.14132598926E+02  0.15212577073E+02  0.24900470661E+02  0.32422175386E+02  0.10566000000E+00 0. -1.
        994    1    1    2    0    0 -0.11736064088E+02 -0.14688622678E+02  0.88124557209E+01  0.17245460334E+03  0.17120000000E+03 0.  0.
        998    1    1    2    0    0 -0.23965348375E+01 -0.52395439505E+00  0.14662870699E+04  0.14663232213E+04  0.10000000000E+02 0. -1.
</event>
<event>
 5    1  0.1300052E-008  0.3828026E+03  0.7957747E-01  0.3439045E+00
         13   -1    0    0    0    0  0.00000000000E+00  0.00000000000E+00  0.14999999963E+04  0.15000000000E+04  0.10566000000E+00 0. -1.
        994   -1    0    0    0    0 -0.00000000000E+00 -0.00000000000E+00  0.11368683772E-12  0.17120000000E+03  0.17120000000E+03 0.  0.
         13    1    1    2    0    0 -0.18209405078E+02 -0.90336942190E+01  0.70529304089E+02  0.73400163242E+02  0.10566000000E+00 0. -1.
        994    1    1    2    0    0  0.22542900289E+02  0.10467657955E+02  0.47738999676E+01  0.17306063775E+03  0.17120000000E+03 0.  0.
        998    1    1    2    0    0 -0.43334952103E+01 -0.14339637358E+01  0.14246967922E+04  0.14247391990E+04  0.10000000000E+02 0. -1.
</event>
<event>
 5    1  0.1300052E-008  0.3737306E+03  0.7957747E-01  0.3478919E+00
         13   -1    0    0    0    0  0.00000000000E+00  0.00000000000E+00  0.14999999963E+04  0.15000000000E+04  0.10566000000E+00 0.  1.
        994   -1    0    0    0    0 -0.00000000000E+00 -0.00000000000E+00  0.11368683772E-12  0.17120000000E+03  0.17120000000E+03 0.  0.
         13    1    1    2    0    0  0.43627480688E+02  0.14887141875E+02  0.13882059364E+03  0.14627423713E+03  0.10566000000E+00 0.  1.
        994    1    1    2    0    0 -0.33160531312E+02 -0.48208131004E+01  0.11174897674E+02  0.17480611950E+03  0.17120000000E+03 0.  0.
        998    1    1    2    0    0 -0.10466949377E+02 -0.10066328774E+02  0.13500045050E+04  0.13501196434E+04  0.10000000000E+02 0.  1.
</event>
<event>
 5    1  0.1300052E-008  0.3757499E+03  0.7957747E-01  0.3469876E+00
         13   -1    0    0    0    0  0.00000000000E+00  0.00000000000E+00  0.14999999963E+04  0.15000000000E+04  0.10566000000E+00 0.  1.
        994   -1    0    0    0    0 -0.00000000000E+00 -0.00000000000E+00  0.11368683772E-12  0.17120000000E+03  0.17120000000E+03 0.  0.
         13    1    1    2    0    0 -0.51499440045E+02  0.18586220531E+02  0.29167826326E+03  0.29677240495E+03  0.10566000000E+00 0.  1.
        994    1    1    2    0    0  0.40220749855E+01 -0.21231370770E+01  0.63642791437E+01  0.17137861257E+03  0.17120000000E+03 0.  0.
        998    1    1    2    0    0  0.47477365060E+02 -0.16463083454E+02  0.12019574539E+04  0.12030489825E+04  0.10000000000E+02 0.  1.
</event>
<event>
 5    1  0.1300052E-008  0.3804479E+03  0.7957747E-01  0.3449210E+00
         13   -1    0    0    0    0  0.00000000000E+00  0.00000000000E+00  0.14999999963E+04  0.15000000000E+04  0.10566000000E+00 0.  1.
        994   -1    0    0    0    0 -0.00000000000E+00 -0.00000000000E+00  0.11368683772E-12  0.17120000000E+03  0.17120000000E+03 0.  0.
         13    1    1    2    0    0  0.12104663724E+02  0.91130046729E+01  0.27608331846E+02  0.31492870453E+02  0.10566000000E+00 0.  1.
        994    1    1    2    0    0 -0.76074462288E+01 -0.11461403201E+02  0.45391248841E+01  0.17181175937E+03  0.17120000000E+03 0.  0.
        998    1    1    2    0    0 -0.44972174951E+01  0.23483985283E+01  0.14678525395E+04  0.14678953702E+04  0.10000000000E+02 0.  1.
</event>
<event>
 5    1  0.1300052E-008  0.3754364E+03  0.7957747E-01  0.3471273E+00
         13   -1    0    0    0    0  0.00000000000E+00  0.00000000000E+00  0.14999999963E+04  0.15000000000E+04  0.10566000000E+00 0.  1.
        994   -1    0    0    0    0 -0.00000000000E+00 -0.00000000000E+00  0.11368683772E-12  0.17120000000E+03  0.17120000000E+03 0.  0.
         13    1    1    2    0    0  0.36064845206E+02  0.16086688972E+02  0.12322377035E+03  0.12939692177E+03  0.10566000000E+00 0.  1.
        994    1    1    2    0    0 -0.17969327650E+02  0.18492233689E+01  0.75631333748E+01  0.17231644538E+03  0.17120000000E+03 0.  0.
        998    1    1    2    0    0 -0.18095517556E+02 -0.17935912340E+02  0.13692130926E+04  0.13694866328E+04  0.10000000000E+02 0.  1.
</event>
<event>
 5    1  0.1300052E-008  0.3757986E+03  0.7957747E-01  0.3469659E+00
         13   -1    0    0    0    0  0.00000000000E+00  0.00000000000E+00  0.14999999963E+04  0.15000000000E+04  0.10566000000E+00 0.  1.
        994   -1    0    0    0    0 -0.00000000000E+00 -0.00000000000E+00  0.11368683772E-12  0.17120000000E+03  0.17120000000E+03 0.  0.
         13    1    1    2    0    0 -0.11179684959E+01 -0.25101210743E+02  0.48979350698E+02  0.55048238783E+02  0.10566000000E+00 0.  1.
        994    1    1    2    0    0  0.11238238568E+01  0.95863441339E+01  0.65850829843E+01  0.17159826424E+03  0.17120000000E+03 0.  0.
        998    1    1    2    0    0 -0.58553608949E-02  0.15514866609E+02  0.14444355626E+04  0.14445534970E+04  0.10000000000E+02 0.  1.
</event>
<event>
 5    1  0.1300052E-008  0.3807819E+03  0.7957747E-01  0.3447761E+00
         13   -1    0    0    0    0  0.00000000000E+00  0.00000000000E+00  0.14999999963E+04  0.15000000000E+04  0.10566000000E+00 0. -1.
        994   -1    0    0    0    0 -0.00000000000E+00 -0.00000000000E+00  0.11368683772E-12  0.17120000000E+03  0.17120000000E+03 0.  0.
         13    1    1    2    0    0 -0.64828221317E+01 -0.12677383706E+02  0.25710536044E+02  0.29390234230E+02  0.10566000000E+00 0. -1.
        994    1    1    2    0    0  0.43888042769E+00  0.95569622765E+01  0.40442278956E+01  0.17151479214E+03  0.17120000000E+03 0.  0.
        998    1    1    2    0    0  0.60439417040E+01  0.31204214290E+01  0.14702452323E+04  0.14702949736E+04  0.10000000000E+02 0. -1.
</event>
<event>
 5    1  0.1300052E-008  0.3856776E+03  0.7957747E-01  0.3426803E+00
         13   -1    0    0    0    0  0.00000000000E+00  0.00000000000E+00  0.14999999963E+04  0.15000000000E+04  0.10566000000E+00 0.  1.
        994   -1    0    0    0    0 -0.00000000000E+00 -0.00000000000E+00  0.11368683772E-12  0.17120000000E+03  0.17120000000E+03 0.  0.
         13    1    1    2    0    0  0.12433045119E+02  0.33214102530E+01  0.60033118083E+02  0.61397058625E+02  0.10566000000E+00 0.  1.
        994    1    1    2    0    0 -0.18443137136E+02 -0.51058017683E+01  0.24967262296E+01  0.17228433522E+03  0.17120000000E+03 0.  0.
        998    1    1    2    0    0  0.60100920171E+01  0.17843915153E+01  0.14374701520E+04  0.14375186062E+04  0.10000000000E+02 0.  1.
</event>
<event>
 5    1  0.1300052E-008  0.3930180E+03  0.7957747E-01  0.3396363E+00
         13   -1    0    0    0    0  0.00000000000E+00  0.00000000000E+00  0.14999999963E+04  0.15000000000E+04  0.10566000000E+00 0. -1.
        994   -1    0    0    0    0 -0.00000000000E+00 -0.00000000000E+00  0.11368683772E-12  0.17120000000E+03  0.17120000000E+03 0.  0.
         13    1    1    2    0    0 -0.12288218720E+03 -0.71357556717E+01  0.29971378355E+03  0.32400511440E+03  0.10566000000E+00 0. -1.
        994    1    1    2    0    0  0.85775076356E+02 -0.23457287655E+01  0.52282361859E+02  0.19850881978E+03  0.17120000000E+03 0.  0.
        998    1    1    2    0    0  0.37107110841E+02  0.94814844372E+01  0.11480038509E+04  0.11486860658E+04  0.10000000000E+02 0. -1.
</event>
<event>
 5    1  0.1300052E-008  0.3803011E+03  0.7957747E-01  0.3449848E+00
         13   -1    0    0    0    0  0.00000000000E+00  0.00000000000E+00  0.14999999963E+04  0.15000000000E+04  0.10566000000E+00 0. -1.
        994   -1    0    0    0    0 -0.00000000000E+00 -0.00000000000E+00  0.11368683772E-12  0.17120000000E+03  0.17120000000E+03 0.  0.
         13    1    1    2    0    0 -0.39304984092E+02 -0.37569074243E+02  0.29398596590E+03  0.29897169837E+03  0.10566000000E+00 0. -1.
        994    1    1    2    0    0  0.44878808816E+02  0.34719136660E+02  0.14808987698E+02  0.18096483650E+03  0.17120000000E+03 0.  0.
        998    1    1    2    0    0 -0.55738247239E+01  0.28499375833E+01  0.11912050427E+04  0.11912634651E+04  0.10000000000E+02 0. -1.
</event>
<event>
 5    1  0.1300052E-008  0.3834779E+03  0.7957747E-01  0.3436153E+00
         13   -1    0    0    0    0  0.00000000000E+00  0.00000000000E+00  0.14999999963E+04  0.15000000000E+04  0.10566000000E+00 0.  1.
        994   -1    0    0    0    0 -0.00000000000E+00 -0.00000000000E+00  0.11368683772E-12  0.17120000000E+03  0.17120000000E+03 0.  0.
         13    1    1    2    0    0  0.12258867966E+02  0.23825648077E+02  0.16186641791E+03  0.16406916151E+03  0.10566000000E+00 0.  1.
        994    1    1    2    0    0  0.68496502948E+00 -0.82179727393E+01  0.26124950108E+01  0.17141840445E+03  0.17120000000E+03 0.  0.
        998    1    1    2    0    0 -0.12943832996E+02 -0.15607675338E+02  0.13355210834E+04  0.13357124340E+04  0.10000000000E+02 0.  1.
</event>
<event>
 5    1  0.1300052E-008  0.3810760E+03  0.7957747E-01  0.3446487E+00
         13   -1    0    0    0    0  0.00000000000E+00  0.00000000000E+00  0.14999999963E+04  0.15000000000E+04  0.10566000000E+00 0.  1.
        994   -1    0    0    0    0 -0.00000000000E+00 -0.00000000000E+00  0.11368683772E-12  0.17120000000E+03  0.17120000000E+03 0.  0.
         13    1    1    2    0    0 -0.40955012583E+01  0.24809632060E+02  0.85570940589E+02  0.89189057686E+02  0.10566000000E+00 0.  1.
        994    1    1    2    0    0 -0.58820105819E+01 -0.19728060450E+02  0.50039290130E+01  0.17250586576E+03  0.17120000000E+03 0.  0.
        998    1    1    2    0    0  0.99775118402E+01 -0.50815716099E+01  0.14094251267E+04  0.14095050765E+04  0.10000000000E+02 0.  1.
</event>
<event>
 5    1  0.1300052E-008  0.3853198E+03  0.7957747E-01  0.3428317E+00
         13   -1    0    0    0    0  0.00000000000E+00  0.00000000000E+00  0.14999999963E+04  0.15000000000E+04  0.10566000000E+00 0. -1.
        994   -1    0    0    0    0 -0.00000000000E+00 -0.00000000000E+00  0.11368683772E-12  0.17120000000E+03  0.17120000000E+03 0.  0.
         13    1    1    2    0    0  0.52088478866E+01  0.15506648268E+02  0.90134524570E+02  0.91606942533E+02  0.10566000000E+00 0. -1.
        994    1    1    2    0    0 -0.72696567311E+01 -0.10341487252E+02  0.19965761268E+01  0.17167766478E+03  0.17120000000E+03 0.  0.
        998    1    1    2    0    0  0.20608088445E+01 -0.51651610154E+01  0.14078688956E+04  0.14079153927E+04  0.10000000000E+02 0. -1.
</event>
<event>
 5    1  0.1300052E-008  0.3835757E+03  0.7957747E-01  0.3435735E+00
         13   -1    0    0    0    0  0.00000000000E+00  0.00000000000E+00  0.14999999963E+04  0.15000000000E+04  0.10566000000E+00 0.  1.
        994   -1    0    0    0    0 -0.00000000000E+00 -0.00000000000E+00  0.11368683772E-12  0.17120000000E+03  0.17120000000E+03 0.  0.
         13    1    1    2    0    0  0.14133216896E+03 -0.10089774018E+03  0.97220365170E+03  0.98759054648E+03  0.10566000000E+00 0.  1.
        994    1    1    2    0    0 -0.15294369276E+03  0.11629800975E+03  0.13573658136E+03  0.29094820801E+03  0.17120000000E+03 0.  0.
        998    1    1    2    0    0  0.11611523796E+02 -0.15400269566E+02  0.39205976322E+03  0.39266124550E+03  0.10000000000E+02 0. -1.
</event>
<event>
 5    1  0.1300052E-008  0.3732557E+03  0.7957747E-01  0.3481061E+00
         13   -1    0    0    0    0  0.00000000000E+00  0.00000000000E+00  0.14999999963E+04  0.15000000000E+04  0.10566000000E+00 0. -1.
        994   -1    0    0    0    0 -0.00000000000E+00 -0.00000000000E+00  0.11368683772E-12  0.17120000000E+03  0.17120000000E+03 0.  0.
         13    1    1    2    0    0 -0.31416513942E+02  0.24644788279E+02  0.62183589913E+02  0.73899749365E+02  0.10566000000E+00 0. -1.
        994    1    1    2    0    0 -0.37099490604E+02 -0.51137970786E+02  0.26923397547E+02  0.18446076438E+03  0.17120000000E+03 0.  0.
        998    1    1    2    0    0  0.68516004546E+02  0.26493182508E+02  0.14108930088E+04  0.14128394863E+04  0.10000000000E+02 0. -1.
</event>
<event>
 5    1  0.1300052E-008  0.3822625E+03  0.7957747E-01  0.3441366E+00
         13   -1    0    0    0    0  0.00000000000E+00  0.00000000000E+00  0.14999999963E+04  0.15000000000E+04  0.10566000000E+00 0. -1.
        994   -1    0    0    0    0 -0.00000000000E+00 -0.00000000000E+00  0.11368683772E-12  0.17120000000E+03  0.17120000000E+03 0.  0.
         13    1    1    2    0    0 -0.21723198792E+01  0.25081164815E+02  0.10075306397E+03  0.10385073358E+03  0.10566000000E+00 0. -1.
        994    1    1    2    0    0  0.62432727265E+00 -0.22220078918E+02  0.46366461858E+01  0.17269933462E+03  0.17120000000E+03 0.  0.
        998    1    1    2    0    0  0.15479926066E+01 -0.28610858969E+01  0.13946102861E+04  0.13946499318E+04  0.10000000000E+02 0. -1.
</event>
<event>
 5    1  0.1300052E-008  0.3737036E+03  0.7957747E-01  0.3479041E+00
         13   -1    0    0    0    0  0.00000000000E+00  0.00000000000E+00  0.14999999963E+04  0.15000000000E+04  0.10566000000E+00 0. -1.
        994   -1    0    0    0    0 -0.00000000000E+00 -0.00000000000E+00  0.11368683772E-12  0.17120000000E+03  0.17120000000E+03 0.  0.
         13    1    1    2    0    0 -0.50519474567E+02  0.19653242932E+02  0.99791636558E+02  0.11356429527E+03  0.10566000000E+00 0. -1.
        994    1    1    2    0    0  0.54012197424E+02 -0.32034290953E+02  0.27013200583E+02  0.18434388049E+03  0.17120000000E+03 0.  0.
        998    1    1    2    0    0 -0.34927228571E+01  0.12381048021E+02  0.13731951591E+04  0.13732918242E+04  0.10000000000E+02 0. -1.
</event>
<event>
 5    1  0.1300052E-008  0.3840944E+03  0.7957747E-01  0.3433522E+00
         13   -1    0    0    0    0  0.00000000000E+00  0.00000000000E+00  0.14999999963E+04  0.15000000000E+04  0.10566000000E+00 0. -1.
        994   -1    0    0    0    0 -0.00000000000E+00 -0.00000000000E+00  0.11368683772E-12  0.17120000000E+03  0.17120000000E+03 0.  0.
         13    1    1    2    0    0  0.16823028820E+02 -0.17940488243E+02  0.14868647766E+03  0.15070685194E+03  0.10566000000E+00 0. -1.
        994    1    1    2    0    0 -0.45686493372E+01  0.12212900637E+02  0.26414502555E+01  0.17171617500E+03  0.17120000000E+03 0.  0.
        998    1    1    2    0    0 -0.12254379483E+02  0.57275876058E+01  0.13486720684E+04  0.13487769731E+04  0.10000000000E+02 0. -1.
</event>
<event>
 5    1  0.1300052E-008  0.3856592E+03  0.7957747E-01  0.3426881E+00
         13   -1    0    0    0    0  0.00000000000E+00  0.00000000000E+00  0.14999999963E+04  0.15000000000E+04  0.10566000000E+00 0. -1.
        994   -1    0    0    0    0 -0.00000000000E+00 -0.00000000000E+00  0.11368683772E-12  0.17120000000E+03  0.17120000000E+03 0.  0.
         13    1    1    2    0    0  0.56106299200E+00  0.13432758486E+02  0.66308368086E+02  0.67657701960E+02  0.10566000000E+00 0. -1.
        994    1    1    2    0    0 -0.95262630592E+00 -0.16219694000E+02  0.21699729457E+01  0.17198294902E+03  0.17120000000E+03 0.  0.
        998    1    1    2    0    0  0.39156331392E+00  0.27869355137E+01  0.14315216552E+04  0.14315593490E+04  0.10000000000E+02 0. -1.
</event>
<event>
 5    1  0.1300052E-008  0.4119119E+03  0.7957747E-01  0.3322984E+00
         13   -1    0    0    0    0  0.00000000000E+00  0.00000000000E+00  0.14999999963E+04  0.15000000000E+04  0.10566000000E+00 0.  1.
        994   -1    0    0    0    0 -0.00000000000E+00 -0.00000000000E+00  0.11368683772E-12  0.17120000000E+03  0.17120000000E+03 0.  0.
         13    1    1    2    0    0  0.85665870645E+02 -0.86902988622E+02  0.20004264660E+03  0.23432422505E+03  0.10566000000E+00 0.  1.
        994    1    1    2    0    0 -0.63959855674E+02  0.59211877397E+02  0.67123142776E+02  0.20349905616E+03  0.17120000000E+03 0.  0.
        998    1    1    2    0    0 -0.21706014971E+02  0.27691111225E+02  0.12328342069E+04  0.12333767188E+04  0.10000000000E+02 0.  1.
</event>
<event>
 5    1  0.1300052E-008  0.3836873E+03  0.7957747E-01  0.3435259E+00
         13   -1    0    0    0    0  0.00000000000E+00  0.00000000000E+00  0.14999999963E+04  0.15000000000E+04  0.10566000000E+00 0.  1.
        994   -1    0    0    0    0 -0.00000000000E+00 -0.00000000000E+00  0.11368683772E-12  0.17120000000E+03  0.17120000000E+03 0.  0.
         13    1    1    2    0    0  0.61999783690E+01 -0.19376279420E+02  0.87654383560E+02  0.89984343401E+02  0.10566000000E+00 0.  1.
        994    1    1    2    0    0 -0.93101339737E+01  0.15156396138E+02  0.33289521443E+01  0.17215375936E+03  0.17120000000E+03 0.  0.
        998    1    1    2    0    0  0.31101556047E+01  0.42198832825E+01  0.14090166606E+04  0.14090618972E+04  0.10000000000E+02 0.  1.
</event>
<event>
 5    1  0.1300052E-008  0.3685095E+03  0.7957747E-01  0.3502769E+00
         13   -1    0    0    0    0  0.00000000000E+00  0.00000000000E+00  0.14999999963E+04  0.15000000000E+04  0.10566000000E+00 0. -1.
        994   -1    0    0    0    0 -0.00000000000E+00 -0.00000000000E+00  0.11368683772E-12  0.17120000000E+03  0.17120000000E+03 0.  0.
         13    1    1    2    0    0 -0.11124110827E+02  0.40135372335E+02  0.93526255910E+02  0.10238049454E+03  0.10566000000E+00 0. -1.
        994    1    1    2    0    0 -0.12115551828E+02  0.51315949626E+01  0.10652162084E+02  0.17203496278E+03  0.17120000000E+03 0.  0.
        998    1    1    2    0    0  0.23239662655E+02 -0.45266967297E+02  0.13958215783E+04  0.13967845427E+04  0.10000000000E+02 0. -1.
</event>
<event>
 5    1  0.1300052E-008  0.3687668E+03  0.7957747E-01  0.3501578E+00
         13   -1    0    0    0    0  0.00000000000E+00  0.00000000000E+00  0.14999999963E+04  0.15000000000E+04  0.10566000000E+00 0.  1.
        994   -1    0    0    0    0 -0.00000000000E+00 -0.00000000000E+00  0.11368683772E-12  0.17120000000E+03  0.17120000000E+03 0.  0.
         13    1    1    2    0    0  0.10534357428E+02  0.24667240733E+02  0.30438091728E+02  0.40570112692E+02  0.10566000000E+00 0.  1.
        994    1    1    2    0    0 -0.11486539387E+01 -0.24636808703E+02  0.12408501836E+02  0.17341194499E+03  0.17120000000E+03 0.  0.
        998    1    1    2    0    0 -0.93857034894E+01 -0.30432030018E-01  0.14571534027E+04  0.14572179423E+04  0.10000000000E+02 0.  1.
</event>
<event>
 5    1  0.1300052E-008  0.3787222E+03  0.7957747E-01  0.3456741E+00
         13   -1    0    0    0    0  0.00000000000E+00  0.00000000000E+00  0.14999999963E+04  0.15000000000E+04  0.10566000000E+00 0. -1.
        994   -1    0    0    0    0 -0.00000000000E+00 -0.00000000000E+00  0.11368683772E-12  0.17120000000E+03  0.17120000000E+03 0.  0.
         13    1    1    2    0    0 -0.91653803910E+01 -0.42711662166E+01  0.89045620554E+01  0.13474028648E+02  0.10566000000E+00 0. -1.
        994    1    1    2    0    0 -0.11168082780E+02 -0.25916264016E+01  0.52209462384E+01  0.17166286984E+03  0.17120000000E+03 0.  0.
        998    1    1    2    0    0  0.20333463171E+02  0.68627926182E+01  0.14858744880E+04  0.14860631015E+04  0.10000000000E+02 0. -1.
</event>
<event>
 5    1  0.1300052E-008  0.3836758E+03  0.7957747E-01  0.3435308E+00
         13   -1    0    0    0    0  0.00000000000E+00  0.00000000000E+00  0.14999999963E+04  0.15000000000E+04  0.10566000000E+00 0.  1.
        994   -1    0    0    0    0 -0.00000000000E+00 -0.00000000000E+00  0.11368683772E-12  0.17120000000E+03  0.17120000000E+03 0.  0.
         13    1    1    2    0    0 -0.69233343460E+01  0.91648168585E+01  0.28469017948E+02  0.30698901828E+02  0.10566000000E+00 0.  1.
        994    1    1    2    0    0  0.73797770359E+01 -0.66164590595E-01  0.24689426614E+01  0.17137678129E+03  0.17120000000E+03 0.  0.
        998    1    1    2    0    0 -0.45644268982E+00 -0.90986522679E+01  0.14690620357E+04  0.14691243169E+04  0.10000000000E+02 0.  1.
</event>
<event>
 5    1  0.1300052E-008  0.3704589E+03  0.7957747E-01  0.3493785E+00
         13   -1    0    0    0    0  0.00000000000E+00  0.00000000000E+00  0.14999999963E+04  0.15000000000E+04  0.10566000000E+00 0.  1.
        994   -1    0    0    0    0 -0.00000000000E+00 -0.00000000000E+00  0.11368683772E-12  0.17120000000E+03  0.17120000000E+03 0.  0.
         13    1    1    2    0    0  0.26636774153E+02 -0.31352347977E+02  0.69457197312E+02  0.80726704896E+02  0.10566000000E+00 0.  1.
        994    1    1    2    0    0 -0.25203934169E+02  0.27197015664E+02  0.16011429022E+02  0.17589974934E+03  0.17120000000E+03 0.  0.
        998    1    1    2    0    0 -0.14328399842E+01  0.41553323128E+01  0.14145313699E+04  0.14145735458E+04  0.10000000000E+02 0.  1.
</event>
<event>
 5    1  0.1300052E-008  0.3767304E+03  0.7957747E-01  0.3465520E+00
         13   -1    0    0    0    0  0.00000000000E+00  0.00000000000E+00  0.14999999963E+04  0.15000000000E+04  0.10566000000E+00 0. -1.
        994   -1    0    0    0    0 -0.00000000000E+00 -0.00000000000E+00  0.11368683772E-12  0.17120000000E+03  0.17120000000E+03 0.  0.
         13    1    1    2    0    0  0.66850443431E+02 -0.24139420048E+02  0.34143971332E+03  0.34875891728E+03  0.10566000000E+00 0. -1.
        994    1    1    2    0    0  0.26182867148E+02 -0.93836853230E+02  0.49362095860E+02  0.20306884070E+03  0.17120000000E+03 0.  0.
        998    1    1    2    0    0 -0.93033310579E+02  0.11797627328E+03  0.11091981871E+04  0.11193722420E+04  0.10000000000E+02 0. -1.
</event>
<event>
 5    1  0.1300052E-008  0.3853746E+03  0.7957747E-01  0.3428085E+00
         13   -1    0    0    0    0  0.00000000000E+00  0.00000000000E+00  0.14999999963E+04  0.15000000000E+04  0.10566000000E+00 0.  1.
        994   -1    0    0    0    0 -0.00000000000E+00 -0.00000000000E+00  0.11368683772E-12  0.17120000000E+03  0.17120000000E+03 0.  0.
         13    1    1    2    0    0 -0.44189212561E+01  0.14561268639E+02  0.76503304878E+02  0.78002078374E+02  0.10566000000E+00 0.  1.
        994    1    1    2    0    0  0.77957794841E+01 -0.15370321905E+02  0.24205016087E+01  0.17208230531E+03  0.17120000000E+03 0.  0.
        998    1    1    2    0    0 -0.33768582280E+01  0.80905326605E+00  0.14210761898E+04  0.14211156163E+04  0.10000000000E+02 0.  1.
</event>
<event>
 5    1  0.1300052E-008  0.3775030E+03  0.7957747E-01  0.3462104E+00
         13   -1    0    0    0    0  0.00000000000E+00  0.00000000000E+00  0.14999999963E+04  0.15000000000E+04  0.10566000000E+00 0. -1.
        994   -1    0    0    0    0 -0.00000000000E+00 -0.00000000000E+00  0.11368683772E-12  0.17120000000E+03  0.17120000000E+03 0.  0.
         13    1    1    2    0    0 -0.12298523966E+02 -0.14386930955E+01  0.11945577750E+02  0.17205566581E+02  0.10566000000E+00 0. -1.
        994    1    1    2    0    0  0.41837480342E+01 -0.34998591181E+01  0.54992715843E+01  0.17137512874E+03  0.17120000000E+03 0.  0.
        998    1    1    2    0    0  0.81147759315E+01  0.49385522135E+01  0.14825551469E+04  0.14826193047E+04  0.10000000000E+02 0. -1.
</event>
<event>
 5    1  0.1300052E-008  0.3823000E+03  0.7957747E-01  0.3441205E+00
         13   -1    0    0    0    0  0.00000000000E+00  0.00000000000E+00  0.14999999963E+04  0.15000000000E+04  0.10566000000E+00 0. -1.
        994   -1    0    0    0    0 -0.00000000000E+00 -0.00000000000E+00  0.11368683772E-12  0.17120000000E+03  0.17120000000E+03 0.  0.
         13    1    1    2    0    0 -0.47912244972E+01  0.12650239646E+02  0.29605601356E+02  0.32549764837E+02  0.10566000000E+00 0. -1.
        994    1    1    2    0    0  0.46418264765E+01 -0.86725955924E+01  0.32977073903E+01  0.17151406747E+03  0.17120000000E+03 0.  0.
        998    1    1    2    0    0  0.14939802070E+00 -0.39776440539E+01  0.14670966875E+04  0.14671361677E+04  0.10000000000E+02 0. -1.
</event>
<event>
 5    1  0.1300052E-008  0.3883120E+03  0.7957747E-01  0.3415746E+00
         13   -1    0    0    0    0  0.00000000000E+00  0.00000000000E+00  0.14999999963E+04  0.15000000000E+04  0.10566000000E+00 0.  1.
        994   -1    0    0    0    0 -0.00000000000E+00 -0.00000000000E+00  0.11368683772E-12  0.17120000000E+03  0.17120000000E+03 0.  0.
         13    1    1    2    0    0 -0.19343161354E+02  0.76806619960E+02  0.13749578834E+03  0.15867740146E+03  0.10566000000E+00 0.  1.
        994    1    1    2    0    0  0.17723757205E+02 -0.62036880501E+02  0.36701457983E+02  0.18659888298E+03  0.17120000000E+03 0.  0.
        998    1    1    2    0    0  0.16194041486E+01 -0.14769739459E+02  0.13258027500E+04  0.13259237156E+04  0.10000000000E+02 0.  1.
</event>
<event>
 5    1  0.1300052E-008  0.3800816E+03  0.7957747E-01  0.3450803E+00
         13   -1    0    0    0    0  0.00000000000E+00  0.00000000000E+00  0.14999999963E+04  0.15000000000E+04  0.10566000000E+00 0.  1.
        994   -1    0    0    0    0 -0.00000000000E+00 -0.00000000000E+00  0.11368683772E-12  0.17120000000E+03  0.17120000000E+03 0.  0.
         13    1    1    2    0    0 -0.22513065231E+02  0.40961194328E+02  0.22509858360E+03  0.22990006753E+03  0.10566000000E+00 0.  1.
        994    1    1    2    0    0  0.27653976230E+02 -0.39825861407E+02  0.11988843391E+02  0.17833679935E+03  0.17120000000E+03 0.  0.
        998    1    1    2    0    0 -0.51409109987E+01 -0.11353329207E+01  0.12629125693E+04  0.12629631331E+04  0.10000000000E+02 0.  1.
</event>
<event>
 5    1  0.1300052E-008  0.3826270E+03  0.7957747E-01  0.3439799E+00
         13   -1    0    0    0    0  0.00000000000E+00  0.00000000000E+00  0.14999999963E+04  0.15000000000E+04  0.10566000000E+00 0.  1.
        994   -1    0    0    0    0 -0.00000000000E+00 -0.00000000000E+00  0.11368683772E-12  0.17120000000E+03  0.17120000000E+03 0.  0.
         13    1    1    2    0    0 -0.10903105861E+02  0.14445453205E+02  0.57183081673E+02  0.59978869858E+02  0.10566000000E+00 0.  1.
        994    1    1    2    0    0  0.13172359745E+02 -0.56111564348E+01  0.34925802458E+01  0.17183315819E+03  0.17120000000E+03 0.  0.
        998    1    1    2    0    0 -0.22692538844E+01 -0.88342967704E+01  0.14393243344E+04  0.14393879719E+04  0.10000000000E+02 0.  1.
</event>
<event>
 5    1  0.1300052E-008  0.3776332E+03  0.7957747E-01  0.3461529E+00
         13   -1    0    0    0    0  0.00000000000E+00  0.00000000000E+00  0.14999999963E+04  0.15000000000E+04  0.10566000000E+00 0.  1.
        994   -1    0    0    0    0 -0.00000000000E+00 -0.00000000000E+00  0.11368683772E-12  0.17120000000E+03  0.17120000000E+03 0.  0.
         13    1    1    2    0    0  0.18319565735E+01 -0.54923371940E+02  0.90486320442E+02  0.10586651124E+03  0.10566000000E+00 0.  1.
        994    1    1    2    0    0 -0.61777944960E+01  0.52871377058E+02  0.25283294625E+02  0.18105864421E+03  0.17120000000E+03 0.  0.
        998    1    1    2    0    0  0.43458379225E+01  0.20519948822E+01  0.13842303812E+04  0.13842748446E+04  0.10000000000E+02 0.  1.
</event>
<event>
 5    1  0.1300052E-008  0.3796912E+03  0.7957747E-01  0.3452504E+00
         13   -1    0    0    0    0  0.00000000000E+00  0.00000000000E+00  0.14999999963E+04  0.15000000000E+04  0.10566000000E+00 0.  1.
        994   -1    0    0    0    0 -0.00000000000E+00 -0.00000000000E+00  0.11368683772E-12  0.17120000000E+03  0.17120000000E+03 0.  0.
         13    1    1    2    0    0  0.25884372598E+02 -0.34011944433E+02  0.21379439636E+03  0.21802492561E+03  0.10566000000E+00 0.  1.
        994    1    1    2    0    0 -0.60358490434E+01  0.24702556441E+02  0.64559941862E+01  0.17319863634E+03  0.17120000000E+03 0.  0.
        998    1    1    2    0    0 -0.19848523555E+02  0.93093879927E+01  0.12797496057E+04  0.12799764381E+04  0.10000000000E+02 0.  1.
</event>
<event>
 5    1  0.1300052E-008  0.3741995E+03  0.7957747E-01  0.3476810E+00
         13   -1    0    0    0    0  0.00000000000E+00  0.00000000000E+00  0.14999999963E+04  0.15000000000E+04  0.10566000000E+00 0.  1.
        994   -1    0    0    0    0 -0.00000000000E+00 -0.00000000000E+00  0.11368683772E-12  0.17120000000E+03  0.17120000000E+03 0.  0.
         13    1    1    2    0    0 -0.61255246997E+02 -0.46369969693E+02  0.30931725401E+03  0.31871547525E+03  0.10566000000E+00 0.  1.
        994    1    1    2    0    0  0.68127262256E+02  0.49663676705E+02  0.31717254937E+02  0.19345084365E+03  0.17120000000E+03 0.  0.
        998    1    1    2    0    0 -0.68720152589E+01 -0.32937070118E+01  0.11589654873E+04  0.11590336811E+04  0.10000000000E+02 0.  1.
</event>
<event>
 5    1  0.1300052E-008  0.3784315E+03  0.7957747E-01  0.3458017E+00
         13   -1    0    0    0    0  0.00000000000E+00  0.00000000000E+00  0.14999999963E+04  0.15000000000E+04  0.10566000000E+00 0. -1.
        994   -1    0    0    0    0 -0.00000000000E+00 -0.00000000000E+00  0.11368683772E-12  0.17120000000E+03  0.17120000000E+03 0.  0.
         13    1    1    2    0    0 -0.23624856124E+02 -0.21723609605E+02  0.11340912697E+03  0.11786301492E+03  0.10566000000E+00 0. -1.
        994    1    1    2    0    0 -0.60628076810E+01  0.71174184823E+01  0.52208295231E+01  0.17153458061E+03  0.17120000000E+03 0.  0.
        998    1    1    2    0    0  0.29687663805E+02  0.14606191122E+02  0.13813700398E+04  0.13818024045E+04  0.10000000000E+02 0. -1.
</event>
<event>
 5    1  0.1300052E-008  0.3823840E+03  0.7957747E-01  0.3440843E+00
         13   -1    0    0    0    0  0.00000000000E+00  0.00000000000E+00  0.14999999963E+04  0.15000000000E+04  0.10566000000E+00 0. -1.
        994   -1    0    0    0    0 -0.00000000000E+00 -0.00000000000E+00  0.11368683772E-12  0.17120000000E+03  0.17120000000E+03 0.  0.
         13    1    1    2    0    0 -0.69340314703E+01  0.89891642665E+01  0.20601891427E+02  0.23523072950E+02  0.10566000000E+00 0. -1.
        994    1    1    2    0    0  0.60484483286E+01 -0.99770848142E+01  0.33861589172E+01  0.17163051017E+03  0.17120000000E+03 0.  0.
        998    1    1    2    0    0  0.88558314169E+00  0.98792054775E+00  0.14760119459E+04  0.14760464169E+04  0.10000000000E+02 0. -1.
</event>
<event>
 5    1  0.1300052E-008  0.3733274E+03  0.7957747E-01  0.3480737E+00
         13   -1    0    0    0    0  0.00000000000E+00  0.00000000000E+00  0.14999999963E+04  0.15000000000E+04  0.10566000000E+00 0.  1.
        994   -1    0    0    0    0 -0.00000000000E+00 -0.00000000000E+00  0.11368683772E-12  0.17120000000E+03  0.17120000000E+03 0.  0.
         13    1    1    2    0    0  0.97276467819E+00 -0.57893657528E+02  0.23300105326E+03  0.24008774195E+03  0.10566000000E+00 0.  1.
        994    1    1    2    0    0  0.24146509633E+02  0.25233772879E+02  0.11721415179E+02  0.17511889902E+03  0.17120000000E+03 0.  0.
        998    1    1    2    0    0 -0.25119274311E+02  0.32659884649E+02  0.12552775278E+04  0.12559933590E+04  0.10000000000E+02 0.  1.
</event>
<event>
 5    1  0.1300052E-008  0.3801716E+03  0.7957747E-01  0.3450412E+00
         13   -1    0    0    0    0  0.00000000000E+00  0.00000000000E+00  0.14999999963E+04  0.15000000000E+04  0.10566000000E+00 0. -1.
        994   -1    0    0    0    0 -0.00000000000E+00 -0.00000000000E+00  0.11368683772E-12  0.17120000000E+03  0.17120000000E+03 0.  0.
         13    1    1    2    0    0 -0.14651180678E+03  0.13499969602E+03  0.11818358870E+04  0.11985102013E+04  0.10566000000E+00 0. -1.
        994    1    1    2    0    0  0.13590572525E+03 -0.13080620018E+03  0.13386415118E+03  0.28776670957E+03  0.17120000000E+03 0.  0.
        998    1    1    2    0    0  0.10606081526E+02 -0.41934958352E+01  0.18429995805E+03  0.18492308918E+03  0.10000000000E+02 0.  0.
</event>
<event>
 5    1  0.1300052E-008  0.3959532E+03  0.7957747E-01  0.3384506E+00
         13   -1    0    0    0    0  0.00000000000E+00  0.00000000000E+00  0.14999999963E+04  0.15000000000E+04  0.10566000000E+00 0. -1.
        994   -1    0    0    0    0 -0.00000000000E+00 -0.00000000000E+00  0.11368683772E-12  0.17120000000E+03  0.17120000000E+03 0.  0.
         13    1    1    2    0    0  0.52439227853E+01 -0.22413773540E+02 -0.45735854345E+00  0.23023820521E+02  0.10566000000E+00 0. -1.
        994    1    1    2    0    0  0.74208029707E+01  0.12942324450E+02  0.26240588633E+02  0.17384067582E+03  0.17120000000E+03 0.  0.
        998    1    1    2    0    0 -0.12664725756E+02  0.94714490904E+01  0.14742167662E+04  0.14743355037E+04  0.10000000000E+02 0. -1.
</event>
<event>
 5    1  0.1300052E-008  0.3784914E+03  0.7957747E-01  0.3457754E+00
         13   -1    0    0    0    0  0.00000000000E+00  0.00000000000E+00  0.14999999963E+04  0.15000000000E+04  0.10566000000E+00 0.  1.
        994   -1    0    0    0    0 -0.00000000000E+00 -0.00000000000E+00  0.11368683772E-12  0.17120000000E+03  0.17120000000E+03 0.  0.
         13    1    1    2    0    0 -0.18385042893E+02  0.57024638515E+02  0.30421557238E+03  0.31005958273E+03  0.10566000000E+00 0.  1.
        994    1    1    2    0    0  0.20009565904E+02 -0.51895466173E+02  0.15361086354E+02  0.18066246182E+03  0.17120000000E+03 0.  0.
        998    1    1    2    0    0 -0.16245230108E+01 -0.51291723418E+01  0.11804233375E+04  0.11804779554E+04  0.10000000000E+02 0. -1.
</event>
<event>
 5    1  0.1300052E-008  0.3832660E+03  0.7957747E-01  0.3437060E+00
         13   -1    0    0    0    0  0.00000000000E+00  0.00000000000E+00  0.14999999963E+04  0.15000000000E+04  0.10566000000E+00 0.  1.
        994   -1    0    0    0    0 -0.00000000000E+00 -0.00000000000E+00  0.11368683772E-12  0.17120000000E+03  0.17120000000E+03 0.  0.
         13    1    1    2    0    0  0.10797468107E+02  0.87669477561E+01  0.38246838115E+02  0.40697376823E+02  0.10566000000E+00 0.  1.
        994    1    1    2    0    0 -0.11105031609E+02  0.98837782268E+00  0.29046814575E+01  0.17158722503E+03  0.17120000000E+03 0.  0.
        998    1    1    2    0    0  0.30756350204E+00 -0.97553255788E+01  0.14588484767E+04  0.14589153982E+04  0.10000000000E+02 0.  1.
</event>
<event>
 5    1  0.1300052E-008  0.3854588E+03  0.7957747E-01  0.3427729E+00
         13   -1    0    0    0    0  0.00000000000E+00  0.00000000000E+00  0.14999999963E+04  0.15000000000E+04  0.10566000000E+00 0.  1.
        994   -1    0    0    0    0 -0.00000000000E+00 -0.00000000000E+00  0.11368683772E-12  0.17120000000E+03  0.17120000000E+03 0.  0.
         13    1    1    2    0    0 -0.17983857165E+01 -0.12551854470E+02  0.55229072870E+02  0.56666082412E+02  0.10566000000E+00 0.  1.
        994    1    1    2    0    0  0.41192303403E+01  0.14692135777E+02  0.21674247982E+01  0.17189230536E+03  0.17120000000E+03 0.  0.
        998    1    1    2    0    0 -0.23208446238E+01 -0.21402813078E+01  0.14426034986E+04  0.14426416122E+04  0.10000000000E+02 0.  1.
</event>
<event>
 5    1  0.1300052E-008  0.3787035E+03  0.7957747E-01  0.3456823E+00
         13   -1    0    0    0    0  0.00000000000E+00  0.00000000000E+00  0.14999999963E+04  0.15000000000E+04  0.10566000000E+00 0. -1.
        994   -1    0    0    0    0 -0.00000000000E+00 -0.00000000000E+00  0.11368683772E-12  0.17120000000E+03  0.17120000000E+03 0.  0.
         13    1    1    2    0    0 -0.27577765220E+02 -0.24352459344E+02  0.15904381899E+03  0.16324375312E+03  0.10566000000E+00 0. -1.
        994    1    1    2    0    0 -0.45596643058E+01  0.64602907887E+01  0.49990089545E+01  0.17145540524E+03  0.17120000000E+03 0.  0.
        998    1    1    2    0    0  0.32137429526E+02  0.17892168555E+02  0.13359571683E+04  0.13365008416E+04  0.10000000000E+02 0. -1.
</event>
<event>
 5    1  0.1300052E-008  0.3773975E+03  0.7957747E-01  0.3462569E+00
         13   -1    0    0    0    0  0.00000000000E+00  0.00000000000E+00  0.14999999963E+04  0.15000000000E+04  0.10566000000E+00 0.  1.
        994   -1    0    0    0    0 -0.00000000000E+00 -0.00000000000E+00  0.11368683772E-12  0.17120000000E+03  0.17120000000E+03 0.  0.
         13    1    1    2    0    0 -0.69188529273E+01  0.49733968653E+02  0.26582157311E+03  0.27052256479E+03  0.10566000000E+00 0.  1.
        994    1    1    2    0    0  0.71602137705E+01 -0.91371592113E+01  0.59071773091E+01  0.17169476137E+03  0.17120000000E+03 0.  0.
        998    1    1    2    0    0 -0.24136084316E+00 -0.40596809442E+02  0.12282712459E+04  0.12289826738E+04  0.10000000000E+02 0.  1.
</event>
<event>
 5    1  0.1300052E-008  0.3827971E+03  0.7957747E-01  0.3439069E+00
         13   -1    0    0    0    0  0.00000000000E+00  0.00000000000E+00  0.14999999963E+04  0.15000000000E+04  0.10566000000E+00 0. -1.
        994   -1    0    0    0    0 -0.00000000000E+00 -0.00000000000E+00  0.11368683772E-12  0.17120000000E+03  0.17120000000E+03 0.  0.
         13    1    1    2    0    0 -0.13056222520E+02  0.31667856901E+02  0.20267444681E+03  0.20554868197E+03  0.10566000000E+00 0. -1.
        994    1    1    2    0    0  0.17882313085E+02 -0.21059112745E+02  0.52600788071E+01  0.17349458718E+03  0.17120000000E+03 0.  0.
        998    1    1    2    0    0 -0.48260905645E+01 -0.10608744157E+02  0.12920654707E+04  0.12921567308E+04  0.10000000000E+02 0. -1.
</event>
<event>
 5    1  0.1300052E-008  0.3767056E+03  0.7957747E-01  0.3465630E+00
         13   -1    0    0    0    0  0.00000000000E+00  0.00000000000E+00  0.14999999963E+04  0.15000000000E+04  0.10566000000E+00 0.  1.
        994   -1    0    0    0    0 -0.00000000000E+00 -0.00000000000E+00  0.11368683772E-12  0.17120000000E+03  0.17120000000E+03 0.  0.
         13    1    1    2    0    0 -0.25886742156E+02  0.12004280247E+02  0.69255206695E+02  0.74903411018E+02  0.10566000000E+00 0.  1.
        994    1    1    2    0    0  0.15167899407E+01 -0.28280030425E+02  0.85209779140E+01  0.17373574139E+03  0.17120000000E+03 0.  0.
        998    1    1    2    0    0  0.24369952216E+02  0.16275750178E+02  0.14222238117E+04  0.14225608476E+04  0.10000000000E+02 0.  1.
</event>
<event>
 5    1  0.1300052E-008  0.3835519E+03  0.7957747E-01  0.3435837E+00
         13   -1    0    0    0    0  0.00000000000E+00  0.00000000000E+00  0.14999999963E+04  0.15000000000E+04  0.10566000000E+00 0. -1.
        994   -1    0    0    0    0 -0.00000000000E+00 -0.00000000000E+00  0.11368683772E-12  0.17120000000E+03  0.17120000000E+03 0.  0.
         13    1    1    2    0    0 -0.24378108689E+02  0.85573846250E+01  0.13704077985E+03  0.13945503763E+03  0.10566000000E+00 0. -1.
        994    1    1    2    0    0  0.17419093651E+02 -0.97031455839E+01  0.36655398345E+01  0.17239620657E+03  0.17120000000E+03 0.  0.
        998    1    1    2    0    0  0.69590150379E+01  0.11457609590E+01  0.13592936766E+04  0.13593487558E+04  0.10000000000E+02 0. -1.
</event>
<event>
 5    1  0.1300052E-008  0.3854084E+03  0.7957747E-01  0.3427942E+00
         13   -1    0    0    0    0  0.00000000000E+00  0.00000000000E+00  0.14999999963E+04  0.15000000000E+04  0.10566000000E+00 0.  1.
        994   -1    0    0    0    0 -0.00000000000E+00 -0.00000000000E+00  0.11368683772E-12  0.17120000000E+03  0.17120000000E+03 0.  0.
         13    1    1    2    0    0 -0.10500855017E+02 -0.39369474684E+01  0.46668163791E+02  0.47996835178E+02  0.10566000000E+00 0.  1.
        994    1    1    2    0    0 -0.41041223208E+01  0.54968365037E+01  0.15820956160E+01  0.17134468786E+03  0.17120000000E+03 0.  0.
        998    1    1    2    0    0  0.14604977338E+02 -0.15598890354E+01  0.14517497369E+04  0.14518584770E+04  0.10000000000E+02 0.  1.
</event>
<event>
 5    1  0.1300052E-008  0.3776584E+03  0.7957747E-01  0.3461418E+00
         13   -1    0    0    0    0  0.00000000000E+00  0.00000000000E+00  0.14999999963E+04  0.15000000000E+04  0.10566000000E+00 0.  1.
        994   -1    0    0    0    0 -0.00000000000E+00 -0.00000000000E+00  0.11368683772E-12  0.17120000000E+03  0.17120000000E+03 0.  0.
         13    1    1    2    0    0 -0.68186011168E+01 -0.43125451388E+02  0.15932535401E+03  0.16519950809E+03  0.10566000000E+00 0.  1.
        994    1    1    2    0    0  0.30771579498E+01  0.44193183704E+02  0.11960229632E+02  0.17724275297E+03  0.17120000000E+03 0.  0.
        998    1    1    2    0    0  0.37414431670E+01 -0.10677323163E+01  0.13287144126E+04  0.13287577389E+04  0.10000000000E+02 0.  1.
</event>
<event>
 5    1  0.1300052E-008  0.4184806E+03  0.7957747E-01  0.3299008E+00
         13   -1    0    0    0    0  0.00000000000E+00  0.00000000000E+00  0.14999999963E+04  0.15000000000E+04  0.10566000000E+00 0. -1.
        994   -1    0    0    0    0 -0.00000000000E+00 -0.00000000000E+00  0.11368683772E-12  0.17120000000E+03  0.17120000000E+03 0.  0.
         13    1    1    2    0    0 -0.79070701410E+02  0.17343975281E+02  0.75893916674E+02  0.11096344917E+03  0.10566000000E+00 0. -1.
        994    1    1    2    0    0  0.50427566434E+02  0.55734776582E+02  0.63691854629E+02  0.19752315592E+03  0.17120000000E+03 0.  0.
        998    1    1    2    0    0  0.28643134977E+02 -0.73078751863E+02  0.13604142250E+04  0.13627133949E+04  0.10000000000E+02 0. -1.
</event>
<event>
 5    1  0.1300052E-008  0.3808687E+03  0.7957747E-01  0.3447385E+00
         13   -1    0    0    0    0  0.00000000000E+00  0.00000000000E+00  0.14999999963E+04  0.15000000000E+04  0.10566000000E+00 0.  1.
        994   -1    0    0    0    0 -0.00000000000E+00 -0.00000000000E+00  0.11368683772E-12  0.17120000000E+03  0.17120000000E+03 0.  0.
         13    1    1    2    0    0  0.12332144594E+02 -0.11408737599E+02  0.36654976706E+02  0.40321700922E+02  0.10566000000E+00 0.  1.
        994    1    1    2    0    0 -0.95169350908E+01  0.79332134176E+01  0.42071367603E+01  0.17169929507E+03  0.17120000000E+03 0.  0.
        998    1    1    2    0    0 -0.28152095030E+01  0.34755241814E+01  0.14591378828E+04  0.14591790040E+04  0.10000000000E+02 0.  1.
</event>
<event>
 5    1  0.1300052E-008  0.3806497E+03  0.7957747E-01  0.3448335E+00
         13   -1    0    0    0    0  0.00000000000E+00  0.00000000000E+00  0.14999999963E+04  0.15000000000E+04  0.10566000000E+00 0.  1.
        994   -1    0    0    0    0 -0.00000000000E+00 -0.00000000000E+00  0.11368683772E-12  0.17120000000E+03  0.17120000000E+03 0.  0.
         13    1    1    2    0    0 -0.10718418493E+02 -0.43592482205E+02  0.25767433768E+03  0.26155547110E+03  0.10566000000E+00 0.  1.
        994    1    1    2    0    0 -0.30351034322E+02  0.39437271532E+02  0.12111056820E+02  0.17869695400E+03  0.17120000000E+03 0.  0.
        998    1    1    2    0    0  0.41069452815E+02  0.41552106725E+01  0.12302146018E+04  0.12309475749E+04  0.10000000000E+02 0.  1.
</event>
<event>
 5    1  0.1300052E-008  0.3835684E+03  0.7957747E-01  0.3435766E+00
         13   -1    0    0    0    0  0.00000000000E+00  0.00000000000E+00  0.14999999963E+04  0.15000000000E+04  0.10566000000E+00 0. -1.
        994   -1    0    0    0    0 -0.00000000000E+00 -0.00000000000E+00  0.11368683772E-12  0.17120000000E+03  0.17120000000E+03 0.  0.
         13    1    1    2    0    0 -0.11704879375E+02  0.49945105795E+01  0.35097992475E+02  0.37334027066E+02  0.10566000000E+00 0. -1.
        994    1    1    2    0    0 -0.15630799892E+01 -0.33970795922E+01  0.23887664749E+01  0.17125749494E+03  0.17120000000E+03 0.  0.
        998    1    1    2    0    0  0.13267959364E+02 -0.15974309873E+01  0.14625132373E+04  0.14626084780E+04  0.10000000000E+02 0. -1.
</event>
<event>
 5    1  0.1300052E-008  0.3853841E+03  0.7957747E-01  0.3428045E+00
         13   -1    0    0    0    0  0.00000000000E+00  0.00000000000E+00  0.14999999963E+04  0.15000000000E+04  0.10566000000E+00 0. -1.
        994   -1    0    0    0    0 -0.00000000000E+00 -0.00000000000E+00  0.11368683772E-12  0.17120000000E+03  0.17120000000E+03 0.  0.
         13    1    1    2    0    0 -0.25365958407E+00  0.10496780170E+02  0.37670702611E+02  0.39106773536E+02  0.10566000000E+00 0. -1.
        994    1    1    2    0    0  0.39352649566E+01 -0.10371573643E+02  0.18438716464E+01  0.17156892409E+03  0.17120000000E+03 0.  0.
        998    1    1    2    0    0 -0.36816053725E+01 -0.12520652780E+00  0.14604854220E+04  0.14605243024E+04  0.10000000000E+02 0. -1.
</event>
<event>
 5    1  0.1300052E-008  0.3798541E+03  0.7957747E-01  0.3451794E+00
         13   -1    0    0    0    0  0.00000000000E+00  0.00000000000E+00  0.14999999963E+04  0.15000000000E+04  0.10566000000E+00 0. -1.
        994   -1    0    0    0    0 -0.00000000000E+00 -0.00000000000E+00  0.11368683772E-12  0.17120000000E+03  0.17120000000E+03 0.  0.
         13    1    1    2    0    0  0.65030728081E+00 -0.31087335015E+02  0.10650292059E+03  0.11094921611E+03  0.10566000000E+00 0. -1.
        994    1    1    2    0    0 -0.34448295162E+01  0.30814523241E+02  0.74289148249E+01  0.17414370637E+03  0.17120000000E+03 0.  0.
        998    1    1    2    0    0  0.27945222354E+01  0.27281177356E+00  0.13860681609E+04  0.13861070775E+04  0.10000000000E+02 0. -1.
</event>
<event>
 5    1  0.1300052E-008  0.3858483E+03  0.7957747E-01  0.3426082E+00
         13   -1    0    0    0    0  0.00000000000E+00  0.00000000000E+00  0.14999999963E+04  0.15000000000E+04  0.10566000000E+00 0.  1.
        994   -1    0    0    0    0 -0.00000000000E+00 -0.00000000000E+00  0.11368683772E-12  0.17120000000E+03  0.17120000000E+03 0.  0.
         13    1    1    2    0    0  0.90910856097E+01 -0.65968432407E+01  0.50876264132E+02  0.52101550787E+02  0.10566000000E+00 0.  1.
        994    1    1    2    0    0 -0.11999239610E+02  0.53493563436E+01  0.17758115859E+01  0.17171252392E+03  0.17120000000E+03 0.  0.
        998    1    1    2    0    0  0.29081540004E+01  0.12474868970E+01  0.14473479206E+04  0.14473859253E+04  0.10000000000E+02 0.  1.
</event>
<event>
 5    1  0.1300052E-008  0.3837797E+03  0.7957747E-01  0.3434864E+00
         13   -1    0    0    0    0  0.00000000000E+00  0.00000000000E+00  0.14999999963E+04  0.15000000000E+04  0.10566000000E+00 0. -1.
        994   -1    0    0    0    0 -0.00000000000E+00 -0.00000000000E+00  0.11368683772E-12  0.17120000000E+03  0.17120000000E+03 0.  0.
         13    1    1    2    0    0 -0.84688591850E+01  0.26839233113E+02  0.15765770332E+03  0.16015001901E+03  0.10566000000E+00 0. -1.
        994    1    1    2    0    0  0.28906789851E+02 -0.23332339932E+02  0.68069364997E+01  0.17531621423E+03  0.17120000000E+03 0.  0.
        998    1    1    2    0    0 -0.20437930666E+02 -0.35068931805E+01  0.13355353565E+04  0.13357337668E+04  0.10000000000E+02 0. -1.
</event>
<event>
 5    1  0.1300052E-008  0.3746884E+03  0.7957747E-01  0.3474617E+00
         13   -1    0    0    0    0  0.00000000000E+00  0.00000000000E+00  0.14999999963E+04  0.15000000000E+04  0.10566000000E+00 0. -1.
        994   -1    0    0    0    0 -0.00000000000E+00 -0.00000000000E+00  0.11368683772E-12  0.17120000000E+03  0.17120000000E+03 0.  0.
         13    1    1    2    0    0 -0.20565515243E+02  0.30142733277E+02  0.87917074704E+02  0.95189011840E+02  0.10566000000E+00 0. -1.
        994    1    1    2    0    0  0.22647424242E+02 -0.35340237764E+02  0.12857651811E+02  0.17673878307E+03  0.17120000000E+03 0.  0.
        998    1    1    2    0    0 -0.20819089985E+01  0.51975044864E+01  0.13992252698E+04  0.13992722051E+04  0.10000000000E+02 0. -1.
</event>
<event>
 5    1  0.1300052E-008  0.3762628E+03  0.7957747E-01  0.3467594E+00
         13   -1    0    0    0    0  0.00000000000E+00  0.00000000000E+00  0.14999999963E+04  0.15000000000E+04  0.10566000000E+00 0. -1.
        994   -1    0    0    0    0 -0.00000000000E+00 -0.00000000000E+00  0.11368683772E-12  0.17120000000E+03  0.17120000000E+03 0.  0.
         13    1    1    2    0    0  0.39240814678E+02  0.78095925538E+01  0.48632670811E+02  0.62976020092E+02  0.10566000000E+00 0. -1.
        994    1    1    2    0    0 -0.41321200118E+02 -0.13798066281E+02  0.21104296334E+02  0.17791194321E+03  0.17120000000E+03 0.  0.
        998    1    1    2    0    0  0.20803854406E+01  0.59884737275E+01  0.14302630291E+04  0.14303120367E+04  0.10000000000E+02 0. -1.
</event>
<event>
 5    1  0.1300052E-008  0.3834916E+03  0.7957747E-01  0.3436095E+00
         13   -1    0    0    0    0  0.00000000000E+00  0.00000000000E+00  0.14999999963E+04  0.15000000000E+04  0.10566000000E+00 0.  1.
        994   -1    0    0    0    0 -0.00000000000E+00 -0.00000000000E+00  0.11368683772E-12  0.17120000000E+03  0.17120000000E+03 0.  0.
         13    1    1    2    0    0 -0.19437147549E+02 -0.55085817195E+01  0.98234597618E+02  0.10029055046E+03  0.10566000000E+00 0.  1.
        994    1    1    2    0    0 -0.11624509483E+02  0.99512070886E+01  0.31550850068E+01  0.17191146066E+03  0.17120000000E+03 0.  0.
        998    1    1    2    0    0  0.31061657032E+02 -0.44426253690E+01  0.13986103137E+04  0.13989979889E+04  0.10000000000E+02 0.  1.
</event>
<event>
 5    1  0.1300052E-008  0.3742644E+03  0.7957747E-01  0.3476519E+00
         13   -1    0    0    0    0  0.00000000000E+00  0.00000000000E+00  0.14999999963E+04  0.15000000000E+04  0.10566000000E+00 0.  1.
        994   -1    0    0    0    0 -0.00000000000E+00 -0.00000000000E+00  0.11368683772E-12  0.17120000000E+03  0.17120000000E+03 0.  0.
         13    1    1    2    0    0 -0.64220330329E+01 -0.46029886083E+02  0.14252097139E+03  0.14990740933E+03  0.10566000000E+00 0.  1.
        994    1    1    2    0    0 -0.41001660967E+01  0.40007474866E+02  0.12588552626E+02  0.17631029767E+03  0.17120000000E+03 0.  0.
        998    1    1    2    0    0  0.10522199130E+02  0.60224112172E+01  0.13448904723E+04  0.13449822930E+04  0.10000000000E+02 0.  1.
</event>
<event>
 5    1  0.1300052E-008  0.3735291E+03  0.7957747E-01  0.3479828E+00
         13   -1    0    0    0    0  0.00000000000E+00  0.00000000000E+00  0.14999999963E+04  0.15000000000E+04  0.10566000000E+00 0.  1.
        994   -1    0    0    0    0 -0.00000000000E+00 -0.00000000000E+00  0.11368683772E-12  0.17120000000E+03  0.17120000000E+03 0.  0.
         13    1    1    2    0    0  0.13225971405E+02  0.17416044577E+02  0.29798640794E+02  0.36962346862E+02  0.10566000000E+00 0.  1.
        994    1    1    2    0    0 -0.15775102262E+02  0.48758996411E+01  0.83679048217E+01  0.17219782252E+03  0.17120000000E+03 0.  0.
        998    1    1    2    0    0  0.25491308562E+01 -0.22291944218E+02  0.14618334507E+04  0.14620398306E+04  0.10000000000E+02 0.  1.
</event>
<event>
 5    1  0.1300052E-008  0.3864703E+03  0.7957747E-01  0.3423460E+00
         13   -1    0    0    0    0  0.00000000000E+00  0.00000000000E+00  0.14999999963E+04  0.15000000000E+04  0.10566000000E+00 0.  1.
        994   -1    0    0    0    0 -0.00000000000E+00 -0.00000000000E+00  0.11368683772E-12  0.17120000000E+03  0.17120000000E+03 0.  0.
         13    1    1    2    0    0  0.30350823595E+01 -0.10078529484E+02  0.59730007442E+02  0.60650419904E+02  0.10566000000E+00 0.  1.
        994    1    1    2    0    0 -0.47089008176E-01  0.13753335499E+02  0.15212476544E+01  0.17175829135E+03  0.17120000000E+03 0.  0.
        998    1    1    2    0    0 -0.29879933513E+01 -0.36748060147E+01  0.14387487412E+04  0.14387912887E+04  0.10000000000E+02 0.  1.
</event>
<event>
 5    1  0.1300052E-008  0.3836799E+03  0.7957747E-01  0.3435290E+00
         13   -1    0    0    0    0  0.00000000000E+00  0.00000000000E+00  0.14999999963E+04  0.15000000000E+04  0.10566000000E+00 0.  1.
        994   -1    0    0    0    0 -0.00000000000E+00 -0.00000000000E+00  0.11368683772E-12  0.17120000000E+03  0.17120000000E+03 0.  0.
         13    1    1    2    0    0  0.71938847164E+02 -0.16638017302E+02  0.37731652523E+03  0.38447339664E+03  0.10566000000E+00 0.  1.
        994    1    1    2    0    0 -0.14468150716E+03  0.10812719887E+02  0.75224229758E+02  0.23668075158E+03  0.17120000000E+03 0.  0.
        998    1    1    2    0    0  0.72742659992E+02  0.58252974145E+01  0.10474592413E+04  0.10500458518E+04  0.10000000000E+02 0.  1.
</event>
<event>
 5    1  0.1300052E-008  0.3811935E+03  0.7957747E-01  0.3445978E+00
         13   -1    0    0    0    0  0.00000000000E+00  0.00000000000E+00  0.14999999963E+04  0.15000000000E+04  0.10566000000E+00 0.  1.
        994   -1    0    0    0    0 -0.00000000000E+00 -0.00000000000E+00  0.11368683772E-12  0.17120000000E+03  0.17120000000E+03 0.  0.
         13    1    1    2    0    0 -0.20905009589E+02  0.11094967783E+02  0.75840440477E+02  0.79447475176E+02  0.10566000000E+00 0.  1.
        994    1    1    2    0    0  0.18548312903E+02 -0.96777160283E+01  0.49907040037E+01  0.17254577719E+03  0.17120000000E+03 0.  0.
        998    1    1    2    0    0  0.23566966859E+01 -0.14172517549E+01  0.14191688518E+04  0.14192067476E+04  0.10000000000E+02 0.  1.
</event>
<event>
 5    1  0.1300052E-008  0.3783877E+03  0.7957747E-01  0.3458209E+00
         13   -1    0    0    0    0  0.00000000000E+00  0.00000000000E+00  0.14999999963E+04  0.15000000000E+04  0.10566000000E+00 0. -1.
        994   -1    0    0    0    0 -0.00000000000E+00 -0.00000000000E+00  0.11368683772E-12  0.17120000000E+03  0.17120000000E+03 0.  0.
         13    1    1    2    0    0 -0.41382009396E+02 -0.19641378127E+02  0.17838954254E+03  0.18417680225E+03  0.10566000000E+00 0. -1.
        994    1    1    2    0    0  0.45407832133E+02  0.27600532214E+02  0.14498379227E+02  0.17984244104E+03  0.17120000000E+03 0.  0.
        998    1    1    2    0    0 -0.40258227372E+01 -0.79591540868E+01  0.13071120745E+04  0.13071807567E+04  0.10000000000E+02 0. -1.
</event>
<event>
 5    1  0.1300052E-008  0.3799525E+03  0.7957747E-01  0.3451365E+00
         13   -1    0    0    0    0  0.00000000000E+00  0.00000000000E+00  0.14999999963E+04  0.15000000000E+04  0.10566000000E+00 0.  1.
        994   -1    0    0    0    0 -0.00000000000E+00 -0.00000000000E+00  0.11368683772E-12  0.17120000000E+03  0.17120000000E+03 0.  0.
         13    1    1    2    0    0 -0.88676339766E+01 -0.10778123415E+02  0.21324947171E+02  0.25486612419E+02  0.10566000000E+00 0.  1.
        994    1    1    2    0    0  0.10223611850E+02  0.12663993074E+02  0.50432685830E+01  0.17204584714E+03  0.17120000000E+03 0.  0.
        998    1    1    2    0    0 -0.13559778736E+01 -0.18858696588E+01  0.14736317805E+04  0.14736675404E+04  0.10000000000E+02 0.  1.
</event>
<event>
 5    1  0.1300052E-008  0.3710399E+03  0.7957747E-01  0.3491125E+00
         13   -1    0    0    0    0  0.00000000000E+00  0.00000000000E+00  0.14999999963E+04  0.15000000000E+04  0.10566000000E+00 0.  1.
        994   -1    0    0    0    0 -0.00000000000E+00 -0.00000000000E+00  0.11368683772E-12  0.17120000000E+03  0.17120000000E+03 0.  0.
         13    1    1    2    0    0  0.16565891329E+02 -0.35714941319E+01  0.71496798608E+01  0.18393298018E+02  0.10566000000E+00 0.  1.
        994    1    1    2    0    0 -0.25209674765E+02 -0.12356290354E+02  0.14260308247E+02  0.17407183001E+03  0.17120000000E+03 0.  0.
        998    1    1    2    0    0  0.86437834360E+01  0.15927784486E+02  0.14785900082E+04  0.14787348720E+04  0.10000000000E+02 0.  1.
</event>
<event>
 5    1  0.1300052E-008  0.2674082E+03  0.7957747E-01  0.4160211E+00
         13   -1    0    0    0    0  0.00000000000E+00  0.00000000000E+00  0.14999999963E+04  0.15000000000E+04  0.10566000000E+00 0.  1.
        994   -1    0    0    0    0 -0.00000000000E+00 -0.00000000000E+00  0.11368683772E-12  0.17120000000E+03  0.17120000000E+03 0.  0.
         13    1    1    2    0    0  0.85845780411E+02 -0.16972529104E+03  0.49682135148E+03  0.53198462279E+03  0.10566000000E+00 0.  1.
        994    1    1    2    0    0 -0.46466923893E+02  0.11095680149E+03  0.97700489843E+02  0.23092295799E+03  0.17120000000E+03 0.  0.
        998    1    1    2    0    0 -0.39378856518E+02  0.58768489552E+02  0.90547815496E+03  0.90829241922E+03  0.10000000000E+02 0. -1.
</event>
<event>
 5    1  0.1300052E-008  0.3913109E+03  0.7957747E-01  0.3403340E+00
         13   -1    0    0    0    0  0.00000000000E+00  0.00000000000E+00  0.14999999963E+04  0.15000000000E+04  0.10566000000E+00 0.  1.
        994   -1    0    0    0    0 -0.00000000000E+00 -0.00000000000E+00  0.11368683772E-12  0.17120000000E+03  0.17120000000E+03 0.  0.
         13    1    1    2    0    0  0.13492965651E+02  0.39163247959E+02  0.25786981234E+02  0.48793438882E+02  0.10566000000E+00 0.  1.
        994    1    1    2    0    0  0.63034705974E+01 -0.80991603329E+02  0.48096917251E+02  0.19550480045E+03  0.17120000000E+03 0.  0.
        998    1    1    2    0    0 -0.19796436249E+02  0.41828355371E+02  0.14261160978E+04  0.14269017607E+04  0.10000000000E+02 0.  1.
</event>
<event>
 5    1  0.1300052E-008  0.3841005E+03  0.7957747E-01  0.3433496E+00
         13   -1    0    0    0    0  0.00000000000E+00  0.00000000000E+00  0.14999999963E+04  0.15000000000E+04  0.10566000000E+00 0. -1.
        994   -1    0    0    0    0 -0.00000000000E+00 -0.00000000000E+00  0.11368683772E-12  0.17120000000E+03  0.17120000000E+03 0.  0.
         13    1    1    2    0    0 -0.58734528727E+01  0.11357564056E+02  0.39531005715E+02  0.41547602661E+02  0.10566000000E+00 0. -1.
        994    1    1    2    0    0  0.52401614358E+01 -0.27260894978E+01  0.21924616516E+01  0.17131590044E+03  0.17120000000E+03 0.  0.
        998    1    1    2    0    0  0.63329143686E+00 -0.86314745584E+01  0.14582765289E+04  0.14583364969E+04  0.10000000000E+02 0. -1.
</event>
<event>
 5    1  0.1300052E-008  0.3841218E+03  0.7957747E-01  0.3433405E+00
         13   -1    0    0    0    0  0.00000000000E+00  0.00000000000E+00  0.14999999963E+04  0.15000000000E+04  0.10566000000E+00 0.  1.
        994   -1    0    0    0    0 -0.00000000000E+00 -0.00000000000E+00  0.11368683772E-12  0.17120000000E+03  0.17120000000E+03 0.  0.
         13    1    1    2    0    0 -0.17559874867E+02  0.46542108533E+00  0.81090012201E+02  0.82970880825E+02  0.10566000000E+00 0.  1.
        994    1    1    2    0    0 -0.24903369004E+01 -0.12649998955E+02  0.26151843195E+01  0.17170469836E+03  0.17120000000E+03 0.  0.
        998    1    1    2    0    0  0.20050211767E+02  0.12184577870E+02  0.14162947998E+04  0.14165244208E+04  0.10000000000E+02 0.  1.
</event>
<event>
 5    1  0.1300052E-008  0.3833918E+03  0.7957747E-01  0.3436521E+00
         13   -1    0    0    0    0  0.00000000000E+00  0.00000000000E+00  0.14999999963E+04  0.15000000000E+04  0.10566000000E+00 0. -1.
        994   -1    0    0    0    0 -0.00000000000E+00 -0.00000000000E+00  0.11368683772E-12  0.17120000000E+03  0.17120000000E+03 0.  0.
         13    1    1    2    0    0  0.19361393649E+02  0.10137827493E+02  0.97187816381E+02  0.99614868003E+02  0.10566000000E+00 0. -1.
        994    1    1    2    0    0 -0.73719374415E+01 -0.17177705467E+02  0.35866751695E+01  0.17225482073E+03  0.17120000000E+03 0.  0.
        998    1    1    2    0    0 -0.11989456208E+02  0.70398779734E+01  0.13992255047E+04  0.13993303113E+04  0.10000000000E+02 0. -1.
</event>
<event>
 5    1  0.1300052E-008  0.3731456E+03  0.7957747E-01  0.3481558E+00
         13   -1    0    0    0    0  0.00000000000E+00  0.00000000000E+00  0.14999999963E+04  0.15000000000E+04  0.10566000000E+00 0.  1.
        994   -1    0    0    0    0 -0.00000000000E+00 -0.00000000000E+00  0.11368683772E-12  0.17120000000E+03  0.17120000000E+03 0.  0.
         13    1    1    2    0    0 -0.18140832256E+02  0.63463182733E+02  0.24500295246E+03  0.25373829675E+03  0.10566000000E+00 0.  1.
        994    1    1    2    0    0  0.66091231144E+02 -0.47448035642E+02  0.30626680549E+02  0.19200729278E+03  0.17120000000E+03 0.  0.
        998    1    1    2    0    0 -0.47950398888E+02 -0.16015147091E+02  0.12243703633E+04  0.12254544105E+04  0.10000000000E+02 0.  1.
</event>
<event>
 5    1  0.1300052E-008  0.3839331E+03  0.7957747E-01  0.3434210E+00
         13   -1    0    0    0    0  0.00000000000E+00  0.00000000000E+00  0.14999999963E+04  0.15000000000E+04  0.10566000000E+00 0.  1.
        994   -1    0    0    0    0 -0.00000000000E+00 -0.00000000000E+00  0.11368683772E-12  0.17120000000E+03  0.17120000000E+03 0.  0.
         13    1    1    2    0    0  0.77864828639E+00 -0.15482824264E+02  0.56489794751E+02  0.58578427902E+02  0.10566000000E+00 0.  1.
        994    1    1    2    0    0 -0.45190042804E+01  0.53586826734E+01  0.23229277203E+01  0.17135919255E+03  0.17120000000E+03 0.  0.
        998    1    1    2    0    0  0.37403559940E+01  0.10124141590E+02  0.14411872738E+04  0.14412623795E+04  0.10000000000E+02 0.  1.
</event>
<event>
 5    1  0.1300052E-008  0.2948172E+03  0.7957747E-01  0.3933729E+00
         13   -1    0    0    0    0  0.00000000000E+00  0.00000000000E+00  0.14999999963E+04  0.15000000000E+04  0.10566000000E+00 0. -1.
        994   -1    0    0    0    0 -0.00000000000E+00 -0.00000000000E+00  0.11368683772E-12  0.17120000000E+03  0.17120000000E+03 0.  0.
         13    1    1    2    0    0  0.98958743293E+02  0.15739613006E+03  0.69003237837E+03  0.71464051732E+03  0.10566000000E+00 0. -1.
        994    1    1    2    0    0 -0.71488188654E+02 -0.10353481570E+03  0.84722755887E+02  0.22872998174E+03  0.17120000000E+03 0.  0.
        998    1    1    2    0    0 -0.27470554640E+02 -0.53861314361E+02  0.72524486203E+03  0.72782950095E+03  0.10000000000E+02 0.  1.
</event>
<event>
 5    1  0.1498196E-008  0.3861650E+03  0.7957747E-01  0.3424746E+00
         13   -1    0    0    0    0  0.00000000000E+00  0.00000000000E+00  0.14999999963E+04  0.15000000000E+04  0.10566000000E+00 0.  1.
        994   -1    0    0    0    0 -0.00000000000E+00 -0.00000000000E+00  0.11368683772E-12  0.17120000000E+03  0.17120000000E+03 0.  0.
         13    1    1    2    0    0 -0.14434824384E+02 -0.62422641478E+01  0.78793927760E+02  0.80348143927E+02  0.10566000000E+00 0.  1.
        994    1    1    2    0    0  0.54247274863E+02  0.30935566954E+02  0.13935304838E+02  0.18276599480E+03  0.17120000000E+03 0.  0.
        998    1    1    2    0    0 -0.39812450479E+02 -0.24693302806E+02  0.14072707637E+04  0.14080858613E+04  0.10000000000E+02 0.  1.
</event>
<event>
 5    1  0.1300052E-008  0.3859048E+03  0.7957747E-01  0.3425844E+00
         13   -1    0    0    0    0  0.00000000000E+00  0.00000000000E+00  0.14999999963E+04  0.15000000000E+04  0.10566000000E+00 0. -1.
        994   -1    0    0    0    0 -0.00000000000E+00 -0.00000000000E+00  0.11368683772E-12  0.17120000000E+03  0.17120000000E+03 0.  0.
         13    1    1    2    0    0 -0.11349405471E+02 -0.37927867254E+01  0.61979990409E+02  0.63124675134E+02  0.10566000000E+00 0. -1.
        994    1    1    2    0    0  0.36758111478E+01  0.90650948431E+01  0.14954101235E+01  0.17148575388E+03  0.17120000000E+03 0.  0.
        998    1    1    2    0    0  0.76735943236E+01 -0.52723081177E+01  0.14365245957E+04  0.14365895710E+04  0.10000000000E+02 0. -1.
</event>
<event>
 5    1  0.1300052E-008  0.3844473E+03  0.7957747E-01  0.3432020E+00
         13   -1    0    0    0    0  0.00000000000E+00  0.00000000000E+00  0.14999999963E+04  0.15000000000E+04  0.10566000000E+00 0. -1.
        994   -1    0    0    0    0 -0.00000000000E+00 -0.00000000000E+00  0.11368683772E-12  0.17120000000E+03  0.17120000000E+03 0.  0.
         13    1    1    2    0    0  0.16948103362E+02  0.12102826164E+02  0.11966040467E+03  0.12145921216E+03  0.10566000000E+00 0. -1.
        994    1    1    2    0    0 -0.31273016382E+01 -0.69752368203E+01  0.20973202539E+01  0.17138340846E+03  0.17120000000E+03 0.  0.
        998    1    1    2    0    0 -0.13820801723E+02 -0.51275893440E+01  0.13782422714E+04  0.13783573794E+04  0.10000000000E+02 0. -1.
</event>
<event>
 5    1  0.1300052E-008  0.3776726E+03  0.7957747E-01  0.3461356E+00
         13   -1    0    0    0    0  0.00000000000E+00  0.00000000000E+00  0.14999999963E+04  0.15000000000E+04  0.10566000000E+00 0. -1.
        994   -1    0    0    0    0 -0.00000000000E+00 -0.00000000000E+00  0.11368683772E-12  0.17120000000E+03  0.17120000000E+03 0.  0.
         13    1    1    2    0    0 -0.92420959934E+00  0.12434440270E+02  0.12347288984E+02  0.17548110368E+02  0.10566000000E+00 0. -1.
        994    1    1    2    0    0 -0.11787869536E+02 -0.74615844238E+01  0.59685892144E+01  0.17187115281E+03  0.17120000000E+03 0.  0.
        998    1    1    2    0    0  0.12712079135E+02 -0.49728558457E+01  0.14816841181E+04  0.14817807368E+04  0.10000000000E+02 0. -1.
</event>
<event>
 5    1  0.1300052E-008  0.3758004E+03  0.7957747E-01  0.3469651E+00
         13   -1    0    0    0    0  0.00000000000E+00  0.00000000000E+00  0.14999999963E+04  0.15000000000E+04  0.10566000000E+00 0.  1.
        994   -1    0    0    0    0 -0.00000000000E+00 -0.00000000000E+00  0.11368683772E-12  0.17120000000E+03  0.17120000000E+03 0.  0.
         13    1    1    2    0    0  0.36285545375E+02 -0.43652311895E+02  0.21916843549E+03  0.22640004288E+03  0.10566000000E+00 0.  1.
        994    1    1    2    0    0 -0.23043312569E+02  0.54773398004E+02  0.18334374378E+02  0.18214474647E+03  0.17120000000E+03 0.  0.
        998    1    1    2    0    0 -0.13242232805E+02 -0.11121086109E+02  0.12624971864E+04  0.12626552106E+04  0.10000000000E+02 0.  1.
</event>
<event>
 5    1  0.1300052E-008  0.3795465E+03  0.7957747E-01  0.3453136E+00
         13   -1    0    0    0    0  0.00000000000E+00  0.00000000000E+00  0.14999999963E+04  0.15000000000E+04  0.10566000000E+00 0.  1.
        994   -1    0    0    0    0 -0.00000000000E+00 -0.00000000000E+00  0.11368683772E-12  0.17120000000E+03  0.17120000000E+03 0.  0.
         13    1    1    2    0    0  0.10897202896E+02 -0.33446268704E+02  0.12949142585E+03  0.13418435995E+03  0.10566000000E+00 0.  1.
        994    1    1    2    0    0 -0.15964384169E+02  0.31711773542E+02  0.85938583795E+01  0.17505368475E+03  0.17120000000E+03 0.  0.
        998    1    1    2    0    0  0.50671812725E+01  0.17344951618E+01  0.13619147120E+04  0.13619619553E+04  0.10000000000E+02 0.  1.
</event>
<event>
 5    1  0.1300052E-008  0.3748262E+03  0.7957747E-01  0.3474000E+00
         13   -1    0    0    0    0  0.00000000000E+00  0.00000000000E+00  0.14999999963E+04  0.15000000000E+04  0.10566000000E+00 0.  1.
        994   -1    0    0    0    0 -0.00000000000E+00 -0.00000000000E+00  0.11368683772E-12  0.17120000000E+03  0.17120000000E+03 0.  0.
         13    1    1    2    0    0 -0.77176175215E+01 -0.14959313038E+02  0.17803180538E+02  0.24501164627E+02  0.10566000000E+00 0.  1.
        994    1    1    2    0    0  0.98249217552E+01  0.13753968081E+02  0.77403154471E+01  0.17220642615E+03  0.17120000000E+03 0.  0.
        998    1    1    2    0    0 -0.21073042337E+01  0.12053449571E+01  0.14744565003E+04  0.14744924092E+04  0.10000000000E+02 0.  1.
</event>
<event>
 5    1  0.1300052E-008  0.3811728E+03  0.7957747E-01  0.3446068E+00
         13   -1    0    0    0    0  0.00000000000E+00  0.00000000000E+00  0.14999999963E+04  0.15000000000E+04  0.10566000000E+00 0.  1.
        994   -1    0    0    0    0 -0.00000000000E+00 -0.00000000000E+00  0.11368683772E-12  0.17120000000E+03  0.17120000000E+03 0.  0.
         13    1    1    2    0    0  0.12335106066E+02  0.54526714377E+01  0.25243620526E+02  0.28620587149E+02  0.10566000000E+00 0.  1.
        994    1    1    2    0    0  0.58013032199E+01 -0.42357320707E+01  0.37141226811E+01  0.17139087272E+03  0.17120000000E+03 0.  0.
        998    1    1    2    0    0 -0.18136409286E+02 -0.12169393671E+01  0.14710422531E+04  0.14711885401E+04  0.10000000000E+02 0.  1.
</event>
<event>
 5    1  0.1300052E-008  0.3686108E+03  0.7957747E-01  0.3502300E+00
         13   -1    0    0    0    0  0.00000000000E+00  0.00000000000E+00  0.14999999963E+04  0.15000000000E+04  0.10566000000E+00 0. -1.
        994   -1    0    0    0    0 -0.00000000000E+00 -0.00000000000E+00  0.11368683772E-12  0.17120000000E+03  0.17120000000E+03 0.  0.
         13    1    1    2    0    0  0.96940712198E+01 -0.12820785050E+02  0.76366683393E+01  0.17795432377E+02  0.10566000000E+00 0. -1.
        994    1    1    2    0    0  0.26262510178E+01  0.60117657743E+02  0.22685212019E+02  0.18287998472E+03  0.17120000000E+03 0.  0.
        998    1    1    2    0    0 -0.12320322238E+02 -0.47296872693E+02  0.14696781159E+04  0.14705245829E+04  0.10000000000E+02 0. -1.
</event>
<event>
 5    1  0.1300052E-008  0.3801058E+03  0.7957747E-01  0.3450698E+00
         13   -1    0    0    0    0  0.00000000000E+00  0.00000000000E+00  0.14999999963E+04  0.15000000000E+04  0.10566000000E+00 0. -1.
        994   -1    0    0    0    0 -0.00000000000E+00 -0.00000000000E+00  0.11368683772E-12  0.17120000000E+03  0.17120000000E+03 0.  0.
         13    1    1    2    0    0 -0.37928461045E+01  0.96137738316E+01  0.11676482467E+02  0.15593644080E+02  0.10566000000E+00 0. -1.
        994    1    1    2    0    0 -0.13246856258E+02  0.17616617529E+01  0.46767502271E+01  0.17178444239E+03  0.17120000000E+03 0.  0.
        998    1    1    2    0    0  0.17039702362E+02 -0.11375435584E+02  0.14836467636E+04  0.14838219135E+04  0.10000000000E+02 0. -1.
</event>
<event>
 5    1  0.1300052E-008  0.3758291E+03  0.7957747E-01  0.3469523E+00
         13   -1    0    0    0    0  0.00000000000E+00  0.00000000000E+00  0.14999999963E+04  0.15000000000E+04  0.10566000000E+00 0. -1.
        994   -1    0    0    0    0 -0.00000000000E+00 -0.00000000000E+00  0.11368683772E-12  0.17120000000E+03  0.17120000000E+03 0.  0.
         13    1    1    2    0    0 -0.15753091545E+03  0.48258131121E+02  0.93227479836E+03  0.94672126171E+03  0.10566000000E+00 0. -1.
        994    1    1    2    0    0  0.15281840108E+03 -0.27660961115E+02  0.92958894869E+02  0.24913728869E+03  0.17120000000E+03 0.  0.
        998    1    1    2    0    0  0.47125143713E+01 -0.20597170006E+02  0.47476630305E+03  0.47534144960E+03  0.10000000000E+02 0. -1.
</event>
<event>
 5    1  0.1300052E-008  0.3777701E+03  0.7957747E-01  0.3460926E+00
         13   -1    0    0    0    0  0.00000000000E+00  0.00000000000E+00  0.14999999963E+04  0.15000000000E+04  0.10566000000E+00 0.  1.
        994   -1    0    0    0    0 -0.00000000000E+00 -0.00000000000E+00  0.11368683772E-12  0.17120000000E+03  0.17120000000E+03 0.  0.
         13    1    1    2    0    0 -0.26758520173E+02  0.11124328768E+02  0.79554925771E+02  0.84668568376E+02  0.10566000000E+00 0.  1.
        994    1    1    2    0    0  0.15861981459E+02  0.43410522179E+01  0.61743571384E+01  0.17209883752E+03  0.17120000000E+03 0.  0.
        998    1    1    2    0    0  0.10896538715E+02 -0.15465380986E+02  0.14142707134E+04  0.14144325941E+04  0.10000000000E+02 0.  1.
</event>
<event>
 5    1  0.1300052E-008  0.3837093E+03  0.7957747E-01  0.3435165E+00
         13   -1    0    0    0    0  0.00000000000E+00  0.00000000000E+00  0.14999999963E+04  0.15000000000E+04  0.10566000000E+00 0. -1.
        994   -1    0    0    0    0 -0.00000000000E+00 -0.00000000000E+00  0.11368683772E-12  0.17120000000E+03  0.17120000000E+03 0.  0.
         13    1    1    2    0    0  0.11421574489E+02 -0.58748639076E+00  0.31761686257E+02  0.33758160228E+02  0.10566000000E+00 0. -1.
        994    1    1    2    0    0  0.22131865830E+02 -0.17479763265E+02  0.49033832531E+01  0.17357662509E+03  0.17120000000E+03 0.  0.
        998    1    1    2    0    0 -0.33553440318E+02  0.18067249655E+02  0.14633349268E+04  0.14638652147E+04  0.10000000000E+02 0. -1.
</event>
<event>
 5    1  0.1300052E-008  0.3808248E+03  0.7957747E-01  0.3447575E+00
         13   -1    0    0    0    0  0.00000000000E+00  0.00000000000E+00  0.14999999963E+04  0.15000000000E+04  0.10566000000E+00 0.  1.
        994   -1    0    0    0    0 -0.00000000000E+00 -0.00000000000E+00  0.11368683772E-12  0.17120000000E+03  0.17120000000E+03 0.  0.
         13    1    1    2    0    0  0.82832359136E+01  0.92991781892E+01  0.18782884904E+02  0.22536517955E+02  0.10566000000E+00 0.  1.
        994    1    1    2    0    0 -0.13147803302E+02 -0.13984046479E+02  0.49465763273E+01  0.17234363030E+03  0.17120000000E+03 0.  0.
        998    1    1    2    0    0  0.48645673886E+01  0.46848682900E+01  0.14762705350E+04  0.14763198517E+04  0.10000000000E+02 0.  1.
</event>
<event>
 5    1  0.1300052E-008  0.3834022E+03  0.7957747E-01  0.3436477E+00
         13   -1    0    0    0    0  0.00000000000E+00  0.00000000000E+00  0.14999999963E+04  0.15000000000E+04  0.10566000000E+00 0.  1.
        994   -1    0    0    0    0 -0.00000000000E+00 -0.00000000000E+00  0.11368683772E-12  0.17120000000E+03  0.17120000000E+03 0.  0.
         13    1    1    2    0    0  0.79987239848E+01 -0.13241986925E+02  0.49590525596E+02  0.51947677484E+02  0.10566000000E+00 0.  1.
        994    1    1    2    0    0 -0.41023960214E+01  0.47668642311E+01  0.25562758095E+01  0.17133454758E+03  0.17120000000E+03 0.  0.
        998    1    1    2    0    0 -0.38963279634E+01  0.84751226935E+01  0.14478531949E+04  0.14479177749E+04  0.10000000000E+02 0.  1.
</event>
<event>
 5    1  0.1446012E-008  0.3858151E+03  0.7957747E-01  0.3426223E+00
         13   -1    0    0    0    0  0.00000000000E+00  0.00000000000E+00  0.14999999963E+04  0.15000000000E+04  0.10566000000E+00 0. -1.
        994   -1    0    0    0    0 -0.00000000000E+00 -0.00000000000E+00  0.11368683772E-12  0.17120000000E+03  0.17120000000E+03 0.  0.
         13    1    1    2    0    0 -0.35344731485E+01  0.11885224388E+02  0.60993209432E+02  0.62240933638E+02  0.10566000000E+00 0. -1.
        994    1    1    2    0    0  0.59331472950E+01 -0.12334988820E+02  0.18407546463E+01  0.17175617184E+03  0.17120000000E+03 0.  0.
        998    1    1    2    0    0 -0.23986741464E+01  0.44976443186E+00  0.14371660322E+04  0.14372028945E+04  0.10000000000E+02 0. -1.
</event>
<event>
 5    1  0.1300052E-008  0.3771801E+03  0.7957747E-01  0.3463530E+00
         13   -1    0    0    0    0  0.00000000000E+00  0.00000000000E+00  0.14999999963E+04  0.15000000000E+04  0.10566000000E+00 0. -1.
        994   -1    0    0    0    0 -0.00000000000E+00 -0.00000000000E+00  0.11368683772E-12  0.17120000000E+03  0.17120000000E+03 0.  0.
         13    1    1    2    0    0 -0.11940313822E+02  0.41601234910E+02  0.57710085183E+02  0.72136668457E+02  0.10566000000E+00 0. -1.
        994    1    1    2    0    0  0.13124358817E+02 -0.28841379356E+02  0.18396304636E+02  0.17507694874E+03  0.17120000000E+03 0.  0.
        998    1    1    2    0    0 -0.11840449953E+01 -0.12759855555E+02  0.14238936065E+04  0.14239863828E+04  0.10000000000E+02 0. -1.
</event>
<event>
 5    1  0.1300052E-008  0.3730294E+03  0.7957747E-01  0.3482083E+00
         13   -1    0    0    0    0  0.00000000000E+00  0.00000000000E+00  0.14999999963E+04  0.15000000000E+04  0.10566000000E+00 0. -1.
        994   -1    0    0    0    0 -0.00000000000E+00 -0.00000000000E+00  0.11368683772E-12  0.17120000000E+03  0.17120000000E+03 0.  0.
         13    1    1    2    0    0 -0.16592849755E+02 -0.17975455061E+02  0.35626296017E+02  0.43216707181E+02  0.10566000000E+00 0. -1.
        994    1    1    2    0    0  0.10746681058E+02  0.14898579687E+02  0.88497783198E+01  0.17241002699E+03  0.17120000000E+03 0.  0.
        998    1    1    2    0    0  0.58461686968E+01  0.30768753732E+01  0.14555239219E+04  0.14555732658E+04  0.10000000000E+02 0. -1.
</event>
<event>
 5    1  0.1300052E-008  0.3786458E+03  0.7957747E-01  0.3457076E+00
         13   -1    0    0    0    0  0.00000000000E+00  0.00000000000E+00  0.14999999963E+04  0.15000000000E+04  0.10566000000E+00 0.  1.
        994   -1    0    0    0    0 -0.00000000000E+00 -0.00000000000E+00  0.11368683772E-12  0.17120000000E+03  0.17120000000E+03 0.  0.
         13    1    1    2    0    0  0.19241749522E+02  0.17434542612E+02  0.15581697001E+02  0.30282150621E+02  0.10566000000E+00 0.  1.
        994    1    1    2    0    0  0.12381247171E+02 -0.19642715433E+02  0.17531640519E+02  0.17365462842E+03  0.17120000000E+03 0.  0.
        998    1    1    2    0    0 -0.31622996694E+02  0.22081728214E+01  0.14668866588E+04  0.14672632210E+04  0.10000000000E+02 0.  1.
</event>
<event>
 5    1  0.1300052E-008  0.3747225E+03  0.7957747E-01  0.3474465E+00
         13   -1    0    0    0    0  0.00000000000E+00  0.00000000000E+00  0.14999999963E+04  0.15000000000E+04  0.10566000000E+00 0. -1.
        994   -1    0    0    0    0 -0.00000000000E+00 -0.00000000000E+00  0.11368683772E-12  0.17120000000E+03  0.17120000000E+03 0.  0.
         13    1    1    2    0    0  0.49891872786E+02 -0.10750272430E+02  0.16652572264E+03  0.17417116521E+03  0.10566000000E+00 0. -1.
        994    1    1    2    0    0 -0.51094412175E+02  0.16456391531E+02  0.16689040216E+02  0.18019271861E+03  0.17120000000E+03 0.  0.
        998    1    1    2    0    0  0.12025393892E+01 -0.57061191011E+01  0.13167852334E+04  0.13168361162E+04  0.10000000000E+02 0. -1.
</event>
<event>
 5    1  0.1300052E-008  0.3759616E+03  0.7957747E-01  0.3468933E+00
         13   -1    0    0    0    0  0.00000000000E+00  0.00000000000E+00  0.14999999963E+04  0.15000000000E+04  0.10566000000E+00 0.  1.
        994   -1    0    0    0    0 -0.00000000000E+00 -0.00000000000E+00  0.11368683772E-12  0.17120000000E+03  0.17120000000E+03 0.  0.
         13    1    1    2    0    0 -0.22518141036E+02 -0.68002781619E+02  0.42105741644E+03  0.42710748541E+03  0.10566000000E+00 0.  1.
        994    1    1    2    0    0 -0.83540494991E+01  0.44766377574E+02  0.13244854056E+02  0.17764764244E+03  0.17120000000E+03 0.  0.
        998    1    1    2    0    0  0.30872190535E+02  0.23236404045E+02  0.10656977258E+04  0.10664448722E+04  0.10000000000E+02 0.  1.
</event>
<event>
 5    1  0.1300052E-008  0.3818574E+03  0.7957747E-01  0.3443111E+00
         13   -1    0    0    0    0  0.00000000000E+00  0.00000000000E+00  0.14999999963E+04  0.15000000000E+04  0.10566000000E+00 0.  1.
        994   -1    0    0    0    0 -0.00000000000E+00 -0.00000000000E+00  0.11368683772E-12  0.17120000000E+03  0.17120000000E+03 0.  0.
         13    1    1    2    0    0 -0.10538403606E+03 -0.12198499751E+03  0.47029045757E+03  0.49715114434E+03  0.10566000000E+00 0.  1.
        994    1    1    2    0    0  0.10516739565E+03  0.12193120982E+03  0.11927438959E+03  0.26355876204E+03  0.17120000000E+03 0.  0.
        998    1    1    2    0    0  0.21664040784E+00  0.53787685914E-01  0.91043514912E+03  0.91049009362E+03  0.10000000000E+02 0.  0.
</event>
<event>
 5    1  0.1300052E-008  0.3803211E+03  0.7957747E-01  0.3449762E+00
         13   -1    0    0    0    0  0.00000000000E+00  0.00000000000E+00  0.14999999963E+04  0.15000000000E+04  0.10566000000E+00 0. -1.
        994   -1    0    0    0    0 -0.00000000000E+00 -0.00000000000E+00  0.11368683772E-12  0.17120000000E+03  0.17120000000E+03 0.  0.
         13    1    1    2    0    0  0.85121267723E+01 -0.10805985193E+02  0.20813463890E+02  0.24948688569E+02  0.10566000000E+00 0. -1.
        994    1    1    2    0    0 -0.33702169205E+02  0.14853596438E+02  0.85141894220E+01  0.17532369195E+03  0.17120000000E+03 0.  0.
        998    1    1    2    0    0  0.25190042433E+02 -0.40476112443E+01  0.14706723430E+04  0.14709276195E+04  0.10000000000E+02 0. -1.
</event>
<event>
 5    1  0.1300052E-008  0.3847857E+03  0.7957747E-01  0.3430581E+00
         13   -1    0    0    0    0  0.00000000000E+00  0.00000000000E+00  0.14999999963E+04  0.15000000000E+04  0.10566000000E+00 0.  1.
        994   -1    0    0    0    0 -0.00000000000E+00 -0.00000000000E+00  0.11368683772E-12  0.17120000000E+03  0.17120000000E+03 0.  0.
         13    1    1    2    0    0 -0.82463249099E+01  0.15847404147E+02  0.92138866340E+02  0.93854802473E+02  0.10566000000E+00 0.  1.
        994    1    1    2    0    0 -0.33746970258E+02 -0.33458516418E+02  0.92042038505E+01  0.17791146026E+03  0.17120000000E+03 0.  0.
        998    1    1    2    0    0  0.41993295168E+02  0.17611112271E+02  0.13986569261E+04  0.13994337373E+04  0.10000000000E+02 0.  1.
</event>
<event>
 5    1  0.1300052E-008  0.3846321E+03  0.7957747E-01  0.3431234E+00
         13   -1    0    0    0    0  0.00000000000E+00  0.00000000000E+00  0.14999999963E+04  0.15000000000E+04  0.10566000000E+00 0.  1.
        994   -1    0    0    0    0 -0.00000000000E+00 -0.00000000000E+00  0.11368683772E-12  0.17120000000E+03  0.17120000000E+03 0.  0.
         13    1    1    2    0    0 -0.88114332898E+01 -0.15444351426E+02  0.84456994449E+02  0.86308542005E+02  0.10566000000E+00 0.  1.
        994    1    1    2    0    0  0.12468265431E+02  0.11195446737E+02  0.27379697714E+01  0.17203991441E+03  0.17120000000E+03 0.  0.
        998    1    1    2    0    0 -0.36568321415E+01  0.42489046892E+01  0.14128050321E+04  0.14128515436E+04  0.10000000000E+02 0.  1.
</event>
<event>
 5    1  0.1300052E-008  0.3822471E+03  0.7957747E-01  0.3441432E+00
         13   -1    0    0    0    0  0.00000000000E+00  0.00000000000E+00  0.14999999963E+04  0.15000000000E+04  0.10566000000E+00 0. -1.
        994   -1    0    0    0    0 -0.00000000000E+00 -0.00000000000E+00  0.11368683772E-12  0.17120000000E+03  0.17120000000E+03 0.  0.
         13    1    1    2    0    0  0.33353455217E+01  0.14653190663E+02  0.36130116724E+02  0.39131023816E+02  0.10566000000E+00 0. -1.
        994    1    1    2    0    0 -0.56046745083E+01 -0.12290257385E+02  0.36087990587E+01  0.17176998059E+03  0.17120000000E+03 0.  0.
        998    1    1    2    0    0  0.22693289866E+01 -0.23629332779E+01  0.14602610805E+04  0.14602989956E+04  0.10000000000E+02 0. -1.
</event>
<event>
 5    1  0.1300052E-008  0.3825264E+03  0.7957747E-01  0.3440231E+00
         13   -1    0    0    0    0  0.00000000000E+00  0.00000000000E+00  0.14999999963E+04  0.15000000000E+04  0.10566000000E+00 0. -1.
        994   -1    0    0    0    0 -0.00000000000E+00 -0.00000000000E+00  0.11368683772E-12  0.17120000000E+03  0.17120000000E+03 0.  0.
         13    1    1    2    0    0  0.12449946184E+02  0.71832036219E+01  0.38525837059E+02  0.41119956948E+02  0.10566000000E+00 0. -1.
        994    1    1    2    0    0 -0.58976515189E+00  0.28847079918E+02  0.56280726988E+01  0.17370554696E+03  0.17120000000E+03 0.  0.
        998    1    1    2    0    0 -0.11860181032E+02 -0.36030283540E+02  0.14558460865E+04  0.14563744961E+04  0.10000000000E+02 0. -1.
</event>
<event>
 5    1  0.1300052E-008  0.3750023E+03  0.7957747E-01  0.3473213E+00
         13   -1    0    0    0    0  0.00000000000E+00  0.00000000000E+00  0.14999999963E+04  0.15000000000E+04  0.10566000000E+00 0.  1.
        994   -1    0    0    0    0 -0.00000000000E+00 -0.00000000000E+00  0.11368683772E-12  0.17120000000E+03  0.17120000000E+03 0.  0.
         13    1    1    2    0    0 -0.39640608924E+02 -0.15654258200E+03  0.85288808882E+03  0.86804093283E+03  0.10566000000E+00 0.  1.
        994    1    1    2    0    0  0.39239746697E+02  0.14888691866E+03  0.92077111791E+02  0.24798126297E+03  0.17120000000E+03 0.  0.
        998    1    1    2    0    0  0.40086222633E+00  0.76556633385E+01  0.55503479567E+03  0.55517780420E+03  0.10000000000E+02 0.  0.
</event>
<event>
 5    1  0.1300052E-008  0.3811241E+03  0.7957747E-01  0.3446278E+00
         13   -1    0    0    0    0  0.00000000000E+00  0.00000000000E+00  0.14999999963E+04  0.15000000000E+04  0.10566000000E+00 0. -1.
        994   -1    0    0    0    0 -0.00000000000E+00 -0.00000000000E+00  0.11368683772E-12  0.17120000000E+03  0.17120000000E+03 0.  0.
         13    1    1    2    0    0  0.43681224294E+02  0.64706565935E+01  0.23201294376E+03  0.23617776353E+03  0.10566000000E+00 0. -1.
        994    1    1    2    0    0 -0.44519040458E+02 -0.25451456023E+01  0.10217819800E+02  0.17720684685E+03  0.17120000000E+03 0.  0.
        998    1    1    2    0    0  0.83781616364E+00 -0.39255109912E+01  0.12577692327E+04  0.12578153896E+04  0.10000000000E+02 0. -1.
</event>
<event>
 5    1  0.1300052E-008  0.3814368E+03  0.7957747E-01  0.3444926E+00
         13   -1    0    0    0    0  0.00000000000E+00  0.00000000000E+00  0.14999999963E+04  0.15000000000E+04  0.10566000000E+00 0. -1.
        994   -1    0    0    0    0 -0.00000000000E+00 -0.00000000000E+00  0.11368683772E-12  0.17120000000E+03  0.17120000000E+03 0.  0.
         13    1    1    2    0    0 -0.36147888051E+02  0.11325003800E+01  0.16989839145E+03  0.17370499978E+03  0.10566000000E+00 0. -1.
        994    1    1    2    0    0  0.36966066817E+02 -0.31728119723E+01  0.80031647300E+01  0.17535691454E+03  0.17120000000E+03 0.  0.
        998    1    1    2    0    0 -0.81817876631E+00  0.20403115923E+01  0.13220984401E+04  0.13221380857E+04  0.10000000000E+02 0.  0.
</event>
<event>
 5    1  0.1300052E-008  0.3814185E+03  0.7957747E-01  0.3445005E+00
         13   -1    0    0    0    0  0.00000000000E+00  0.00000000000E+00  0.14999999963E+04  0.15000000000E+04  0.10566000000E+00 0.  1.
        994   -1    0    0    0    0 -0.00000000000E+00 -0.00000000000E+00  0.11368683772E-12  0.17120000000E+03  0.17120000000E+03 0.  0.
         13    1    1    2    0    0 -0.37329036385E+02  0.20103372734E+02  0.22471494720E+03  0.22867973502E+03  0.10566000000E+00 0.  1.
        994    1    1    2    0    0  0.38045923298E+02 -0.19102642251E+02  0.94728719095E+01  0.17666798952E+03  0.17120000000E+03 0.  0.
        998    1    1    2    0    0 -0.71688691246E+00 -0.10007304830E+01  0.12658121772E+04  0.12658522755E+04  0.10000000000E+02 0.  0.
</event>
<event>
 5    1  0.1300052E-008  0.3792544E+03  0.7957747E-01  0.3454412E+00
         13   -1    0    0    0    0  0.00000000000E+00  0.00000000000E+00  0.14999999963E+04  0.15000000000E+04  0.10566000000E+00 0.  1.
        994   -1    0    0    0    0 -0.00000000000E+00 -0.00000000000E+00  0.11368683772E-12  0.17120000000E+03  0.17120000000E+03 0.  0.
         13    1    1    2    0    0 -0.16930383177E+02 -0.52117023796E+00  0.29491368314E+02  0.34009725991E+02  0.10566000000E+00 0.  1.
        994    1    1    2    0    0  0.17267496277E+02 -0.12142041652E+01  0.55147931946E+01  0.17216124321E+03  0.17120000000E+03 0.  0.
        998    1    1    2    0    0 -0.33711309962E+00  0.17353744031E+01  0.14649938348E+04  0.14650290308E+04  0.10000000000E+02 0.  1.
</event>
<event>
 5    1  0.1300052E-008  0.3833709E+03  0.7957747E-01  0.3436611E+00
         13   -1    0    0    0    0  0.00000000000E+00  0.00000000000E+00  0.14999999963E+04  0.15000000000E+04  0.10566000000E+00 0.  1.
        994   -1    0    0    0    0 -0.00000000000E+00 -0.00000000000E+00  0.11368683772E-12  0.17120000000E+03  0.17120000000E+03 0.  0.
         13    1    1    2    0    0  0.23080908220E+02 -0.57016007860E+00  0.10656258504E+03  0.10903508198E+03  0.10566000000E+00 0.  1.
        994    1    1    2    0    0 -0.16998871150E+02  0.58826769840E+00  0.33981915635E+01  0.17207642309E+03  0.17120000000E+03 0.  0.
        998    1    1    2    0    0 -0.60820370697E+01 -0.18107619803E-01  0.13900392197E+04  0.13900884949E+04  0.10000000000E+02 0.  1.
</event>
<event>
 5    1  0.1300052E-008  0.3857192E+03  0.7957747E-01  0.3426628E+00
         13   -1    0    0    0    0  0.00000000000E+00  0.00000000000E+00  0.14999999963E+04  0.15000000000E+04  0.10566000000E+00 0.  1.
        994   -1    0    0    0    0 -0.00000000000E+00 -0.00000000000E+00  0.11368683772E-12  0.17120000000E+03  0.17120000000E+03 0.  0.
         13    1    1    2    0    0 -0.95533575495E+01  0.76005630071E+01  0.53581800462E+02  0.54955033466E+02  0.10566000000E+00 0.  1.
        994    1    1    2    0    0  0.13799280468E+02 -0.19991923510E+02  0.32119687123E+01  0.17294465557E+03  0.17120000000E+03 0.  0.
        998    1    1    2    0    0 -0.42459229185E+01  0.12391360503E+02  0.14432062271E+04  0.14433003110E+04  0.10000000000E+02 0.  1.
</event>
<event>
 5    1  0.1300052E-008  0.3851206E+03  0.7957747E-01  0.3429161E+00
         13   -1    0    0    0    0  0.00000000000E+00  0.00000000000E+00  0.14999999963E+04  0.15000000000E+04  0.10566000000E+00 0.  1.
        994   -1    0    0    0    0 -0.00000000000E+00 -0.00000000000E+00  0.11368683772E-12  0.17120000000E+03  0.17120000000E+03 0.  0.
         13    1    1    2    0    0 -0.12680979618E+01 -0.11210379586E+02  0.40186005986E+02  0.41739752324E+02  0.10566000000E+00 0.  1.
        994    1    1    2    0    0 -0.27032846682E+01  0.93060162053E+01  0.18790344877E+01  0.17148434464E+03  0.17120000000E+03 0.  0.
        998    1    1    2    0    0  0.39713826300E+01  0.19043633807E+01  0.14579349558E+04  0.14579759030E+04  0.10000000000E+02 0.  1.
</event>
<event>
 5    1  0.1300052E-008  0.3798837E+03  0.7957747E-01  0.3451665E+00
         13   -1    0    0    0    0  0.00000000000E+00  0.00000000000E+00  0.14999999963E+04  0.15000000000E+04  0.10566000000E+00 0.  1.
        994   -1    0    0    0    0 -0.00000000000E+00 -0.00000000000E+00  0.11368683772E-12  0.17120000000E+03  0.17120000000E+03 0.  0.
         13    1    1    2    0    0  0.10471628020E+02 -0.48868290860E+01  0.14063113288E+02  0.18202154029E+02  0.10566000000E+00 0.  1.
        994    1    1    2    0    0 -0.10429363888E+02  0.91763916697E+00  0.45585070020E+01  0.17158040004E+03  0.17120000000E+03 0.  0.
        998    1    1    2    0    0 -0.42264131447E-01  0.39691899191E+01  0.14813783760E+04  0.14814174459E+04  0.10000000000E+02 0.  1.
</event>
<event>
 5    1  0.1300052E-008  0.3839688E+03  0.7957747E-01  0.3434057E+00
         13   -1    0    0    0    0  0.00000000000E+00  0.00000000000E+00  0.14999999963E+04  0.15000000000E+04  0.10566000000E+00 0. -1.
        994   -1    0    0    0    0 -0.00000000000E+00 -0.00000000000E+00  0.11368683772E-12  0.17120000000E+03  0.17120000000E+03 0.  0.
         13    1    1    2    0    0 -0.13481001450E+02 -0.14449354028E+02  0.95201333648E+02  0.97230788973E+02  0.10566000000E+00 0. -1.
        994    1    1    2    0    0  0.25575562969E+01  0.49257347469E+01  0.22446148974E+01  0.17130464749E+03  0.17120000000E+03 0.  0.
        998    1    1    2    0    0  0.10923445153E+02  0.95236192812E+01  0.14025540477E+04  0.14026645635E+04  0.10000000000E+02 0. -1.
</event>
<event>
 5    1  0.1300052E-008  0.3835342E+03  0.7957747E-01  0.3435913E+00
         13   -1    0    0    0    0  0.00000000000E+00  0.00000000000E+00  0.14999999963E+04  0.15000000000E+04  0.10566000000E+00 0.  1.
        994   -1    0    0    0    0 -0.00000000000E+00 -0.00000000000E+00  0.11368683772E-12  0.17120000000E+03  0.17120000000E+03 0.  0.
         13    1    1    2    0    0  0.11181133237E+02 -0.17355347654E+02  0.95001749258E+02  0.97219182052E+02  0.10566000000E+00 0.  1.
        994    1    1    2    0    0  0.48380120717E+01  0.82325154964E+01  0.26609824315E+01  0.17148673855E+03  0.17120000000E+03 0.  0.
        998    1    1    2    0    0 -0.16019145308E+02  0.91228321574E+01  0.14023372646E+04  0.14024940794E+04  0.10000000000E+02 0.  1.
</event>
<event>
 5    1  0.1300052E-008  0.3799995E+03  0.7957747E-01  0.3451161E+00
         13   -1    0    0    0    0  0.00000000000E+00  0.00000000000E+00  0.14999999963E+04  0.15000000000E+04  0.10566000000E+00 0.  1.
        994   -1    0    0    0    0 -0.00000000000E+00 -0.00000000000E+00  0.11368683772E-12  0.17120000000E+03  0.17120000000E+03 0.  0.
         13    1    1    2    0    0  0.61507678031E+01 -0.83581339092E+01  0.11217616137E+02  0.15281898535E+02  0.10566000000E+00 0.  1.
        994    1    1    2    0    0 -0.44264561111E+01  0.56955316779E+01  0.43073764534E+01  0.17140602698E+03  0.17120000000E+03 0.  0.
        998    1    1    2    0    0 -0.17243116920E+01  0.26626022313E+01  0.14844750037E+04  0.14845120745E+04  0.10000000000E+02 0.  1.
</event>
<event>
 5    1  0.1300052E-008  0.3840654E+03  0.7957747E-01  0.3433646E+00
         13   -1    0    0    0    0  0.00000000000E+00  0.00000000000E+00  0.14999999963E+04  0.15000000000E+04  0.10566000000E+00 0.  1.
        994   -1    0    0    0    0 -0.00000000000E+00 -0.00000000000E+00  0.11368683772E-12  0.17120000000E+03  0.17120000000E+03 0.  0.
         13    1    1    2    0    0  0.96620058732E+01  0.17388680981E+02  0.92870175107E+02  0.94976845453E+02  0.10566000000E+00 0.  1.
        994    1    1    2    0    0 -0.78829075369E+01 -0.12167624769E+02  0.27885091052E+01  0.17183540702E+03  0.17120000000E+03 0.  0.
        998    1    1    2    0    0 -0.17790983363E+01 -0.52210562115E+01  0.14043413121E+04  0.14043877475E+04  0.10000000000E+02 0.  1.
</event>
<event>
 5    1  0.1300052E-008  0.3816747E+03  0.7957747E-01  0.3443899E+00
         13   -1    0    0    0    0  0.00000000000E+00  0.00000000000E+00  0.14999999963E+04  0.15000000000E+04  0.10566000000E+00 0.  1.
        994   -1    0    0    0    0 -0.00000000000E+00 -0.00000000000E+00  0.11368683772E-12  0.17120000000E+03  0.17120000000E+03 0.  0.
         13    1    1    2    0    0  0.94627001014E+01  0.35174814002E+01  0.13873629461E+02  0.17158208738E+02  0.10566000000E+00 0.  1.
        994    1    1    2    0    0 -0.12708125283E+02 -0.52193738450E+01  0.39178557600E+01  0.17179501711E+03  0.17120000000E+03 0.  0.
        998    1    1    2    0    0  0.32454251812E+01  0.17018924448E+01  0.14822085111E+04  0.14822467741E+04  0.10000000000E+02 0.  1.
</event>
<event>
 5    1  0.1300052E-008  0.3795349E+03  0.7957747E-01  0.3453186E+00
         13   -1    0    0    0    0  0.00000000000E+00  0.00000000000E+00  0.14999999963E+04  0.15000000000E+04  0.10566000000E+00 0. -1.
        994   -1    0    0    0    0 -0.00000000000E+00 -0.00000000000E+00  0.11368683772E-12  0.17120000000E+03  0.17120000000E+03 0.  0.
         13    1    1    2    0    0  0.99968448692E+01 -0.21348006837E+01 -0.42404410601E+01  0.11067374834E+02  0.10566000000E+00 0. -1.
        994    1    1    2    0    0 -0.75818735378E+01  0.26891018143E+01  0.16306346074E+02  0.17216286765E+03  0.17120000000E+03 0.  0.
        998    1    1    2    0    0 -0.24149713314E+01 -0.55430113059E+00  0.14879340913E+04  0.14879697575E+04  0.10000000000E+02 0. -1.
</event>
<event>
 5    1  0.1300052E-008  0.3851131E+03  0.7957747E-01  0.3429193E+00
         13   -1    0    0    0    0  0.00000000000E+00  0.00000000000E+00  0.14999999963E+04  0.15000000000E+04  0.10566000000E+00 0.  1.
        994   -1    0    0    0    0 -0.00000000000E+00 -0.00000000000E+00  0.11368683772E-12  0.17120000000E+03  0.17120000000E+03 0.  0.
         13    1    1    2    0    0 -0.13408767011E+02 -0.32519843461E+01  0.64398600543E+02  0.65860165129E+02  0.10566000000E+00 0.  1.
        994    1    1    2    0    0 -0.19965583101E+01  0.67476131516E+01  0.17368014281E+01  0.17135335715E+03  0.17120000000E+03 0.  0.
        998    1    1    2    0    0  0.15405325321E+02 -0.34956288055E+01  0.14338645943E+04  0.14339864777E+04  0.10000000000E+02 0.  1.
</event>
<event>
 5    1  0.1300052E-008  0.3744138E+03  0.7957747E-01  0.3475849E+00
         13   -1    0    0    0    0  0.00000000000E+00  0.00000000000E+00  0.14999999963E+04  0.15000000000E+04  0.10566000000E+00 0. -1.
        994   -1    0    0    0    0 -0.00000000000E+00 -0.00000000000E+00  0.11368683772E-12  0.17120000000E+03  0.17120000000E+03 0.  0.
         13    1    1    2    0    0 -0.38071635523E+02  0.56146039955E+02  0.37921799328E+03  0.38523775104E+03  0.10566000000E+00 0. -1.
        994    1    1    2    0    0 -0.42826241351E+01 -0.30464549724E+02  0.10210314780E+02  0.17424155700E+03  0.17120000000E+03 0.  0.
        998    1    1    2    0    0  0.42354259658E+02 -0.25681490231E+02  0.11105716882E+04  0.11117206920E+04  0.10000000000E+02 0. -1.
</event>
<event>
 5    1  0.1300052E-008  0.3843291E+03  0.7957747E-01  0.3432522E+00
         13   -1    0    0    0    0  0.00000000000E+00  0.00000000000E+00  0.14999999963E+04  0.15000000000E+04  0.10566000000E+00 0. -1.
        994   -1    0    0    0    0 -0.00000000000E+00 -0.00000000000E+00  0.11368683772E-12  0.17120000000E+03  0.17120000000E+03 0.  0.
         13    1    1    2    0    0  0.58107386420E+01 -0.11865686129E+02  0.43396056297E+02  0.45362848864E+02  0.10566000000E+00 0. -1.
        994    1    1    2    0    0 -0.29290582090E+01  0.12021806817E+02  0.24683486302E+01  0.17166431186E+03  0.17120000000E+03 0.  0.
        998    1    1    2    0    0 -0.28816804330E+01 -0.15612068779E+00  0.14541355914E+04  0.14541728393E+04  0.10000000000E+02 0. -1.
</event>
<event>
 5    1  0.1300052E-008  0.3689497E+03  0.7957747E-01  0.3500732E+00
         13   -1    0    0    0    0  0.00000000000E+00  0.00000000000E+00  0.14999999963E+04  0.15000000000E+04  0.10566000000E+00 0. -1.
        994   -1    0    0    0    0 -0.00000000000E+00 -0.00000000000E+00  0.11368683772E-12  0.17120000000E+03  0.17120000000E+03 0.  0.
         13    1    1    2    0    0  0.12731866902E+02  0.14153922482E+02  0.14746665207E+02  0.24081305098E+02  0.10566000000E+00 0. -1.
        994    1    1    2    0    0  0.89369228439E+01 -0.30497255644E+01  0.10128585366E+02  0.17175912685E+03  0.17120000000E+03 0.  0.
        998    1    1    2    0    0 -0.21668789746E+02 -0.11104196918E+02  0.14751247457E+04  0.14753595680E+04  0.10000000000E+02 0. -1.
</event>
<event>
 5    1  0.1300052E-008  0.3797602E+03  0.7957747E-01  0.3452203E+00
         13   -1    0    0    0    0  0.00000000000E+00  0.00000000000E+00  0.14999999963E+04  0.15000000000E+04  0.10566000000E+00 0.  1.
        994   -1    0    0    0    0 -0.00000000000E+00 -0.00000000000E+00  0.11368683772E-12  0.17120000000E+03  0.17120000000E+03 0.  0.
         13    1    1    2    0    0 -0.62328457289E+01  0.13038554598E+02  0.23869668169E+02  0.27903843721E+02  0.10566000000E+00 0.  1.
        994    1    1    2    0    0  0.37102497055E+01  0.88383496585E+01  0.45617202480E+01  0.17152880711E+03  0.17120000000E+03 0.  0.
        998    1    1    2    0    0  0.25225960234E+01 -0.21876904256E+02  0.14715686079E+04  0.14717673492E+04  0.10000000000E+02 0.  1.
</event>
<event>
 5    1  0.1300052E-008  0.3853255E+03  0.7957747E-01  0.3428293E+00
         13   -1    0    0    0    0  0.00000000000E+00  0.00000000000E+00  0.14999999963E+04  0.15000000000E+04  0.10566000000E+00 0.  1.
        994   -1    0    0    0    0 -0.00000000000E+00 -0.00000000000E+00  0.11368683772E-12  0.17120000000E+03  0.17120000000E+03 0.  0.
         13    1    1    2    0    0 -0.11017728772E+02 -0.93819055225E+01  0.71837476462E+02  0.73280588746E+02  0.10566000000E+00 0.  1.
        994    1    1    2    0    0  0.15305402594E+01  0.12082620144E+02  0.19560896327E+01  0.17164381302E+03  0.17120000000E+03 0.  0.
        998    1    1    2    0    0  0.94871885129E+01 -0.27007146217E+01  0.14262064302E+04  0.14262755982E+04  0.10000000000E+02 0.  1.
</event>
<event>
 5    1  0.1300052E-008  0.3867368E+03  0.7957747E-01  0.3422339E+00
         13   -1    0    0    0    0  0.00000000000E+00  0.00000000000E+00  0.14999999963E+04  0.15000000000E+04  0.10566000000E+00 0. -1.
        994   -1    0    0    0    0 -0.00000000000E+00 -0.00000000000E+00  0.11368683772E-12  0.17120000000E+03  0.17120000000E+03 0.  0.
         13    1    1    2    0    0  0.63242628929E+02  0.38297963023E+01  0.10300446432E+03  0.12093067554E+03  0.10566000000E+00 0. -1.
        994    1    1    2    0    0 -0.10643033751E+02 -0.83057765605E+01  0.20755814759E+02  0.17298122424E+03  0.17120000000E+03 0.  0.
        998    1    1    2    0    0 -0.52599595179E+02  0.44759802582E+01  0.13762397172E+04  0.13772881002E+04  0.10000000000E+02 0. -1.
</event>
<event>
 5    1  0.1300052E-008  0.3792600E+03  0.7957747E-01  0.3454387E+00
         13   -1    0    0    0    0  0.00000000000E+00  0.00000000000E+00  0.14999999963E+04  0.15000000000E+04  0.10566000000E+00 0. -1.
        994   -1    0    0    0    0 -0.00000000000E+00 -0.00000000000E+00  0.11368683772E-12  0.17120000000E+03  0.17120000000E+03 0.  0.
         13    1    1    2    0    0  0.55233504150E+02 -0.39883719166E+02  0.38182195685E+03  0.38785238033E+03  0.10566000000E+00 0. -1.
        994    1    1    2    0    0 -0.55960474248E+02  0.39533785447E+02  0.20403141571E+02  0.18552687960E+03  0.17120000000E+03 0.  0.
        998    1    1    2    0    0  0.72697009769E+00  0.34993371910E+00  0.10977748979E+04  0.10978207401E+04  0.10000000000E+02 0.  0.
</event>
<event>
 5    1  0.1300052E-008  0.3850778E+03  0.7957747E-01  0.3429342E+00
         13   -1    0    0    0    0  0.00000000000E+00  0.00000000000E+00  0.14999999963E+04  0.15000000000E+04  0.10566000000E+00 0.  1.
        994   -1    0    0    0    0 -0.00000000000E+00 -0.00000000000E+00  0.11368683772E-12  0.17120000000E+03  0.17120000000E+03 0.  0.
         13    1    1    2    0    0  0.56098420734E+01  0.95770665487E+01  0.41255577357E+02  0.42722644568E+02  0.10566000000E+00 0.  1.
        994    1    1    2    0    0  0.33045945624E+01  0.41956112372E+01  0.16853110068E+01  0.17129157531E+03  0.17120000000E+03 0.  0.
        998    1    1    2    0    0 -0.89144366359E+01 -0.13772677786E+02  0.14570591079E+04  0.14571857801E+04  0.10000000000E+02 0.  1.
</event>
<event>
 5    1  0.1300052E-008  0.3791207E+03  0.7957747E-01  0.3454996E+00
         13   -1    0    0    0    0  0.00000000000E+00  0.00000000000E+00  0.14999999963E+04  0.15000000000E+04  0.10566000000E+00 0. -1.
        994   -1    0    0    0    0 -0.00000000000E+00 -0.00000000000E+00  0.11368683772E-12  0.17120000000E+03  0.17120000000E+03 0.  0.
         13    1    1    2    0    0  0.20070342301E+02 -0.12571374912E+02  0.57754553859E+02  0.62421612946E+02  0.10566000000E+00 0. -1.
        994    1    1    2    0    0 -0.28835342354E+02 -0.21446992504E+01  0.73857950336E+01  0.17378166380E+03  0.17120000000E+03 0.  0.
        998    1    1    2    0    0  0.87650000529E+01  0.14716074162E+02  0.14348596474E+04  0.14349967233E+04  0.10000000000E+02 0. -1.
</event>
<event>
 5    1  0.1300052E-008  0.3845635E+03  0.7957747E-01  0.3431525E+00
         13   -1    0    0    0    0  0.00000000000E+00  0.00000000000E+00  0.14999999963E+04  0.15000000000E+04  0.10566000000E+00 0.  1.
        994   -1    0    0    0    0 -0.00000000000E+00 -0.00000000000E+00  0.11368683772E-12  0.17120000000E+03  0.17120000000E+03 0.  0.
         13    1    1    2    0    0 -0.17400325313E+02  0.50888247324E+01  0.89614421683E+02  0.91429881306E+02  0.10566000000E+00 0.  1.
        994    1    1    2    0    0  0.10913327268E+02  0.58494791947E+00  0.22404500129E+01  0.17156311519E+03  0.17120000000E+03 0.  0.
        998    1    1    2    0    0  0.64869980456E+01 -0.56737726519E+01  0.14081451246E+04  0.14082070035E+04  0.10000000000E+02 0.  1.
</event>
<event>
 5    1  0.1300052E-008  0.3826440E+03  0.7957747E-01  0.3439726E+00
         13   -1    0    0    0    0  0.00000000000E+00  0.00000000000E+00  0.14999999963E+04  0.15000000000E+04  0.10566000000E+00 0. -1.
        994   -1    0    0    0    0 -0.00000000000E+00 -0.00000000000E+00  0.11368683772E-12  0.17120000000E+03  0.17120000000E+03 0.  0.
         13    1    1    2    0    0  0.16923197229E+02  0.23974575269E+02  0.17239497987E+03  0.17487485558E+03  0.10566000000E+00 0. -1.
        994    1    1    2    0    0 -0.48200047425E+01 -0.28834101063E-01  0.28813680070E+01  0.17129207675E+03  0.17120000000E+03 0.  0.
        998    1    1    2    0    0 -0.12103192487E+02 -0.23945741168E+02  0.13247236484E+04  0.13250330677E+04  0.10000000000E+02 0. -1.
</event>
<event>
 5    1  0.1300052E-008  0.3724234E+03  0.7957747E-01  0.3484827E+00
         13   -1    0    0    0    0  0.00000000000E+00  0.00000000000E+00  0.14999999963E+04  0.15000000000E+04  0.10566000000E+00 0. -1.
        994   -1    0    0    0    0 -0.00000000000E+00 -0.00000000000E+00  0.11368683772E-12  0.17120000000E+03  0.17120000000E+03 0.  0.
         13    1    1    2    0    0 -0.12201893772E+02  0.10803864230E+02  0.53030900067E+01  0.17138950422E+02  0.10566000000E+00 0. -1.
        994    1    1    2    0    0  0.12647175426E+02 -0.81769893589E+01  0.13026090023E+02  0.17235409256E+03  0.17120000000E+03 0.  0.
        998    1    1    2    0    0 -0.44528165471E+00 -0.26268748716E+01  0.14816708162E+04  0.14817069570E+04  0.10000000000E+02 0. -1.
</event>
<event>
 5    1  0.1300052E-008  0.3716191E+03  0.7957747E-01  0.3488483E+00
         13   -1    0    0    0    0  0.00000000000E+00  0.00000000000E+00  0.14999999963E+04  0.15000000000E+04  0.10566000000E+00 0.  1.
        994   -1    0    0    0    0 -0.00000000000E+00 -0.00000000000E+00  0.11368683772E-12  0.17120000000E+03  0.17120000000E+03 0.  0.
         13    1    1    2    0    0  0.71823450487E+02 -0.36037764688E+02  0.42509524172E+03  0.43262374440E+03  0.10566000000E+00 0.  1.
        994    1    1    2    0    0  0.23462294562E+02  0.28473264165E+02  0.16598602331E+02  0.17591520582E+03  0.17120000000E+03 0.  0.
        998    1    1    2    0    0 -0.95285745049E+02  0.75645005229E+01  0.10583061522E+04  0.10626610498E+04  0.10000000000E+02 0.  1.
</event>
<event>
 5    1  0.1300052E-008  0.3857454E+03  0.7957747E-01  0.3426517E+00
         13   -1    0    0    0    0  0.00000000000E+00  0.00000000000E+00  0.14999999963E+04  0.15000000000E+04  0.10566000000E+00 0. -1.
        994   -1    0    0    0    0 -0.00000000000E+00 -0.00000000000E+00  0.11368683772E-12  0.17120000000E+03  0.17120000000E+03 0.  0.
         13    1    1    2    0    0 -0.64963562192E+02  0.25249176532E+02  0.11083037493E+03  0.13092428537E+03  0.10566000000E+00 0. -1.
        994    1    1    2    0    0  0.49918172264E+02 -0.55449847692E+02  0.40430304456E+02  0.19107736404E+03  0.17120000000E+03 0.  0.
        998    1    1    2    0    0  0.15045389928E+02  0.30200671160E+02  0.13487393169E+04  0.13491983506E+04  0.10000000000E+02 0. -1.
</event>
<event>
 5    1  0.1300052E-008  0.3817302E+03  0.7957747E-01  0.3443659E+00
         13   -1    0    0    0    0  0.00000000000E+00  0.00000000000E+00  0.14999999963E+04  0.15000000000E+04  0.10566000000E+00 0. -1.
        994   -1    0    0    0    0 -0.00000000000E+00 -0.00000000000E+00  0.11368683772E-12  0.17120000000E+03  0.17120000000E+03 0.  0.
         13    1    1    2    0    0 -0.27413743299E+01 -0.20276462937E+02  0.79016048807E+02  0.81622283818E+02  0.10566000000E+00 0. -1.
        994    1    1    2    0    0 -0.50833854563E+02 -0.21165964122E+02  0.13406977324E+02  0.18033653498E+03  0.17120000000E+03 0.  0.
        998    1    1    2    0    0  0.53575228893E+02  0.41442427059E+02  0.14075769701E+04  0.14092411812E+04  0.10000000000E+02 0. -1.
</event>
<event>
 5    1  0.1300052E-008  0.3820526E+03  0.7957747E-01  0.3442270E+00
         13   -1    0    0    0    0  0.00000000000E+00  0.00000000000E+00  0.14999999963E+04  0.15000000000E+04  0.10566000000E+00 0.  1.
        994   -1    0    0    0    0 -0.00000000000E+00 -0.00000000000E+00  0.11368683772E-12  0.17120000000E+03  0.17120000000E+03 0.  0.
         13    1    1    2    0    0  0.66166740215E+01 -0.34509783135E+02  0.16485128691E+03  0.16855463051E+03  0.10566000000E+00 0.  1.
        994    1    1    2    0    0 -0.21952810638E+02  0.42469382006E+02  0.10727048324E+02  0.17807325422E+03  0.17120000000E+03 0.  0.
        998    1    1    2    0    0  0.15336136617E+02 -0.79595988716E+01  0.13244216610E+04  0.13245721153E+04  0.10000000000E+02 0.  1.
</event>
<event>
 5    1  0.1300052E-008  0.3860957E+03  0.7957747E-01  0.3425038E+00
         13   -1    0    0    0    0  0.00000000000E+00  0.00000000000E+00  0.14999999963E+04  0.15000000000E+04  0.10566000000E+00 0. -1.
        994   -1    0    0    0    0 -0.00000000000E+00 -0.00000000000E+00  0.11368683772E-12  0.17120000000E+03  0.17120000000E+03 0.  0.
         13    1    1    2    0    0 -0.11054437055E+02 -0.52454190435E+01  0.70854511153E+02  0.71903323388E+02  0.10566000000E+00 0. -1.
        994    1    1    2    0    0  0.47249949205E+01  0.45320483657E+01  0.12275719708E+01  0.17132954203E+03  0.17120000000E+03 0.  0.
        998    1    1    2    0    0  0.63294421341E+01  0.71337067781E+00  0.14279179132E+04  0.14279671346E+04  0.10000000000E+02 0.  0.
</event>
<event>
 5    1  0.1300052E-008  0.3746383E+03  0.7957747E-01  0.3474842E+00
         13   -1    0    0    0    0  0.00000000000E+00  0.00000000000E+00  0.14999999963E+04  0.15000000000E+04  0.10566000000E+00 0.  1.
        994   -1    0    0    0    0 -0.00000000000E+00 -0.00000000000E+00  0.11368683772E-12  0.17120000000E+03  0.17120000000E+03 0.  0.
         13    1    1    2    0    0  0.14566533067E+02 -0.11817158736E+02  0.23785218227E+02  0.30291531759E+02  0.10566000000E+00 0.  1.
        994    1    1    2    0    0  0.21308487793E+02  0.17199242472E+02  0.94208729580E+01  0.17363196261E+03  0.17120000000E+03 0.  0.
        998    1    1    2    0    0 -0.35875020860E+02 -0.53820837368E+01  0.14667939051E+04  0.14672765056E+04  0.10000000000E+02 0.  1.
</event>
<event>
 5    1  0.1300052E-008  0.3831210E+03  0.7957747E-01  0.3437680E+00
         13   -1    0    0    0    0  0.00000000000E+00  0.00000000000E+00  0.14999999963E+04  0.15000000000E+04  0.10566000000E+00 0. -1.
        994   -1    0    0    0    0 -0.00000000000E+00 -0.00000000000E+00  0.11368683772E-12  0.17120000000E+03  0.17120000000E+03 0.  0.
         13    1    1    2    0    0 -0.82281188174E+01 -0.84439080649E+01  0.25949979596E+02  0.28502879289E+02  0.10566000000E+00 0. -1.
        994    1    1    2    0    0  0.71188986571E+01  0.83191653669E+01  0.29626689000E+01  0.17157536139E+03  0.17120000000E+03 0.  0.
        998    1    1    2    0    0  0.11092201603E+01  0.12474269804E+00  0.14710873478E+04  0.14711217593E+04  0.10000000000E+02 0. -1.
</event>
<event>
 5    1  0.1300052E-008  0.3856167E+03  0.7957747E-01  0.3427061E+00
         13   -1    0    0    0    0  0.00000000000E+00  0.00000000000E+00  0.14999999963E+04  0.15000000000E+04  0.10566000000E+00 0. -1.
        994   -1    0    0    0    0 -0.00000000000E+00 -0.00000000000E+00  0.11368683772E-12  0.17120000000E+03  0.17120000000E+03 0.  0.
         13    1    1    2    0    0 -0.11805729649E+02 -0.35517292313E+01  0.59447747455E+02  0.60712732393E+02  0.10566000000E+00 0. -1.
        994    1    1    2    0    0  0.54172611722E+01 -0.42649123715E+01  0.14803038190E+01  0.17134517062E+03  0.17120000000E+03 0.  0.
        998    1    1    2    0    0  0.63884684766E+01  0.78166416028E+01  0.14390719450E+04  0.14391420970E+04  0.10000000000E+02 0. -1.
</event>
<event>
 5    1  0.1300052E-008  0.3688960E+03  0.7957747E-01  0.3500980E+00
         13   -1    0    0    0    0  0.00000000000E+00  0.00000000000E+00  0.14999999963E+04  0.15000000000E+04  0.10566000000E+00 0. -1.
        994   -1    0    0    0    0 -0.00000000000E+00 -0.00000000000E+00  0.11368683772E-12  0.17120000000E+03  0.17120000000E+03 0.  0.
         13    1    1    2    0    0  0.10697543669E+02 -0.59768011204E+01  0.25410833047E+01  0.12515105296E+02  0.10566000000E+00 0. -1.
        994    1    1    2    0    0 -0.48644428521E+02  0.21459823105E+02  0.19723696484E+02  0.18034763275E+03  0.17120000000E+03 0.  0.
        998    1    1    2    0    0  0.37946884852E+02 -0.15483021984E+02  0.14777352165E+04  0.14783372620E+04  0.10000000000E+02 0. -1.
</event>
<event>
 5    1  0.1300052E-008  0.3809946E+03  0.7957747E-01  0.3446839E+00
         13   -1    0    0    0    0  0.00000000000E+00  0.00000000000E+00  0.14999999963E+04  0.15000000000E+04  0.10566000000E+00 0.  1.
        994   -1    0    0    0    0 -0.00000000000E+00 -0.00000000000E+00  0.11368683772E-12  0.17120000000E+03  0.17120000000E+03 0.  0.
         13    1    1    2    0    0  0.19474131746E+02  0.18946474455E+01  0.45762258925E+02  0.49769739824E+02  0.10566000000E+00 0.  1.
        994    1    1    2    0    0 -0.42670968539E+02 -0.95081610656E+01  0.10026360592E+02  0.17697792119E+03  0.17120000000E+03 0.  0.
        998    1    1    2    0    0  0.23196836793E+02  0.76135136201E+01  0.14442113768E+04  0.14444523390E+04  0.10000000000E+02 0.  1.
</event>
<event>
 5    1  0.1300052E-008  0.3793232E+03  0.7957747E-01  0.3454111E+00
         13   -1    0    0    0    0  0.00000000000E+00  0.00000000000E+00  0.14999999963E+04  0.15000000000E+04  0.10566000000E+00 0.  1.
        994   -1    0    0    0    0 -0.00000000000E+00 -0.00000000000E+00  0.11368683772E-12  0.17120000000E+03  0.17120000000E+03 0.  0.
         13    1    1    2    0    0  0.42048819803E+02  0.19988372614E+02  0.24341200341E+03  0.24782464134E+03  0.10566000000E+00 0.  1.
        994    1    1    2    0    0 -0.25577466033E+02 -0.50548961172E+01  0.67560018799E+01  0.17330563264E+03  0.17120000000E+03 0.  0.
        998    1    1    2    0    0 -0.16471353769E+02 -0.14933476497E+02  0.12498319910E+04  0.12500697260E+04  0.10000000000E+02 0.  1.
</event>
<event>
 5    1  0.1300052E-008  0.3796873E+03  0.7957747E-01  0.3452521E+00
         13   -1    0    0    0    0  0.00000000000E+00  0.00000000000E+00  0.14999999963E+04  0.15000000000E+04  0.10566000000E+00 0.  1.
        994   -1    0    0    0    0 -0.00000000000E+00 -0.00000000000E+00  0.11368683772E-12  0.17120000000E+03  0.17120000000E+03 0.  0.
         13    1    1    2    0    0  0.36080947987E+02 -0.34822498611E+02  0.26391234725E+03  0.26863391337E+03  0.10566000000E+00 0.  1.
        994    1    1    2    0    0 -0.24070699372E+02  0.33460448213E+02  0.99976334697E+01  0.17637571499E+03  0.17120000000E+03 0.  0.
        998    1    1    2    0    0 -0.12010248614E+02  0.13620503983E+01  0.12260900156E+04  0.12261903716E+04  0.10000000000E+02 0.  1.
</event>
<event>
 5    1  0.1300052E-008  0.3819264E+03  0.7957747E-01  0.3442813E+00
         13   -1    0    0    0    0  0.00000000000E+00  0.00000000000E+00  0.14999999963E+04  0.15000000000E+04  0.10566000000E+00 0.  1.
        994   -1    0    0    0    0 -0.00000000000E+00 -0.00000000000E+00  0.11368683772E-12  0.17120000000E+03  0.17120000000E+03 0.  0.
         13    1    1    2    0    0  0.24320859825E+02  0.10063408760E+01  0.10313253884E+03  0.10596626197E+03  0.10566000000E+00 0.  1.
        994    1    1    2    0    0  0.32422564201E+01 -0.73631359394E+01  0.33789024685E+01  0.17142224179E+03  0.17120000000E+03 0.  0.
        998    1    1    2    0    0 -0.27563116245E+02  0.63567950634E+01  0.13934885550E+04  0.13938114962E+04  0.10000000000E+02 0.  1.
</event>
<event>
 5    1  0.1300052E-008  0.3846143E+03  0.7957747E-01  0.3431309E+00
         13   -1    0    0    0    0  0.00000000000E+00  0.00000000000E+00  0.14999999963E+04  0.15000000000E+04  0.10566000000E+00 0. -1.
        994   -1    0    0    0    0 -0.00000000000E+00 -0.00000000000E+00  0.11368683772E-12  0.17120000000E+03  0.17120000000E+03 0.  0.
         13    1    1    2    0    0  0.14051065183E+02 -0.36974605139E+00  0.54160564901E+02  0.55954866628E+02  0.10566000000E+00 0. -1.
        994    1    1    2    0    0 -0.89703827684E+01 -0.43040742507E+01  0.21477558547E+01  0.17150231974E+03  0.17120000000E+03 0.  0.
        998    1    1    2    0    0 -0.50806824147E+01  0.46738203020E+01  0.14436916755E+04  0.14437428136E+04  0.10000000000E+02 0. -1.
</event>
<event>
 5    1  0.1300052E-008  0.4328665E+03  0.7957747E-01  0.3248997E+00
         13   -1    0    0    0    0  0.00000000000E+00  0.00000000000E+00  0.14999999963E+04  0.15000000000E+04  0.10566000000E+00 0. -1.
        994   -1    0    0    0    0 -0.00000000000E+00 -0.00000000000E+00  0.11368683772E-12  0.17120000000E+03  0.17120000000E+03 0.  0.
         13    1    1    2    0    0 -0.96718927305E+01  0.63809943201E+02  0.24192840896E+02  0.68924299597E+02  0.10566000000E+00 0. -1.
        994    1    1    2    0    0  0.20078184590E+02 -0.71465833195E+02  0.74579536235E+02  0.20095284530E+03  0.17120000000E+03 0.  0.
        998    1    1    2    0    0 -0.10406291860E+02  0.76558899943E+01  0.14012276191E+04  0.14013228551E+04  0.10000000000E+02 0. -1.
</event>
<event>
 5    1  0.1300052E-008  0.3992081E+03  0.7957747E-01  0.3371562E+00
         13   -1    0    0    0    0  0.00000000000E+00  0.00000000000E+00  0.14999999963E+04  0.15000000000E+04  0.10566000000E+00 0.  1.
        994   -1    0    0    0    0 -0.00000000000E+00 -0.00000000000E+00  0.11368683772E-12  0.17120000000E+03  0.17120000000E+03 0.  0.
         13    1    1    2    0    0 -0.28791755612E+02  0.10134207114E+03  0.19133118778E+03  0.21841889835E+03  0.10566000000E+00 0.  1.
        994    1    1    2    0    0  0.12796630936E+02 -0.75100378690E+02  0.50329164872E+02  0.19402650716E+03  0.17120000000E+03 0.  0.
        998    1    1    2    0    0  0.15995124675E+02 -0.26241692454E+02  0.12583396436E+04  0.12587545945E+04  0.10000000000E+02 0.  1.
</event>
<event>
 5    1  0.1300052E-008  0.3800239E+03  0.7957747E-01  0.3451054E+00
         13   -1    0    0    0    0  0.00000000000E+00  0.00000000000E+00  0.14999999963E+04  0.15000000000E+04  0.10566000000E+00 0. -1.
        994   -1    0    0    0    0 -0.00000000000E+00 -0.00000000000E+00  0.11368683772E-12  0.17120000000E+03  0.17120000000E+03 0.  0.
         13    1    1    2    0    0  0.82335241719E+01  0.33682751044E+02  0.15866728398E+03  0.16241193555E+03  0.10566000000E+00 0. -1.
        994    1    1    2    0    0  0.15051885002E+02 -0.10464640316E+02  0.52452315252E+01  0.17225858583E+03  0.17120000000E+03 0.  0.
        998    1    1    2    0    0 -0.23285409174E+02 -0.23218110728E+02  0.13360874808E+04  0.13365294786E+04  0.10000000000E+02 0. -1.
</event>
<event>
 5    1  0.1300052E-008  0.3846856E+03  0.7957747E-01  0.3431007E+00
         13   -1    0    0    0    0  0.00000000000E+00  0.00000000000E+00  0.14999999963E+04  0.15000000000E+04  0.10566000000E+00 0.  1.
        994   -1    0    0    0    0 -0.00000000000E+00 -0.00000000000E+00  0.11368683772E-12  0.17120000000E+03  0.17120000000E+03 0.  0.
         13    1    1    2    0    0  0.96414835603E+01  0.98619537884E+01  0.55254313687E+02  0.56949685538E+02  0.10566000000E+00 0.  1.
        994    1    1    2    0    0  0.12298728222E+01 -0.39945677527E+01  0.18438398416E+01  0.17126093806E+03  0.17120000000E+03 0.  0.
        998    1    1    2    0    0 -0.10871356383E+02 -0.58673860356E+01  0.14429018427E+04  0.14429893764E+04  0.10000000000E+02 0.  1.
</event>
<event>
 5    1  0.1300052E-008  0.3831745E+03  0.7957747E-01  0.3437452E+00
         13   -1    0    0    0    0  0.00000000000E+00  0.00000000000E+00  0.14999999963E+04  0.15000000000E+04  0.10566000000E+00 0. -1.
        994   -1    0    0    0    0 -0.00000000000E+00 -0.00000000000E+00  0.11368683772E-12  0.17120000000E+03  0.17120000000E+03 0.  0.
         13    1    1    2    0    0 -0.16129501503E+01  0.23902702029E+02  0.11131329198E+03  0.11386220140E+03  0.10566000000E+00 0. -1.
        994    1    1    2    0    0  0.92943529399E+01 -0.15538455813E+02  0.36244893305E+01  0.17219293112E+03  0.17120000000E+03 0.  0.
        998    1    1    2    0    0 -0.76814027897E+01 -0.83642462160E+01  0.13850622150E+04  0.13851448675E+04  0.10000000000E+02 0. -1.
</event>
<event>
 5    1  0.1300052E-008  0.3846606E+03  0.7957747E-01  0.3431113E+00
         13   -1    0    0    0    0  0.00000000000E+00  0.00000000000E+00  0.14999999963E+04  0.15000000000E+04  0.10566000000E+00 0.  1.
        994   -1    0    0    0    0 -0.00000000000E+00 -0.00000000000E+00  0.11368683772E-12  0.17120000000E+03  0.17120000000E+03 0.  0.
         13    1    1    2    0    0 -0.12860192481E+02  0.54142515088E+01  0.64356090119E+02  0.65851470519E+02  0.10566000000E+00 0.  1.
        994    1    1    2    0    0 -0.19535760579E+02  0.29840399273E+01  0.30856077888E+01  0.17236447259E+03  0.17120000000E+03 0.  0.
        998    1    1    2    0    0  0.32395953061E+02 -0.83982914361E+01  0.14325582984E+04  0.14329840569E+04  0.10000000000E+02 0.  1.
</event>
<event>
 5    1  0.1300052E-008  0.3708149E+03  0.7957747E-01  0.3492154E+00
         13   -1    0    0    0    0  0.00000000000E+00  0.00000000000E+00  0.14999999963E+04  0.15000000000E+04  0.10566000000E+00 0.  1.
        994   -1    0    0    0    0 -0.00000000000E+00 -0.00000000000E+00  0.11368683772E-12  0.17120000000E+03  0.17120000000E+03 0.  0.
         13    1    1    2    0    0  0.11548695696E+03 -0.45679270861E+02  0.43066554719E+03  0.44821496820E+03  0.10566000000E+00 0.  1.
        994    1    1    2    0    0 -0.13334278664E+03  0.26347532486E+02  0.79276272742E+02  0.23252668371E+03  0.17120000000E+03 0.  0.
        998    1    1    2    0    0  0.17855829679E+02  0.19331738375E+02  0.99005817635E+03  0.99045834810E+03  0.10000000000E+02 0.  1.
</event>
<event>
 5    1  0.1300052E-008  0.3711982E+03  0.7957747E-01  0.3490402E+00
         13   -1    0    0    0    0  0.00000000000E+00  0.00000000000E+00  0.14999999963E+04  0.15000000000E+04  0.10566000000E+00 0.  1.
        994   -1    0    0    0    0 -0.00000000000E+00 -0.00000000000E+00  0.11368683772E-12  0.17120000000E+03  0.17120000000E+03 0.  0.
         13    1    1    2    0    0 -0.66066365243E+02 -0.18868937374E+03  0.83754275183E+03  0.86107277084E+03  0.10566000000E+00 0.  1.
        994    1    1    2    0    0  0.53932351823E+02  0.19039354783E+03  0.15850645130E+03  0.30592831960E+03  0.17120000000E+03 0.  0.
        998    1    1    2    0    0  0.12134013421E+02 -0.17041740916E+01  0.50395079314E+03  0.50419890956E+03  0.10000000000E+02 0.  1.
</event>
<event>
 5    1  0.1300052E-008  0.3693462E+03  0.7957747E-01  0.3498901E+00
         13   -1    0    0    0    0  0.00000000000E+00  0.00000000000E+00  0.14999999963E+04  0.15000000000E+04  0.10566000000E+00 0.  1.
        994   -1    0    0    0    0 -0.00000000000E+00 -0.00000000000E+00  0.11368683772E-12  0.17120000000E+03  0.17120000000E+03 0.  0.
         13    1    1    2    0    0 -0.47305344878E+02 -0.32618505547E+02  0.14945642129E+03  0.16012181484E+03  0.10566000000E+00 0.  1.
        994    1    1    2    0    0  0.30040578719E+02  0.25948128823E+02  0.16109840230E+02  0.17647863528E+03  0.17120000000E+03 0.  0.
        998    1    1    2    0    0  0.17264766159E+02  0.66703767244E+01  0.13344337348E+04  0.13345995499E+04  0.10000000000E+02 0.  1.
</event>
<event>
 5    1  0.1300052E-008  0.3830736E+03  0.7957747E-01  0.3437883E+00
         13   -1    0    0    0    0  0.00000000000E+00  0.00000000000E+00  0.14999999963E+04  0.15000000000E+04  0.10566000000E+00 0.  1.
        994   -1    0    0    0    0 -0.00000000000E+00 -0.00000000000E+00  0.11368683772E-12  0.17120000000E+03  0.17120000000E+03 0.  0.
         13    1    1    2    0    0  0.20281588737E+02  0.13200175234E+02  0.11265079919E+03  0.11522066304E+03  0.10566000000E+00 0.  1.
        994    1    1    2    0    0 -0.21812229817E+01 -0.23944338838E+02  0.45049893974E+01  0.17293878693E+03  0.17120000000E+03 0.  0.
        998    1    1    2    0    0 -0.18100365755E+02  0.10744163603E+02  0.13828442077E+04  0.13830405500E+04  0.10000000000E+02 0.  1.
</event>
<event>
 5    1  0.1300052E-008  0.3850780E+03  0.7957747E-01  0.3429341E+00
         13   -1    0    0    0    0  0.00000000000E+00  0.00000000000E+00  0.14999999963E+04  0.15000000000E+04  0.10566000000E+00 0. -1.
        994   -1    0    0    0    0 -0.00000000000E+00 -0.00000000000E+00  0.11368683772E-12  0.17120000000E+03  0.17120000000E+03 0.  0.
         13    1    1    2    0    0  0.12168375682E+01 -0.13444386795E+02  0.59208960382E+02  0.60728447894E+02  0.10566000000E+00 0. -1.
        994    1    1    2    0    0  0.12147152228E+02  0.48837862711E+01  0.21551683006E+01  0.17171339326E+03  0.17120000000E+03 0.  0.
        998    1    1    2    0    0 -0.13363989796E+02  0.85606005242E+01  0.14386358676E+04  0.14387581588E+04  0.10000000000E+02 0. -1.
</event>
<event>
 5    1  0.1300052E-008  0.3999442E+03  0.7957747E-01  0.3368664E+00
         13   -1    0    0    0    0  0.00000000000E+00  0.00000000000E+00  0.14999999963E+04  0.15000000000E+04  0.10566000000E+00 0. -1.
        994   -1    0    0    0    0 -0.00000000000E+00 -0.00000000000E+00  0.11368683772E-12  0.17120000000E+03  0.17120000000E+03 0.  0.
         13    1    1    2    0    0  0.10488661161E+03 -0.79088101761E+00  0.23268064468E+03  0.25522954445E+03  0.10566000000E+00 0. -1.
        994    1    1    2    0    0 -0.17950088873E+02 -0.78190210798E+01  0.29248141478E+02  0.17478053828E+03  0.17120000000E+03 0.  0.
        998    1    1    2    0    0 -0.86936522740E+02  0.86099020974E+01  0.12380712101E+04  0.12411899173E+04  0.10000000000E+02 0. -1.
</event>
<event>
 5    1  0.1300052E-008  0.3855674E+03  0.7957747E-01  0.3427269E+00
         13   -1    0    0    0    0  0.00000000000E+00  0.00000000000E+00  0.14999999963E+04  0.15000000000E+04  0.10566000000E+00 0. -1.
        994   -1    0    0    0    0 -0.00000000000E+00 -0.00000000000E+00  0.11368683772E-12  0.17120000000E+03  0.17120000000E+03 0.  0.
         13    1    1    2    0    0  0.41994029293E+01 -0.12129595292E+02  0.59054854860E+02  0.60433840797E+02  0.10566000000E+00 0. -1.
        994    1    1    2    0    0 -0.34277756078E+01  0.14230233256E+02  0.20523156128E+01  0.17183684466E+03  0.17120000000E+03 0.  0.
        998    1    1    2    0    0 -0.77162732156E+00 -0.21006379643E+01  0.14388928258E+04  0.14389293145E+04  0.10000000000E+02 0. -1.
</event>
<event>
 5    1  0.1300052E-008  0.3718513E+03  0.7957747E-01  0.3487426E+00
         13   -1    0    0    0    0  0.00000000000E+00  0.00000000000E+00  0.14999999963E+04  0.15000000000E+04  0.10566000000E+00 0.  1.
        994   -1    0    0    0    0 -0.00000000000E+00 -0.00000000000E+00  0.11368683772E-12  0.17120000000E+03  0.17120000000E+03 0.  0.
         13    1    1    2    0    0 -0.85355926785E+01 -0.18952497517E+02  0.23148218447E+02  0.31111166578E+02  0.10566000000E+00 0.  1.
        994    1    1    2    0    0 -0.91128582543E+01  0.71466166075E+01  0.87655357024E+01  0.17181499623E+03  0.17120000000E+03 0.  0.
        998    1    1    2    0    0  0.17648450933E+02  0.11805880910E+02  0.14680862421E+04  0.14682738372E+04  0.10000000000E+02 0.  1.
</event>
<event>
 5    1  0.1300052E-008  0.3828041E+03  0.7957747E-01  0.3439039E+00
         13   -1    0    0    0    0  0.00000000000E+00  0.00000000000E+00  0.14999999963E+04  0.15000000000E+04  0.10566000000E+00 0.  1.
        994   -1    0    0    0    0 -0.00000000000E+00 -0.00000000000E+00  0.11368683772E-12  0.17120000000E+03  0.17120000000E+03 0.  0.
         13    1    1    2    0    0 -0.12900130601E+02 -0.80134584760E+01  0.41329230375E+02  0.44031185922E+02  0.10566000000E+00 0.  1.
        994    1    1    2    0    0  0.65730172493E+01  0.10030050932E+02  0.32007805950E+01  0.17164932704E+03  0.17120000000E+03 0.  0.
        998    1    1    2    0    0  0.63271133512E+01 -0.20165924563E+01  0.14554699853E+04  0.14555194870E+04  0.10000000000E+02 0.  1.
</event>
<event>
 5    1  0.1300052E-008  0.3773731E+03  0.7957747E-01  0.3462677E+00
         13   -1    0    0    0    0  0.00000000000E+00  0.00000000000E+00  0.14999999963E+04  0.15000000000E+04  0.10566000000E+00 0. -1.
        994   -1    0    0    0    0 -0.00000000000E+00 -0.00000000000E+00  0.11368683772E-12  0.17120000000E+03  0.17120000000E+03 0.  0.
         13    1    1    2    0    0 -0.16576085797E+02  0.25779141368E+02  0.77208997577E+02  0.83069676903E+02  0.10566000000E+00 0. -1.
        994    1    1    2    0    0 -0.33950737443E+01 -0.49746446737E+02  0.13895540884E+02  0.17885402301E+03  0.17120000000E+03 0.  0.
        998    1    1    2    0    0  0.19971159541E+02  0.23967305369E+02  0.14088954578E+04  0.14092763001E+04  0.10000000000E+02 0. -1.
</event>
<event>
 5    1  0.1300052E-008  0.3719726E+03  0.7957747E-01  0.3486874E+00
         13   -1    0    0    0    0  0.00000000000E+00  0.00000000000E+00  0.14999999963E+04  0.15000000000E+04  0.10566000000E+00 0. -1.
        994   -1    0    0    0    0 -0.00000000000E+00 -0.00000000000E+00  0.11368683772E-12  0.17120000000E+03  0.17120000000E+03 0.  0.
         13    1    1    2    0    0  0.70955914100E+02  0.44236801933E+02  0.46802544260E+03  0.47543607611E+03  0.10566000000E+00 0. -1.
        994    1    1    2    0    0 -0.34079607791E+02 -0.15334735787E+02  0.13053102649E+02  0.17571680989E+03  0.17120000000E+03 0.  0.
        998    1    1    2    0    0 -0.36876306309E+02 -0.28902066145E+02  0.10189214510E+04  0.10200471140E+04  0.10000000000E+02 0. -1.
</event>
<event>
 5    1  0.1300052E-008  0.3830699E+03  0.7957747E-01  0.3437899E+00
         13   -1    0    0    0    0  0.00000000000E+00  0.00000000000E+00  0.14999999963E+04  0.15000000000E+04  0.10566000000E+00 0.  1.
        994   -1    0    0    0    0 -0.00000000000E+00 -0.00000000000E+00  0.11368683772E-12  0.17120000000E+03  0.17120000000E+03 0.  0.
         13    1    1    2    0    0 -0.11449598769E+02  0.16610536152E+02  0.75648578072E+02  0.78292539565E+02  0.10566000000E+00 0.  1.
        994    1    1    2    0    0  0.10362023688E+02 -0.14638553468E+02  0.36566305808E+01  0.17217569436E+03  0.17120000000E+03 0.  0.
        998    1    1    2    0    0  0.10875750818E+01 -0.19719826834E+01  0.14206947876E+04  0.14207317661E+04  0.10000000000E+02 0.  0.
</event>
<event>
 5    1  0.1300052E-008  0.3821370E+03  0.7957747E-01  0.3441906E+00
         13   -1    0    0    0    0  0.00000000000E+00  0.00000000000E+00  0.14999999963E+04  0.15000000000E+04  0.10566000000E+00 0. -1.
        994   -1    0    0    0    0 -0.00000000000E+00 -0.00000000000E+00  0.11368683772E-12  0.17120000000E+03  0.17120000000E+03 0.  0.
         13    1    1    2    0    0  0.27439704413E+02 -0.11268074418E+02  0.14620710946E+03  0.14918591388E+03  0.10566000000E+00 0. -1.
        994    1    1    2    0    0 -0.15478003431E+02  0.40441317356E+00  0.38544767929E+01  0.17194193535E+03  0.17120000000E+03 0.  0.
        998    1    1    2    0    0 -0.11961700982E+02  0.10863661244E+02  0.13499384100E+04  0.13500721508E+04  0.10000000000E+02 0. -1.
</event>
<event>
 5    1  0.1300052E-008  0.3853053E+03  0.7957747E-01  0.3428378E+00
         13   -1    0    0    0    0  0.00000000000E+00  0.00000000000E+00  0.14999999963E+04  0.15000000000E+04  0.10566000000E+00 0. -1.
        994   -1    0    0    0    0 -0.00000000000E+00 -0.00000000000E+00  0.11368683772E-12  0.17120000000E+03  0.17120000000E+03 0.  0.
         13    1    1    2    0    0 -0.80407083977E+01 -0.87844204794E+01  0.49004070222E+02  0.50430438200E+02  0.10566000000E+00 0. -1.
        994    1    1    2    0    0 -0.59267467905E+00  0.68032758872E+01  0.16318474701E+01  0.17134391951E+03  0.17120000000E+03 0.  0.
        998    1    1    2    0    0  0.86333830767E+01  0.19811445923E+01  0.14493640786E+04  0.14494256423E+04  0.10000000000E+02 0. -1.
</event>
<event>
 5    1  0.1300052E-008  0.3828070E+03  0.7957747E-01  0.3439027E+00
         13   -1    0    0    0    0  0.00000000000E+00  0.00000000000E+00  0.14999999963E+04  0.15000000000E+04  0.10566000000E+00 0.  1.
        994   -1    0    0    0    0 -0.00000000000E+00 -0.00000000000E+00  0.11368683772E-12  0.17120000000E+03  0.17120000000E+03 0.  0.
         13    1    1    2    0    0 -0.22025576534E+02  0.11377163265E+02  0.14604365633E+03  0.14813280050E+03  0.10566000000E+00 0.  1.
        994    1    1    2    0    0 -0.17614594389E+02  0.58918687542E+01  0.38663723607E+01  0.17224800982E+03  0.17120000000E+03 0.  0.
        998    1    1    2    0    0  0.39640170923E+02 -0.17269032020E+02  0.13500899676E+04  0.13508191897E+04  0.10000000000E+02 0.  1.
</event>
<event>
 5    1  0.1300052E-008  0.3737960E+03  0.7957747E-01  0.3478625E+00
         13   -1    0    0    0    0  0.00000000000E+00  0.00000000000E+00  0.14999999963E+04  0.15000000000E+04  0.10566000000E+00 0.  1.
        994   -1    0    0    0    0 -0.00000000000E+00 -0.00000000000E+00  0.11368683772E-12  0.17120000000E+03  0.17120000000E+03 0.  0.
         13    1    1    2    0    0 -0.69971328722E+01  0.97264964458E+01  0.65319287563E+01  0.13647045792E+02  0.10566000000E+00 0.  1.
        994    1    1    2    0    0  0.93457307185E+01 -0.13862221761E+01  0.76030158178E+01  0.17162898981E+03  0.17120000000E+03 0.  0.
        998    1    1    2    0    0 -0.23485978463E+01 -0.83402742697E+01  0.14858650517E+04  0.14859239644E+04  0.10000000000E+02 0.  1.
</event>
<event>
 5    1  0.1300052E-008  0.3802597E+03  0.7957747E-01  0.3450029E+00
         13   -1    0    0    0    0  0.00000000000E+00  0.00000000000E+00  0.14999999963E+04  0.15000000000E+04  0.10566000000E+00 0. -1.
        994   -1    0    0    0    0 -0.00000000000E+00 -0.00000000000E+00  0.11368683772E-12  0.17120000000E+03  0.17120000000E+03 0.  0.
         13    1    1    2    0    0  0.90778786915E+01 -0.10889149004E+02  0.23231165501E+02  0.27215430589E+02  0.10566000000E+00 0. -1.
        994    1    1    2    0    0 -0.96378304504E+01  0.96266667795E+01  0.46221461195E+01  0.17180327332E+03  0.17120000000E+03 0.  0.
        998    1    1    2    0    0  0.55995175889E+00  0.12624822245E+01  0.14721466847E+04  0.14721812961E+04  0.10000000000E+02 0. -1.
</event>
<event>
 5    1  0.1300052E-008  0.3807722E+03  0.7957747E-01  0.3447803E+00
         13   -1    0    0    0    0  0.00000000000E+00  0.00000000000E+00  0.14999999963E+04  0.15000000000E+04  0.10566000000E+00 0.  1.
        994   -1    0    0    0    0 -0.00000000000E+00 -0.00000000000E+00  0.11368683772E-12  0.17120000000E+03  0.17120000000E+03 0.  0.
         13    1    1    2    0    0  0.33499606213E+02 -0.93001393093E+01  0.28493837142E+02  0.44951375137E+02  0.10566000000E+00 0.  1.
        994    1    1    2    0    0 -0.30916965575E+02  0.31656082143E+02  0.23900895395E+02  0.17843390680E+03  0.17120000000E+03 0.  0.
        998    1    1    2    0    0 -0.25826406387E+01 -0.22355942834E+02  0.14476052637E+04  0.14478147181E+04  0.10000000000E+02 0.  1.
</event>
<event>
 5    1  0.1300052E-008  0.3829438E+03  0.7957747E-01  0.3438440E+00
         13   -1    0    0    0    0  0.00000000000E+00  0.00000000000E+00  0.14999999963E+04  0.15000000000E+04  0.10566000000E+00 0. -1.
        994   -1    0    0    0    0 -0.00000000000E+00 -0.00000000000E+00  0.11368683772E-12  0.17120000000E+03  0.17120000000E+03 0.  0.
         13    1    1    2    0    0 -0.42203578735E+01 -0.10153739641E+02  0.21982266478E+02  0.24579280966E+02  0.10566000000E+00 0. -1.
        994    1    1    2    0    0  0.80422493472E+01  0.21748629704E+01  0.28842902730E+01  0.17142685593E+03  0.17120000000E+03 0.  0.
        998    1    1    2    0    0 -0.38218914737E+01  0.79788766705E+01  0.14751334395E+04  0.14751938631E+04  0.10000000000E+02 0. -1.
</event>
<event>
 5    1  0.1300052E-008  0.3738564E+03  0.7957747E-01  0.3478353E+00
         13   -1    0    0    0    0  0.00000000000E+00  0.00000000000E+00  0.14999999963E+04  0.15000000000E+04  0.10566000000E+00 0.  1.
        994   -1    0    0    0    0 -0.00000000000E+00 -0.00000000000E+00  0.11368683772E-12  0.17120000000E+03  0.17120000000E+03 0.  0.
         13    1    1    2    0    0 -0.52474482864E+02  0.20213007606E+02  0.15992505954E+03  0.16952336966E+03  0.10566000000E+00 0.  1.
        994    1    1    2    0    0 -0.40944593274E+02  0.14599722050E+01  0.18965033195E+02  0.17705282749E+03  0.17120000000E+03 0.  0.
        998    1    1    2    0    0  0.93419076137E+02 -0.21672979811E+02  0.13211099035E+04  0.13246238028E+04  0.10000000000E+02 0.  1.
</event>
<event>
 5    1  0.1300052E-008  0.3813865E+03  0.7957747E-01  0.3445144E+00
         13   -1    0    0    0    0  0.00000000000E+00  0.00000000000E+00  0.14999999963E+04  0.15000000000E+04  0.10566000000E+00 0. -1.
        994   -1    0    0    0    0 -0.00000000000E+00 -0.00000000000E+00  0.11368683772E-12  0.17120000000E+03  0.17120000000E+03 0.  0.
         13    1    1    2    0    0 -0.18223383796E+02  0.46075932204E+02  0.29834764473E+03  0.30243414412E+03  0.10566000000E+00 0. -1.
        994    1    1    2    0    0  0.21507342793E+02 -0.41285651035E+02  0.10680009988E+02  0.17773737195E+03  0.17120000000E+03 0.  0.
        998    1    1    2    0    0 -0.32839589966E+01 -0.47902811689E+01  0.11909723416E+04  0.11910284839E+04  0.10000000000E+02 0. -1.
</event>
<event>
 5    1  0.1300052E-008  0.3695362E+03  0.7957747E-01  0.3498025E+00
         13   -1    0    0    0    0  0.00000000000E+00  0.00000000000E+00  0.14999999963E+04  0.15000000000E+04  0.10566000000E+00 0.  1.
        994   -1    0    0    0    0 -0.00000000000E+00 -0.00000000000E+00  0.11368683772E-12  0.17120000000E+03  0.17120000000E+03 0.  0.
         13    1    1    2    0    0  0.21349221282E+02  0.21536455340E+02  0.36307298117E+02  0.47305805336E+02  0.10566000000E+00 0.  1.
        994    1    1    2    0    0 -0.27416607019E+02 -0.37398318977E+02  0.18236887844E+02  0.17830403439E+03  0.17120000000E+03 0.  0.
        998    1    1    2    0    0  0.60673857373E+01  0.15861863638E+02  0.14454558103E+04  0.14455901603E+04  0.10000000000E+02 0.  1.
</event>
<event>
 5    1  0.1300052E-008  0.3823795E+03  0.7957747E-01  0.3440862E+00
         13   -1    0    0    0    0  0.00000000000E+00  0.00000000000E+00  0.14999999963E+04  0.15000000000E+04  0.10566000000E+00 0. -1.
        994   -1    0    0    0    0 -0.00000000000E+00 -0.00000000000E+00  0.11368683772E-12  0.17120000000E+03  0.17120000000E+03 0.  0.
         13    1    1    2    0    0  0.10795610189E+02 -0.29785480447E+02  0.16055502354E+03  0.16365099081E+03  0.10566000000E+00 0. -1.
        994    1    1    2    0    0 -0.50709364126E+01  0.26035302795E+02  0.52738247382E+01  0.17332283351E+03  0.17120000000E+03 0.  0.
        998    1    1    2    0    0 -0.57246737760E+01  0.37501776518E+01  0.13341711480E+04  0.13342261757E+04  0.10000000000E+02 0. -1.
</event>
<event>
 5    1  0.1300052E-008  0.3793953E+03  0.7957747E-01  0.3453796E+00
         13   -1    0    0    0    0  0.00000000000E+00  0.00000000000E+00  0.14999999963E+04  0.15000000000E+04  0.10566000000E+00 0.  1.
        994   -1    0    0    0    0 -0.00000000000E+00 -0.00000000000E+00  0.11368683772E-12  0.17120000000E+03  0.17120000000E+03 0.  0.
         13    1    1    2    0    0  0.13722335822E+02  0.10738740903E+02  0.31038893167E+02  0.35595605201E+02  0.10566000000E+00 0.  1.
        994    1    1    2    0    0 -0.79832736464E+01 -0.32214178952E+02  0.81370748998E+01  0.17457702590E+03  0.17120000000E+03 0.  0.
        998    1    1    2    0    0 -0.57390621752E+01  0.21475438049E+02  0.14608240282E+04  0.14610273689E+04  0.10000000000E+02 0.  1.
</event>
<event>
 5    1  0.1300052E-008  0.3849431E+03  0.7957747E-01  0.3429913E+00
         13   -1    0    0    0    0  0.00000000000E+00  0.00000000000E+00  0.14999999963E+04  0.15000000000E+04  0.10566000000E+00 0. -1.
        994   -1    0    0    0    0 -0.00000000000E+00 -0.00000000000E+00  0.11368683772E-12  0.17120000000E+03  0.17120000000E+03 0.  0.
         13    1    1    2    0    0  0.16956444254E+02  0.24736142122E+01  0.89880416244E+02  0.91499399765E+02  0.10566000000E+00 0. -1.
        994    1    1    2    0    0 -0.98486907804E+01  0.45893427462E+01  0.20468027699E+01  0.17155666171E+03  0.17120000000E+03 0.  0.
        998    1    1    2    0    0 -0.71077534741E+01 -0.70629569584E+01  0.14080727773E+04  0.14081439385E+04  0.10000000000E+02 0. -1.
</event>
<event>
 5    1  0.1817270E-008  0.3860948E+03  0.7957747E-01  0.3425042E+00
         13   -1    0    0    0    0  0.00000000000E+00  0.00000000000E+00  0.14999999963E+04  0.15000000000E+04  0.10566000000E+00 0. -1.
        994   -1    0    0    0    0 -0.00000000000E+00 -0.00000000000E+00  0.11368683772E-12  0.17120000000E+03  0.17120000000E+03 0.  0.
         13    1    1    2    0    0 -0.12177176052E+02  0.24954052025E+01  0.68903196849E+02  0.70015515165E+02  0.10566000000E+00 0. -1.
        994    1    1    2    0    0  0.13381157915E+02 -0.33696432878E+01  0.17118021487E+01  0.17176373351E+03  0.17120000000E+03 0.  0.
        998    1    1    2    0    0 -0.12039818630E+01  0.87423808527E+00  0.14293849973E+04  0.14294207513E+04  0.10000000000E+02 0. -1.
</event>
<event>
 5    1  0.1300052E-008  0.3698977E+03  0.7957747E-01  0.3496361E+00
         13   -1    0    0    0    0  0.00000000000E+00  0.00000000000E+00  0.14999999963E+04  0.15000000000E+04  0.10566000000E+00 0.  1.
        994   -1    0    0    0    0 -0.00000000000E+00 -0.00000000000E+00  0.11368683772E-12  0.17120000000E+03  0.17120000000E+03 0.  0.
         13    1    1    2    0    0 -0.24459876193E+02 -0.18862661701E+01  0.22631253445E+02  0.33377063082E+02  0.10566000000E+00 0.  1.
        994    1    1    2    0    0  0.25835202810E+02  0.25651412943E+01  0.13243874994E+02  0.17366311606E+03  0.17120000000E+03 0.  0.
        998    1    1    2    0    0 -0.13753266174E+01 -0.67887512418E+00  0.14641248678E+04  0.14641598209E+04  0.10000000000E+02 0.  1.
</event>
<event>
 5    1  0.1300052E-008  0.3789251E+03  0.7957747E-01  0.3455852E+00
         13   -1    0    0    0    0  0.00000000000E+00  0.00000000000E+00  0.14999999963E+04  0.15000000000E+04  0.10566000000E+00 0.  1.
        994   -1    0    0    0    0 -0.00000000000E+00 -0.00000000000E+00  0.11368683772E-12  0.17120000000E+03  0.17120000000E+03 0.  0.
         13    1    1    2    0    0 -0.57662983957E+01 -0.18777763560E+02  0.50218359338E+02  0.53923551256E+02  0.10566000000E+00 0.  1.
        994    1    1    2    0    0  0.71071761012E+02 -0.75197382121E+02  0.41475131073E+02  0.20429260385E+03  0.17120000000E+03 0.  0.
        998    1    1    2    0    0 -0.65305462617E+02  0.93975145682E+02  0.14083065059E+04  0.14129838449E+04  0.10000000000E+02 0.  1.
</event>
<event>
 5    1  0.1300052E-008  0.3727158E+03  0.7957747E-01  0.3483502E+00
         13   -1    0    0    0    0  0.00000000000E+00  0.00000000000E+00  0.14999999963E+04  0.15000000000E+04  0.10566000000E+00 0. -1.
        994   -1    0    0    0    0 -0.00000000000E+00 -0.00000000000E+00  0.11368683772E-12  0.17120000000E+03  0.17120000000E+03 0.  0.
         13    1    1    2    0    0 -0.76846858754E+02  0.21007326044E+02  0.22126015030E+03  0.23516550071E+03  0.10566000000E+00 0. -1.
        994    1    1    2    0    0  0.79329191016E+02  0.70448923995E+01  0.35120757955E+02  0.19205639457E+03  0.17120000000E+03 0.  0.
        998    1    1    2    0    0 -0.24823322617E+01 -0.28052218443E+02  0.12436190880E+04  0.12439781047E+04  0.10000000000E+02 0. -1.
</event>
<event>
 5    1  0.1300052E-008  0.3855166E+03  0.7957747E-01  0.3427484E+00
         13   -1    0    0    0    0  0.00000000000E+00  0.00000000000E+00  0.14999999963E+04  0.15000000000E+04  0.10566000000E+00 0. -1.
        994   -1    0    0    0    0 -0.00000000000E+00 -0.00000000000E+00  0.11368683772E-12  0.17120000000E+03  0.17120000000E+03 0.  0.
         13    1    1    2    0    0 -0.10303803291E+02  0.65256157825E+01  0.54617489532E+02  0.55962785407E+02  0.10566000000E+00 0. -1.
        994    1    1    2    0    0  0.44706579488E+01 -0.70450411771E+01  0.16024976550E+01  0.17141069799E+03  0.17120000000E+03 0.  0.
        998    1    1    2    0    0  0.58331453422E+01  0.51942539458E+00  0.14437800091E+04  0.14438265166E+04  0.10000000000E+02 0. -1.
</event>
<event>
 5    1  0.1300052E-008  0.3828321E+03  0.7957747E-01  0.3438919E+00
         13   -1    0    0    0    0  0.00000000000E+00  0.00000000000E+00  0.14999999963E+04  0.15000000000E+04  0.10566000000E+00 0. -1.
        994   -1    0    0    0    0 -0.00000000000E+00 -0.00000000000E+00  0.11368683772E-12  0.17120000000E+03  0.17120000000E+03 0.  0.
         13    1    1    2    0    0 -0.40164951322E+02 -0.44312804319E+02  0.32425650285E+03  0.32972585393E+03  0.10566000000E+00 0. -1.
        994    1    1    2    0    0  0.91135956249E+02  0.57643946206E+02  0.42228380340E+02  0.20669122662E+03  0.17120000000E+03 0.  0.
        998    1    1    2    0    0 -0.50971004927E+02 -0.13331141887E+02  0.11335151131E+04  0.11347829195E+04  0.10000000000E+02 0. -1.
</event>
<event>
 5    1  0.1300052E-008  0.3841018E+03  0.7957747E-01  0.3433491E+00
         13   -1    0    0    0    0  0.00000000000E+00  0.00000000000E+00  0.14999999963E+04  0.15000000000E+04  0.10566000000E+00 0.  1.
        994   -1    0    0    0    0 -0.00000000000E+00 -0.00000000000E+00  0.11368683772E-12  0.17120000000E+03  0.17120000000E+03 0.  0.
         13    1    1    2    0    0  0.75292183996E+00 -0.17701214455E+02  0.76069321765E+02  0.78105395219E+02  0.10566000000E+00 0.  1.
        994    1    1    2    0    0 -0.50727581975E+01  0.93459030705E+01  0.24497910974E+01  0.17154742859E+03  0.17120000000E+03 0.  0.
        998    1    1    2    0    0  0.43198363575E+01  0.83553113848E+01  0.14214808834E+04  0.14215471762E+04  0.10000000000E+02 0.  1.
</event>
<event>
 5    1  0.1300052E-008  0.3823403E+03  0.7957747E-01  0.3441031E+00
         13   -1    0    0    0    0  0.00000000000E+00  0.00000000000E+00  0.14999999963E+04  0.15000000000E+04  0.10566000000E+00 0. -1.
        994   -1    0    0    0    0 -0.00000000000E+00 -0.00000000000E+00  0.11368683772E-12  0.17120000000E+03  0.17120000000E+03 0.  0.
         13    1    1    2    0    0 -0.18485349648E+02 -0.10081018430E+02  0.72636733266E+02  0.75626987694E+02  0.10566000000E+00 0. -1.
        994    1    1    2    0    0  0.16314787268E+02  0.58924910935E+01  0.39551779556E+01  0.17212198339E+03  0.17120000000E+03 0.  0.
        998    1    1    2    0    0  0.21705623804E+01  0.41885273360E+01  0.14234080851E+04  0.14234510289E+04  0.10000000000E+02 0. -1.
</event>
<event>
 5    1  0.1300052E-008  0.3454952E+03  0.7957747E-01  0.3616693E+00
         13   -1    0    0    0    0  0.00000000000E+00  0.00000000000E+00  0.14999999963E+04  0.15000000000E+04  0.10566000000E+00 0.  1.
        994   -1    0    0    0    0 -0.00000000000E+00 -0.00000000000E+00  0.11368683772E-12  0.17120000000E+03  0.17120000000E+03 0.  0.
         13    1    1    2    0    0 -0.24455043735E+03 -0.16884561092E+03  0.81548456347E+03  0.86794518327E+03  0.10566000000E+00 0.  1.
        994    1    1    2    0    0  0.22425905606E+03  0.12254469999E+03  0.35497000286E+03  0.46970466322E+03  0.17120000000E+03 0.  0.
        998    1    1    2    0    0  0.20291381288E+02  0.46300910930E+02  0.32954542995E+03  0.33355015351E+03  0.10000000000E+02 0.  1.
</event>
<event>
 5    1  0.1300052E-008  0.3813446E+03  0.7957747E-01  0.3445325E+00
         13   -1    0    0    0    0  0.00000000000E+00  0.00000000000E+00  0.14999999963E+04  0.15000000000E+04  0.10566000000E+00 0.  1.
        994   -1    0    0    0    0 -0.00000000000E+00 -0.00000000000E+00  0.11368683772E-12  0.17120000000E+03  0.17120000000E+03 0.  0.
         13    1    1    2    0    0 -0.13947847668E+02  0.14152488828E+02  0.59455944993E+02  0.62688563181E+02  0.10566000000E+00 0.  1.
        994    1    1    2    0    0  0.10598940084E+01  0.26939540600E+01  0.34838439070E+01  0.17125991338E+03  0.17120000000E+03 0.  0.
        998    1    1    2    0    0  0.12887953660E+02 -0.16846442888E+02  0.14370602074E+04  0.14372515234E+04  0.10000000000E+02 0.  1.
</event>
<event>
 5    1  0.1300052E-008  0.3774296E+03  0.7957747E-01  0.3462427E+00
         13   -1    0    0    0    0  0.00000000000E+00  0.00000000000E+00  0.14999999963E+04  0.15000000000E+04  0.10566000000E+00 0. -1.
        994   -1    0    0    0    0 -0.00000000000E+00 -0.00000000000E+00  0.11368683772E-12  0.17120000000E+03  0.17120000000E+03 0.  0.
         13    1    1    2    0    0 -0.74839561785E+01  0.48911918660E+02  0.20034563631E+03  0.20636562344E+03  0.10566000000E+00 0. -1.
        994    1    1    2    0    0  0.26923765191E+02 -0.42287688643E+02  0.13956875194E+02  0.17893398813E+03  0.17120000000E+03 0.  0.
        998    1    1    2    0    0 -0.19439809013E+02 -0.66242300172E+01  0.12856974848E+04  0.12859003884E+04  0.10000000000E+02 0. -1.
</event>
<event>
 5    1  0.1300052E-008  0.3744174E+03  0.7957747E-01  0.3475833E+00
         13   -1    0    0    0    0  0.00000000000E+00  0.00000000000E+00  0.14999999963E+04  0.15000000000E+04  0.10566000000E+00 0. -1.
        994   -1    0    0    0    0 -0.00000000000E+00 -0.00000000000E+00  0.11368683772E-12  0.17120000000E+03  0.17120000000E+03 0.  0.
         13    1    1    2    0    0 -0.76342748933E+02 -0.43093183561E+02  0.16042873560E+03  0.18281856622E+03  0.10566000000E+00 0. -1.
        994    1    1    2    0    0  0.18268152669E+03  0.49459848334E+02  0.15415826273E+03  0.29814933634E+03  0.17120000000E+03 0.  0.
        998    1    1    2    0    0 -0.10633877776E+03 -0.63666647732E+01  0.11854129980E+04  0.11902320974E+04  0.10000000000E+02 0. -1.
</event>
<event>
 5    1  0.1300052E-008  0.3852039E+03  0.7957747E-01  0.3428808E+00
         13   -1    0    0    0    0  0.00000000000E+00  0.00000000000E+00  0.14999999963E+04  0.15000000000E+04  0.10566000000E+00 0.  1.
        994   -1    0    0    0    0 -0.00000000000E+00 -0.00000000000E+00  0.11368683772E-12  0.17120000000E+03  0.17120000000E+03 0.  0.
         13    1    1    2    0    0  0.16484717078E+02 -0.10556246706E+01  0.87162775909E+02  0.88714265531E+02  0.10566000000E+00 0.  1.
        994    1    1    2    0    0 -0.14362152316E+02 -0.33043644207E+01  0.22430522657E+01  0.17184778592E+03  0.17120000000E+03 0.  0.
        998    1    1    2    0    0 -0.21225647625E+01  0.43599890913E+01  0.14105941681E+04  0.14106379485E+04  0.10000000000E+02 0.  1.
</event>
<event>
 5    1  0.1300052E-008  0.3712879E+03  0.7957747E-01  0.3489993E+00
         13   -1    0    0    0    0  0.00000000000E+00  0.00000000000E+00  0.14999999963E+04  0.15000000000E+04  0.10566000000E+00 0. -1.
        994   -1    0    0    0    0 -0.00000000000E+00 -0.00000000000E+00  0.11368683772E-12  0.17120000000E+03  0.17120000000E+03 0.  0.
         13    1    1    2    0    0  0.37853391247E+02 -0.24516239341E+01  0.78017512534E+02  0.86750407001E+02  0.10566000000E+00 0. -1.
        994    1    1    2    0    0 -0.33007201096E+02  0.68854173976E+01  0.12521092817E+02  0.17493742328E+03  0.17120000000E+03 0.  0.
        998    1    1    2    0    0 -0.48461901507E+01 -0.44337934635E+01  0.14094613909E+04  0.14095121697E+04  0.10000000000E+02 0. -1.
</event>
<event>
 5    1  0.1300052E-008  0.3836661E+03  0.7957747E-01  0.3435349E+00
         13   -1    0    0    0    0  0.00000000000E+00  0.00000000000E+00  0.14999999963E+04  0.15000000000E+04  0.10566000000E+00 0. -1.
        994   -1    0    0    0    0 -0.00000000000E+00 -0.00000000000E+00  0.11368683772E-12  0.17120000000E+03  0.17120000000E+03 0.  0.
         13    1    1    2    0    0  0.61128711514E+01  0.12501580266E+02  0.42381853918E+02  0.44608176475E+02  0.10566000000E+00 0. -1.
        994    1    1    2    0    0 -0.15010348153E+02  0.15236487518E+01  0.30460353927E+01  0.17189051861E+03  0.17120000000E+03 0.  0.
        998    1    1    2    0    0  0.88974770015E+01 -0.14025229017E+02  0.14545721070E+04  0.14547013049E+04  0.10000000000E+02 0. -1.
</event>
<event>
 5    1  0.1300052E-008  0.3789319E+03  0.7957747E-01  0.3455822E+00
         13   -1    0    0    0    0  0.00000000000E+00  0.00000000000E+00  0.14999999963E+04  0.15000000000E+04  0.10566000000E+00 0. -1.
        994   -1    0    0    0    0 -0.00000000000E+00 -0.00000000000E+00  0.11368683772E-12  0.17120000000E+03  0.17120000000E+03 0.  0.
         13    1    1    2    0    0 -0.51279414666E+02 -0.49056405376E+01  0.24164911311E+03  0.24707883096E+03  0.10566000000E+00 0. -1.
        994    1    1    2    0    0  0.50225901384E+02 -0.32979445962E+00  0.13183514354E+02  0.17890219391E+03  0.17120000000E+03 0.  0.
        998    1    1    2    0    0  0.10535132822E+01  0.52354349972E+01  0.12451673688E+04  0.12452189751E+04  0.10000000000E+02 0.  0.
</event>
<event>
 5    1  0.1300052E-008  0.3736640E+03  0.7957747E-01  0.3479219E+00
         13   -1    0    0    0    0  0.00000000000E+00  0.00000000000E+00  0.14999999963E+04  0.15000000000E+04  0.10566000000E+00 0.  1.
        994   -1    0    0    0    0 -0.00000000000E+00 -0.00000000000E+00  0.11368683772E-12  0.17120000000E+03  0.17120000000E+03 0.  0.
         13    1    1    2    0    0 -0.14986741605E+02 -0.24373856527E+02  0.61392028352E+02  0.67732411851E+02  0.10566000000E+00 0.  1.
        994    1    1    2    0    0 -0.52034700572E+01 -0.28844110648E+02  0.10305309695E+02  0.17399625923E+03  0.17120000000E+03 0.  0.
        998    1    1    2    0    0  0.20190211663E+02  0.53217967176E+02  0.14283026582E+04  0.14294713289E+04  0.10000000000E+02 0.  1.
</event>
<event>
 5    1  0.1300052E-008  0.3790313E+03  0.7957747E-01  0.3455387E+00
         13   -1    0    0    0    0  0.00000000000E+00  0.00000000000E+00  0.14999999963E+04  0.15000000000E+04  0.10566000000E+00 0.  1.
        994   -1    0    0    0    0 -0.00000000000E+00 -0.00000000000E+00  0.11368683772E-12  0.17120000000E+03  0.17120000000E+03 0.  0.
         13    1    1    2    0    0  0.17000736187E+02  0.41051768205E+02  0.20013634863E+03  0.20500937030E+03  0.10566000000E+00 0.  1.
        994    1    1    2    0    0 -0.20419346521E+02 -0.28273160578E+02  0.87128442239E+01  0.17493334438E+03  0.17120000000E+03 0.  0.
        998    1    1    2    0    0  0.34186103348E+01 -0.12778607627E+02  0.12911508034E+04  0.12912572853E+04  0.10000000000E+02 0.  1.
</event>
<event>
 5    1  0.1300052E-008  0.3827548E+03  0.7957747E-01  0.3439251E+00
         13   -1    0    0    0    0  0.00000000000E+00  0.00000000000E+00  0.14999999963E+04  0.15000000000E+04  0.10566000000E+00 0. -1.
        994   -1    0    0    0    0 -0.00000000000E+00 -0.00000000000E+00  0.11368683772E-12  0.17120000000E+03  0.17120000000E+03 0.  0.
         13    1    1    2    0    0 -0.17889673813E+02 -0.27485361039E+02  0.17209167728E+03  0.17518858997E+03  0.10566000000E+00 0. -1.
        994    1    1    2    0    0  0.22643367453E+02  0.26679831582E+02  0.68161812650E+01  0.17487262745E+03  0.17120000000E+03 0.  0.
        998    1    1    2    0    0 -0.47536936398E+01  0.80552945693E+00  0.13210921377E+04  0.13211387826E+04  0.10000000000E+02 0.  0.
</event>
<event>
 5    1  0.1300052E-008  0.3722811E+03  0.7957747E-01  0.3485473E+00
         13   -1    0    0    0    0  0.00000000000E+00  0.00000000000E+00  0.14999999963E+04  0.15000000000E+04  0.10566000000E+00 0. -1.
        994   -1    0    0    0    0 -0.00000000000E+00 -0.00000000000E+00  0.11368683772E-12  0.17120000000E+03  0.17120000000E+03 0.  0.
         13    1    1    2    0    0  0.36009881548E+02  0.42706457570E+02  0.24344497417E+03  0.24977193537E+03  0.10566000000E+00 0. -1.
        994    1    1    2    0    0  0.70651895339E+01  0.20042109958E+01  0.82666541941E+01  0.17155672921E+03  0.17120000000E+03 0.  0.
        998    1    1    2    0    0 -0.43075071082E+02 -0.44710668565E+02  0.12482883679E+04  0.12498713354E+04  0.10000000000E+02 0. -1.
</event>
<event>
 5    1  0.1300052E-008  0.3707889E+03  0.7957747E-01  0.3492273E+00
         13   -1    0    0    0    0  0.00000000000E+00  0.00000000000E+00  0.14999999963E+04  0.15000000000E+04  0.10566000000E+00 0.  1.
        994   -1    0    0    0    0 -0.00000000000E+00 -0.00000000000E+00  0.11368683772E-12  0.17120000000E+03  0.17120000000E+03 0.  0.
         13    1    1    2    0    0  0.15857162443E+02  0.12575546739E+02  0.13921269128E+02  0.24564341528E+02  0.10566000000E+00 0.  1.
        994    1    1    2    0    0  0.14684400494E+02  0.12699490897E+01  0.12118482436E+02  0.17226009986E+03  0.17120000000E+03 0.  0.
        998    1    1    2    0    0 -0.30541562938E+02 -0.13845495829E+02  0.14739602447E+04  0.14743755586E+04  0.10000000000E+02 0.  1.
</event>
<event>
 5    1  0.1300052E-008  0.3826864E+03  0.7957747E-01  0.3439544E+00
         13   -1    0    0    0    0  0.00000000000E+00  0.00000000000E+00  0.14999999963E+04  0.15000000000E+04  0.10566000000E+00 0.  1.
        994   -1    0    0    0    0 -0.00000000000E+00 -0.00000000000E+00  0.11368683772E-12  0.17120000000E+03  0.17120000000E+03 0.  0.
         13    1    1    2    0    0  0.18671199160E+02 -0.80201290134E+01  0.73006578237E+02  0.75781975281E+02  0.10566000000E+00 0.  1.
        994    1    1    2    0    0 -0.11954036864E+02  0.71812449652E+01  0.34278305783E+01  0.17180122031E+03  0.17120000000E+03 0.  0.
        998    1    1    2    0    0 -0.67171622962E+01  0.83888404823E+00  0.14235655875E+04  0.14236168044E+04  0.10000000000E+02 0.  1.
</event>
<event>
 5    1  0.1300052E-008  0.3782614E+03  0.7957747E-01  0.3458764E+00
         13   -1    0    0    0    0  0.00000000000E+00  0.00000000000E+00  0.14999999963E+04  0.15000000000E+04  0.10566000000E+00 0.  1.
        994   -1    0    0    0    0 -0.00000000000E+00 -0.00000000000E+00  0.11368683772E-12  0.17120000000E+03  0.17120000000E+03 0.  0.
         13    1    1    2    0    0 -0.47758474764E+02  0.12966230543E+02  0.72666907119E+02  0.87917493143E+02  0.10566000000E+00 0.  1.
        994    1    1    2    0    0  0.38410417659E+02 -0.15238045161E+02  0.21548921817E+02  0.17742985723E+03  0.17120000000E+03 0.  0.
        998    1    1    2    0    0  0.93480571054E+01  0.22718146182E+01  0.14057841673E+04  0.14058526496E+04  0.10000000000E+02 0.  1.
</event>
<event>
 5    1  0.1300052E-008  0.3770023E+03  0.7957747E-01  0.3464316E+00
         13   -1    0    0    0    0  0.00000000000E+00  0.00000000000E+00  0.14999999963E+04  0.15000000000E+04  0.10566000000E+00 0. -1.
        994   -1    0    0    0    0 -0.00000000000E+00 -0.00000000000E+00  0.11368683772E-12  0.17120000000E+03  0.17120000000E+03 0.  0.
         13    1    1    2    0    0 -0.82181832637E+01 -0.26379918203E+02  0.66392530804E+02  0.71912571441E+02  0.10566000000E+00 0. -1.
        994    1    1    2    0    0  0.22211049635E+02  0.73714755425E+01  0.75054347142E+01  0.17295502574E+03  0.17120000000E+03 0.  0.
        998    1    1    2    0    0 -0.13992866372E+02  0.19008442661E+02  0.14261020308E+04  0.14263324028E+04  0.10000000000E+02 0. -1.
</event>
<event>
 5    1  0.1300052E-008  0.3857198E+03  0.7957747E-01  0.3426625E+00
         13   -1    0    0    0    0  0.00000000000E+00  0.00000000000E+00  0.14999999963E+04  0.15000000000E+04  0.10566000000E+00 0. -1.
        994   -1    0    0    0    0 -0.00000000000E+00 -0.00000000000E+00  0.11368683772E-12  0.17120000000E+03  0.17120000000E+03 0.  0.
         13    1    1    2    0    0 -0.86137250868E+01 -0.12245755525E+02  0.89143913161E+02  0.90392495296E+02  0.10566000000E+00 0. -1.
        994    1    1    2    0    0  0.11656153459E+02  0.30591528885E+01  0.17498230146E+01  0.17163253249E+03  0.17120000000E+03 0.  0.
        998    1    1    2    0    0 -0.30424283727E+01  0.91866026367E+01  0.14091062601E+04  0.14091749722E+04  0.10000000000E+02 0. -1.
</event>
<event>
 5    1  0.1300052E-008  0.3816737E+03  0.7957747E-01  0.3443903E+00
         13   -1    0    0    0    0  0.00000000000E+00  0.00000000000E+00  0.14999999963E+04  0.15000000000E+04  0.10566000000E+00 0.  1.
        994   -1    0    0    0    0 -0.00000000000E+00 -0.00000000000E+00  0.11368683772E-12  0.17120000000E+03  0.17120000000E+03 0.  0.
         13    1    1    2    0    0  0.67750398825E+01 -0.90941458102E+01  0.18602193592E+02  0.21786634066E+02  0.10566000000E+00 0.  1.
        994    1    1    2    0    0  0.64646873986E+01  0.52356688229E+01  0.35207600866E+01  0.17143815259E+03  0.17120000000E+03 0.  0.
        998    1    1    2    0    0 -0.13239727281E+02  0.38584769873E+01  0.14778770426E+04  0.14779752133E+04  0.10000000000E+02 0.  1.
</event>
<event>
 5    1  0.1300052E-008  0.3772830E+03  0.7957747E-01  0.3463075E+00
         13   -1    0    0    0    0  0.00000000000E+00  0.00000000000E+00  0.14999999963E+04  0.15000000000E+04  0.10566000000E+00 0.  1.
        994   -1    0    0    0    0 -0.00000000000E+00 -0.00000000000E+00  0.11368683772E-12  0.17120000000E+03  0.17120000000E+03 0.  0.
         13    1    1    2    0    0  0.13084927076E+02  0.10122609651E+02  0.23758194729E+02  0.28950743057E+02  0.10566000000E+00 0.  1.
        994    1    1    2    0    0 -0.52403403686E+01  0.22086502623E+02  0.72510718082E+01  0.17285049265E+03  0.17120000000E+03 0.  0.
        998    1    1    2    0    0 -0.78445867073E+01 -0.32209112274E+02  0.14689907297E+04  0.14693987643E+04  0.10000000000E+02 0.  1.
</event>
<event>
 5    1  0.1300052E-008  0.3825275E+03  0.7957747E-01  0.3440227E+00
         13   -1    0    0    0    0  0.00000000000E+00  0.00000000000E+00  0.14999999963E+04  0.15000000000E+04  0.10566000000E+00 0. -1.
        994   -1    0    0    0    0 -0.00000000000E+00 -0.00000000000E+00  0.11368683772E-12  0.17120000000E+03  0.17120000000E+03 0.  0.
         13    1    1    2    0    0 -0.16678161154E+02  0.22072156332E+02  0.14890539644E+03  0.15145352223E+03  0.10566000000E+00 0. -1.
        994    1    1    2    0    0  0.72744135503E+01  0.35217971674E+01  0.30792708032E+01  0.17141832474E+03  0.17120000000E+03 0.  0.
        998    1    1    2    0    0  0.94037476041E+01 -0.25593953499E+02  0.13480153290E+04  0.13483281530E+04  0.10000000000E+02 0. -1.
</event>
<event>
 5    1  0.1300052E-008  0.3816823E+03  0.7957747E-01  0.3443866E+00
         13   -1    0    0    0    0  0.00000000000E+00  0.00000000000E+00  0.14999999963E+04  0.15000000000E+04  0.10566000000E+00 0.  1.
        994   -1    0    0    0    0 -0.00000000000E+00 -0.00000000000E+00  0.11368683772E-12  0.17120000000E+03  0.17120000000E+03 0.  0.
         13    1    1    2    0    0  0.38669618843E+02  0.16943103500E+02  0.25425372101E+03  0.25773508490E+03  0.10566000000E+00 0.  1.
        994    1    1    2    0    0 -0.33846384453E+02 -0.80573983222E-01  0.71041039941E+01  0.17465821631E+03  0.17120000000E+03 0.  0.
        998    1    1    2    0    0 -0.48232343908E+01 -0.16862529516E+02  0.12386421713E+04  0.12388066988E+04  0.10000000000E+02 0.  1.
</event>
<event>
 5    1  0.1300052E-008  0.3752720E+03  0.7957747E-01  0.3472007E+00
         13   -1    0    0    0    0  0.00000000000E+00  0.00000000000E+00  0.14999999963E+04  0.15000000000E+04  0.10566000000E+00 0.  1.
        994   -1    0    0    0    0 -0.00000000000E+00 -0.00000000000E+00  0.11368683772E-12  0.17120000000E+03  0.17120000000E+03 0.  0.
         13    1    1    2    0    0 -0.17331630161E+03 -0.14247495341E+03  0.85051916242E+03  0.87961384116E+03  0.10566000000E+00 0.  1.
        994    1    1    2    0    0  0.18487963730E+03  0.14883080183E+03  0.23113474057E+03  0.37291258515E+03  0.17120000000E+03 0.  0.
        998    1    1    2    0    0 -0.11563335693E+02 -0.63558484192E+01  0.41834609328E+03  0.41867357369E+03  0.10000000000E+02 0. -1.
</event>
<event>
 5    1  0.1300052E-008  0.3748923E+03  0.7957747E-01  0.3473705E+00
         13   -1    0    0    0    0  0.00000000000E+00  0.00000000000E+00  0.14999999963E+04  0.15000000000E+04  0.10566000000E+00 0.  1.
        994   -1    0    0    0    0 -0.00000000000E+00 -0.00000000000E+00  0.11368683772E-12  0.17120000000E+03  0.17120000000E+03 0.  0.
         13    1    1    2    0    0 -0.32836435443E+02  0.25363546092E+02  0.12590990210E+03  0.13257019112E+03  0.10566000000E+00 0.  1.
        994    1    1    2    0    0  0.29153441579E+02 -0.21204227498E+01  0.96449107695E+01  0.17394505929E+03  0.17120000000E+03 0.  0.
        998    1    1    2    0    0  0.36829938631E+01 -0.23243123342E+02  0.13644451834E+04  0.13646847496E+04  0.10000000000E+02 0.  1.
</event>
<event>
 5    1  0.1300052E-008  0.3833428E+03  0.7957747E-01  0.3436731E+00
         13   -1    0    0    0    0  0.00000000000E+00  0.00000000000E+00  0.14999999963E+04  0.15000000000E+04  0.10566000000E+00 0. -1.
        994   -1    0    0    0    0 -0.00000000000E+00 -0.00000000000E+00  0.11368683772E-12  0.17120000000E+03  0.17120000000E+03 0.  0.
         13    1    1    2    0    0 -0.26577184253E+02  0.33249489452E+00  0.13550686336E+03  0.13808902367E+03  0.10566000000E+00 0. -1.
        994    1    1    2    0    0  0.23891265295E+02  0.14521557526E+02  0.50439398473E+01  0.17354120410E+03  0.17120000000E+03 0.  0.
        998    1    1    2    0    0  0.26859189585E+01 -0.14854052421E+02  0.13594491931E+04  0.13595697722E+04  0.10000000000E+02 0. -1.
</event>
<event>
 5    1  0.1300052E-008  0.3722193E+03  0.7957747E-01  0.3485753E+00
         13   -1    0    0    0    0  0.00000000000E+00  0.00000000000E+00  0.14999999963E+04  0.15000000000E+04  0.10566000000E+00 0. -1.
        994   -1    0    0    0    0 -0.00000000000E+00 -0.00000000000E+00  0.11368683772E-12  0.17120000000E+03  0.17120000000E+03 0.  0.
         13    1    1    2    0    0  0.50421311863E+02 -0.50845436820E+02  0.23921958696E+03  0.24970700648E+03  0.10566000000E+00 0. -1.
        994    1    1    2    0    0  0.90251642724E+01  0.31994217127E+02  0.16020717079E+02  0.17513191284E+03  0.17120000000E+03 0.  0.
        998    1    1    2    0    0 -0.59446476135E+02  0.18851219692E+02  0.12447596922E+04  0.12463610807E+04  0.10000000000E+02 0. -1.
</event>
<event>
 5    1  0.1300052E-008  0.3782985E+03  0.7957747E-01  0.3458601E+00
         13   -1    0    0    0    0  0.00000000000E+00  0.00000000000E+00  0.14999999963E+04  0.15000000000E+04  0.10566000000E+00 0. -1.
        994   -1    0    0    0    0 -0.00000000000E+00 -0.00000000000E+00  0.11368683772E-12  0.17120000000E+03  0.17120000000E+03 0.  0.
         13    1    1    2    0    0  0.36947949227E+02  0.58983474194E+02  0.37298884135E+03  0.37942705243E+03  0.10566000000E+00 0. -1.
        994    1    1    2    0    0 -0.52509097962E+02 -0.47157848956E+02  0.21926899492E+02  0.18647063310E+03  0.17120000000E+03 0.  0.
        998    1    1    2    0    0  0.15561148735E+02 -0.11825625237E+02  0.11050842554E+04  0.11053023145E+04  0.10000000000E+02 0. -1.
</event>
<event>
 5    1  0.1300052E-008  0.3847452E+03  0.7957747E-01  0.3430753E+00
         13   -1    0    0    0    0  0.00000000000E+00  0.00000000000E+00  0.14999999963E+04  0.15000000000E+04  0.10566000000E+00 0. -1.
        994   -1    0    0    0    0 -0.00000000000E+00 -0.00000000000E+00  0.11368683772E-12  0.17120000000E+03  0.17120000000E+03 0.  0.
         13    1    1    2    0    0  0.11180299040E+02  0.18283707609E+02  0.11764867279E+03  0.11958475833E+03  0.10566000000E+00 0. -1.
        994    1    1    2    0    0 -0.13534266817E+02 -0.22529672621E+02  0.40335317701E+01  0.17325262453E+03  0.17120000000E+03 0.  0.
        998    1    1    2    0    0  0.23539677766E+01  0.42459650127E+01  0.13783177917E+04  0.13783626171E+04  0.10000000000E+02 0. -1.
</event>
<event>
 5    1  0.1300052E-008  0.3856305E+03  0.7957747E-01  0.3427002E+00
         13   -1    0    0    0    0  0.00000000000E+00  0.00000000000E+00  0.14999999963E+04  0.15000000000E+04  0.10566000000E+00 0.  1.
        994   -1    0    0    0    0 -0.00000000000E+00 -0.00000000000E+00  0.11368683772E-12  0.17120000000E+03  0.17120000000E+03 0.  0.
         13    1    1    2    0    0  0.10753894428E+02 -0.88052149686E+01  0.75151009423E+02  0.76425541786E+02  0.10566000000E+00 0.  1.
        994    1    1    2    0    0 -0.10870560722E+02 -0.24376348419E+01  0.17248366347E+01  0.17157076154E+03  0.17120000000E+03 0.  0.
        998    1    1    2    0    0  0.11666629315E+00  0.11242849811E+02  0.14231241502E+04  0.14232036967E+04  0.10000000000E+02 0.  1.
</event>
<event>
 5    1  0.1300052E-008  0.3732881E+03  0.7957747E-01  0.3480915E+00
         13   -1    0    0    0    0  0.00000000000E+00  0.00000000000E+00  0.14999999963E+04  0.15000000000E+04  0.10566000000E+00 0.  1.
        994   -1    0    0    0    0 -0.00000000000E+00 -0.00000000000E+00  0.11368683772E-12  0.17120000000E+03  0.17120000000E+03 0.  0.
         13    1    1    2    0    0  0.23256502695E+02  0.55304719438E+01  0.16912891794E+02  0.29283239410E+02  0.10566000000E+00 0.  1.
        994    1    1    2    0    0 -0.22437558290E+02 -0.35901709423E+01  0.14516305253E+02  0.17331040496E+03  0.17120000000E+03 0.  0.
        998    1    1    2    0    0 -0.81894440454E+00 -0.19403010015E+01  0.14685707992E+04  0.14686063556E+04  0.10000000000E+02 0.  1.
</event>
<event>
 5    1  0.1300052E-008  0.3736143E+03  0.7957747E-01  0.3479443E+00
         13   -1    0    0    0    0  0.00000000000E+00  0.00000000000E+00  0.14999999963E+04  0.15000000000E+04  0.10566000000E+00 0. -1.
        994   -1    0    0    0    0 -0.00000000000E+00 -0.00000000000E+00  0.11368683772E-12  0.17120000000E+03  0.17120000000E+03 0.  0.
         13    1    1    2    0    0  0.18677864898E+02  0.76493716366E+01  0.24720223877E+02  0.31913573228E+02  0.10566000000E+00 0. -1.
        994    1    1    2    0    0 -0.90181466405E+01 -0.34627603206E+01  0.77107815585E+01  0.17164560533E+03  0.17120000000E+03 0.  0.
        998    1    1    2    0    0 -0.96597182576E+01 -0.41866113160E+01  0.14675689908E+04  0.14676408214E+04  0.10000000000E+02 0. -1.
</event>
<event>
 5    1  0.1300052E-008  0.3832928E+03  0.7957747E-01  0.3436945E+00
         13   -1    0    0    0    0  0.00000000000E+00  0.00000000000E+00  0.14999999963E+04  0.15000000000E+04  0.10566000000E+00 0.  1.
        994   -1    0    0    0    0 -0.00000000000E+00 -0.00000000000E+00  0.11368683772E-12  0.17120000000E+03  0.17120000000E+03 0.  0.
         13    1    1    2    0    0 -0.31878581269E+01  0.13826657331E+02  0.34493804833E+02  0.37298426620E+02  0.10566000000E+00 0.  1.
        994    1    1    2    0    0  0.79589010575E+01 -0.45820944022E+02  0.96658774534E+01  0.17766758906E+03  0.17120000000E+03 0.  0.
        998    1    1    2    0    0 -0.47710429306E+01  0.31994286692E+02  0.14558403140E+04  0.14562339843E+04  0.10000000000E+02 0.  1.
</event>
<event>
 5    1  0.1300052E-008  0.3843864E+03  0.7957747E-01  0.3432279E+00
         13   -1    0    0    0    0  0.00000000000E+00  0.00000000000E+00  0.14999999963E+04  0.15000000000E+04  0.10566000000E+00 0. -1.
        994   -1    0    0    0    0 -0.00000000000E+00 -0.00000000000E+00  0.11368683772E-12  0.17120000000E+03  0.17120000000E+03 0.  0.
         13    1    1    2    0    0  0.26285126695E+01  0.14981686127E+02  0.55264952713E+02  0.57320032803E+02  0.10566000000E+00 0. -1.
        994    1    1    2    0    0 -0.34468535487E+01 -0.23540079114E+02  0.38024227872E+01  0.17288699935E+03  0.17120000000E+03 0.  0.
        998    1    1    2    0    0  0.81834087929E+00  0.85583929868E+01  0.14409326208E+04  0.14409929679E+04  0.10000000000E+02 0. -1.
</event>
<event>
 5    1  0.1300052E-008  0.3859899E+03  0.7957747E-01  0.3425485E+00
         13   -1    0    0    0    0  0.00000000000E+00  0.00000000000E+00  0.14999999963E+04  0.15000000000E+04  0.10566000000E+00 0.  1.
        994   -1    0    0    0    0 -0.00000000000E+00 -0.00000000000E+00  0.11368683772E-12  0.17120000000E+03  0.17120000000E+03 0.  0.
         13    1    1    2    0    0 -0.11398378685E+02 -0.62140973643E+01  0.77932889833E+02  0.79006863780E+02  0.10566000000E+00 0.  1.
        994    1    1    2    0    0  0.58927373141E+01 -0.31481736892E+01  0.12858094105E+01  0.17133513550E+03  0.17120000000E+03 0.  0.
        998    1    1    2    0    0  0.55056413705E+01  0.93622710536E+01  0.14207812970E+04  0.14208580007E+04  0.10000000000E+02 0.  1.
</event>
<event>
 5    1  0.1300052E-008  0.3824770E+03  0.7957747E-01  0.3440443E+00
         13   -1    0    0    0    0  0.00000000000E+00  0.00000000000E+00  0.14999999963E+04  0.15000000000E+04  0.10566000000E+00 0. -1.
        994   -1    0    0    0    0 -0.00000000000E+00 -0.00000000000E+00  0.11368683772E-12  0.17120000000E+03  0.17120000000E+03 0.  0.
         13    1    1    2    0    0  0.36758104354E+01 -0.13031836001E+02  0.32966211655E+02  0.35638779536E+02  0.10566000000E+00 0. -1.
        994    1    1    2    0    0  0.11223644767E+02 -0.73830461728E+01  0.34866134845E+01  0.17176168387E+03  0.17120000000E+03 0.  0.
        998    1    1    2    0    0 -0.14899455203E+02  0.20414882174E+02  0.14635471711E+04  0.14637995366E+04  0.10000000000E+02 0. -1.
</event>
<event>
 5    1  0.1300052E-008  0.3776752E+03  0.7957747E-01  0.3461344E+00
         13   -1    0    0    0    0  0.00000000000E+00  0.00000000000E+00  0.14999999963E+04  0.15000000000E+04  0.10566000000E+00 0.  1.
        994   -1    0    0    0    0 -0.00000000000E+00 -0.00000000000E+00  0.11368683772E-12  0.17120000000E+03  0.17120000000E+03 0.  0.
         13    1    1    2    0    0 -0.35219190838E+02  0.19429635581E+02  0.13934205349E+03  0.14503144893E+03  0.10566000000E+00 0.  1.
        994    1    1    2    0    0  0.32265890317E+02 -0.20142660268E+02  0.10200866944E+02  0.17567103383E+03  0.17120000000E+03 0.  0.
        998    1    1    2    0    0  0.29533005206E+01  0.71302468746E+00  0.13504570758E+04  0.13504975172E+04  0.10000000000E+02 0.  1.
</event>
<event>
 5    1  0.1300052E-008  0.3834136E+03  0.7957747E-01  0.3436428E+00
         13   -1    0    0    0    0  0.00000000000E+00  0.00000000000E+00  0.14999999963E+04  0.15000000000E+04  0.10566000000E+00 0.  1.
        994   -1    0    0    0    0 -0.00000000000E+00 -0.00000000000E+00  0.11368683772E-12  0.17120000000E+03  0.17120000000E+03 0.  0.
         13    1    1    2    0    0 -0.32913943906E+01  0.10695829894E+02  0.25258338031E+02  0.27626596936E+02  0.10566000000E+00 0.  1.
        994    1    1    2    0    0  0.52797716995E+01 -0.41701788761E+01  0.25694414590E+01  0.17135141788E+03  0.17120000000E+03 0.  0.
        998    1    1    2    0    0 -0.19883773089E+01 -0.65256510177E+01  0.14721722168E+04  0.14722219852E+04  0.10000000000E+02 0.  1.
</event>
<event>
 5    1  0.1300052E-008  0.3828202E+03  0.7957747E-01  0.3438970E+00
         13   -1    0    0    0    0  0.00000000000E+00  0.00000000000E+00  0.14999999963E+04  0.15000000000E+04  0.10566000000E+00 0. -1.
        994   -1    0    0    0    0 -0.00000000000E+00 -0.00000000000E+00  0.11368683772E-12  0.17120000000E+03  0.17120000000E+03 0.  0.
         13    1    1    2    0    0  0.13932520588E+02  0.92060825999E+01  0.47436498432E+02  0.50290154446E+02  0.10566000000E+00 0. -1.
        994    1    1    2    0    0 -0.20420303547E+02 -0.15239254256E+02  0.48694935873E+01  0.17315419612E+03  0.17120000000E+03 0.  0.
        998    1    1    2    0    0  0.64877829591E+01  0.60331716562E+01  0.14476940043E+04  0.14477556494E+04  0.10000000000E+02 0. -1.
</event>
<event>
 5    1  0.1300052E-008  0.3814882E+03  0.7957747E-01  0.3444704E+00
         13   -1    0    0    0    0  0.00000000000E+00  0.00000000000E+00  0.14999999963E+04  0.15000000000E+04  0.10566000000E+00 0. -1.
        994   -1    0    0    0    0 -0.00000000000E+00 -0.00000000000E+00  0.11368683772E-12  0.17120000000E+03  0.17120000000E+03 0.  0.
         13    1    1    2    0    0 -0.34146684293E+01 -0.12826915779E+02  0.24423873362E+02  0.27797958251E+02  0.10566000000E+00 0. -1.
        994    1    1    2    0    0  0.45443839871E+01  0.12256004516E+02  0.39523705372E+01  0.17174376934E+03  0.17120000000E+03 0.  0.
        998    1    1    2    0    0 -0.11297155579E+01  0.57091126276E+00  0.14716237524E+04  0.14716582724E+04  0.10000000000E+02 0. -1.
</event>
<event>
 5    1  0.1300052E-008  0.3763844E+03  0.7957747E-01  0.3467054E+00
         13   -1    0    0    0    0  0.00000000000E+00  0.00000000000E+00  0.14999999963E+04  0.15000000000E+04  0.10566000000E+00 0.  1.
        994   -1    0    0    0    0 -0.00000000000E+00 -0.00000000000E+00  0.11368683772E-12  0.17120000000E+03  0.17120000000E+03 0.  0.
         13    1    1    2    0    0  0.19709251866E+02  0.47222594984E+01  0.32367898541E+02  0.38189610680E+02  0.10566000000E+00 0.  1.
        994    1    1    2    0    0 -0.71564847593E+01 -0.10437127044E+02  0.65115623695E+01  0.17179053914E+03  0.17120000000E+03 0.  0.
        998    1    1    2    0    0 -0.12552767107E+02  0.57148675454E+01  0.14611205354E+04  0.14612198502E+04  0.10000000000E+02 0.  1.
</event>
<event>
 5    1  0.1300052E-008  0.3824605E+03  0.7957747E-01  0.3440514E+00
         13   -1    0    0    0    0  0.00000000000E+00  0.00000000000E+00  0.14999999963E+04  0.15000000000E+04  0.10566000000E+00 0.  1.
        994   -1    0    0    0    0 -0.00000000000E+00 -0.00000000000E+00  0.11368683772E-12  0.17120000000E+03  0.17120000000E+03 0.  0.
         13    1    1    2    0    0 -0.15909483367E+02 -0.17285574633E+02  0.91321304295E+02  0.94294721664E+02  0.10566000000E+00 0.  1.
        994    1    1    2    0    0  0.90330166917E+01  0.19401597477E+02  0.44164477396E+01  0.17258899845E+03  0.17120000000E+03 0.  0.
        998    1    1    2    0    0  0.68764666749E+01 -0.21160228438E+01  0.14042622442E+04  0.14043162799E+04  0.10000000000E+02 0.  1.
</event>
<event>
 5    1  0.1300052E-008  0.3751642E+03  0.7957747E-01  0.3472489E+00
         13   -1    0    0    0    0  0.00000000000E+00  0.00000000000E+00  0.14999999963E+04  0.15000000000E+04  0.10566000000E+00 0.  1.
        994   -1    0    0    0    0 -0.00000000000E+00 -0.00000000000E+00  0.11368683772E-12  0.17120000000E+03  0.17120000000E+03 0.  0.
         13    1    1    2    0    0 -0.25069482613E+02  0.34934775738E+01  0.45446382627E+02  0.52019882756E+02  0.10566000000E+00 0.  1.
        994    1    1    2    0    0  0.20998398520E+02  0.12694292026E+01  0.80993194467E+01  0.17267768578E+03  0.17120000000E+03 0.  0.
        998    1    1    2    0    0  0.40710840932E+01 -0.47629067764E+01  0.14464542942E+04  0.14465024315E+04  0.10000000000E+02 0.  1.
</event>
<event>
 5    1  0.1300052E-008  0.3888479E+03  0.7957747E-01  0.3413515E+00
         13   -1    0    0    0    0  0.00000000000E+00  0.00000000000E+00  0.14999999963E+04  0.15000000000E+04  0.10566000000E+00 0. -1.
        994   -1    0    0    0    0 -0.00000000000E+00 -0.00000000000E+00  0.11368683772E-12  0.17120000000E+03  0.17120000000E+03 0.  0.
         13    1    1    2    0    0  0.52150465835E+02 -0.13468140128E+02  0.58156222195E+02  0.79266759927E+02  0.10566000000E+00 0. -1.
        994    1    1    2    0    0 -0.56462083124E+02  0.26007112608E+01  0.33340578145E+02  0.18334602445E+03  0.17120000000E+03 0.  0.
        998    1    1    2    0    0  0.43116172888E+01  0.10867428867E+02  0.14085031959E+04  0.14085872156E+04  0.10000000000E+02 0. -1.
</event>
<event>
 5    1  0.1300052E-008  0.3855211E+03  0.7957747E-01  0.3427465E+00
         13   -1    0    0    0    0  0.00000000000E+00  0.00000000000E+00  0.14999999963E+04  0.15000000000E+04  0.10566000000E+00 0. -1.
        994   -1    0    0    0    0 -0.00000000000E+00 -0.00000000000E+00  0.11368683772E-12  0.17120000000E+03  0.17120000000E+03 0.  0.
         13    1    1    2    0    0  0.16025935754E+01 -0.10879872748E+02  0.42991360860E+02  0.44375761513E+02  0.10566000000E+00 0. -1.
        994    1    1    2    0    0 -0.21010277229E+01  0.12438861148E+02  0.18942773627E+01  0.17167459879E+03  0.17120000000E+03 0.  0.
        998    1    1    2    0    0  0.49843414750E+00 -0.15589883994E+01  0.14551143581E+04  0.14551496397E+04  0.10000000000E+02 0. -1.
</event>
<event>
 5    1  0.1300052E-008  0.3801499E+03  0.7957747E-01  0.3450506E+00
         13   -1    0    0    0    0  0.00000000000E+00  0.00000000000E+00  0.14999999963E+04  0.15000000000E+04  0.10566000000E+00 0. -1.
        994   -1    0    0    0    0 -0.00000000000E+00 -0.00000000000E+00  0.11368683772E-12  0.17120000000E+03  0.17120000000E+03 0.  0.
         13    1    1    2    0    0 -0.38650066890E+02 -0.10642989112E+02  0.40970401696E+02  0.57320902531E+02  0.10566000000E+00 0. -1.
        994    1    1    2    0    0  0.44761203996E+02  0.84870024290E+01  0.23972815717E+02  0.17877284606E+03  0.17120000000E+03 0.  0.
        998    1    1    2    0    0 -0.61111371062E+01  0.21559866832E+01  0.14350567789E+04  0.14351062514E+04  0.10000000000E+02 0. -1.
</event>
<event>
 5    1  0.1300052E-008  0.3840728E+03  0.7957747E-01  0.3433614E+00
         13   -1    0    0    0    0  0.00000000000E+00  0.00000000000E+00  0.14999999963E+04  0.15000000000E+04  0.10566000000E+00 0. -1.
        994   -1    0    0    0    0 -0.00000000000E+00 -0.00000000000E+00  0.11368683772E-12  0.17120000000E+03  0.17120000000E+03 0.  0.
         13    1    1    2    0    0  0.10534268697E+02 -0.42794700258E+01  0.30897054261E+02  0.32922998143E+02  0.10566000000E+00 0. -1.
        994    1    1    2    0    0 -0.84692376541E+01 -0.11830724565E+02  0.27897887237E+01  0.17183980025E+03  0.17120000000E+03 0.  0.
        998    1    1    2    0    0 -0.20650310425E+01  0.16110194591E+02  0.14663131533E+04  0.14664372016E+04  0.10000000000E+02 0. -1.
</event>
<event>
 5    1  0.1300052E-008  0.3833539E+03  0.7957747E-01  0.3436683E+00
         13   -1    0    0    0    0  0.00000000000E+00  0.00000000000E+00  0.14999999963E+04  0.15000000000E+04  0.10566000000E+00 0.  1.
        994   -1    0    0    0    0 -0.00000000000E+00 -0.00000000000E+00  0.11368683772E-12  0.17120000000E+03  0.17120000000E+03 0.  0.
         13    1    1    2    0    0 -0.24306233277E+02  0.80858728621E+01  0.12043099866E+03  0.12312518393E+03  0.10566000000E+00 0.  1.
        994    1    1    2    0    0  0.25145326770E+02 -0.20005153385E+02  0.58708106493E+01  0.17428826707E+03  0.17120000000E+03 0.  0.
        998    1    1    2    0    0 -0.83909349308E+00  0.11919280523E+02  0.13736981870E+04  0.13737865490E+04  0.10000000000E+02 0.  1.
</event>
<event>
 5    1  0.1300052E-008  0.3801326E+03  0.7957747E-01  0.3450582E+00
         13   -1    0    0    0    0  0.00000000000E+00  0.00000000000E+00  0.14999999963E+04  0.15000000000E+04  0.10566000000E+00 0. -1.
        994   -1    0    0    0    0 -0.00000000000E+00 -0.00000000000E+00  0.11368683772E-12  0.17120000000E+03  0.17120000000E+03 0.  0.
         13    1    1    2    0    0 -0.11059013274E+01 -0.54531614723E+02  0.29994247258E+03  0.30486130953E+03  0.10566000000E+00 0. -1.
        994    1    1    2    0    0  0.57888464028E+01  0.52321560702E+02  0.13381751342E+02  0.17960948674E+03  0.17120000000E+03 0.  0.
        998    1    1    2    0    0 -0.46829450754E+01  0.22100540217E+01  0.11866757724E+04  0.11867292037E+04  0.10000000000E+02 0.  0.
</event>
<event>
 5    1  0.1300052E-008  0.4325659E+03  0.7957747E-01  0.3250008E+00
         13   -1    0    0    0    0  0.00000000000E+00  0.00000000000E+00  0.14999999963E+04  0.15000000000E+04  0.10566000000E+00 0. -1.
        994   -1    0    0    0    0 -0.00000000000E+00 -0.00000000000E+00  0.11368683772E-12  0.17120000000E+03  0.17120000000E+03 0.  0.
         13    1    1    2    0    0 -0.10521006831E+03  0.79867220716E+02  0.16234607932E+03  0.20929451033E+03  0.10566000000E+00 0. -1.
        994    1    1    2    0    0  0.98376214493E+02 -0.41658802438E+02  0.10293402536E+03  0.22653518264E+03  0.17120000000E+03 0.  0.
        998    1    1    2    0    0  0.68338538124E+01 -0.38208418278E+02  0.12347198916E+04  0.12353703070E+04  0.10000000000E+02 0. -1.
</event>
<event>
 5    1  0.1300052E-008  0.3847496E+03  0.7957747E-01  0.3430735E+00
         13   -1    0    0    0    0  0.00000000000E+00  0.00000000000E+00  0.14999999963E+04  0.15000000000E+04  0.10566000000E+00 0.  1.
        994   -1    0    0    0    0 -0.00000000000E+00 -0.00000000000E+00  0.11368683772E-12  0.17120000000E+03  0.17120000000E+03 0.  0.
         13    1    1    2    0    0 -0.51067612183E+01  0.19542999319E+02  0.11895223687E+03  0.12065510206E+03  0.10566000000E+00 0.  1.
        994    1    1    2    0    0  0.20032906807E+02 -0.55277784817E+01  0.31772271376E+01  0.17248596599E+03  0.17120000000E+03 0.  0.
        998    1    1    2    0    0 -0.14926145588E+02 -0.14015220838E+02  0.13778705323E+04  0.13780589320E+04  0.10000000000E+02 0.  1.
</event>
<event>
 5    1  0.1300052E-008  0.3847415E+03  0.7957747E-01  0.3430769E+00
         13   -1    0    0    0    0  0.00000000000E+00  0.00000000000E+00  0.14999999963E+04  0.15000000000E+04  0.10566000000E+00 0. -1.
        994   -1    0    0    0    0 -0.00000000000E+00 -0.00000000000E+00  0.11368683772E-12  0.17120000000E+03  0.17120000000E+03 0.  0.
         13    1    1    2    0    0 -0.57162847372E+01  0.11440655317E+02  0.44911648613E+02  0.46697236004E+02  0.10566000000E+00 0. -1.
        994    1    1    2    0    0  0.11330857876E+01 -0.15754233704E+02  0.25800771921E+01  0.17194643515E+03  0.17120000000E+03 0.  0.
        998    1    1    2    0    0  0.45831989496E+01  0.43135783869E+01  0.14525082705E+04  0.14525563288E+04  0.10000000000E+02 0. -1.
</event>
<event>
 5    1  0.1300052E-008  0.3800538E+03  0.7957747E-01  0.3450924E+00
         13   -1    0    0    0    0  0.00000000000E+00  0.00000000000E+00  0.14999999963E+04  0.15000000000E+04  0.10566000000E+00 0.  1.
        994   -1    0    0    0    0 -0.00000000000E+00 -0.00000000000E+00  0.11368683772E-12  0.17120000000E+03  0.17120000000E+03 0.  0.
         13    1    1    2    0    0  0.15095365559E+02  0.57969858420E+01  0.31127236218E+02  0.35076931235E+02  0.10566000000E+00 0.  1.
        994    1    1    2    0    0  0.14095050003E+01 -0.77816265983E+01  0.43150402093E+01  0.17143686881E+03  0.17120000000E+03 0.  0.
        998    1    1    2    0    0 -0.16504870560E+02  0.19846407563E+01  0.14645577199E+04  0.14646862000E+04  0.10000000000E+02 0.  1.
</event>
<event>
 5    1  0.1300052E-008  0.3828180E+03  0.7957747E-01  0.3438979E+00
         13   -1    0    0    0    0  0.00000000000E+00  0.00000000000E+00  0.14999999963E+04  0.15000000000E+04  0.10566000000E+00 0.  1.
        994   -1    0    0    0    0 -0.00000000000E+00 -0.00000000000E+00  0.11368683772E-12  0.17120000000E+03  0.17120000000E+03 0.  0.
         13    1    1    2    0    0 -0.18859356384E+02  0.12812899195E+02  0.98610442361E+02  0.10121203592E+03  0.10566000000E+00 0.  1.
        994    1    1    2    0    0 -0.12220018221E+02 -0.34601337054E+02  0.71901907607E+01  0.17523618409E+03  0.17120000000E+03 0.  0.
        998    1    1    2    0    0  0.31079374604E+02  0.21788437859E+02  0.13941993632E+04  0.13947517800E+04  0.10000000000E+02 0.  1.
</event>
<event>
 5    1  0.1300052E-008  0.3785075E+03  0.7957747E-01  0.3457683E+00
         13   -1    0    0    0    0  0.00000000000E+00  0.00000000000E+00  0.14999999963E+04  0.15000000000E+04  0.10566000000E+00 0.  1.
        994   -1    0    0    0    0 -0.00000000000E+00 -0.00000000000E+00  0.11368683772E-12  0.17120000000E+03  0.17120000000E+03 0.  0.
         13    1    1    2    0    0 -0.19105668743E+02  0.28372681947E+02  0.10952323229E+03  0.11474051261E+03  0.10566000000E+00 0.  1.
        994    1    1    2    0    0  0.15725544591E+02 -0.32254226558E+02  0.92264008762E+01  0.17516333622E+03  0.17120000000E+03 0.  0.
        998    1    1    2    0    0  0.33801241523E+01  0.38815446111E+01  0.13812503631E+04  0.13812961512E+04  0.10000000000E+02 0.  0.
</event>
<event>
 5    1  0.1300052E-008  0.3709385E+03  0.7957747E-01  0.3491589E+00
         13   -1    0    0    0    0  0.00000000000E+00  0.00000000000E+00  0.14999999963E+04  0.15000000000E+04  0.10566000000E+00 0. -1.
        994   -1    0    0    0    0 -0.00000000000E+00 -0.00000000000E+00  0.11368683772E-12  0.17120000000E+03  0.17120000000E+03 0.  0.
         13    1    1    2    0    0 -0.41519774798E+02  0.27109658112E+02  0.11988938095E+03  0.12973935444E+03  0.10566000000E+00 0. -1.
        994    1    1    2    0    0  0.55492795524E+02 -0.29450327052E+02  0.22507254358E+02  0.18374653362E+03  0.17120000000E+03 0.  0.
        998    1    1    2    0    0 -0.13973020725E+02  0.23406689396E+01  0.13576033610E+04  0.13577141119E+04  0.10000000000E+02 0. -1.
</event>
<event>
 5    1  0.1300052E-008  0.3846934E+03  0.7957747E-01  0.3430974E+00
         13   -1    0    0    0    0  0.00000000000E+00  0.00000000000E+00  0.14999999963E+04  0.15000000000E+04  0.10566000000E+00 0.  1.
        994   -1    0    0    0    0 -0.00000000000E+00 -0.00000000000E+00  0.11368683772E-12  0.17120000000E+03  0.17120000000E+03 0.  0.
         13    1    1    2    0    0  0.76346809704E+01 -0.87773675797E+01  0.36409178727E+02  0.38222637203E+02  0.10566000000E+00 0.  1.
        994    1    1    2    0    0 -0.11433925818E+02  0.10355131573E+02  0.25662045009E+01  0.17191273605E+03  0.17120000000E+03 0.  0.
        998    1    1    2    0    0  0.37992448476E+01 -0.15777639929E+01  0.14610246131E+04  0.14610646268E+04  0.10000000000E+02 0.  1.
</event>
<event>
 5    1  0.1300052E-008  0.3750737E+03  0.7957747E-01  0.3472893E+00
         13   -1    0    0    0    0  0.00000000000E+00  0.00000000000E+00  0.14999999963E+04  0.15000000000E+04  0.10566000000E+00 0.  1.
        994   -1    0    0    0    0 -0.00000000000E+00 -0.00000000000E+00  0.11368683772E-12  0.17120000000E+03  0.17120000000E+03 0.  0.
         13    1    1    2    0    0 -0.23320198985E+02  0.16741436142E+02  0.24731645482E+02  0.37891592960E+02  0.10566000000E+00 0.  1.
        994    1    1    2    0    0  0.17561542561E+02 -0.72931792582E+01  0.14935198512E+02  0.17289909889E+03  0.17120000000E+03 0.  0.
        998    1    1    2    0    0  0.57586564238E+01 -0.94482568839E+01  0.14603331523E+04  0.14604093082E+04  0.10000000000E+02 0.  1.
</event>
<event>
 5    1  0.2202281E-008  0.3860877E+03  0.7957747E-01  0.3425072E+00
         13   -1    0    0    0    0  0.00000000000E+00  0.00000000000E+00  0.14999999963E+04  0.15000000000E+04  0.10566000000E+00 0.  1.
        994   -1    0    0    0    0 -0.00000000000E+00 -0.00000000000E+00  0.11368683772E-12  0.17120000000E+03  0.17120000000E+03 0.  0.
         13    1    1    2    0    0  0.11056872786E+02 -0.34395558615E+01  0.64892894740E+02  0.65918009164E+02  0.10566000000E+00 0.  1.
        994    1    1    2    0    0 -0.33521503570E+01 -0.27030480726E+01  0.11518552250E+01  0.17125802215E+03  0.17120000000E+03 0.  0.
        998    1    1    2    0    0 -0.77047224295E+01  0.61426039341E+01  0.14339552463E+04  0.14340239687E+04  0.10000000000E+02 0.  1.
</event>
<event>
 5    1  0.1300052E-008  0.3855206E+03  0.7957747E-01  0.3427467E+00
         13   -1    0    0    0    0  0.00000000000E+00  0.00000000000E+00  0.14999999963E+04  0.15000000000E+04  0.10566000000E+00 0.  1.
        994   -1    0    0    0    0 -0.00000000000E+00 -0.00000000000E+00  0.11368683772E-12  0.17120000000E+03  0.17120000000E+03 0.  0.
         13    1    1    2    0    0 -0.11739632665E+02 -0.11646298786E+02  0.96278644069E+02  0.97688503512E+02  0.10566000000E+00 0.  1.
        994    1    1    2    0    0  0.82875773146E+01  0.13525120811E+02  0.21983753050E+01  0.17194733404E+03  0.17120000000E+03 0.  0.
        998    1    1    2    0    0  0.34520553506E+01 -0.18788220249E+01  0.14015229769E+04  0.14015641624E+04  0.10000000000E+02 0.  1.
</event>
<event>
 5    1  0.1300052E-008  0.3686258E+03  0.7957747E-01  0.3502230E+00
         13   -1    0    0    0    0  0.00000000000E+00  0.00000000000E+00  0.14999999963E+04  0.15000000000E+04  0.10566000000E+00 0. -1.
        994   -1    0    0    0    0 -0.00000000000E+00 -0.00000000000E+00  0.11368683772E-12  0.17120000000E+03  0.17120000000E+03 0.  0.
         13    1    1    2    0    0  0.24454775959E+02  0.31990708738E+02  0.71877916401E+02  0.82388637220E+02  0.10566000000E+00 0. -1.
        994    1    1    2    0    0 -0.20236668413E+02 -0.37659075989E+02  0.16600206302E+02  0.17723638340E+03  0.17120000000E+03 0.  0.
        998    1    1    2    0    0 -0.42181075465E+01  0.56683672511E+01  0.14115218736E+04  0.14115749794E+04  0.10000000000E+02 0. -1.
</event>
<event>
 5    1  0.1300052E-008  0.3787691E+03  0.7957747E-01  0.3456536E+00
         13   -1    0    0    0    0  0.00000000000E+00  0.00000000000E+00  0.14999999963E+04  0.15000000000E+04  0.10566000000E+00 0.  1.
        994   -1    0    0    0    0 -0.00000000000E+00 -0.00000000000E+00  0.11368683772E-12  0.17120000000E+03  0.17120000000E+03 0.  0.
         13    1    1    2    0    0  0.49603756633E+02  0.16882170790E+02  0.24033057676E+03  0.24597629490E+03  0.10566000000E+00 0.  1.
        994    1    1    2    0    0 -0.46473675453E+02 -0.30966607191E+02  0.15296257113E+02  0.18072672396E+03  0.17120000000E+03 0.  0.
        998    1    1    2    0    0 -0.31300811803E+01  0.14084436400E+02  0.12443731624E+04  0.12444969811E+04  0.10000000000E+02 0.  1.
</event>
<event>
 5    1  0.1300052E-008  0.3828020E+03  0.7957747E-01  0.3439048E+00
         13   -1    0    0    0    0  0.00000000000E+00  0.00000000000E+00  0.14999999963E+04  0.15000000000E+04  0.10566000000E+00 0. -1.
        994   -1    0    0    0    0 -0.00000000000E+00 -0.00000000000E+00  0.11368683772E-12  0.17120000000E+03  0.17120000000E+03 0.  0.
         13    1    1    2    0    0 -0.29866017417E+02  0.71308143112E+01  0.16174545535E+03  0.16463423398E+03  0.10566000000E+00 0. -1.
        994    1    1    2    0    0  0.25444032314E+02 -0.56365963360E+01  0.49781827618E+01  0.17324373669E+03  0.17120000000E+03 0.  0.
        998    1    1    2    0    0  0.44219851034E+01 -0.14942179752E+01  0.13332763582E+04  0.13333220293E+04  0.10000000000E+02 0.  0.
</event>
<event>
 5    1  0.1300052E-008  0.3841267E+03  0.7957747E-01  0.3433384E+00
         13   -1    0    0    0    0  0.00000000000E+00  0.00000000000E+00  0.14999999963E+04  0.15000000000E+04  0.10566000000E+00 0. -1.
        994   -1    0    0    0    0 -0.00000000000E+00 -0.00000000000E+00  0.11368683772E-12  0.17120000000E+03  0.17120000000E+03 0.  0.
         13    1    1    2    0    0  0.13262575769E+02  0.16004227246E+02  0.10889468999E+03  0.11086070484E+03  0.10566000000E+00 0. -1.
        994    1    1    2    0    0 -0.19275945173E+01 -0.76931833027E+01  0.22717943390E+01  0.17139866318E+03  0.17120000000E+03 0.  0.
        998    1    1    2    0    0 -0.11334981251E+02 -0.83110439437E+01  0.13888335120E+04  0.13889406320E+04  0.10000000000E+02 0. -1.
</event>
<event>
 5    1  0.1300052E-008  0.3806816E+03  0.7957747E-01  0.3448196E+00
         13   -1    0    0    0    0  0.00000000000E+00  0.00000000000E+00  0.14999999963E+04  0.15000000000E+04  0.10566000000E+00 0.  1.
        994   -1    0    0    0    0 -0.00000000000E+00 -0.00000000000E+00  0.11368683772E-12  0.17120000000E+03  0.17120000000E+03 0.  0.
         13    1    1    2    0    0  0.82619989900E+01 -0.20248923742E+02  0.60013526960E+02  0.63874205452E+02  0.10566000000E+00 0.  1.
        994    1    1    2    0    0 -0.52317828768E+01  0.20364932883E+02  0.52654314353E+01  0.17256670250E+03  0.17120000000E+03 0.  0.
        998    1    1    2    0    0 -0.30302161131E+01 -0.11600914068E+00  0.14347210379E+04  0.14347590920E+04  0.10000000000E+02 0.  1.
</event>
<event>
 5    1  0.1300052E-008  0.3691673E+03  0.7957747E-01  0.3499727E+00
         13   -1    0    0    0    0  0.00000000000E+00  0.00000000000E+00  0.14999999963E+04  0.15000000000E+04  0.10566000000E+00 0. -1.
        994   -1    0    0    0    0 -0.00000000000E+00 -0.00000000000E+00  0.11368683772E-12  0.17120000000E+03  0.17120000000E+03 0.  0.
         13    1    1    2    0    0  0.60753564618E+02 -0.25465443621E+02  0.22039505545E+03  0.23002929393E+03  0.10566000000E+00 0. -1.
        994    1    1    2    0    0 -0.37530303191E+02  0.10705255846E+02  0.15005108682E+02  0.17623200460E+03  0.17120000000E+03 0.  0.
        998    1    1    2    0    0 -0.23223261427E+02  0.14760187775E+02  0.12645998321E+04  0.12649387015E+04  0.10000000000E+02 0. -1.
</event>
<event>
 5    1  0.1300052E-008  0.3731950E+03  0.7957747E-01  0.3481335E+00
         13   -1    0    0    0    0  0.00000000000E+00  0.00000000000E+00  0.14999999963E+04  0.15000000000E+04  0.10566000000E+00 0. -1.
        994   -1    0    0    0    0 -0.00000000000E+00 -0.00000000000E+00  0.11368683772E-12  0.17120000000E+03  0.17120000000E+03 0.  0.
         13    1    1    2    0    0  0.81957503646E+01  0.11756600677E+02  0.10174536257E+02  0.17576129710E+02  0.10566000000E+00 0. -1.
        994    1    1    2    0    0 -0.13195993864E+02  0.12884758800E+01  0.82100085853E+01  0.17190880916E+03  0.17120000000E+03 0.  0.
        998    1    1    2    0    0  0.50002434991E+01 -0.13045076557E+02  0.14816154514E+04  0.14817150611E+04  0.10000000000E+02 0. -1.
</event>
<event>
 5    1  0.1300052E-008  0.3827241E+03  0.7957747E-01  0.3439382E+00
         13   -1    0    0    0    0  0.00000000000E+00  0.00000000000E+00  0.14999999963E+04  0.15000000000E+04  0.10566000000E+00 0.  1.
        994   -1    0    0    0    0 -0.00000000000E+00 -0.00000000000E+00  0.11368683772E-12  0.17120000000E+03  0.17120000000E+03 0.  0.
         13    1    1    2    0    0 -0.51166501193E+01  0.18256435798E+02  0.60820399099E+02  0.63707218328E+02  0.10566000000E+00 0.  1.
        994    1    1    2    0    0  0.32755381849E+01 -0.23427639881E+02  0.46204941231E+01  0.17288832357E+03  0.17120000000E+03 0.  0.
        998    1    1    2    0    0  0.18411119344E+01  0.51712040833E+01  0.14345591031E+04  0.14346044581E+04  0.10000000000E+02 0.  1.
</event>
<event>
 5    1  0.1300052E-008  0.3838764E+03  0.7957747E-01  0.3434452E+00
         13   -1    0    0    0    0  0.00000000000E+00  0.00000000000E+00  0.14999999963E+04  0.15000000000E+04  0.10566000000E+00 0.  1.
        994   -1    0    0    0    0 -0.00000000000E+00 -0.00000000000E+00  0.11368683772E-12  0.17120000000E+03  0.17120000000E+03 0.  0.
         13    1    1    2    0    0 -0.13465666513E+02  0.20900735290E+02  0.14761259850E+03  0.14969186788E+03  0.10566000000E+00 0.  1.
        994    1    1    2    0    0  0.90059946368E+01 -0.54221885123E+01  0.25538676769E+01  0.17154145361E+03  0.17120000000E+03 0.  0.
        998    1    1    2    0    0  0.44596718763E+01 -0.15478546777E+02  0.13498335301E+04  0.13499666785E+04  0.10000000000E+02 0.  1.
</event>
<event>
 5    1  0.1300052E-008  0.3805533E+03  0.7957747E-01  0.3448753E+00
         13   -1    0    0    0    0  0.00000000000E+00  0.00000000000E+00  0.14999999963E+04  0.15000000000E+04  0.10566000000E+00 0. -1.
        994   -1    0    0    0    0 -0.00000000000E+00 -0.00000000000E+00  0.11368683772E-12  0.17120000000E+03  0.17120000000E+03 0.  0.
         13    1    1    2    0    0 -0.10735245693E+02  0.38574637124E+02  0.21911905871E+03  0.22274743810E+03  0.10566000000E+00 0. -1.
        994    1    1    2    0    0  0.17062633501E+01 -0.15995470203E+02  0.47180096467E+01  0.17201879553E+03  0.17120000000E+03 0.  0.
        998    1    1    2    0    0  0.90289823429E+01 -0.22579166921E+02  0.12761629279E+04  0.12764337664E+04  0.10000000000E+02 0. -1.
</event>
<event>
 5    1  0.1300052E-008  0.3719191E+03  0.7957747E-01  0.3487117E+00
         13   -1    0    0    0    0  0.00000000000E+00  0.00000000000E+00  0.14999999963E+04  0.15000000000E+04  0.10566000000E+00 0. -1.
        994   -1    0    0    0    0 -0.00000000000E+00 -0.00000000000E+00  0.11368683772E-12  0.17120000000E+03  0.17120000000E+03 0.  0.
         13    1    1    2    0    0 -0.80385528801E+01 -0.96829173439E+01  0.61369878077E+01  0.14001821456E+02  0.10566000000E+00 0. -1.
        994    1    1    2    0    0  0.99576805419E+01 -0.28458903330E+02  0.11398376321E+02  0.17420800086E+03  0.17120000000E+03 0.  0.
        998    1    1    2    0    0 -0.19191276618E+01  0.38141820674E+02  0.14824646321E+04  0.14829901777E+04  0.10000000000E+02 0. -1.
</event>
<event>
 5    1  0.1300052E-008  0.3725630E+03  0.7957747E-01  0.3484194E+00
         13   -1    0    0    0    0  0.00000000000E+00  0.00000000000E+00  0.14999999963E+04  0.15000000000E+04  0.10566000000E+00 0. -1.
        994   -1    0    0    0    0 -0.00000000000E+00 -0.00000000000E+00  0.11368683772E-12  0.17120000000E+03  0.17120000000E+03 0.  0.
         13    1    1    2    0    0 -0.17195728928E+02 -0.41289697504E+01  0.15766567713E+02  0.23692558031E+02  0.10566000000E+00 0. -1.
        994    1    1    2    0    0  0.26838859783E+02 -0.28261851191E+01  0.10435798051E+02  0.17362792862E+03  0.17120000000E+03 0.  0.
        998    1    1    2    0    0 -0.96431308557E+01  0.69551548695E+01  0.14737976305E+04  0.14738795133E+04  0.10000000000E+02 0. -1.
</event>
<event>
 5    1  0.1300052E-008  0.3846362E+03  0.7957747E-01  0.3431217E+00
         13   -1    0    0    0    0  0.00000000000E+00  0.00000000000E+00  0.14999999963E+04  0.15000000000E+04  0.10566000000E+00 0. -1.
        994   -1    0    0    0    0 -0.00000000000E+00 -0.00000000000E+00  0.11368683772E-12  0.17120000000E+03  0.17120000000E+03 0.  0.
         13    1    1    2    0    0 -0.10229562436E+02  0.90819311074E+01  0.54498624074E+02  0.56189292665E+02  0.10566000000E+00 0. -1.
        994    1    1    2    0    0  0.25995516628E+01  0.46648752557E+01  0.19047734266E+01  0.17129386122E+03  0.17120000000E+03 0.  0.
        998    1    1    2    0    0  0.76300107728E+01 -0.13746806363E+02  0.14435965988E+04  0.14437168461E+04  0.10000000000E+02 0. -1.
</event>
<event>
 5    1  0.1300052E-008  0.3842385E+03  0.7957747E-01  0.3432908E+00
         13   -1    0    0    0    0  0.00000000000E+00  0.00000000000E+00  0.14999999963E+04  0.15000000000E+04  0.10566000000E+00 0. -1.
        994   -1    0    0    0    0 -0.00000000000E+00 -0.00000000000E+00  0.11368683772E-12  0.17120000000E+03  0.17120000000E+03 0.  0.
         13    1    1    2    0    0  0.74357561462E+01  0.23144362148E+02  0.13574904604E+03  0.13790854446E+03  0.10566000000E+00 0. -1.
        994    1    1    2    0    0 -0.35603689251E+01 -0.24390165024E+02  0.40142226628E+01  0.17301187925E+03  0.17120000000E+03 0.  0.
        998    1    1    2    0    0 -0.38753872211E+01  0.12458028762E+01  0.13602367276E+04  0.13602795763E+04  0.10000000000E+02 0. -1.
</event>
<event>
 5    1  0.1300052E-008  0.3781290E+03  0.7957747E-01  0.3459346E+00
         13   -1    0    0    0    0  0.00000000000E+00  0.00000000000E+00  0.14999999963E+04  0.15000000000E+04  0.10566000000E+00 0. -1.
        994   -1    0    0    0    0 -0.00000000000E+00 -0.00000000000E+00  0.11368683772E-12  0.17120000000E+03  0.17120000000E+03 0.  0.
         13    1    1    2    0    0  0.25559495211E+02  0.62633283591E+01  0.62972999041E+02  0.68250471426E+02  0.10566000000E+00 0. -1.
        994    1    1    2    0    0 -0.27245706070E+02 -0.15214214866E+02  0.83631490005E+01  0.17422164933E+03  0.17120000000E+03 0.  0.
        998    1    1    2    0    0  0.16862108585E+01  0.89508865071E+01  0.14286638482E+04  0.14287278792E+04  0.10000000000E+02 0. -1.
</event>
<event>
 5    1  0.1300052E-008  0.3815563E+03  0.7957747E-01  0.3444410E+00
         13   -1    0    0    0    0  0.00000000000E+00  0.00000000000E+00  0.14999999963E+04  0.15000000000E+04  0.10566000000E+00 0. -1.
        994   -1    0    0    0    0 -0.00000000000E+00 -0.00000000000E+00  0.11368683772E-12  0.17120000000E+03  0.17120000000E+03 0.  0.
         13    1    1    2    0    0 -0.30859195964E+01 -0.17593970631E+02  0.44383796539E+02  0.47843528941E+02  0.10566000000E+00 0. -1.
        994    1    1    2    0    0  0.32533295872E+01  0.23283464324E+02  0.51899534327E+01  0.17288458428E+03  0.17120000000E+03 0.  0.
        998    1    1    2    0    0 -0.16740999086E+00 -0.56894936928E+01  0.14504262463E+04  0.14504718868E+04  0.10000000000E+02 0. -1.
</event>
<event>
 5    1  0.1300052E-008  0.3799554E+03  0.7957747E-01  0.3451353E+00
         13   -1    0    0    0    0  0.00000000000E+00  0.00000000000E+00  0.14999999963E+04  0.15000000000E+04  0.10566000000E+00 0.  1.
        994   -1    0    0    0    0 -0.00000000000E+00 -0.00000000000E+00  0.11368683772E-12  0.17120000000E+03  0.17120000000E+03 0.  0.
         13    1    1    2    0    0  0.59433454809E+02  0.12464912587E+02  0.31873127696E+03  0.32446470944E+03  0.10566000000E+00 0.  1.
        994    1    1    2    0    0 -0.66985778088E+02 -0.23945477587E+02  0.21264755215E+02  0.18660683315E+03  0.17120000000E+03 0.  0.
        998    1    1    2    0    0  0.75523232793E+01  0.11480564999E+02  0.11600039641E+04  0.11601284574E+04  0.10000000000E+02 0.  1.
</event>
<event>
 5    1  0.1300052E-008  0.3779863E+03  0.7957747E-01  0.3459974E+00
         13   -1    0    0    0    0  0.00000000000E+00  0.00000000000E+00  0.14999999963E+04  0.15000000000E+04  0.10566000000E+00 0. -1.
        994   -1    0    0    0    0 -0.00000000000E+00 -0.00000000000E+00  0.11368683772E-12  0.17120000000E+03  0.17120000000E+03 0.  0.
         13    1    1    2    0    0 -0.70828792581E+01 -0.15147947856E+02  0.25225244830E+02  0.30264693020E+02  0.10566000000E+00 0. -1.
        994    1    1    2    0    0  0.60745587199E+01  0.61516491151E+01  0.54046919901E+01  0.17150333450E+03  0.17120000000E+03 0.  0.
        998    1    1    2    0    0  0.10083205382E+01  0.89962987408E+01  0.14693700595E+04  0.14694319725E+04  0.10000000000E+02 0. -1.
</event>
<event>
 5    1  0.1300052E-008  0.3746334E+03  0.7957747E-01  0.3474864E+00
         13   -1    0    0    0    0  0.00000000000E+00  0.00000000000E+00  0.14999999963E+04  0.15000000000E+04  0.10566000000E+00 0.  1.
        994   -1    0    0    0    0 -0.00000000000E+00 -0.00000000000E+00  0.11368683772E-12  0.17120000000E+03  0.17120000000E+03 0.  0.
         13    1    1    2    0    0  0.58569559444E+02  0.67794006831E+02  0.34056630766E+03  0.35215315097E+03  0.10566000000E+00 0.  1.
        994    1    1    2    0    0 -0.41014321139E+01 -0.36123155494E+02  0.18121631374E+02  0.17595322569E+03  0.17120000000E+03 0.  0.
        998    1    1    2    0    0 -0.54468127330E+02 -0.31670851337E+02  0.11413120572E+04  0.11430936233E+04  0.10000000000E+02 0.  1.
</event>
<event>
 5    1  0.1300052E-008  0.3798162E+03  0.7957747E-01  0.3451959E+00
         13   -1    0    0    0    0  0.00000000000E+00  0.00000000000E+00  0.14999999963E+04  0.15000000000E+04  0.10566000000E+00 0.  1.
        994   -1    0    0    0    0 -0.00000000000E+00 -0.00000000000E+00  0.11368683772E-12  0.17120000000E+03  0.17120000000E+03 0.  0.
         13    1    1    2    0    0 -0.32830547701E+02  0.72969102795E+01  0.14948495589E+03  0.15322158126E+03  0.10566000000E+00 0.  1.
        994    1    1    2    0    0 -0.46865884913E+00 -0.59869565150E+01  0.43466036389E+01  0.17136042791E+03  0.17120000000E+03 0.  0.
        998    1    1    2    0    0  0.33299206551E+02 -0.13099537645E+01  0.13461684367E+04  0.13466179908E+04  0.10000000000E+02 0.  1.
</event>
<event>
 5    1  0.1300052E-008  0.3847920E+03  0.7957747E-01  0.3430555E+00
         13   -1    0    0    0    0  0.00000000000E+00  0.00000000000E+00  0.14999999963E+04  0.15000000000E+04  0.10566000000E+00 0. -1.
        994   -1    0    0    0    0 -0.00000000000E+00 -0.00000000000E+00  0.11368683772E-12  0.17120000000E+03  0.17120000000E+03 0.  0.
         13    1    1    2    0    0  0.17376741838E+02 -0.18031008432E+01  0.91927932127E+02  0.93573277162E+02  0.10566000000E+00 0. -1.
        994    1    1    2    0    0 -0.54945238739E+01 -0.19680105271E+01  0.18455470202E+01  0.17130939525E+03  0.17120000000E+03 0.  0.
        998    1    1    2    0    0 -0.11882217964E+02  0.37711113703E+01  0.14062265171E+04  0.14063173276E+04  0.10000000000E+02 0. -1.
</event>
<event>
 5    1  0.1300052E-008  0.3765470E+03  0.7957747E-01  0.3466333E+00
         13   -1    0    0    0    0  0.00000000000E+00  0.00000000000E+00  0.14999999963E+04  0.15000000000E+04  0.10566000000E+00 0. -1.
        994   -1    0    0    0    0 -0.00000000000E+00 -0.00000000000E+00  0.11368683772E-12  0.17120000000E+03  0.17120000000E+03 0.  0.
         13    1    1    2    0    0 -0.12436209271E+02 -0.32314417609E+02  0.98903100905E+02  0.10478890886E+03  0.10566000000E+00 0. -1.
        994    1    1    2    0    0  0.78551733134E+01  0.21684486307E+02  0.76872401478E+01  0.17291747846E+03  0.17120000000E+03 0.  0.
        998    1    1    2    0    0  0.45810359576E+01  0.10629931302E+02  0.13934096552E+04  0.13934936127E+04  0.10000000000E+02 0. -1.
</event>
<event>
 5    1  0.1300052E-008  0.3767028E+03  0.7957747E-01  0.3465642E+00
         13   -1    0    0    0    0  0.00000000000E+00  0.00000000000E+00  0.14999999963E+04  0.15000000000E+04  0.10566000000E+00 0.  1.
        994   -1    0    0    0    0 -0.00000000000E+00 -0.00000000000E+00  0.11368683772E-12  0.17120000000E+03  0.17120000000E+03 0.  0.
         13    1    1    2    0    0  0.54214439018E+01  0.67112955229E+02  0.30937984769E+03  0.31662192302E+03  0.10566000000E+00 0.  1.
        994    1    1    2    0    0 -0.48023397007E+01 -0.66966898667E+02  0.21196781056E+02  0.18511178112E+03  0.17120000000E+03 0.  0.
        998    1    1    2    0    0 -0.61910420105E+00 -0.14605656230E+00  0.11694233675E+04  0.11694662959E+04  0.10000000000E+02 0. -1.
</event>
<event>
 5    1  0.1300052E-008  0.3854627E+03  0.7957747E-01  0.3427712E+00
         13   -1    0    0    0    0  0.00000000000E+00  0.00000000000E+00  0.14999999963E+04  0.15000000000E+04  0.10566000000E+00 0. -1.
        994   -1    0    0    0    0 -0.00000000000E+00 -0.00000000000E+00  0.11368683772E-12  0.17120000000E+03  0.17120000000E+03 0.  0.
         13    1    1    2    0    0 -0.14856654025E+02  0.46860118115E+01  0.90100238775E+02  0.91437098963E+02  0.10566000000E+00 0. -1.
        994    1    1    2    0    0  0.54604379783E+01 -0.20123802909E+01  0.15117883415E+01  0.17130555029E+03  0.17120000000E+03 0.  0.
        998    1    1    2    0    0  0.93962160466E+01 -0.26736315207E+01  0.14083879692E+04  0.14084573507E+04  0.10000000000E+02 0. -1.
</event>
<event>
 5    1  0.1300052E-008  0.3837090E+03  0.7957747E-01  0.3435166E+00
         13   -1    0    0    0    0  0.00000000000E+00  0.00000000000E+00  0.14999999963E+04  0.15000000000E+04  0.10566000000E+00 0.  1.
        994   -1    0    0    0    0 -0.00000000000E+00 -0.00000000000E+00  0.11368683772E-12  0.17120000000E+03  0.17120000000E+03 0.  0.
         13    1    1    2    0    0  0.17066793992E+02  0.20775263668E+01  0.62468302993E+02  0.64791138405E+02  0.10566000000E+00 0.  1.
        994    1    1    2    0    0 -0.16399551237E+02 -0.79901431238E+01  0.33722435820E+01  0.17220220584E+03  0.17120000000E+03 0.  0.
        998    1    1    2    0    0 -0.66724275439E+00  0.59126167570E+01  0.14341594497E+04  0.14342066558E+04  0.10000000000E+02 0.  1.
</event>
<event>
 5    1  0.1300052E-008  0.3826731E+03  0.7957747E-01  0.3439601E+00
         13   -1    0    0    0    0  0.00000000000E+00  0.00000000000E+00  0.14999999963E+04  0.15000000000E+04  0.10566000000E+00 0.  1.
        994   -1    0    0    0    0 -0.00000000000E+00 -0.00000000000E+00  0.11368683772E-12  0.17120000000E+03  0.17120000000E+03 0.  0.
         13    1    1    2    0    0  0.69152732838E+01  0.11842452635E+02  0.33308741839E+02  0.36021495470E+02  0.10566000000E+00 0.  1.
        994    1    1    2    0    0 -0.16916407897E+01 -0.44634194009E+01  0.28653198544E+01  0.17129049541E+03  0.17120000000E+03 0.  0.
        998    1    1    2    0    0 -0.52236324941E+01 -0.73790332339E+01  0.14638259346E+04  0.14638880091E+04  0.10000000000E+02 0.  1.
</event>
<event>
 5    1  0.1300052E-008  0.3845967E+03  0.7957747E-01  0.3431384E+00
         13   -1    0    0    0    0  0.00000000000E+00  0.00000000000E+00  0.14999999963E+04  0.15000000000E+04  0.10566000000E+00 0.  1.
        994   -1    0    0    0    0 -0.00000000000E+00 -0.00000000000E+00  0.11368683772E-12  0.17120000000E+03  0.17120000000E+03 0.  0.
         13    1    1    2    0    0 -0.18205193016E+02  0.63388076760E+00  0.82949518658E+02  0.84926230738E+02  0.10566000000E+00 0.  1.
        994    1    1    2    0    0  0.25243131901E+02  0.10162758527E+02  0.42727077970E+01  0.17340182641E+03  0.17120000000E+03 0.  0.
        998    1    1    2    0    0 -0.70379388849E+01 -0.10796639294E+02  0.14127777698E+04  0.14128719429E+04  0.10000000000E+02 0.  1.
</event>
<event>
 5    1  0.1300052E-008  0.3814022E+03  0.7957747E-01  0.3445076E+00
         13   -1    0    0    0    0  0.00000000000E+00  0.00000000000E+00  0.14999999963E+04  0.15000000000E+04  0.10566000000E+00 0.  1.
        994   -1    0    0    0    0 -0.00000000000E+00 -0.00000000000E+00  0.11368683772E-12  0.17120000000E+03  0.17120000000E+03 0.  0.
         13    1    1    2    0    0  0.10177474883E+02  0.20565068933E+01  0.14284166633E+02  0.17659524230E+02  0.10566000000E+00 0.  1.
        994    1    1    2    0    0 -0.78463133895E+01  0.98468044744E+00  0.36351282924E+01  0.17142108501E+03  0.17120000000E+03 0.  0.
        998    1    1    2    0    0 -0.23311614932E+01 -0.30411873408E+01  0.14820807014E+04  0.14821193908E+04  0.10000000000E+02 0.  1.
</event>
<event>
 5    1  0.1300052E-008  0.3789193E+03  0.7957747E-01  0.3455878E+00
         13   -1    0    0    0    0  0.00000000000E+00  0.00000000000E+00  0.14999999963E+04  0.15000000000E+04  0.10566000000E+00 0. -1.
        994   -1    0    0    0    0 -0.00000000000E+00 -0.00000000000E+00  0.11368683772E-12  0.17120000000E+03  0.17120000000E+03 0.  0.
         13    1    1    2    0    0 -0.45406092604E+02  0.36077875737E+02  0.33464472688E+03  0.33963278811E+03  0.10566000000E+00 0. -1.
        994    1    1    2    0    0  0.42520541593E+02 -0.11885499049E+02  0.11247197864E+02  0.17715868876E+03  0.17120000000E+03 0.  0.
        998    1    1    2    0    0  0.28855510109E+01 -0.24192376688E+02  0.11541080715E+04  0.11544085231E+04  0.10000000000E+02 0. -1.
</event>
<event>
 5    1  0.1300052E-008  0.3794576E+03  0.7957747E-01  0.3453524E+00
         13   -1    0    0    0    0  0.00000000000E+00  0.00000000000E+00  0.14999999963E+04  0.15000000000E+04  0.10566000000E+00 0.  1.
        994   -1    0    0    0    0 -0.00000000000E+00 -0.00000000000E+00  0.11368683772E-12  0.17120000000E+03  0.17120000000E+03 0.  0.
         13    1    1    2    0    0  0.18145167288E+02 -0.16512812394E+01  0.36323134123E+02  0.40636868263E+02  0.10566000000E+00 0.  1.
        994    1    1    2    0    0 -0.92209280171E+01 -0.30197227049E+01  0.47225233473E+01  0.17153975185E+03  0.17120000000E+03 0.  0.
        998    1    1    2    0    0 -0.89242392707E+01  0.46710039443E+01  0.14589543388E+04  0.14590233799E+04  0.10000000000E+02 0.  1.
</event>
<event>
 5    1  0.1300052E-008  0.3854040E+03  0.7957747E-01  0.3427961E+00
         13   -1    0    0    0    0  0.00000000000E+00  0.00000000000E+00  0.14999999963E+04  0.15000000000E+04  0.10566000000E+00 0.  1.
        994   -1    0    0    0    0 -0.00000000000E+00 -0.00000000000E+00  0.11368683772E-12  0.17120000000E+03  0.17120000000E+03 0.  0.
         13    1    1    2    0    0  0.13409694440E+02  0.51098400012E+01  0.70153882513E+02  0.71606625151E+02  0.10566000000E+00 0.  1.
        994    1    1    2    0    0 -0.15706844991E+02  0.22263112656E+01  0.22566905923E+01  0.17194823085E+03  0.17120000000E+03 0.  0.
        998    1    1    2    0    0  0.22971505508E+01 -0.73361512668E+01  0.14275894232E+04  0.14276451440E+04  0.10000000000E+02 0.  1.
</event>
<event>
 5    1  0.1300052E-008  0.3928008E+03  0.7957747E-01  0.3397247E+00
         13   -1    0    0    0    0  0.00000000000E+00  0.00000000000E+00  0.14999999963E+04  0.15000000000E+04  0.10566000000E+00 0.  1.
        994   -1    0    0    0    0 -0.00000000000E+00 -0.00000000000E+00  0.11368683772E-12  0.17120000000E+03  0.17120000000E+03 0.  0.
         13    1    1    2    0    0 -0.37184197596E+02 -0.37539887827E+02  0.49422286593E+02  0.72349715307E+02  0.10566000000E+00 0.  1.
        994    1    1    2    0    0  0.32594060836E+02  0.39798517396E+02  0.33678440742E+02  0.18190649290E+03  0.17120000000E+03 0.  0.
        998    1    1    2    0    0  0.45901367603E+01 -0.22586295697E+01  0.14168992689E+04  0.14169437918E+04  0.10000000000E+02 0.  1.
</event>
<event>
 5    1  0.1300052E-008  0.3809715E+03  0.7957747E-01  0.3446939E+00
         13   -1    0    0    0    0  0.00000000000E+00  0.00000000000E+00  0.14999999963E+04  0.15000000000E+04  0.10566000000E+00 0.  1.
        994   -1    0    0    0    0 -0.00000000000E+00 -0.00000000000E+00  0.11368683772E-12  0.17120000000E+03  0.17120000000E+03 0.  0.
         13    1    1    2    0    0 -0.94800924254E+01  0.11367721165E+02  0.29970707052E+02  0.33426810827E+02  0.10566000000E+00 0.  1.
        994    1    1    2    0    0 -0.46295942172E+01  0.12864535467E+01  0.37205023056E+01  0.17130782306E+03  0.17120000000E+03 0.  0.
        998    1    1    2    0    0  0.14109686643E+02 -0.12654174712E+02  0.14663087869E+04  0.14664653661E+04  0.10000000000E+02 0.  1.
</event>
<event>
 5    1  0.1300052E-008  0.3829041E+03  0.7957747E-01  0.3438610E+00
         13   -1    0    0    0    0  0.00000000000E+00  0.00000000000E+00  0.14999999963E+04  0.15000000000E+04  0.10566000000E+00 0.  1.
        994   -1    0    0    0    0 -0.00000000000E+00 -0.00000000000E+00  0.11368683772E-12  0.17120000000E+03  0.17120000000E+03 0.  0.
         13    1    1    2    0    0  0.19007483531E+02 -0.13603136796E+02  0.10390632607E+03  0.10650288973E+03  0.10566000000E+00 0.  1.
        994    1    1    2    0    0 -0.99754398629E+01  0.42309417203E+01  0.30631657073E+01  0.17156990777E+03  0.17120000000E+03 0.  0.
        998    1    1    2    0    0 -0.90320436678E+01  0.93721950754E+01  0.13930305045E+04  0.13931272025E+04  0.10000000000E+02 0.  1.
</event>
<event>
 5    1  0.1300052E-008  0.3806571E+03  0.7957747E-01  0.3448302E+00
         13   -1    0    0    0    0  0.00000000000E+00  0.00000000000E+00  0.14999999963E+04  0.15000000000E+04  0.10566000000E+00 0. -1.
        994   -1    0    0    0    0 -0.00000000000E+00 -0.00000000000E+00  0.11368683772E-12  0.17120000000E+03  0.17120000000E+03 0.  0.
         13    1    1    2    0    0  0.17780884406E+03  0.54872314848E+01  0.10632957721E+04  0.10780742112E+04  0.10566000000E+00 0. -1.
        994    1    1    2    0    0 -0.17482483863E+03  0.57245096224E+00  0.11356286389E+03  0.26975918141E+03  0.17120000000E+03 0.  0.
        998    1    1    2    0    0 -0.29840054321E+01 -0.60596824470E+01  0.32314136029E+03  0.32336660738E+03  0.10000000000E+02 0.  0.
</event>
<event>
 5    1  0.1300052E-008  0.3734567E+03  0.7957747E-01  0.3480154E+00
         13   -1    0    0    0    0  0.00000000000E+00  0.00000000000E+00  0.14999999963E+04  0.15000000000E+04  0.10566000000E+00 0.  1.
        994   -1    0    0    0    0 -0.00000000000E+00 -0.00000000000E+00  0.11368683772E-12  0.17120000000E+03  0.17120000000E+03 0.  0.
         13    1    1    2    0    0 -0.26209914233E+02  0.36940851175E+02  0.13617996611E+03  0.14351508779E+03  0.10566000000E+00 0.  1.
        994    1    1    2    0    0  0.69827106891E+01 -0.25555024340E+02  0.98752354735E+01  0.17351881106E+03  0.17120000000E+03 0.  0.
        998    1    1    2    0    0  0.19227203543E+02 -0.11385826835E+02  0.13539447947E+04  0.13541661012E+04  0.10000000000E+02 0.  1.
</event>
<event>
 5    1  0.1300052E-008  0.3770851E+03  0.7957747E-01  0.3463950E+00
         13   -1    0    0    0    0  0.00000000000E+00  0.00000000000E+00  0.14999999963E+04  0.15000000000E+04  0.10566000000E+00 0. -1.
        994   -1    0    0    0    0 -0.00000000000E+00 -0.00000000000E+00  0.11368683772E-12  0.17120000000E+03  0.17120000000E+03 0.  0.
         13    1    1    2    0    0  0.94633524139E+01 -0.78576888769E+01  0.11020064951E+02  0.16515184194E+02  0.10566000000E+00 0. -1.
        994    1    1    2    0    0  0.88446321661E+01  0.21100614861E+02  0.73808168663E+01  0.17287966891E+03  0.17120000000E+03 0.  0.
        998    1    1    2    0    0 -0.18307984580E+02 -0.13242925985E+02  0.14815991145E+04  0.14818051469E+04  0.10000000000E+02 0. -1.
</event>
<event>
 5    1  0.1300052E-008  0.3726626E+03  0.7957747E-01  0.3483743E+00
         13   -1    0    0    0    0  0.00000000000E+00  0.00000000000E+00  0.14999999963E+04  0.15000000000E+04  0.10566000000E+00 0. -1.
        994   -1    0    0    0    0 -0.00000000000E+00 -0.00000000000E+00  0.11368683772E-12  0.17120000000E+03  0.17120000000E+03 0.  0.
         13    1    1    2    0    0  0.50033368865E+02 -0.27262255694E+02  0.28937454100E+03  0.29493084737E+03  0.10566000000E+00 0. -1.
        994    1    1    2    0    0 -0.34398930997E+01 -0.35706948534E+02  0.12305679724E+02  0.17535018903E+03  0.17120000000E+03 0.  0.
        998    1    1    2    0    0 -0.46593475765E+02  0.62969204228E+02  0.11983197756E+04  0.12009189636E+04  0.10000000000E+02 0. -1.
</event>
<event>
 5    1  0.1300052E-008  0.3841888E+03  0.7957747E-01  0.3433120E+00
         13   -1    0    0    0    0  0.00000000000E+00  0.00000000000E+00  0.14999999963E+04  0.15000000000E+04  0.10566000000E+00 0. -1.
        994   -1    0    0    0    0 -0.00000000000E+00 -0.00000000000E+00  0.11368683772E-12  0.17120000000E+03  0.17120000000E+03 0.  0.
         13    1    1    2    0    0 -0.24252819724E+01 -0.16768319984E+02  0.73509632447E+02  0.75436965569E+02  0.10566000000E+00 0. -1.
        994    1    1    2    0    0  0.52920445507E+01  0.28321296672E+01  0.21521974502E+01  0.17131870490E+03  0.17120000000E+03 0.  0.
        998    1    1    2    0    0 -0.28667625783E+01  0.13936190317E+02  0.14243381664E+04  0.14244443295E+04  0.10000000000E+02 0. -1.
</event>
<event>
 5    1  0.1300052E-008  0.3768177E+03  0.7957747E-01  0.3465133E+00
         13   -1    0    0    0    0  0.00000000000E+00  0.00000000000E+00  0.14999999963E+04  0.15000000000E+04  0.10566000000E+00 0.  1.
        994   -1    0    0    0    0 -0.00000000000E+00 -0.00000000000E+00  0.11368683772E-12  0.17120000000E+03  0.17120000000E+03 0.  0.
         13    1    1    2    0    0  0.39700661383E+02 -0.14998182596E+01  0.13067313973E+03  0.13657918063E+03  0.10566000000E+00 0.  1.
        994    1    1    2    0    0 -0.30754799740E+02 -0.55798563269E+01  0.90560758737E+01  0.17426544412E+03  0.17120000000E+03 0.  0.
        998    1    1    2    0    0 -0.89458616429E+01  0.70796745865E+01  0.13602707807E+04  0.13603553753E+04  0.10000000000E+02 0.  1.
</event>
<event>
 5    1  0.1300052E-008  0.3716599E+03  0.7957747E-01  0.3488297E+00
         13   -1    0    0    0    0  0.00000000000E+00  0.00000000000E+00  0.14999999963E+04  0.15000000000E+04  0.10566000000E+00 0. -1.
        994   -1    0    0    0    0 -0.00000000000E+00 -0.00000000000E+00  0.11368683772E-12  0.17120000000E+03  0.17120000000E+03 0.  0.
         13    1    1    2    0    0 -0.23522705417E+01 -0.12492600320E+02  0.57785531111E+01  0.13964278698E+02  0.10566000000E+00 0. -1.
        994    1    1    2    0    0  0.13291332493E+02  0.61228666939E+01  0.91405887432E+01  0.17206725249E+03  0.17120000000E+03 0.  0.
        998    1    1    2    0    0 -0.10939061952E+02  0.63697336265E+01  0.14850808544E+04  0.14851684688E+04  0.10000000000E+02 0. -1.
</event>
<event>
 5    1  0.1300052E-008  0.3832177E+03  0.7957747E-01  0.3437266E+00
         13   -1    0    0    0    0  0.00000000000E+00  0.00000000000E+00  0.14999999963E+04  0.15000000000E+04  0.10566000000E+00 0. -1.
        994   -1    0    0    0    0 -0.00000000000E+00 -0.00000000000E+00  0.11368683772E-12  0.17120000000E+03  0.17120000000E+03 0.  0.
         13    1    1    2    0    0  0.13488250701E+02 -0.93690505174E+01  0.56955765473E+02  0.59276322417E+02  0.10566000000E+00 0. -1.
        994    1    1    2    0    0 -0.25334209941E+01 -0.11194781695E+02  0.29534885408E+01  0.17160974463E+03  0.17120000000E+03 0.  0.
        998    1    1    2    0    0 -0.10954829706E+02  0.20563832212E+02  0.14400907423E+04  0.14403139329E+04  0.10000000000E+02 0. -1.
</event>
<event>
 5    1  0.1300052E-008  0.3813896E+03  0.7957747E-01  0.3445130E+00
         13   -1    0    0    0    0  0.00000000000E+00  0.00000000000E+00  0.14999999963E+04  0.15000000000E+04  0.10566000000E+00 0.  1.
        994   -1    0    0    0    0 -0.00000000000E+00 -0.00000000000E+00  0.11368683772E-12  0.17120000000E+03  0.17120000000E+03 0.  0.
         13    1    1    2    0    0 -0.93792168535E+01  0.17335307058E+02  0.56219842902E+02  0.59574864495E+02  0.10566000000E+00 0.  1.
        994    1    1    2    0    0  0.11531133299E+02 -0.42853996244E+01  0.39370386795E+01  0.17168655148E+03  0.17120000000E+03 0.  0.
        998    1    1    2    0    0 -0.21519164454E+01 -0.13049907433E+02  0.14398431147E+04  0.14399385840E+04  0.10000000000E+02 0.  1.
</event>
<event>
 5    1  0.1300052E-008  0.3858098E+03  0.7957747E-01  0.3426245E+00
         13   -1    0    0    0    0  0.00000000000E+00  0.00000000000E+00  0.14999999963E+04  0.15000000000E+04  0.10566000000E+00 0.  1.
        994   -1    0    0    0    0 -0.00000000000E+00 -0.00000000000E+00  0.11368683772E-12  0.17120000000E+03  0.17120000000E+03 0.  0.
         13    1    1    2    0    0  0.17828893988E+01  0.10555926468E+02  0.48402374751E+02  0.49572243482E+02  0.10566000000E+00 0.  1.
        994    1    1    2    0    0  0.41558038661E+01 -0.34363635285E+01  0.13239981925E+01  0.17129002385E+03  0.17120000000E+03 0.  0.
        998    1    1    2    0    0 -0.59386932648E+01 -0.71195629398E+01  0.14502736233E+04  0.14503377327E+04  0.10000000000E+02 0.  1.
</event>
<event>
 5    1  0.1300052E-008  0.3746814E+03  0.7957747E-01  0.3474649E+00
         13   -1    0    0    0    0  0.00000000000E+00  0.00000000000E+00  0.14999999963E+04  0.15000000000E+04  0.10566000000E+00 0.  1.
        994   -1    0    0    0    0 -0.00000000000E+00 -0.00000000000E+00  0.11368683772E-12  0.17120000000E+03  0.17120000000E+03 0.  0.
         13    1    1    2    0    0 -0.40616332859E+02  0.11346611398E+03  0.59184774894E+03  0.60399338954E+03  0.10566000000E+00 0.  1.
        994    1    1    2    0    0  0.63485895031E+02 -0.10968560866E+03  0.63627317796E+02  0.22230444706E+03  0.17120000000E+03 0.  0.
        998    1    1    2    0    0 -0.22869562172E+02 -0.37805053221E+01  0.84452492955E+03  0.84490216340E+03  0.10000000000E+02 0.  1.
</event>
<event>
 5    1  0.1411598E-008  0.3859189E+03  0.7957747E-01  0.3425784E+00
         13   -1    0    0    0    0  0.00000000000E+00  0.00000000000E+00  0.14999999963E+04  0.15000000000E+04  0.10566000000E+00 0.  1.
        994   -1    0    0    0    0 -0.00000000000E+00 -0.00000000000E+00  0.11368683772E-12  0.17120000000E+03  0.17120000000E+03 0.  0.
         13    1    1    2    0    0  0.13221797257E+02 -0.78669902214E+01  0.91907663763E+02  0.93186561693E+02  0.10566000000E+00 0.  1.
        994    1    1    2    0    0 -0.18237065430E+02  0.11743547147E+02  0.27188401241E+01  0.17259007372E+03  0.17120000000E+03 0.  0.
        998    1    1    2    0    0  0.50152681727E+01 -0.38765569260E+01  0.14053734924E+04  0.14054233646E+04  0.10000000000E+02 0.  1.
</event>
<event>
 5    1  0.1300052E-008  0.3814672E+03  0.7957747E-01  0.3444795E+00
         13   -1    0    0    0    0  0.00000000000E+00  0.00000000000E+00  0.14999999963E+04  0.15000000000E+04  0.10566000000E+00 0.  1.
        994   -1    0    0    0    0 -0.00000000000E+00 -0.00000000000E+00  0.11368683772E-12  0.17120000000E+03  0.17120000000E+03 0.  0.
         13    1    1    2    0    0 -0.18513068785E+02 -0.36214335830E+02  0.22469011635E+03  0.22834156736E+03  0.10566000000E+00 0.  1.
        994    1    1    2    0    0  0.15835610682E+02  0.28239690920E+02  0.68894899059E+01  0.17437073086E+03  0.17120000000E+03 0.  0.
        998    1    1    2    0    0  0.26774581022E+01  0.79746449092E+01  0.12684203900E+04  0.12684877018E+04  0.10000000000E+02 0.  1.
</event>
<event>
 5    1  0.1300052E-008  0.3745025E+03  0.7957747E-01  0.3475451E+00
         13   -1    0    0    0    0  0.00000000000E+00  0.00000000000E+00  0.14999999963E+04  0.15000000000E+04  0.10566000000E+00 0.  1.
        994   -1    0    0    0    0 -0.00000000000E+00 -0.00000000000E+00  0.11368683772E-12  0.17120000000E+03  0.17120000000E+03 0.  0.
         13    1    1    2    0    0 -0.58501499032E+02  0.62464941223E+02  0.37006792944E+03  0.37983493499E+03  0.10566000000E+00 0.  1.
        994    1    1    2    0    0  0.63777910929E+02 -0.66921627505E+02  0.36614891118E+02  0.19798034347E+03  0.17120000000E+03 0.  0.
        998    1    1    2    0    0 -0.52764118970E+01  0.44566862817E+01  0.10933171757E+04  0.10933847215E+04  0.10000000000E+02 0.  1.
</event>
<event>
 5    1  0.1300052E-008  0.3803702E+03  0.7957747E-01  0.3449548E+00
         13   -1    0    0    0    0  0.00000000000E+00  0.00000000000E+00  0.14999999963E+04  0.15000000000E+04  0.10566000000E+00 0.  1.
        994   -1    0    0    0    0 -0.00000000000E+00 -0.00000000000E+00  0.11368683772E-12  0.17120000000E+03  0.17120000000E+03 0.  0.
         13    1    1    2    0    0 -0.10640394914E+02  0.16903752410E+02  0.47797101854E+02  0.51802789106E+02  0.10566000000E+00 0.  1.
        994    1    1    2    0    0 -0.13421044560E+02 -0.32502175691E+02  0.80859273451E+01  0.17496096160E+03  0.17120000000E+03 0.  0.
        998    1    1    2    0    0  0.24061439473E+02  0.15598423281E+02  0.14441169671E+04  0.14444362493E+04  0.10000000000E+02 0.  1.
</event>
<event>
 5    1  0.1300052E-008  0.3832572E+03  0.7957747E-01  0.3437097E+00
         13   -1    0    0    0    0  0.00000000000E+00  0.00000000000E+00  0.14999999963E+04  0.15000000000E+04  0.10566000000E+00 0. -1.
        994   -1    0    0    0    0 -0.00000000000E+00 -0.00000000000E+00  0.11368683772E-12  0.17120000000E+03  0.17120000000E+03 0.  0.
         13    1    1    2    0    0 -0.15439863288E+02 -0.17977089472E+02  0.93360574311E+02  0.96321197687E+02  0.10566000000E+00 0. -1.
        994    1    1    2    0    0  0.16648381399E+02  0.44548566245E+02  0.10014490288E+02  0.17796480937E+03  0.17120000000E+03 0.  0.
        998    1    1    2    0    0 -0.12085181111E+01 -0.26571476772E+02  0.13966249317E+04  0.13969139929E+04  0.10000000000E+02 0. -1.
</event>
<event>
 5    1  0.1300052E-008  0.3759934E+03  0.7957747E-01  0.3468792E+00
         13   -1    0    0    0    0  0.00000000000E+00  0.00000000000E+00  0.14999999963E+04  0.15000000000E+04  0.10566000000E+00 0. -1.
        994   -1    0    0    0    0 -0.00000000000E+00 -0.00000000000E+00  0.11368683772E-12  0.17120000000E+03  0.17120000000E+03 0.  0.
         13    1    1    2    0    0  0.51570796197E+02 -0.34597432140E+02  0.12630819548E+03  0.14074907012E+03  0.10566000000E+00 0. -1.
        994    1    1    2    0    0 -0.35031317794E+02  0.39539037557E+02  0.24176830468E+02  0.18078851692E+03  0.17120000000E+03 0.  0.
        998    1    1    2    0    0 -0.16539478403E+02 -0.49416054168E+01  0.13495149703E+04  0.13496624130E+04  0.10000000000E+02 0. -1.
</event>
<event>
 5    1  0.1300052E-008  0.3688662E+03  0.7957747E-01  0.3501118E+00
         13   -1    0    0    0    0  0.00000000000E+00  0.00000000000E+00  0.14999999963E+04  0.15000000000E+04  0.10566000000E+00 0. -1.
        994   -1    0    0    0    0 -0.00000000000E+00 -0.00000000000E+00  0.11368683772E-12  0.17120000000E+03  0.17120000000E+03 0.  0.
         13    1    1    2    0    0 -0.42897025369E+02 -0.11192431933E+01  0.85454749078E+02  0.95623913301E+02  0.10566000000E+00 0. -1.
        994    1    1    2    0    0  0.41551494561E+02  0.12967761904E+02  0.16468706356E+02  0.17741293030E+03  0.17120000000E+03 0.  0.
        998    1    1    2    0    0  0.13455308085E+01 -0.11848518711E+02  0.13980765408E+04  0.13981631564E+04  0.10000000000E+02 0. -1.
</event>
<event>
 5    1  0.1300052E-008  0.3704533E+03  0.7957747E-01  0.3493810E+00
         13   -1    0    0    0    0  0.00000000000E+00  0.00000000000E+00  0.14999999963E+04  0.15000000000E+04  0.10566000000E+00 0.  1.
        994   -1    0    0    0    0 -0.00000000000E+00 -0.00000000000E+00  0.11368683772E-12  0.17120000000E+03  0.17120000000E+03 0.  0.
         13    1    1    2    0    0 -0.22268307697E+02  0.20882967238E+02  0.36546933654E+02  0.47620010205E+02  0.10566000000E+00 0.  1.
        994    1    1    2    0    0  0.58088634205E+01 -0.35191343672E+02  0.15646410658E+02  0.17557455320E+03  0.17120000000E+03 0.  0.
        998    1    1    2    0    0  0.16459444276E+02  0.14308376434E+02  0.14478066520E+04  0.14480054366E+04  0.10000000000E+02 0.  1.
</event>
<event>
 5    1  0.1300052E-008  0.3841363E+03  0.7957747E-01  0.3433344E+00
         13   -1    0    0    0    0  0.00000000000E+00  0.00000000000E+00  0.14999999963E+04  0.15000000000E+04  0.10566000000E+00 0.  1.
        994   -1    0    0    0    0 -0.00000000000E+00 -0.00000000000E+00  0.11368683772E-12  0.17120000000E+03  0.17120000000E+03 0.  0.
         13    1    1    2    0    0 -0.15021925109E+02  0.13300494557E+02  0.10376863653E+03  0.10569059789E+03  0.10566000000E+00 0.  1.
        994    1    1    2    0    0 -0.19286112457E-01 -0.58631956055E+01  0.21729534961E+01  0.17131415342E+03  0.17120000000E+03 0.  0.
        998    1    1    2    0    0  0.15041211222E+02 -0.74372989517E+01  0.13940584062E+04  0.13941952487E+04  0.10000000000E+02 0.  1.
</event>
<event>
 5    1  0.1300052E-008  0.3844647E+03  0.7957747E-01  0.3431946E+00
         13   -1    0    0    0    0  0.00000000000E+00  0.00000000000E+00  0.14999999963E+04  0.15000000000E+04  0.10566000000E+00 0.  1.
        994   -1    0    0    0    0 -0.00000000000E+00 -0.00000000000E+00  0.11368683772E-12  0.17120000000E+03  0.17120000000E+03 0.  0.
         13    1    1    2    0    0  0.22805385610E+02  0.30620683032E+01  0.13176713599E+03  0.13376117211E+03  0.10566000000E+00 0.  1.
        994    1    1    2    0    0 -0.21363281981E+02  0.21503235309E+01  0.34163662688E+01  0.17257498448E+03  0.17120000000E+03 0.  0.
        998    1    1    2    0    0 -0.14421036291E+01 -0.52123918342E+01  0.13648164940E+04  0.13648638434E+04  0.10000000000E+02 0.  1.
</event>
<event>
 5    1  0.1300052E-008  0.3717034E+03  0.7957747E-01  0.3488099E+00
         13   -1    0    0    0    0  0.00000000000E+00  0.00000000000E+00  0.14999999963E+04  0.15000000000E+04  0.10566000000E+00 0.  1.
        994   -1    0    0    0    0 -0.00000000000E+00 -0.00000000000E+00  0.11368683772E-12  0.17120000000E+03  0.17120000000E+03 0.  0.
         13    1    1    2    0    0  0.45462381483E+02 -0.98582029115E+01  0.13497126548E+03  0.14276297127E+03  0.10566000000E+00 0.  1.
        994    1    1    2    0    0 -0.11341879770E+02  0.10128935154E+02  0.91766633245E+01  0.17211880988E+03  0.17120000000E+03 0.  0.
        998    1    1    2    0    0 -0.34120501713E+02 -0.27073224210E+00  0.13558520675E+04  0.13563182189E+04  0.10000000000E+02 0.  1.
</event>
<event>
 5    1  0.1300052E-008  0.3818477E+03  0.7957747E-01  0.3443152E+00
         13   -1    0    0    0    0  0.00000000000E+00  0.00000000000E+00  0.14999999963E+04  0.15000000000E+04  0.10566000000E+00 0.  1.
        994   -1    0    0    0    0 -0.00000000000E+00 -0.00000000000E+00  0.11368683772E-12  0.17120000000E+03  0.17120000000E+03 0.  0.
         13    1    1    2    0    0  0.30363611471E+01 -0.32946052497E+02  0.19186868718E+03  0.19470045235E+03  0.10566000000E+00 0.  1.
        994    1    1    2    0    0 -0.36527865499E+01  0.43169244959E+01  0.33095950331E+01  0.17132533994E+03  0.17120000000E+03 0.  0.
        998    1    1    2    0    0  0.61642540279E+00  0.28629128001E+02  0.13048217141E+04  0.13051742077E+04  0.10000000000E+02 0.  1.
</event>
<event>
 5    1  0.1300052E-008  0.3852012E+03  0.7957747E-01  0.3428819E+00
         13   -1    0    0    0    0  0.00000000000E+00  0.00000000000E+00  0.14999999963E+04  0.15000000000E+04  0.10566000000E+00 0. -1.
        994   -1    0    0    0    0 -0.00000000000E+00 -0.00000000000E+00  0.11368683772E-12  0.17120000000E+03  0.17120000000E+03 0.  0.
         13    1    1    2    0    0 -0.59468937940E+01  0.13509908353E+02  0.75630528967E+02  0.77057583957E+02  0.10566000000E+00 0. -1.
        994    1    1    2    0    0 -0.51758871326E+01 -0.39596124893E+01  0.16698494879E+01  0.17133212406E+03  0.17120000000E+03 0.  0.
        998    1    1    2    0    0  0.11122780927E+02 -0.95502958636E+01  0.14226996178E+04  0.14228102920E+04  0.10000000000E+02 0. -1.
</event>
<event>
 5    1  0.1300052E-008  0.3859119E+03  0.7957747E-01  0.3425814E+00
         13   -1    0    0    0    0  0.00000000000E+00  0.00000000000E+00  0.14999999963E+04  0.15000000000E+04  0.10566000000E+00 0. -1.
        994   -1    0    0    0    0 -0.00000000000E+00 -0.00000000000E+00  0.11368683772E-12  0.17120000000E+03  0.17120000000E+03 0.  0.
         13    1    1    2    0    0 -0.20021031436E+02 -0.65222047079E+02  0.10565918103E+03  0.12577213851E+03  0.10566000000E+00 0. -1.
        994    1    1    2    0    0  0.65094662808E+02  0.47847982617E+02  0.44212828495E+02  0.19439896803E+03  0.17120000000E+03 0.  0.
        998    1    1    2    0    0 -0.45073631372E+02  0.17374064463E+02  0.13501279868E+04  0.13510288935E+04  0.10000000000E+02 0. -1.
</event>
<event>
 5    1  0.1300052E-008  0.3828904E+03  0.7957747E-01  0.3438669E+00
         13   -1    0    0    0    0  0.00000000000E+00  0.00000000000E+00  0.14999999963E+04  0.15000000000E+04  0.10566000000E+00 0.  1.
        994   -1    0    0    0    0 -0.00000000000E+00 -0.00000000000E+00  0.11368683772E-12  0.17120000000E+03  0.17120000000E+03 0.  0.
         13    1    1    2    0    0  0.57282705929E+02 -0.64903676742E+02  0.21685397339E+03  0.23349400975E+03  0.10566000000E+00 0.  1.
        994    1    1    2    0    0 -0.16906114645E+02  0.37479751533E+02  0.24140904821E+02  0.17771542357E+03  0.17120000000E+03 0.  0.
        998    1    1    2    0    0 -0.40376591285E+02  0.27423925209E+02  0.12590051181E+04  0.12599905667E+04  0.10000000000E+02 0.  1.
</event>
<event>
 5    1  0.1300052E-008  0.3805579E+03  0.7957747E-01  0.3448733E+00
         13   -1    0    0    0    0  0.00000000000E+00  0.00000000000E+00  0.14999999963E+04  0.15000000000E+04  0.10566000000E+00 0. -1.
        994   -1    0    0    0    0 -0.00000000000E+00 -0.00000000000E+00  0.11368683772E-12  0.17120000000E+03  0.17120000000E+03 0.  0.
         13    1    1    2    0    0  0.10279617460E+02 -0.33395191591E+02  0.14435542776E+03  0.14852410593E+03  0.10566000000E+00 0. -1.
        994    1    1    2    0    0 -0.11244930839E+02  0.32179980948E+02  0.77388257535E+01  0.17473216380E+03  0.17120000000E+03 0.  0.
        998    1    1    2    0    0  0.96531337847E+00  0.12152106425E+01  0.13479057428E+04  0.13479437303E+04  0.10000000000E+02 0.  0.
</event>
<event>
 5    1  0.1300052E-008  0.3846271E+03  0.7957747E-01  0.3431255E+00
         13   -1    0    0    0    0  0.00000000000E+00  0.00000000000E+00  0.14999999963E+04  0.15000000000E+04  0.10566000000E+00 0. -1.
        994   -1    0    0    0    0 -0.00000000000E+00 -0.00000000000E+00  0.11368683772E-12  0.17120000000E+03  0.17120000000E+03 0.  0.
         13    1    1    2    0    0  0.71196246838E+01  0.10056208085E+02  0.42498196950E+02  0.44248438218E+02  0.10566000000E+00 0. -1.
        994    1    1    2    0    0 -0.59610217438E+01 -0.29281926977E+00  0.19326920053E+01  0.17131489959E+03  0.17120000000E+03 0.  0.
        998    1    1    2    0    0 -0.11586029400E+01 -0.97633888149E+01  0.14555691073E+04  0.14556366622E+04  0.10000000000E+02 0. -1.
</event>
<event>
 5    1  0.1300052E-008  0.3842052E+03  0.7957747E-01  0.3433050E+00
         13   -1    0    0    0    0  0.00000000000E+00  0.00000000000E+00  0.14999999963E+04  0.15000000000E+04  0.10566000000E+00 0.  1.
        994   -1    0    0    0    0 -0.00000000000E+00 -0.00000000000E+00  0.11368683772E-12  0.17120000000E+03  0.17120000000E+03 0.  0.
         13    1    1    2    0    0  0.72134592407E+01 -0.17249468664E+02  0.82693057840E+02  0.84780487981E+02  0.10566000000E+00 0.  1.
        994    1    1    2    0    0 -0.11684347968E+02  0.14673636100E+02  0.31861700512E+01  0.17225397314E+03  0.17120000000E+03 0.  0.
        998    1    1    2    0    0  0.44708887271E+01  0.25758325636E+01  0.14141207684E+04  0.14141655389E+04  0.10000000000E+02 0.  1.
</event>
<event>
 5    1  0.1300052E-008  0.3847731E+03  0.7957747E-01  0.3430635E+00
         13   -1    0    0    0    0  0.00000000000E+00  0.00000000000E+00  0.14999999963E+04  0.15000000000E+04  0.10566000000E+00 0. -1.
        994   -1    0    0    0    0 -0.00000000000E+00 -0.00000000000E+00  0.11368683772E-12  0.17120000000E+03  0.17120000000E+03 0.  0.
         13    1    1    2    0    0  0.79296119491E+01 -0.18321269788E+02  0.11406098837E+03  0.11579493903E+03  0.10566000000E+00 0. -1.
        994    1    1    2    0    0 -0.29073395788E+01  0.12653012681E+02  0.22977408230E+01  0.17170693337E+03  0.17120000000E+03 0.  0.
        998    1    1    2    0    0 -0.50222723703E+01  0.56682571068E+01  0.13836412671E+04  0.13836981276E+04  0.10000000000E+02 0. -1.
</event>
<event>
 5    1  0.1300052E-008  0.3750628E+03  0.7957747E-01  0.3472942E+00
         13   -1    0    0    0    0  0.00000000000E+00  0.00000000000E+00  0.14999999963E+04  0.15000000000E+04  0.10566000000E+00 0. -1.
        994   -1    0    0    0    0 -0.00000000000E+00 -0.00000000000E+00  0.11368683772E-12  0.17120000000E+03  0.17120000000E+03 0.  0.
         13    1    1    2    0    0 -0.76368942244E+01 -0.30695981783E+02  0.72569952257E+02  0.79164225415E+02  0.10566000000E+00 0. -1.
        994    1    1    2    0    0 -0.25385625923E+01  0.22194314556E+02  0.83442718024E+01  0.17285282402E+03  0.17120000000E+03 0.  0.
        998    1    1    2    0    0  0.10175456817E+02  0.85016672268E+01  0.14190857722E+04  0.14191829506E+04  0.10000000000E+02 0. -1.
</event>
<event>
 5    1  0.1300052E-008  0.3800995E+03  0.7957747E-01  0.3450725E+00
         13   -1    0    0    0    0  0.00000000000E+00  0.00000000000E+00  0.14999999963E+04  0.15000000000E+04  0.10566000000E+00 0. -1.
        994   -1    0    0    0    0 -0.00000000000E+00 -0.00000000000E+00  0.11368683772E-12  0.17120000000E+03  0.17120000000E+03 0.  0.
         13    1    1    2    0    0 -0.49507389420E+01 -0.14436536310E+02  0.27418947376E+02  0.31380459460E+02  0.10566000000E+00 0. -1.
        994    1    1    2    0    0  0.20832380518E+02 -0.30879332699E+01  0.55664792318E+01  0.17258026857E+03  0.17120000000E+03 0.  0.
        998    1    1    2    0    0 -0.15881641576E+02  0.17524469579E+02  0.14670145697E+04  0.14672392720E+04  0.10000000000E+02 0. -1.
</event>
<event>
 5    1  0.1300052E-008  0.3737353E+03  0.7957747E-01  0.3478898E+00
         13   -1    0    0    0    0  0.00000000000E+00  0.00000000000E+00  0.14999999963E+04  0.15000000000E+04  0.10566000000E+00 0.  1.
        994   -1    0    0    0    0 -0.00000000000E+00 -0.00000000000E+00  0.11368683772E-12  0.17120000000E+03  0.17120000000E+03 0.  0.
         13    1    1    2    0    0  0.30874536204E+02  0.68183254205E+02  0.43856103174E+03  0.44490221720E+03  0.10566000000E+00 0.  1.
        994    1    1    2    0    0 -0.28186777387E+02 -0.18423186958E+02  0.11210314156E+02  0.17483998221E+03  0.17120000000E+03 0.  0.
        998    1    1    2    0    0 -0.26877588173E+01 -0.49760067247E+02  0.10502286504E+04  0.10514578006E+04  0.10000000000E+02 0.  1.
</event>
<event>
 5    1  0.1300052E-008  0.3798189E+03  0.7957747E-01  0.3451947E+00
         13   -1    0    0    0    0  0.00000000000E+00  0.00000000000E+00  0.14999999963E+04  0.15000000000E+04  0.10566000000E+00 0. -1.
        994   -1    0    0    0    0 -0.00000000000E+00 -0.00000000000E+00  0.11368683772E-12  0.17120000000E+03  0.17120000000E+03 0.  0.
         13    1    1    2    0    0 -0.56437600435E+01  0.17743502594E+02  0.40257217990E+02  0.44354691703E+02  0.10566000000E+00 0. -1.
        994    1    1    2    0    0 -0.10659163066E+01 -0.67786459608E+01  0.43820864249E+01  0.17139349142E+03  0.17120000000E+03 0.  0.
        998    1    1    2    0    0  0.67096763501E+01 -0.10964856633E+02  0.14553606919E+04  0.14554518169E+04  0.10000000000E+02 0. -1.
</event>
<event>
 5    1  0.1300052E-008  0.3854354E+03  0.7957747E-01  0.3427828E+00
         13   -1    0    0    0    0  0.00000000000E+00  0.00000000000E+00  0.14999999963E+04  0.15000000000E+04  0.10566000000E+00 0.  1.
        994   -1    0    0    0    0 -0.00000000000E+00 -0.00000000000E+00  0.11368683772E-12  0.17120000000E+03  0.17120000000E+03 0.  0.
         13    1    1    2    0    0 -0.44972838106E+01  0.11117620519E+02  0.50330173288E+02  0.51739390747E+02  0.10566000000E+00 0.  1.
        994    1    1    2    0    0  0.39894795156E+01 -0.95999594420E+01  0.17691036676E+01  0.17152447317E+03  0.17120000000E+03 0.  0.
        998    1    1    2    0    0  0.50780429497E+00 -0.15176610774E+01  0.14479007193E+04  0.14479361361E+04  0.10000000000E+02 0.  1.
</event>
<event>
 5    1  0.1300052E-008  0.3694332E+03  0.7957747E-01  0.3498500E+00
         13   -1    0    0    0    0  0.00000000000E+00  0.00000000000E+00  0.14999999963E+04  0.15000000000E+04  0.10566000000E+00 0.  1.
        994   -1    0    0    0    0 -0.00000000000E+00 -0.00000000000E+00  0.11368683772E-12  0.17120000000E+03  0.17120000000E+03 0.  0.
         13    1    1    2    0    0  0.24928814381E+02  0.12268227310E+02  0.35688063605E+02  0.45228356544E+02  0.10566000000E+00 0.  1.
        994    1    1    2    0    0 -0.27790052464E+02 -0.65861961377E+01  0.12396657591E+02  0.17400799440E+03  0.17120000000E+03 0.  0.
        998    1    1    2    0    0  0.28612380834E+01 -0.56820311725E+01  0.14519152751E+04  0.14519636491E+04  0.10000000000E+02 0.  1.
</event>
<event>
 5    1  0.1300052E-008  0.3735940E+03  0.7957747E-01  0.3479535E+00
         13   -1    0    0    0    0  0.00000000000E+00  0.00000000000E+00  0.14999999963E+04  0.15000000000E+04  0.10566000000E+00 0. -1.
        994   -1    0    0    0    0 -0.00000000000E+00 -0.00000000000E+00  0.11368683772E-12  0.17120000000E+03  0.17120000000E+03 0.  0.
         13    1    1    2    0    0 -0.17654461924E+01  0.19902071803E+02  0.23375765003E+02  0.30751370959E+02  0.10566000000E+00 0. -1.
        994    1    1    2    0    0  0.70316772572E+00 -0.21951191064E+02  0.90516486042E+01  0.17284016193E+03  0.17120000000E+03 0.  0.
        998    1    1    2    0    0  0.10622784667E+01  0.20491192607E+01  0.14675725827E+04  0.14676084671E+04  0.10000000000E+02 0. -1.
</event>
<event>
 5    1  0.1300052E-008  0.3846611E+03  0.7957747E-01  0.3431111E+00
         13   -1    0    0    0    0  0.00000000000E+00  0.00000000000E+00  0.14999999963E+04  0.15000000000E+04  0.10566000000E+00 0. -1.
        994   -1    0    0    0    0 -0.00000000000E+00 -0.00000000000E+00  0.11368683772E-12  0.17120000000E+03  0.17120000000E+03 0.  0.
         13    1    1    2    0    0  0.12346395151E+02 -0.23368950962E+01  0.45020196912E+02  0.46741029577E+02  0.10566000000E+00 0. -1.
        994    1    1    2    0    0 -0.30048561611E+01 -0.30275230854E+01  0.18583784887E+01  0.17126321446E+03  0.17120000000E+03 0.  0.
        998    1    1    2    0    0 -0.93415389903E+01  0.53644181816E+01  0.14531214209E+04  0.14531957560E+04  0.10000000000E+02 0. -1.
</event>
<event>
 5    1  0.1300052E-008  0.3856608E+03  0.7957747E-01  0.3426874E+00
         13   -1    0    0    0    0  0.00000000000E+00  0.00000000000E+00  0.14999999963E+04  0.15000000000E+04  0.10566000000E+00 0. -1.
        994   -1    0    0    0    0 -0.00000000000E+00 -0.00000000000E+00  0.11368683772E-12  0.17120000000E+03  0.17120000000E+03 0.  0.
         13    1    1    2    0    0 -0.97045184334E+01  0.43032703315E+01  0.42815124033E+02  0.44111697129E+02  0.10566000000E+00 0. -1.
        994    1    1    2    0    0  0.95515768066E+01 -0.31228014901E+01  0.16338676494E+01  0.17150246072E+03  0.17120000000E+03 0.  0.
        998    1    1    2    0    0  0.15294162675E+00 -0.11804688414E+01  0.14555510046E+04  0.14555858422E+04  0.10000000000E+02 0. -1.
</event>
<event>
 5    1  0.1300052E-008  0.3778419E+03  0.7957747E-01  0.3460609E+00
         13   -1    0    0    0    0  0.00000000000E+00  0.00000000000E+00  0.14999999963E+04  0.15000000000E+04  0.10566000000E+00 0. -1.
        994   -1    0    0    0    0 -0.00000000000E+00 -0.00000000000E+00  0.11368683772E-12  0.17120000000E+03  0.17120000000E+03 0.  0.
         13    1    1    2    0    0  0.30793834364E+02  0.89757754773E+00  0.24763558417E+02  0.39526078351E+02  0.10566000000E+00 0. -1.
        994    1    1    2    0    0 -0.29515656518E+02  0.41012477621E+01  0.18345784125E+02  0.17473981232E+03  0.17120000000E+03 0.  0.
        998    1    1    2    0    0 -0.12781778459E+01 -0.49988253098E+01  0.14568906537E+04  0.14569341093E+04  0.10000000000E+02 0. -1.
</event>
<event>
 5    1  0.1300052E-008  0.3730817E+03  0.7957747E-01  0.3481847E+00
         13   -1    0    0    0    0  0.00000000000E+00  0.00000000000E+00  0.14999999963E+04  0.15000000000E+04  0.10566000000E+00 0.  1.
        994   -1    0    0    0    0 -0.00000000000E+00 -0.00000000000E+00  0.11368683772E-12  0.17120000000E+03  0.17120000000E+03 0.  0.
         13    1    1    2    0    0  0.62066315796E+02 -0.23854801586E+01  0.25734087000E+03  0.26473052829E+03  0.10566000000E+00 0.  1.
        994    1    1    2    0    0 -0.31362704837E+02 -0.10312786317E+02  0.11405390528E+02  0.17472691764E+03  0.17120000000E+03 0.  0.
        998    1    1    2    0    0 -0.30703610959E+02  0.12698266475E+02  0.12312537358E+04  0.12317425541E+04  0.10000000000E+02 0.  1.
</event>
<event>
 5    1  0.1300052E-008  0.3814744E+03  0.7957747E-01  0.3444764E+00
         13   -1    0    0    0    0  0.00000000000E+00  0.00000000000E+00  0.14999999963E+04  0.15000000000E+04  0.10566000000E+00 0.  1.
        994   -1    0    0    0    0 -0.00000000000E+00 -0.00000000000E+00  0.11368683772E-12  0.17120000000E+03  0.17120000000E+03 0.  0.
         13    1    1    2    0    0  0.12370891424E+01 -0.24911983959E+02  0.10247441897E+03  0.10546636925E+03  0.10566000000E+00 0.  1.
        994    1    1    2    0    0  0.29852432771E+02 -0.35214133187E+01  0.64024747008E+01  0.17393676948E+03  0.17120000000E+03 0.  0.
        998    1    1    2    0    0 -0.31089521913E+02  0.28433397278E+02  0.13911231026E+04  0.13917968613E+04  0.10000000000E+02 0.  1.
</event>
<event>
 5    1  0.1300052E-008  0.3854373E+03  0.7957747E-01  0.3427820E+00
         13   -1    0    0    0    0  0.00000000000E+00  0.00000000000E+00  0.14999999963E+04  0.15000000000E+04  0.10566000000E+00 0.  1.
        994   -1    0    0    0    0 -0.00000000000E+00 -0.00000000000E+00  0.11368683772E-12  0.17120000000E+03  0.17120000000E+03 0.  0.
         13    1    1    2    0    0 -0.64364068318E+01  0.10813376160E+02  0.57555389477E+02  0.58915112312E+02  0.10566000000E+00 0.  1.
        994    1    1    2    0    0 -0.22916079975E+00 -0.57818045619E+01  0.15231492881E+01  0.17130452931E+03  0.17120000000E+03 0.  0.
        998    1    1    2    0    0  0.66655676315E+01 -0.50315715985E+01  0.14409214575E+04  0.14409803584E+04  0.10000000000E+02 0.  1.
</event>
<event>
 5    1  0.1300052E-008  0.3769461E+03  0.7957747E-01  0.3464565E+00
         13   -1    0    0    0    0  0.00000000000E+00  0.00000000000E+00  0.14999999963E+04  0.15000000000E+04  0.10566000000E+00 0.  1.
        994   -1    0    0    0    0 -0.00000000000E+00 -0.00000000000E+00  0.11368683772E-12  0.17120000000E+03  0.17120000000E+03 0.  0.
         13    1    1    2    0    0 -0.15489124257E+02 -0.30814524501E+02  0.11722626956E+03  0.12219434246E+03  0.10566000000E+00 0.  1.
        994    1    1    2    0    0  0.20831967537E+01 -0.78017066028E+01  0.59029768912E+01  0.17149195745E+03  0.17120000000E+03 0.  0.
        998    1    1    2    0    0  0.13405927503E+02  0.38616231104E+02  0.13768707498E+04  0.13775137001E+04  0.10000000000E+02 0.  1.
</event>
<event>
 5    1  0.1300052E-008  0.3847916E+03  0.7957747E-01  0.3430556E+00
         13   -1    0    0    0    0  0.00000000000E+00  0.00000000000E+00  0.14999999963E+04  0.15000000000E+04  0.10566000000E+00 0.  1.
        994   -1    0    0    0    0 -0.00000000000E+00 -0.00000000000E+00  0.11368683772E-12  0.17120000000E+03  0.17120000000E+03 0.  0.
         13    1    1    2    0    0 -0.19244895191E+02 -0.16757255843E+00  0.11303286554E+03  0.11465964385E+03  0.10566000000E+00 0.  1.
        994    1    1    2    0    0  0.52558873420E+01 -0.32595730565E+01  0.18595142598E+01  0.17132176441E+03  0.17120000000E+03 0.  0.
        998    1    1    2    0    0  0.13989007849E+02  0.34271456150E+01  0.13851076165E+04  0.13852185917E+04  0.10000000000E+02 0.  1.
</event>
<event>
 5    1  0.1300052E-008  0.3766910E+03  0.7957747E-01  0.3465694E+00
         13   -1    0    0    0    0  0.00000000000E+00  0.00000000000E+00  0.14999999963E+04  0.15000000000E+04  0.10566000000E+00 0.  1.
        994   -1    0    0    0    0 -0.00000000000E+00 -0.00000000000E+00  0.11368683772E-12  0.17120000000E+03  0.17120000000E+03 0.  0.
         13    1    1    2    0    0  0.32837436297E+02  0.76006459489E+01  0.88029707806E+02  0.94261909920E+02  0.10566000000E+00 0.  1.
        994    1    1    2    0    0 -0.41516345235E+02 -0.38699609103E+00  0.11661342189E+02  0.17654796399E+03  0.17120000000E+03 0.  0.
        998    1    1    2    0    0  0.86789089371E+01 -0.72136498578E+01  0.14003089463E+04  0.14003901261E+04  0.10000000000E+02 0.  1.
</event>
<event>
 5    1  0.1300052E-008  0.3840455E+03  0.7957747E-01  0.3433730E+00
         13   -1    0    0    0    0  0.00000000000E+00  0.00000000000E+00  0.14999999963E+04  0.15000000000E+04  0.10566000000E+00 0.  1.
        994   -1    0    0    0    0 -0.00000000000E+00 -0.00000000000E+00  0.11368683772E-12  0.17120000000E+03  0.17120000000E+03 0.  0.
         13    1    1    2    0    0 -0.20416257825E+02  0.67367855833E+01  0.10384151936E+03  0.10604376536E+03  0.10566000000E+00 0.  1.
        994    1    1    2    0    0  0.28058565752E+02  0.16019321899E+02  0.55560443304E+01  0.17431067499E+03  0.17120000000E+03 0.  0.
        998    1    1    2    0    0 -0.76423079268E+01 -0.22756107482E+02  0.13906024326E+04  0.13908455597E+04  0.10000000000E+02 0.  1.
</event>
<event>
 5    1  0.1300052E-008  0.3844275E+03  0.7957747E-01  0.3432104E+00
         13   -1    0    0    0    0  0.00000000000E+00  0.00000000000E+00  0.14999999963E+04  0.15000000000E+04  0.10566000000E+00 0.  1.
        994   -1    0    0    0    0 -0.00000000000E+00 -0.00000000000E+00  0.11368683772E-12  0.17120000000E+03  0.17120000000E+03 0.  0.
         13    1    1    2    0    0 -0.12467962347E+02  0.14438197503E+02  0.97086463949E+02  0.98942934454E+02  0.10566000000E+00 0.  1.
        994    1    1    2    0    0  0.13014015610E+01 -0.10550615483E+02  0.22870493674E+01  0.17154497873E+03  0.17120000000E+03 0.  0.
        998    1    1    2    0    0  0.11166560786E+02 -0.38875820197E+01  0.14006264830E+04  0.14007120868E+04  0.10000000000E+02 0.  1.
</event>
<event>
 5    1  0.1300052E-008  0.3838968E+03  0.7957747E-01  0.3434364E+00
         13   -1    0    0    0    0  0.00000000000E+00  0.00000000000E+00  0.14999999963E+04  0.15000000000E+04  0.10566000000E+00 0.  1.
        994   -1    0    0    0    0 -0.00000000000E+00 -0.00000000000E+00  0.11368683772E-12  0.17120000000E+03  0.17120000000E+03 0.  0.
         13    1    1    2    0    0  0.72736268610E+01  0.73509783131E+01  0.24770895954E+02  0.26843080678E+02  0.10566000000E+00 0.  1.
        994    1    1    2    0    0  0.51581523257E+01 -0.59272647993E+00  0.22678157007E+01  0.17129372682E+03  0.17120000000E+03 0.  0.
        998    1    1    2    0    0 -0.12431779187E+02 -0.67582518332E+01  0.14729612846E+04  0.14730631925E+04  0.10000000000E+02 0.  1.
</event>
<event>
 5    1  0.1300052E-008  0.3790590E+03  0.7957747E-01  0.3455266E+00
         13   -1    0    0    0    0  0.00000000000E+00  0.00000000000E+00  0.14999999963E+04  0.15000000000E+04  0.10566000000E+00 0. -1.
        994   -1    0    0    0    0 -0.00000000000E+00 -0.00000000000E+00  0.11368683772E-12  0.17120000000E+03  0.17120000000E+03 0.  0.
         13    1    1    2    0    0  0.13163148767E+02 -0.13785799465E+02  0.41193256857E+02  0.45389561871E+02  0.10566000000E+00 0. -1.
        994    1    1    2    0    0  0.13025643949E+02 -0.77183519380E+01  0.53779924479E+01  0.17195232816E+03  0.17120000000E+03 0.  0.
        998    1    1    2    0    0 -0.26188792716E+02  0.21504151403E+02  0.14534287470E+04  0.14538581100E+04  0.10000000000E+02 0. -1.
</event>
<event>
 5    1  0.1300052E-008  0.3715776E+03  0.7957747E-01  0.3488672E+00
         13   -1    0    0    0    0  0.00000000000E+00  0.00000000000E+00  0.14999999963E+04  0.15000000000E+04  0.10566000000E+00 0. -1.
        994   -1    0    0    0    0 -0.00000000000E+00 -0.00000000000E+00  0.11368683772E-12  0.17120000000E+03  0.17120000000E+03 0.  0.
         13    1    1    2    0    0  0.50602015752E+02  0.64525509137E+02  0.41561073586E+03  0.42362294586E+03  0.10566000000E+00 0. -1.
        994    1    1    2    0    0  0.43766234387E+02 -0.11138885447E+03  0.59437753898E+02  0.21717561272E+03  0.17120000000E+03 0.  0.
        998    1    1    2    0    0 -0.94368250139E+02  0.46863345334E+02  0.10249515065E+04  0.10304014414E+04  0.10000000000E+02 0. -1.
</event>
<event>
 5    1  0.1300052E-008  0.3795635E+03  0.7957747E-01  0.3453061E+00
         13   -1    0    0    0    0  0.00000000000E+00  0.00000000000E+00  0.14999999963E+04  0.15000000000E+04  0.10566000000E+00 0. -1.
        994   -1    0    0    0    0 -0.00000000000E+00 -0.00000000000E+00  0.11368683772E-12  0.17120000000E+03  0.17120000000E+03 0.  0.
         13    1    1    2    0    0  0.21172351376E+02 -0.23317697763E+01  0.47304414500E+02  0.51878939931E+02  0.10566000000E+00 0. -1.
        994    1    1    2    0    0 -0.32827839983E+02 -0.65951636623E+01  0.81161321871E+01  0.17463239924E+03  0.17120000000E+03 0.  0.
        998    1    1    2    0    0  0.11655488607E+02  0.89269334385E+01  0.14445794496E+04  0.14446886608E+04  0.10000000000E+02 0. -1.
</event>
<event>
 5    1  0.1300052E-008  0.3851239E+03  0.7957747E-01  0.3429147E+00
         13   -1    0    0    0    0  0.00000000000E+00  0.00000000000E+00  0.14999999963E+04  0.15000000000E+04  0.10566000000E+00 0. -1.
        994   -1    0    0    0    0 -0.00000000000E+00 -0.00000000000E+00  0.11368683772E-12  0.17120000000E+03  0.17120000000E+03 0.  0.
         13    1    1    2    0    0  0.44905501680E+01  0.93341320478E+01  0.33865045183E+02  0.35413888676E+02  0.10566000000E+00 0. -1.
        994    1    1    2    0    0 -0.30418666042E+01 -0.77080491186E+01  0.17944254272E+01  0.17140982159E+03  0.17120000000E+03 0.  0.
        998    1    1    2    0    0 -0.14486835638E+01 -0.16260829292E+01  0.14643405257E+04  0.14643762897E+04  0.10000000000E+02 0. -1.
</event>
<event>
 5    1  0.1300052E-008  0.3848216E+03  0.7957747E-01  0.3430429E+00
         13   -1    0    0    0    0  0.00000000000E+00  0.00000000000E+00  0.14999999963E+04  0.15000000000E+04  0.10566000000E+00 0. -1.
        994   -1    0    0    0    0 -0.00000000000E+00 -0.00000000000E+00  0.11368683772E-12  0.17120000000E+03  0.17120000000E+03 0.  0.
         13    1    1    2    0    0 -0.10759106402E+02 -0.23684272500E+01  0.34118029199E+02  0.35852739068E+02  0.10566000000E+00 0. -1.
        994    1    1    2    0    0  0.13765437185E+02 -0.98391820338E-01  0.23425561734E+01  0.17176852014E+03  0.17120000000E+03 0.  0.
        998    1    1    2    0    0 -0.30063307827E+01  0.24668190704E+01  0.14635394109E+04  0.14635787408E+04  0.10000000000E+02 0. -1.
</event>
<event>
 5    1  0.1300052E-008  0.3746811E+03  0.7957747E-01  0.3474650E+00
         13   -1    0    0    0    0  0.00000000000E+00  0.00000000000E+00  0.14999999963E+04  0.15000000000E+04  0.10566000000E+00 0.  1.
        994   -1    0    0    0    0 -0.00000000000E+00 -0.00000000000E+00  0.11368683772E-12  0.17120000000E+03  0.17120000000E+03 0.  0.
         13    1    1    2    0    0 -0.62302192919E+02  0.15839575845E+02  0.15313223304E+03  0.16607813632E+03  0.10566000000E+00 0.  1.
        994    1    1    2    0    0  0.10935200538E+02 -0.10390716423E+03  0.53328270872E+02  0.20753221886E+03  0.17120000000E+03 0.  0.
        998    1    1    2    0    0  0.51366992380E+02  0.88067588384E+02  0.12935394924E+04  0.12975896448E+04  0.10000000000E+02 0. -1.
</event>
<event>
 5    1  0.1300052E-008  0.3827724E+03  0.7957747E-01  0.3439175E+00
         13   -1    0    0    0    0  0.00000000000E+00  0.00000000000E+00  0.14999999963E+04  0.15000000000E+04  0.10566000000E+00 0.  1.
        994   -1    0    0    0    0 -0.00000000000E+00 -0.00000000000E+00  0.11368683772E-12  0.17120000000E+03  0.17120000000E+03 0.  0.
         13    1    1    2    0    0 -0.32413328388E+02  0.20475929844E+02  0.22324409697E+03  0.22651230774E+03  0.10566000000E+00 0.  1.
        994    1    1    2    0    0  0.32394921572E+02 -0.27030677954E+02  0.86593092304E+01  0.17653473350E+03  0.17120000000E+03 0.  0.
        998    1    1    2    0    0  0.18406815954E-01  0.65547481100E+01  0.12680965901E+04  0.12681529588E+04  0.10000000000E+02 0.  1.
</event>
<event>
 5    1  0.1300052E-008  0.3806805E+03  0.7957747E-01  0.3448201E+00
         13   -1    0    0    0    0  0.00000000000E+00  0.00000000000E+00  0.14999999963E+04  0.15000000000E+04  0.10566000000E+00 0. -1.
        994   -1    0    0    0    0 -0.00000000000E+00 -0.00000000000E+00  0.11368683772E-12  0.17120000000E+03  0.17120000000E+03 0.  0.
         13    1    1    2    0    0  0.30392079580E+02 -0.14473639906E+02  0.15308688073E+03  0.15674427890E+03  0.10566000000E+00 0. -1.
        994    1    1    2    0    0 -0.13186987844E+02  0.71381803876E+01  0.45403325234E+01  0.17191540038E+03  0.17120000000E+03 0.  0.
        998    1    1    2    0    0 -0.17205091736E+02  0.73354595189E+01  0.13423727830E+04  0.13425403207E+04  0.10000000000E+02 0. -1.
</event>
<event>
 5    1  0.1300052E-008  0.3847430E+03  0.7957747E-01  0.3430763E+00
         13   -1    0    0    0    0  0.00000000000E+00  0.00000000000E+00  0.14999999963E+04  0.15000000000E+04  0.10566000000E+00 0. -1.
        994   -1    0    0    0    0 -0.00000000000E+00 -0.00000000000E+00  0.11368683772E-12  0.17120000000E+03  0.17120000000E+03 0.  0.
         13    1    1    2    0    0 -0.11512668218E+02  0.14600077395E+02  0.10496047601E+03  0.10659463625E+03  0.10566000000E+00 0. -1.
        994    1    1    2    0    0  0.45319361149E+01 -0.79740407719E+00  0.18274798313E+01  0.17127157961E+03  0.17120000000E+03 0.  0.
        998    1    1    2    0    0  0.69807321030E+01 -0.13802673318E+02  0.13932120404E+04  0.13933337841E+04  0.10000000000E+02 0. -1.
</event>
<event>
 5    1  0.1300052E-008  0.3747794E+03  0.7957747E-01  0.3474210E+00
         13   -1    0    0    0    0  0.00000000000E+00  0.00000000000E+00  0.14999999963E+04  0.15000000000E+04  0.10566000000E+00 0.  1.
        994   -1    0    0    0    0 -0.00000000000E+00 -0.00000000000E+00  0.11368683772E-12  0.17120000000E+03  0.17120000000E+03 0.  0.
         13    1    1    2    0    0  0.79207061637E+02  0.26232776190E+02  0.38404658112E+03  0.39300598569E+03  0.10566000000E+00 0.  1.
        994    1    1    2    0    0 -0.80343218706E+02 -0.17052624864E+02  0.30097625581E+02  0.19225278118E+03  0.17120000000E+03 0.  0.
        998    1    1    2    0    0  0.11361570686E+01 -0.91801513261E+01  0.10858557896E+04  0.10859412331E+04  0.10000000000E+02 0.  0.
</event>
<event>
 5    1  0.1300052E-008  0.3738471E+03  0.7957747E-01  0.3478395E+00
         13   -1    0    0    0    0  0.00000000000E+00  0.00000000000E+00  0.14999999963E+04  0.15000000000E+04  0.10566000000E+00 0.  1.
        994   -1    0    0    0    0 -0.00000000000E+00 -0.00000000000E+00  0.11368683772E-12  0.17120000000E+03  0.17120000000E+03 0.  0.
         13    1    1    2    0    0  0.33162295854E+02  0.49097888691E+02  0.20234251071E+03  0.21083842947E+03  0.10566000000E+00 0.  1.
        994    1    1    2    0    0 -0.38550662629E+02 -0.50659373082E+02  0.21229610316E+02  0.18388219605E+03  0.17120000000E+03 0.  0.
        998    1    1    2    0    0  0.53883667751E+01  0.15614843914E+01  0.12764278753E+04  0.12764793745E+04  0.10000000000E+02 0.  1.
</event>
<event>
 5    1  0.1300052E-008  0.3821792E+03  0.7957747E-01  0.3441724E+00
         13   -1    0    0    0    0  0.00000000000E+00  0.00000000000E+00  0.14999999963E+04  0.15000000000E+04  0.10566000000E+00 0. -1.
        994   -1    0    0    0    0 -0.00000000000E+00 -0.00000000000E+00  0.11368683772E-12  0.17120000000E+03  0.17120000000E+03 0.  0.
         13    1    1    2    0    0 -0.16792801034E+02 -0.20609037972E+02  0.12293462939E+03  0.12577624927E+03  0.10566000000E+00 0. -1.
        994    1    1    2    0    0  0.79414142894E+01  0.19706506606E+01  0.32593525778E+01  0.17142640667E+03  0.17120000000E+03 0.  0.
        998    1    1    2    0    0  0.88513867446E+01  0.18638387312E+02  0.13738060143E+04  0.13739973441E+04  0.10000000000E+02 0. -1.
</event>
<event>
 5    1  0.1300052E-008  0.3742425E+03  0.7957747E-01  0.3476618E+00
         13   -1    0    0    0    0  0.00000000000E+00  0.00000000000E+00  0.14999999963E+04  0.15000000000E+04  0.10566000000E+00 0.  1.
        994   -1    0    0    0    0 -0.00000000000E+00 -0.00000000000E+00  0.11368683772E-12  0.17120000000E+03  0.17120000000E+03 0.  0.
         13    1    1    2    0    0  0.15950566842E+02 -0.56502641450E+02  0.28516455885E+03  0.29114567807E+03  0.10566000000E+00 0.  1.
        994    1    1    2    0    0  0.81296354442E-01  0.11471392241E+02  0.75168555186E+01  0.17174848636E+03  0.17120000000E+03 0.  0.
        998    1    1    2    0    0 -0.16031863196E+02  0.45031249209E+02  0.12073185819E+04  0.12083058356E+04  0.10000000000E+02 0. -1.
</event>
<event>
 5    1  0.1300052E-008  0.3722735E+03  0.7957747E-01  0.3485507E+00
         13   -1    0    0    0    0  0.00000000000E+00  0.00000000000E+00  0.14999999963E+04  0.15000000000E+04  0.10566000000E+00 0. -1.
        994   -1    0    0    0    0 -0.00000000000E+00 -0.00000000000E+00  0.11368683772E-12  0.17120000000E+03  0.17120000000E+03 0.  0.
         13    1    1    2    0    0  0.43947630624E+02 -0.13799419638E+02  0.80520954066E+02  0.92765583206E+02  0.10566000000E+00 0. -1.
        994    1    1    2    0    0 -0.40651385931E+02  0.37919435620E+01  0.18043388977E+02  0.17692348035E+03  0.17120000000E+03 0.  0.
        998    1    1    2    0    0 -0.32962446930E+01  0.10007476076E+02  0.14014356532E+04  0.14015109364E+04  0.10000000000E+02 0. -1.
</event>
<event>
 5    1  0.1300052E-008  0.3721629E+03  0.7957747E-01  0.3486009E+00
         13   -1    0    0    0    0  0.00000000000E+00  0.00000000000E+00  0.14999999963E+04  0.15000000000E+04  0.10566000000E+00 0.  1.
        994   -1    0    0    0    0 -0.00000000000E+00 -0.00000000000E+00  0.11368683772E-12  0.17120000000E+03  0.17120000000E+03 0.  0.
         13    1    1    2    0    0  0.49291385231E+02 -0.29962449384E+02  0.24008969813E+03  0.24692197825E+03  0.10566000000E+00 0.  1.
        994    1    1    2    0    0 -0.82533711236E+01 -0.29108797961E+01  0.84057958820E+01  0.17162951017E+03  0.17120000000E+03 0.  0.
        998    1    1    2    0    0 -0.41038014107E+02  0.32873329181E+02  0.12515045023E+04  0.12526485116E+04  0.10000000000E+02 0.  1.
</event>
<event>
 5    1  0.1300052E-008  0.3689846E+03  0.7957747E-01  0.3500570E+00
         13   -1    0    0    0    0  0.00000000000E+00  0.00000000000E+00  0.14999999963E+04  0.15000000000E+04  0.10566000000E+00 0.  1.
        994   -1    0    0    0    0 -0.00000000000E+00 -0.00000000000E+00  0.11368683772E-12  0.17120000000E+03  0.17120000000E+03 0.  0.
         13    1    1    2    0    0  0.65609849901E+00  0.12827929920E+03  0.61274727877E+03  0.62603134736E+03  0.10566000000E+00 0.  1.
        994    1    1    2    0    0 -0.87900969254E+01 -0.10624315707E+03  0.50339641999E+02  0.20786628823E+03  0.17120000000E+03 0.  0.
        998    1    1    2    0    0  0.81339984264E+01 -0.22036142131E+02  0.83691307551E+03  0.83730236441E+03  0.10000000000E+02 0.  1.
</event>
<event>
 5    1  0.1300052E-008  0.3686935E+03  0.7957747E-01  0.3501917E+00
         13   -1    0    0    0    0  0.00000000000E+00  0.00000000000E+00  0.14999999963E+04  0.15000000000E+04  0.10566000000E+00 0. -1.
        994   -1    0    0    0    0 -0.00000000000E+00 -0.00000000000E+00  0.11368683772E-12  0.17120000000E+03  0.17120000000E+03 0.  0.
         13    1    1    2    0    0 -0.57414404349E+02 -0.75651593631E+02  0.45450908628E+03  0.46432542265E+03  0.10566000000E+00 0. -1.
        994    1    1    2    0    0  0.99508836891E+01  0.61612594170E+02  0.23607254376E+02  0.18374404563E+03  0.17120000000E+03 0.  0.
        998    1    1    2    0    0  0.47463520660E+02  0.14038999461E+02  0.10218836556E+04  0.10231305317E+04  0.10000000000E+02 0. -1.
</event>
<event>
 5    1  0.1300052E-008  0.2473073E+03  0.7957747E-01  0.4362866E+00
         13   -1    0    0    0    0  0.00000000000E+00  0.00000000000E+00  0.14999999963E+04  0.15000000000E+04  0.10566000000E+00 0.  1.
        994   -1    0    0    0    0 -0.00000000000E+00 -0.00000000000E+00  0.11368683772E-12  0.17120000000E+03  0.17120000000E+03 0.  0.
         13    1    1    2    0    0 -0.17636415526E+03 -0.52051633392E+02  0.32758048173E+03  0.37566297525E+03  0.10566000000E+00 0.  1.
        994    1    1    2    0    0  0.12630307351E+03  0.33683792053E+02  0.12975399567E+03  0.25146093855E+03  0.17120000000E+03 0.  0.
        998    1    1    2    0    0  0.50061081754E+02  0.18367841339E+02  0.10426655189E+04  0.10440760862E+04  0.10000000000E+02 0. -1.
</event>
<event>
 5    1  0.1300052E-008  0.3815875E+03  0.7957747E-01  0.3444275E+00
         13   -1    0    0    0    0  0.00000000000E+00  0.00000000000E+00  0.14999999963E+04  0.15000000000E+04  0.10566000000E+00 0.  1.
        994   -1    0    0    0    0 -0.00000000000E+00 -0.00000000000E+00  0.11368683772E-12  0.17120000000E+03  0.17120000000E+03 0.  0.
         13    1    1    2    0    0  0.78136561413E+01 -0.27741696773E+02  0.11159922663E+03  0.11526080648E+03  0.10566000000E+00 0.  1.
        994    1    1    2    0    0 -0.96808080418E+01  0.33192751941E+02  0.73196795866E+01  0.17480988111E+03  0.17120000000E+03 0.  0.
        998    1    1    2    0    0  0.18671519004E+01 -0.54510551680E+01  0.13810810901E+04  0.13811293124E+04  0.10000000000E+02 0.  1.
</event>
<event>
 5    1  0.1300052E-008  0.3807697E+03  0.7957747E-01  0.3447814E+00
         13   -1    0    0    0    0  0.00000000000E+00  0.00000000000E+00  0.14999999963E+04  0.15000000000E+04  0.10566000000E+00 0.  1.
        994   -1    0    0    0    0 -0.00000000000E+00 -0.00000000000E+00  0.11368683772E-12  0.17120000000E+03  0.17120000000E+03 0.  0.
         13    1    1    2    0    0 -0.38253232911E+02 -0.12163389879E+02  0.21544806821E+03  0.21915551360E+03  0.10566000000E+00 0.  1.
        994    1    1    2    0    0  0.20876836198E+02  0.75703101581E+01  0.53912208077E+01  0.17271843314E+03  0.17120000000E+03 0.  0.
        998    1    1    2    0    0  0.17376396713E+02  0.45930797210E+01  0.12791607073E+04  0.12793260533E+04  0.10000000000E+02 0.  1.
</event>
<event>
 5    1  0.1300052E-008  0.3818114E+03  0.7957747E-01  0.3443309E+00
         13   -1    0    0    0    0  0.00000000000E+00  0.00000000000E+00  0.14999999963E+04  0.15000000000E+04  0.10566000000E+00 0.  1.
        994   -1    0    0    0    0 -0.00000000000E+00 -0.00000000000E+00  0.11368683772E-12  0.17120000000E+03  0.17120000000E+03 0.  0.
         13    1    1    2    0    0 -0.10183009567E+02  0.23348009926E+02  0.97175160227E+02  0.10045818125E+03  0.10566000000E+00 0.  1.
        994    1    1    2    0    0  0.87459483763E+01 -0.18127782602E+02  0.45688790542E+01  0.17243962065E+03  0.17120000000E+03 0.  0.
        998    1    1    2    0    0  0.14370611907E+01 -0.52202273236E+01  0.13982559570E+04  0.13983021981E+04  0.10000000000E+02 0.  1.
</event>
<event>
 5    1  0.1300052E-008  0.3760395E+03  0.7957747E-01  0.3468587E+00
         13   -1    0    0    0    0  0.00000000000E+00  0.00000000000E+00  0.14999999963E+04  0.15000000000E+04  0.10566000000E+00 0.  1.
        994   -1    0    0    0    0 -0.00000000000E+00 -0.00000000000E+00  0.11368683772E-12  0.17120000000E+03  0.17120000000E+03 0.  0.
         13    1    1    2    0    0 -0.16399311421E+02  0.36986991299E+02  0.14201270781E+03  0.14766379138E+03  0.10566000000E+00 0.  1.
        994    1    1    2    0    0 -0.78290210890E+01 -0.13098409904E+02  0.69350369008E+01  0.17201859391E+03  0.17120000000E+03 0.  0.
        998    1    1    2    0    0  0.24228332510E+02 -0.23888581396E+02  0.13510522516E+04  0.13515176147E+04  0.10000000000E+02 0.  1.
</event>
<event>
 5    1  0.1300052E-008  0.3844635E+03  0.7957747E-01  0.3431951E+00
         13   -1    0    0    0    0  0.00000000000E+00  0.00000000000E+00  0.14999999963E+04  0.15000000000E+04  0.10566000000E+00 0. -1.
        994   -1    0    0    0    0 -0.00000000000E+00 -0.00000000000E+00  0.11368683772E-12  0.17120000000E+03  0.17120000000E+03 0.  0.
         13    1    1    2    0    0 -0.20633559484E+02  0.11001882850E+02  0.12668024251E+03  0.12882034082E+03  0.10566000000E+00 0. -1.
        994    1    1    2    0    0  0.23836702898E+02 -0.19476192574E+02  0.50244279890E+01  0.17401780184E+03  0.17120000000E+03 0.  0.
        998    1    1    2    0    0 -0.32031434139E+01  0.84743097237E+01  0.13682953258E+04  0.13683618573E+04  0.10000000000E+02 0. -1.
</event>
<event>
 5    1  0.2252944E-008  0.3860760E+03  0.7957747E-01  0.3425122E+00
         13   -1    0    0    0    0  0.00000000000E+00  0.00000000000E+00  0.14999999963E+04  0.15000000000E+04  0.10566000000E+00 0. -1.
        994   -1    0    0    0    0 -0.00000000000E+00 -0.00000000000E+00  0.11368683772E-12  0.17120000000E+03  0.17120000000E+03 0.  0.
         13    1    1    2    0    0  0.72040283072E+01  0.81653073525E+01  0.61448396349E+02  0.62405823814E+02  0.10566000000E+00 0. -1.
        994    1    1    2    0    0  0.64764253428E+01  0.46934335707E+01  0.13065486021E+01  0.17139171355E+03  0.17120000000E+03 0.  0.
        998    1    1    2    0    0 -0.13680453650E+02 -0.12858740923E+02  0.14372450513E+04  0.14374024626E+04  0.10000000000E+02 0. -1.
</event>
<event>
 5    1  0.1300052E-008  0.3822542E+03  0.7957747E-01  0.3441402E+00
         13   -1    0    0    0    0  0.00000000000E+00  0.00000000000E+00  0.14999999963E+04  0.15000000000E+04  0.10566000000E+00 0.  1.
        994   -1    0    0    0    0 -0.00000000000E+00 -0.00000000000E+00  0.11368683772E-12  0.17120000000E+03  0.17120000000E+03 0.  0.
         13    1    1    2    0    0 -0.34760165815E+02 -0.14680946232E+02  0.20603927780E+03  0.20946597450E+03  0.10566000000E+00 0.  1.
        994    1    1    2    0    0  0.31201720554E+02  0.24273016476E+02  0.82024049618E+01  0.17589612316E+03  0.17120000000E+03 0.  0.
        998    1    1    2    0    0  0.35584452607E+01 -0.95920702444E+01  0.12857583135E+04  0.12858379023E+04  0.10000000000E+02 0.  1.
</event>
<event>
 5    1  0.1300052E-008  0.3836774E+03  0.7957747E-01  0.3435301E+00
         13   -1    0    0    0    0  0.00000000000E+00  0.00000000000E+00  0.14999999963E+04  0.15000000000E+04  0.10566000000E+00 0.  1.
        994   -1    0    0    0    0 -0.00000000000E+00 -0.00000000000E+00  0.11368683772E-12  0.17120000000E+03  0.17120000000E+03 0.  0.
         13    1    1    2    0    0 -0.99915739740E+01 -0.49876557266E+00  0.22192395494E+02  0.24343251619E+02  0.10566000000E+00 0.  1.
        994    1    1    2    0    0 -0.77763181299E+01 -0.46583437959E+01  0.25596754599E+01  0.17145892578E+03  0.17120000000E+03 0.  0.
        998    1    1    2    0    0  0.17767892104E+02  0.51571093686E+01  0.14752479253E+04  0.14753978226E+04  0.10000000000E+02 0.  1.
</event>
<event>
 5    1  0.1300052E-008  0.3789335E+03  0.7957747E-01  0.3455815E+00
         13   -1    0    0    0    0  0.00000000000E+00  0.00000000000E+00  0.14999999963E+04  0.15000000000E+04  0.10566000000E+00 0. -1.
        994   -1    0    0    0    0 -0.00000000000E+00 -0.00000000000E+00  0.11368683772E-12  0.17120000000E+03  0.17120000000E+03 0.  0.
         13    1    1    2    0    0  0.41001013974E+02  0.33564318955E+00  0.22838606514E+03  0.23203750067E+03  0.10566000000E+00 0. -1.
        994    1    1    2    0    0  0.77769732814E+01 -0.87709135551E+00  0.48779842461E+01  0.17144820015E+03  0.17120000000E+03 0.  0.
        998    1    1    2    0    0 -0.48777987256E+02  0.54144816596E+00  0.12667359469E+04  0.12677142992E+04  0.10000000000E+02 0. -1.
</event>
<event>
 5    1  0.1300052E-008  0.3828390E+03  0.7957747E-01  0.3438889E+00
         13   -1    0    0    0    0  0.00000000000E+00  0.00000000000E+00  0.14999999963E+04  0.15000000000E+04  0.10566000000E+00 0.  1.
        994   -1    0    0    0    0 -0.00000000000E+00 -0.00000000000E+00  0.11368683772E-12  0.17120000000E+03  0.17120000000E+03 0.  0.
         13    1    1    2    0    0 -0.54140634947E+01  0.19344342797E+02  0.73619231609E+02  0.76310668380E+02  0.10566000000E+00 0.  1.
        994    1    1    2    0    0  0.64161697691E+01 -0.11816767707E+02  0.33058815417E+01  0.17175905241E+03  0.17120000000E+03 0.  0.
        998    1    1    2    0    0 -0.10021062744E+01 -0.75275750903E+01  0.14230748831E+04  0.14231302792E+04  0.10000000000E+02 0.  1.
</event>
<event>
 5    1  0.1300052E-008  0.3816608E+03  0.7957747E-01  0.3443959E+00
         13   -1    0    0    0    0  0.00000000000E+00  0.00000000000E+00  0.14999999963E+04  0.15000000000E+04  0.10566000000E+00 0.  1.
        994   -1    0    0    0    0 -0.00000000000E+00 -0.00000000000E+00  0.11368683772E-12  0.17120000000E+03  0.17120000000E+03 0.  0.
         13    1    1    2    0    0  0.76450058084E+01  0.24326343989E+02  0.94608182886E+02  0.97984368951E+02  0.10566000000E+00 0.  1.
        994    1    1    2    0    0  0.99049069103E+01 -0.25604261279E+02  0.58069410549E+01  0.17348442564E+03  0.17120000000E+03 0.  0.
        998    1    1    2    0    0 -0.17549912719E+02  0.12779172903E+01  0.13995848723E+04  0.13997312054E+04  0.10000000000E+02 0.  1.
</event>
<event>
 5    1  0.1300052E-008  0.3693389E+03  0.7957747E-01  0.3498935E+00
         13   -1    0    0    0    0  0.00000000000E+00  0.00000000000E+00  0.14999999963E+04  0.15000000000E+04  0.10566000000E+00 0.  1.
        994   -1    0    0    0    0 -0.00000000000E+00 -0.00000000000E+00  0.11368683772E-12  0.17120000000E+03  0.17120000000E+03 0.  0.
         13    1    1    2    0    0 -0.17707049406E+03  0.34758473766E+01  0.72733632598E+03  0.74858812684E+03  0.10566000000E+00 0.  1.
        994    1    1    2    0    0  0.19046488793E+03  0.66475809870E+02  0.16740932729E+03  0.31309939268E+03  0.17120000000E+03 0.  0.
        998    1    1    2    0    0 -0.13394393877E+02 -0.69951657247E+02  0.60525434301E+03  0.60951248048E+03  0.10000000000E+02 0. -1.
</event>
<event>
 5    1  0.1300052E-008  0.3811983E+03  0.7957747E-01  0.3445957E+00
         13   -1    0    0    0    0  0.00000000000E+00  0.00000000000E+00  0.14999999963E+04  0.15000000000E+04  0.10566000000E+00 0. -1.
        994   -1    0    0    0    0 -0.00000000000E+00 -0.00000000000E+00  0.11368683772E-12  0.17120000000E+03  0.17120000000E+03 0.  0.
         13    1    1    2    0    0  0.10775297345E+02  0.45014412066E+02  0.25578769209E+03  0.25994183756E+03  0.10566000000E+00 0. -1.
        994    1    1    2    0    0 -0.95437128291E+01 -0.44260892884E+02  0.10386096427E+02  0.17739058626E+03  0.17120000000E+03 0.  0.
        998    1    1    2    0    0 -0.12315845160E+01 -0.75351918251E+00  0.12338262078E+04  0.12338675762E+04  0.10000000000E+02 0. -1.
</event>
<event>
 5    1  0.1300052E-008  0.3794080E+03  0.7957747E-01  0.3453740E+00
         13   -1    0    0    0    0  0.00000000000E+00  0.00000000000E+00  0.14999999963E+04  0.15000000000E+04  0.10566000000E+00 0.  1.
        994   -1    0    0    0    0 -0.00000000000E+00 -0.00000000000E+00  0.11368683772E-12  0.17120000000E+03  0.17120000000E+03 0.  0.
         13    1    1    2    0    0 -0.17872312263E+02  0.15792475186E+02  0.65971500029E+02  0.70150351377E+02  0.10566000000E+00 0.  1.
        994    1    1    2    0    0  0.69228030240E+01  0.43670960561E+01  0.46567179465E+01  0.17145880482E+03  0.17120000000E+03 0.  0.
        998    1    1    2    0    0  0.10949509239E+02 -0.20159571242E+02  0.14293717783E+04  0.14295908438E+04  0.10000000000E+02 0.  1.
</event>
<event>
 5    1  0.1300052E-008  0.3834573E+03  0.7957747E-01  0.3436242E+00
         13   -1    0    0    0    0  0.00000000000E+00  0.00000000000E+00  0.14999999963E+04  0.15000000000E+04  0.10566000000E+00 0.  1.
        994   -1    0    0    0    0 -0.00000000000E+00 -0.00000000000E+00  0.11368683772E-12  0.17120000000E+03  0.17120000000E+03 0.  0.
         13    1    1    2    0    0  0.85842927575E+01 -0.98676346973E+01  0.35791280165E+02  0.38106261907E+02  0.10566000000E+00 0.  1.
        994    1    1    2    0    0  0.15645385843E+01  0.52966671993E+01  0.24988492299E+01  0.17130728739E+03  0.17120000000E+03 0.  0.
        998    1    1    2    0    0 -0.10148831342E+02  0.45709674979E+01  0.14617098669E+04  0.14617864507E+04  0.10000000000E+02 0.  1.
</event>
<event>
 5    1  0.1300052E-008  0.3844462E+03  0.7957747E-01  0.3432024E+00
         13   -1    0    0    0    0  0.00000000000E+00  0.00000000000E+00  0.14999999963E+04  0.15000000000E+04  0.10566000000E+00 0. -1.
        994   -1    0    0    0    0 -0.00000000000E+00 -0.00000000000E+00  0.11368683772E-12  0.17120000000E+03  0.17120000000E+03 0.  0.
         13    1    1    2    0    0  0.20573155137E+00 -0.14544799648E+02  0.58645075762E+02  0.60422260777E+02  0.10566000000E+00 0. -1.
        994    1    1    2    0    0 -0.44063150815E+01 -0.96559305621E+00  0.19723849940E+01  0.17127077475E+03  0.17120000000E+03 0.  0.
        998    1    1    2    0    0  0.42005835302E+01  0.15510392704E+02  0.14393825355E+04  0.14395069645E+04  0.10000000000E+02 0. -1.
</event>
<event>
 5    1  0.1300052E-008  0.3768247E+03  0.7957747E-01  0.3465102E+00
         13   -1    0    0    0    0  0.00000000000E+00  0.00000000000E+00  0.14999999963E+04  0.15000000000E+04  0.10566000000E+00 0. -1.
        994   -1    0    0    0    0 -0.00000000000E+00 -0.00000000000E+00  0.11368683772E-12  0.17120000000E+03  0.17120000000E+03 0.  0.
         13    1    1    2    0    0 -0.67556565943E+01 -0.47887409560E+02  0.20029918971E+03  0.20605489427E+03  0.10566000000E+00 0. -1.
        994    1    1    2    0    0  0.70982431148E+01  0.28287580952E+02  0.86235895177E+01  0.17388035711E+03  0.17120000000E+03 0.  0.
        998    1    1    2    0    0 -0.34258652043E+00  0.19599828608E+02  0.12910772170E+04  0.12912647486E+04  0.10000000000E+02 0. -1.
</event>
<event>
 5    1  0.1300052E-008  0.3830696E+03  0.7957747E-01  0.3437901E+00
         13   -1    0    0    0    0  0.00000000000E+00  0.00000000000E+00  0.14999999963E+04  0.15000000000E+04  0.10566000000E+00 0.  1.
        994   -1    0    0    0    0 -0.00000000000E+00 -0.00000000000E+00  0.11368683772E-12  0.17120000000E+03  0.17120000000E+03 0.  0.
         13    1    1    2    0    0  0.15081950758E+02  0.97256220058E+01  0.66309427420E+02  0.68695009214E+02  0.10566000000E+00 0.  1.
        994    1    1    2    0    0 -0.51352715648E+01  0.13367751560E+02  0.32705044525E+01  0.17182899637E+03  0.17120000000E+03 0.  0.
        998    1    1    2    0    0 -0.99466791931E+01 -0.23093373566E+02  0.14304200644E+04  0.14306759944E+04  0.10000000000E+02 0.  1.
</event>
<event>
 5    1  0.1300052E-008  0.3852691E+03  0.7957747E-01  0.3428532E+00
         13   -1    0    0    0    0  0.00000000000E+00  0.00000000000E+00  0.14999999963E+04  0.15000000000E+04  0.10566000000E+00 0. -1.
        994   -1    0    0    0    0 -0.00000000000E+00 -0.00000000000E+00  0.11368683772E-12  0.17120000000E+03  0.17120000000E+03 0.  0.
         13    1    1    2    0    0  0.54819541654E+01  0.87485182222E+01  0.35968046807E+02  0.37420581872E+02  0.10566000000E+00 0. -1.
        994    1    1    2    0    0 -0.45616632206E+01 -0.27029018794E+01  0.15889660086E+01  0.17128946045E+03  0.17120000000E+03 0.  0.
        998    1    1    2    0    0 -0.92029094473E+00 -0.60456163428E+01  0.14624429835E+04  0.14624899577E+04  0.10000000000E+02 0. -1.
</event>
<event>
 5    1  0.1300052E-008  0.3795628E+03  0.7957747E-01  0.3453064E+00
         13   -1    0    0    0    0  0.00000000000E+00  0.00000000000E+00  0.14999999963E+04  0.15000000000E+04  0.10566000000E+00 0.  1.
        994   -1    0    0    0    0 -0.00000000000E+00 -0.00000000000E+00  0.11368683772E-12  0.17120000000E+03  0.17120000000E+03 0.  0.
         13    1    1    2    0    0  0.42908320330E+01  0.50850385645E+02  0.28392234625E+03  0.28847197927E+03  0.10566000000E+00 0.  1.
        994    1    1    2    0    0 -0.92929181085E+01 -0.33814643235E+02  0.84820352061E+01  0.17496049081E+03  0.17120000000E+03 0.  0.
        998    1    1    2    0    0  0.50020860756E+01 -0.17035742410E+02  0.12075956148E+04  0.12077675299E+04  0.10000000000E+02 0.  1.
</event>
<event>
 5    1  0.1300052E-008  0.3825523E+03  0.7957747E-01  0.3440120E+00
         13   -1    0    0    0    0  0.00000000000E+00  0.00000000000E+00  0.14999999963E+04  0.15000000000E+04  0.10566000000E+00 0.  1.
        994   -1    0    0    0    0 -0.00000000000E+00 -0.00000000000E+00  0.11368683772E-12  0.17120000000E+03  0.17120000000E+03 0.  0.
         13    1    1    2    0    0  0.26537097987E+02 -0.16932800575E+00  0.13952161192E+03  0.14202301785E+03  0.10566000000E+00 0.  1.
        994    1    1    2    0    0  0.13467859937E+01 -0.75792330580E+01  0.30467607044E+01  0.17140006230E+03  0.17120000000E+03 0.  0.
        998    1    1    2    0    0 -0.27883883981E+02  0.77485610637E+01  0.13574316237E+04  0.13577769199E+04  0.10000000000E+02 0.  1.
</event>
<event>
 5    1  0.1300052E-008  0.3852526E+03  0.7957747E-01  0.3428602E+00
         13   -1    0    0    0    0  0.00000000000E+00  0.00000000000E+00  0.14999999963E+04  0.15000000000E+04  0.10566000000E+00 0.  1.
        994   -1    0    0    0    0 -0.00000000000E+00 -0.00000000000E+00  0.11368683772E-12  0.17120000000E+03  0.17120000000E+03 0.  0.
         13    1    1    2    0    0  0.11316840619E+02 -0.10510038698E+02  0.92182637644E+02  0.93467543255E+02  0.10566000000E+00 0.  1.
        994    1    1    2    0    0  0.76258967029E+01 -0.40302031753E+01  0.17492903815E+01  0.17142606819E+03  0.17120000000E+03 0.  0.
        998    1    1    2    0    0 -0.18942737322E+02  0.14540241874E+02  0.14060680683E+04  0.14063063886E+04  0.10000000000E+02 0.  1.
</event>
<event>
 5    1  0.1300052E-008  0.3857468E+03  0.7957747E-01  0.3426511E+00
         13   -1    0    0    0    0  0.00000000000E+00  0.00000000000E+00  0.14999999963E+04  0.15000000000E+04  0.10566000000E+00 0. -1.
        994   -1    0    0    0    0 -0.00000000000E+00 -0.00000000000E+00  0.11368683772E-12  0.17120000000E+03  0.17120000000E+03 0.  0.
         13    1    1    2    0    0  0.80032968968E+02  0.36837191109E+02  0.30389279832E+03  0.31640654040E+03  0.10566000000E+00 0. -1.
        994    1    1    2    0    0  0.68137725700E+02 -0.93807400259E+02  0.71176988212E+02  0.21867368762E+03  0.17120000000E+03 0.  0.
        998    1    1    2    0    0 -0.14817069467E+03  0.56970209150E+02  0.11249302097E+04  0.11361197720E+04  0.10000000000E+02 0. -1.
</event>
<event>
 5    1  0.1300052E-008  0.3815737E+03  0.7957747E-01  0.3444335E+00
         13   -1    0    0    0    0  0.00000000000E+00  0.00000000000E+00  0.14999999963E+04  0.15000000000E+04  0.10566000000E+00 0. -1.
        994   -1    0    0    0    0 -0.00000000000E+00 -0.00000000000E+00  0.11368683772E-12  0.17120000000E+03  0.17120000000E+03 0.  0.
         13    1    1    2    0    0  0.10424049137E+02  0.40185495883E-02  0.14625836038E+02  0.17960708795E+02  0.10566000000E+00 0. -1.
        994    1    1    2    0    0 -0.13704441531E+02  0.89663812965E+00  0.39683451261E+01  0.17179581904E+03  0.17120000000E+03 0.  0.
        998    1    1    2    0    0  0.32803923932E+01 -0.90065667924E+00  0.14814058151E+04  0.14814434722E+04  0.10000000000E+02 0. -1.
</event>
<event>
 5    1  0.1300052E-008  0.3819140E+03  0.7957747E-01  0.3442867E+00
         13   -1    0    0    0    0  0.00000000000E+00  0.00000000000E+00  0.14999999963E+04  0.15000000000E+04  0.10566000000E+00 0.  1.
        994   -1    0    0    0    0 -0.00000000000E+00 -0.00000000000E+00  0.11368683772E-12  0.17120000000E+03  0.17120000000E+03 0.  0.
         13    1    1    2    0    0 -0.67652562668E+01 -0.79900521399E+01  0.15932311502E+02  0.19064609605E+02  0.10566000000E+00 0.  1.
        994    1    1    2    0    0  0.77382750236E+01  0.49585163838E+01  0.34507257432E+01  0.17148123890E+03  0.17120000000E+03 0.  0.
        998    1    1    2    0    0 -0.97301875684E+00  0.30315357562E+01  0.14806169590E+04  0.14806541515E+04  0.10000000000E+02 0.  1.
</event>
<event>
 5    1  0.1300052E-008  0.3801763E+03  0.7957747E-01  0.3450391E+00
         13   -1    0    0    0    0  0.00000000000E+00  0.00000000000E+00  0.14999999963E+04  0.15000000000E+04  0.10566000000E+00 0.  1.
        994   -1    0    0    0    0 -0.00000000000E+00 -0.00000000000E+00  0.11368683772E-12  0.17120000000E+03  0.17120000000E+03 0.  0.
         13    1    1    2    0    0  0.49271511202E+02  0.14321915708E+02  0.26306259875E+03  0.26802003864E+03  0.10566000000E+00 0.  1.
        994    1    1    2    0    0 -0.51357395261E+02 -0.16851300304E+02  0.13867401935E+02  0.18006469173E+03  0.17120000000E+03 0.  0.
        998    1    1    2    0    0  0.20858840596E+01  0.25293845959E+01  0.12230699956E+04  0.12231152696E+04  0.10000000000E+02 0.  1.
</event>
<event>
 5    1  0.1300052E-008  0.3836126E+03  0.7957747E-01  0.3435578E+00
         13   -1    0    0    0    0  0.00000000000E+00  0.00000000000E+00  0.14999999963E+04  0.15000000000E+04  0.10566000000E+00 0. -1.
        994   -1    0    0    0    0 -0.00000000000E+00 -0.00000000000E+00  0.11368683772E-12  0.17120000000E+03  0.17120000000E+03 0.  0.
         13    1    1    2    0    0 -0.11865107213E+02 -0.32927451024E+00  0.29509503427E+02  0.31807407116E+02  0.10566000000E+00 0. -1.
        994    1    1    2    0    0  0.93211178747E+01 -0.26420363210E-01  0.26075998756E+01  0.17147339010E+03  0.17120000000E+03 0.  0.
        998    1    1    2    0    0  0.25439893387E+01  0.35569487345E+00  0.14678828930E+04  0.14679192028E+04  0.10000000000E+02 0. -1.
</event>
<event>
 5    1  0.1300052E-008  0.3796881E+03  0.7957747E-01  0.3452518E+00
         13   -1    0    0    0    0  0.00000000000E+00  0.00000000000E+00  0.14999999963E+04  0.15000000000E+04  0.10566000000E+00 0.  1.
        994   -1    0    0    0    0 -0.00000000000E+00 -0.00000000000E+00  0.11368683772E-12  0.17120000000E+03  0.17120000000E+03 0.  0.
         13    1    1    2    0    0  0.14210097581E+02 -0.52845373671E+02  0.28827321505E+03  0.29342122976E+03  0.10566000000E+00 0.  1.
        994    1    1    2    0    0 -0.16530390708E+02  0.50053071917E+02  0.13645467134E+02  0.17965022293E+03  0.17120000000E+03 0.  0.
        998    1    1    2    0    0  0.23202931275E+01  0.27923017537E+01  0.11980813141E+04  0.11981285473E+04  0.10000000000E+02 0.  1.
</event>
<event>
 5    1  0.1300052E-008  0.3812348E+03  0.7957747E-01  0.3445799E+00
         13   -1    0    0    0    0  0.00000000000E+00  0.00000000000E+00  0.14999999963E+04  0.15000000000E+04  0.10566000000E+00 0. -1.
        994   -1    0    0    0    0 -0.00000000000E+00 -0.00000000000E+00  0.11368683772E-12  0.17120000000E+03  0.17120000000E+03 0.  0.
         13    1    1    2    0    0  0.77184030766E+01  0.12091728606E+02  0.28530637826E+02  0.31934183965E+02  0.10566000000E+00 0. -1.
        994    1    1    2    0    0 -0.24617666637E+01 -0.23813545639E+01  0.35501887428E+01  0.17127105706E+03  0.17120000000E+03 0.  0.
        998    1    1    2    0    0 -0.52566364129E+01 -0.97103740417E+01  0.14679191697E+04  0.14679947590E+04  0.10000000000E+02 0. -1.
</event>
<event>
 5    1  0.1300052E-008  0.3694162E+03  0.7957747E-01  0.3498578E+00
         13   -1    0    0    0    0  0.00000000000E+00  0.00000000000E+00  0.14999999963E+04  0.15000000000E+04  0.10566000000E+00 0. -1.
        994   -1    0    0    0    0 -0.00000000000E+00 -0.00000000000E+00  0.11368683772E-12  0.17120000000E+03  0.17120000000E+03 0.  0.
         13    1    1    2    0    0  0.28544092197E+02  0.24823735085E+01  0.33553431849E+02  0.44122231704E+02  0.10566000000E+00 0. -1.
        994    1    1    2    0    0 -0.28739205557E+02 -0.49807529068E+01  0.13604301188E+02  0.17419892895E+03  0.17120000000E+03 0.  0.
        998    1    1    2    0    0  0.19511335969E+00  0.24983793984E+01  0.14528422632E+04  0.14528788393E+04  0.10000000000E+02 0. -1.
</event>
<event>
 5    1  0.1300052E-008  0.3832876E+03  0.7957747E-01  0.3436967E+00
         13   -1    0    0    0    0  0.00000000000E+00  0.00000000000E+00  0.14999999963E+04  0.15000000000E+04  0.10566000000E+00 0.  1.
        994   -1    0    0    0    0 -0.00000000000E+00 -0.00000000000E+00  0.11368683772E-12  0.17120000000E+03  0.17120000000E+03 0.  0.
         13    1    1    2    0    0  0.59158803221E+01  0.21144915179E+02  0.95394600182E+02  0.97888947209E+02  0.10566000000E+00 0.  1.
        994    1    1    2    0    0  0.26216885706E+01 -0.16805340863E+02  0.34399665345E+01  0.17207720971E+03  0.17120000000E+03 0.  0.
        998    1    1    2    0    0 -0.85375688927E+01 -0.43395743159E+01  0.14011654296E+04  0.14012338431E+04  0.10000000000E+02 0.  1.
</event>
<event>
 5    1  0.1300052E-008  0.3740374E+03  0.7957747E-01  0.3477539E+00
         13   -1    0    0    0    0  0.00000000000E+00  0.00000000000E+00  0.14999999963E+04  0.15000000000E+04  0.10566000000E+00 0. -1.
        994   -1    0    0    0    0 -0.00000000000E+00 -0.00000000000E+00  0.11368683772E-12  0.17120000000E+03  0.17120000000E+03 0.  0.
         13    1    1    2    0    0  0.71171671644E+02  0.65057654659E+01  0.17203820643E+03  0.18629247828E+03  0.10566000000E+00 0. -1.
        994    1    1    2    0    0 -0.68212211338E+02 -0.25379977621E+01  0.29802441999E+02  0.18670022163E+03  0.17120000000E+03 0.  0.
        998    1    1    2    0    0 -0.29594603061E+01 -0.39677677038E+01  0.12981593479E+04  0.12982073001E+04  0.10000000000E+02 0. -1.
</event>
<event>
 5    1  0.1300052E-008  0.3828848E+03  0.7957747E-01  0.3438693E+00
         13   -1    0    0    0    0  0.00000000000E+00  0.00000000000E+00  0.14999999963E+04  0.15000000000E+04  0.10566000000E+00 0.  1.
        994   -1    0    0    0    0 -0.00000000000E+00 -0.00000000000E+00  0.11368683772E-12  0.17120000000E+03  0.17120000000E+03 0.  0.
         13    1    1    2    0    0 -0.15585349610E+02 -0.16234380436E+00  0.43276909990E+02  0.45998169314E+02  0.10566000000E+00 0.  1.
        994    1    1    2    0    0  0.16548731770E+02  0.12300403220E+01  0.35963332985E+01  0.17203995796E+03  0.17120000000E+03 0.  0.
        998    1    1    2    0    0 -0.96338215967E+00 -0.10676965177E+01  0.14531267530E+04  0.14531618727E+04  0.10000000000E+02 0.  1.
</event>
<event>
 5    1  0.1300052E-008  0.3782092E+03  0.7957747E-01  0.3458993E+00
         13   -1    0    0    0    0  0.00000000000E+00  0.00000000000E+00  0.14999999963E+04  0.15000000000E+04  0.10566000000E+00 0. -1.
        994   -1    0    0    0    0 -0.00000000000E+00 -0.00000000000E+00  0.11368683772E-12  0.17120000000E+03  0.17120000000E+03 0.  0.
         13    1    1    2    0    0 -0.24980185059E+02 -0.76344178545E+01  0.61739733789E+02  0.67038047957E+02  0.10566000000E+00 0. -1.
        994    1    1    2    0    0  0.37096287799E+02 -0.67314756987E+01  0.98348674211E+01  0.17557793697E+03  0.17120000000E+03 0.  0.
        998    1    1    2    0    0 -0.12116102739E+02  0.14365893553E+02  0.14284253951E+04  0.14285840151E+04  0.10000000000E+02 0. -1.
</event>
<event>
 5    1  0.1300052E-008  0.3854959E+03  0.7957747E-01  0.3427572E+00
         13   -1    0    0    0    0  0.00000000000E+00  0.00000000000E+00  0.14999999963E+04  0.15000000000E+04  0.10566000000E+00 0. -1.
        994   -1    0    0    0    0 -0.00000000000E+00 -0.00000000000E+00  0.11368683772E-12  0.17120000000E+03  0.17120000000E+03 0.  0.
         13    1    1    2    0    0  0.15061881949E+01 -0.12507021780E+02  0.59070674309E+02  0.60399088768E+02  0.10566000000E+00 0. -1.
        994    1    1    2    0    0  0.25127847923E+01  0.49134727946E+01  0.14841408308E+01  0.17129535597E+03  0.17120000000E+03 0.  0.
        998    1    1    2    0    0 -0.40189729872E+01  0.75935489859E+01  0.14394451811E+04  0.14395055553E+04  0.10000000000E+02 0. -1.
</event>
<event>
 5    1  0.1300052E-008  0.3829904E+03  0.7957747E-01  0.3438240E+00
         13   -1    0    0    0    0  0.00000000000E+00  0.00000000000E+00  0.14999999963E+04  0.15000000000E+04  0.10566000000E+00 0. -1.
        994   -1    0    0    0    0 -0.00000000000E+00 -0.00000000000E+00  0.11368683772E-12  0.17120000000E+03  0.17120000000E+03 0.  0.
         13    1    1    2    0    0  0.78316818993E+01  0.10389147573E+02  0.30780755516E+02  0.33417595707E+02  0.10566000000E+00 0. -1.
        994    1    1    2    0    0 -0.35728355323E+01 -0.13973759464E+02  0.33200836783E+01  0.17183856978E+03  0.17120000000E+03 0.  0.
        998    1    1    2    0    0 -0.42588463670E+01  0.35846118911E+01  0.14658991571E+04  0.14659438345E+04  0.10000000000E+02 0. -1.
</event>
<event>
 5    1  0.1300052E-008  0.3793770E+03  0.7957747E-01  0.3453875E+00
         13   -1    0    0    0    0  0.00000000000E+00  0.00000000000E+00  0.14999999963E+04  0.15000000000E+04  0.10566000000E+00 0. -1.
        994   -1    0    0    0    0 -0.00000000000E+00 -0.00000000000E+00  0.11368683772E-12  0.17120000000E+03  0.17120000000E+03 0.  0.
         13    1    1    2    0    0 -0.27535169445E+02  0.27571855245E+02  0.14757977911E+03  0.15263746304E+03  0.10566000000E+00 0. -1.
        994    1    1    2    0    0  0.41940225913E+02 -0.23048550270E+02  0.12158255347E+02  0.17817822929E+03  0.17120000000E+03 0.  0.
        998    1    1    2    0    0 -0.14405056469E+02 -0.45233049744E+01  0.13402619618E+04  0.13403843077E+04  0.10000000000E+02 0. -1.
</event>
<event>
 5    1  0.1300052E-008  0.3780423E+03  0.7957747E-01  0.3459727E+00
         13   -1    0    0    0    0  0.00000000000E+00  0.00000000000E+00  0.14999999963E+04  0.15000000000E+04  0.10566000000E+00 0. -1.
        994   -1    0    0    0    0 -0.00000000000E+00 -0.00000000000E+00  0.11368683772E-12  0.17120000000E+03  0.17120000000E+03 0.  0.
         13    1    1    2    0    0  0.10449746410E+02 -0.27515186654E+02  0.10081167485E+03  0.10502041538E+03  0.10566000000E+00 0. -1.
        994    1    1    2    0    0  0.22303409055E+02 -0.15902359717E+02  0.76534046348E+01  0.17354636759E+03  0.17120000000E+03 0.  0.
        998    1    1    2    0    0 -0.32753155465E+02  0.43417546371E+02  0.13915349168E+04  0.13926332170E+04  0.10000000000E+02 0. -1.
</event>
<event>
 5    1  0.1300052E-008  0.3843605E+03  0.7957747E-01  0.3432389E+00
         13   -1    0    0    0    0  0.00000000000E+00  0.00000000000E+00  0.14999999963E+04  0.15000000000E+04  0.10566000000E+00 0. -1.
        994   -1    0    0    0    0 -0.00000000000E+00 -0.00000000000E+00  0.11368683772E-12  0.17120000000E+03  0.17120000000E+03 0.  0.
         13    1    1    2    0    0 -0.11404665071E+02 -0.18591312253E+02  0.10743962529E+03  0.10963114303E+03  0.10566000000E+00 0. -1.
        994    1    1    2    0    0  0.16023952601E+02  0.26213226367E+02  0.50647707355E+01  0.17400859805E+03  0.17120000000E+03 0.  0.
        998    1    1    2    0    0 -0.46192875306E+01 -0.76219141131E+01  0.13874956003E+04  0.13875602589E+04  0.10000000000E+02 0. -1.
</event>
<event>
 5    1  0.1300052E-008  0.3847508E+03  0.7957747E-01  0.3430730E+00
         13   -1    0    0    0    0  0.00000000000E+00  0.00000000000E+00  0.14999999963E+04  0.15000000000E+04  0.10566000000E+00 0. -1.
        994   -1    0    0    0    0 -0.00000000000E+00 -0.00000000000E+00  0.11368683772E-12  0.17120000000E+03  0.17120000000E+03 0.  0.
         13    1    1    2    0    0  0.22418923445E+02 -0.58114169576E-01  0.13488262760E+03  0.13673311924E+03  0.10566000000E+00 0. -1.
        994    1    1    2    0    0 -0.20698558228E+02  0.72424094049E+01  0.33382543695E+01  0.17263101329E+03  0.17120000000E+03 0.  0.
        998    1    1    2    0    0 -0.17203652170E+01 -0.71842952353E+01  0.13617791143E+04  0.13618358675E+04  0.10000000000E+02 0. -1.
</event>
<event>
 5    1  0.1300052E-008  0.3761089E+03  0.7957747E-01  0.3468278E+00
         13   -1    0    0    0    0  0.00000000000E+00  0.00000000000E+00  0.14999999963E+04  0.15000000000E+04  0.10566000000E+00 0.  1.
        994   -1    0    0    0    0 -0.00000000000E+00 -0.00000000000E+00  0.11368683772E-12  0.17120000000E+03  0.17120000000E+03 0.  0.
         13    1    1    2    0    0  0.27195168006E+02 -0.31807201032E+02  0.12831130335E+03  0.13496324289E+03  0.10566000000E+00 0.  1.
        994    1    1    2    0    0 -0.13280145360E+02  0.47541106194E+02  0.14406740652E+02  0.17875545646E+03  0.17120000000E+03 0.  0.
        998    1    1    2    0    0 -0.13915022646E+02 -0.15733905163E+02  0.13572819523E+04  0.13574813006E+04  0.10000000000E+02 0.  1.
</event>
<event>
 5    1  0.1300052E-008  0.3817314E+03  0.7957747E-01  0.3443654E+00
         13   -1    0    0    0    0  0.00000000000E+00  0.00000000000E+00  0.14999999963E+04  0.15000000000E+04  0.10566000000E+00 0.  1.
        994   -1    0    0    0    0 -0.00000000000E+00 -0.00000000000E+00  0.11368683772E-12  0.17120000000E+03  0.17120000000E+03 0.  0.
         13    1    1    2    0    0 -0.60030182831E+01 -0.84780629683E+01  0.15131845550E+02  0.18354773058E+02  0.10566000000E+00 0.  1.
        994    1    1    2    0    0  0.16782899507E+02 -0.11137831832E+01  0.42025860253E+01  0.17207558792E+03  0.17120000000E+03 0.  0.
        998    1    1    2    0    0 -0.10779881224E+02  0.95918461515E+01  0.14806655647E+04  0.14807696390E+04  0.10000000000E+02 0.  1.
</event>
<event>
 5    1  0.1300052E-008  0.3772447E+03  0.7957747E-01  0.3463244E+00
         13   -1    0    0    0    0  0.00000000000E+00  0.00000000000E+00  0.14999999963E+04  0.15000000000E+04  0.10566000000E+00 0. -1.
        994   -1    0    0    0    0 -0.00000000000E+00 -0.00000000000E+00  0.11368683772E-12  0.17120000000E+03  0.17120000000E+03 0.  0.
         13    1    1    2    0    0 -0.18266716471E+02  0.39465765220E+02  0.18703701664E+03  0.19202623860E+03  0.10566000000E+00 0. -1.
        994    1    1    2    0    0  0.74964256467E+01 -0.69108137522E+01  0.58813242790E+01  0.17160415414E+03  0.17120000000E+03 0.  0.
        998    1    1    2    0    0  0.10770290824E+02 -0.32554951468E+02  0.13070816554E+04  0.13075696073E+04  0.10000000000E+02 0. -1.
</event>
<event>
 5    1  0.1300052E-008  0.3854696E+03  0.7957747E-01  0.3427683E+00
         13   -1    0    0    0    0  0.00000000000E+00  0.00000000000E+00  0.14999999963E+04  0.15000000000E+04  0.10566000000E+00 0. -1.
        994   -1    0    0    0    0 -0.00000000000E+00 -0.00000000000E+00  0.11368683772E-12  0.17120000000E+03  0.17120000000E+03 0.  0.
         13    1    1    2    0    0 -0.35963445428E+01  0.14425321580E+02  0.77934032011E+02  0.79339448613E+02  0.10566000000E+00 0. -1.
        994    1    1    2    0    0  0.21797836258E+00 -0.12690938456E+02  0.19263848914E+01  0.17168068730E+03  0.17120000000E+03 0.  0.
        998    1    1    2    0    0  0.33783661802E+01 -0.17343831234E+01  0.14201395794E+04  0.14201798641E+04  0.10000000000E+02 0. -1.
</event>
<event>
 5    1  0.1300052E-008  0.3789920E+03  0.7957747E-01  0.3455559E+00
         13   -1    0    0    0    0  0.00000000000E+00  0.00000000000E+00  0.14999999963E+04  0.15000000000E+04  0.10566000000E+00 0.  1.
        994   -1    0    0    0    0 -0.00000000000E+00 -0.00000000000E+00  0.11368683772E-12  0.17120000000E+03  0.17120000000E+03 0.  0.
         13    1    1    2    0    0  0.12155001680E+02  0.12103648767E+02  0.30711379714E+02  0.35177299318E+02  0.10566000000E+00 0.  1.
        994    1    1    2    0    0 -0.98750358264E+01  0.74585579791E+01  0.51566482409E+01  0.17172413180E+03  0.17120000000E+03 0.  0.
        998    1    1    2    0    0 -0.22799658534E+01 -0.19562206746E+02  0.14641319683E+04  0.14642985689E+04  0.10000000000E+02 0.  1.
</event>
<event>
 5    1  0.1300052E-008  0.3826102E+03  0.7957747E-01  0.3439871E+00
         13   -1    0    0    0    0  0.00000000000E+00  0.00000000000E+00  0.14999999963E+04  0.15000000000E+04  0.10566000000E+00 0. -1.
        994   -1    0    0    0    0 -0.00000000000E+00 -0.00000000000E+00  0.11368683772E-12  0.17120000000E+03  0.17120000000E+03 0.  0.
         13    1    1    2    0    0  0.17020100253E+01  0.14639361335E+02  0.40344538699E+02  0.42952307334E+02  0.10566000000E+00 0. -1.
        994    1    1    2    0    0 -0.16654892396E+01  0.82703058354E+01  0.30572379785E+01  0.17143499794E+03  0.17120000000E+03 0.  0.
        998    1    1    2    0    0 -0.36520785634E-01 -0.22909667171E+02  0.14565982196E+04  0.14568126947E+04  0.10000000000E+02 0. -1.
</event>
<event>
 5    1  0.1300052E-008  0.3808958E+03  0.7957747E-01  0.3447267E+00
         13   -1    0    0    0    0  0.00000000000E+00  0.00000000000E+00  0.14999999963E+04  0.15000000000E+04  0.10566000000E+00 0. -1.
        994   -1    0    0    0    0 -0.00000000000E+00 -0.00000000000E+00  0.11368683772E-12  0.17120000000E+03  0.17120000000E+03 0.  0.
         13    1    1    2    0    0 -0.11972864167E+02 -0.12479299599E+02  0.40659304311E+02  0.44184528808E+02  0.10566000000E+00 0. -1.
        994    1    1    2    0    0 -0.47298259290E+01  0.69166050005E+01  0.39156924353E+01  0.17144965245E+03  0.17120000000E+03 0.  0.
        998    1    1    2    0    0  0.16702690096E+02  0.55626945988E+01  0.14554249995E+04  0.14555658187E+04  0.10000000000E+02 0. -1.
</event>
<event>
 5    1  0.1300052E-008  0.3811912E+03  0.7957747E-01  0.3445988E+00
         13   -1    0    0    0    0  0.00000000000E+00  0.00000000000E+00  0.14999999963E+04  0.15000000000E+04  0.10566000000E+00 0. -1.
        994   -1    0    0    0    0 -0.00000000000E+00 -0.00000000000E+00  0.11368683772E-12  0.17120000000E+03  0.17120000000E+03 0.  0.
         13    1    1    2    0    0 -0.85621427388E+01 -0.12852529403E+02  0.32635075470E+02  0.36104807371E+02  0.10566000000E+00 0. -1.
        994    1    1    2    0    0  0.19629338362E+01  0.88048979487E+01  0.38040736015E+01  0.17147970817E+03  0.17120000000E+03 0.  0.
        998    1    1    2    0    0  0.65992089026E+01  0.40476314541E+01  0.14635608472E+04  0.14636154845E+04  0.10000000000E+02 0. -1.
</event>
<event>
 5    1  0.1300052E-008  0.3690935E+03  0.7957747E-01  0.3500068E+00
         13   -1    0    0    0    0  0.00000000000E+00  0.00000000000E+00  0.14999999963E+04  0.15000000000E+04  0.10566000000E+00 0. -1.
        994   -1    0    0    0    0 -0.00000000000E+00 -0.00000000000E+00  0.11368683772E-12  0.17120000000E+03  0.17120000000E+03 0.  0.
         13    1    1    2    0    0  0.24659137916E+02  0.24912791185E+02  0.60227526518E+02  0.69685625217E+02  0.10566000000E+00 0. -1.
        994    1    1    2    0    0 -0.16503314845E+02 -0.97217639834E+01  0.11017196188E+02  0.17262007620E+03  0.17120000000E+03 0.  0.
        998    1    1    2    0    0 -0.81558230713E+01 -0.15191027201E+02  0.14287552736E+04  0.14288942986E+04  0.10000000000E+02 0. -1.
</event>
<event>
 5    1  0.1300052E-008  0.3803293E+03  0.7957747E-01  0.3449726E+00
         13   -1    0    0    0    0  0.00000000000E+00  0.00000000000E+00  0.14999999963E+04  0.15000000000E+04  0.10566000000E+00 0. -1.
        994   -1    0    0    0    0 -0.00000000000E+00 -0.00000000000E+00  0.11368683772E-12  0.17120000000E+03  0.17120000000E+03 0.  0.
         13    1    1    2    0    0  0.11984846043E+02 -0.13799842298E+00  0.16315862209E+02  0.20245347661E+02  0.10566000000E+00 0. -1.
        994    1    1    2    0    0 -0.11138009162E+02  0.15677526814E+00  0.43814627174E+01  0.17161793916E+03  0.17120000000E+03 0.  0.
        998    1    1    2    0    0 -0.84683688157E+00 -0.18776845159E-01  0.14793026714E+04  0.14793367132E+04  0.10000000000E+02 0. -1.
</event>
<event>
 5    1  0.1300052E-008  0.4070073E+03  0.7957747E-01  0.3341382E+00
         13   -1    0    0    0    0  0.00000000000E+00  0.00000000000E+00  0.14999999963E+04  0.15000000000E+04  0.10566000000E+00 0. -1.
        994   -1    0    0    0    0 -0.00000000000E+00 -0.00000000000E+00  0.11368683772E-12  0.17120000000E+03  0.17120000000E+03 0.  0.
         13    1    1    2    0    0  0.80612226759E+02  0.61564099675E+02  0.15919074872E+03  0.18875956959E+03  0.10566000000E+00 0. -1.
        994    1    1    2    0    0 -0.44299744044E+02 -0.34868688169E+02  0.44956347316E+02  0.18576545939E+03  0.17120000000E+03 0.  0.
        998    1    1    2    0    0 -0.36312482715E+02 -0.26695411506E+02  0.12958529002E+04  0.12966749710E+04  0.10000000000E+02 0. -1.
</event>
<event>
 5    1  0.1300052E-008  0.3848765E+03  0.7957747E-01  0.3430196E+00
         13   -1    0    0    0    0  0.00000000000E+00  0.00000000000E+00  0.14999999963E+04  0.15000000000E+04  0.10566000000E+00 0.  1.
        994   -1    0    0    0    0 -0.00000000000E+00 -0.00000000000E+00  0.11368683772E-12  0.17120000000E+03  0.17120000000E+03 0.  0.
         13    1    1    2    0    0 -0.35617662320E+01  0.15368858143E+02  0.74462988325E+02  0.76115936397E+02  0.10566000000E+00 0.  1.
        994    1    1    2    0    0  0.15354643264E+01 -0.82926263388E+01  0.19255086275E+01  0.17141841466E+03  0.17120000000E+03 0.  0.
        998    1    1    2    0    0  0.20263019056E+01 -0.70762318037E+01  0.14236114993E+04  0.14236656489E+04  0.10000000000E+02 0.  1.
</event>
<event>
 5    1  0.1300052E-008  0.3773147E+03  0.7957747E-01  0.3462935E+00
         13   -1    0    0    0    0  0.00000000000E+00  0.00000000000E+00  0.14999999963E+04  0.15000000000E+04  0.10566000000E+00 0.  1.
        994   -1    0    0    0    0 -0.00000000000E+00 -0.00000000000E+00  0.11368683772E-12  0.17120000000E+03  0.17120000000E+03 0.  0.
         13    1    1    2    0    0 -0.31607810634E+02 -0.43539807393E+02  0.25812206003E+03  0.26366982679E+03  0.10566000000E+00 0.  1.
        994    1    1    2    0    0  0.29480265798E+01  0.38779480141E+02  0.10613485100E+02  0.17588241813E+03  0.17120000000E+03 0.  0.
        998    1    1    2    0    0  0.28659784054E+02  0.47603272523E+01  0.12312644512E+04  0.12316477551E+04  0.10000000000E+02 0.  1.
</event>
<event>
 5    1  0.1300052E-008  0.3776331E+03  0.7957747E-01  0.3461530E+00
         13   -1    0    0    0    0  0.00000000000E+00  0.00000000000E+00  0.14999999963E+04  0.15000000000E+04  0.10566000000E+00 0. -1.
        994   -1    0    0    0    0 -0.00000000000E+00 -0.00000000000E+00  0.11368683772E-12  0.17120000000E+03  0.17120000000E+03 0.  0.
         13    1    1    2    0    0 -0.81723516221E+02 -0.58633278378E+02  0.56819234693E+03  0.57702612481E+03  0.10566000000E+00 0. -1.
        994    1    1    2    0    0  0.74410127512E+02  0.71424524222E+02  0.42058609193E+02  0.20424665565E+03  0.17120000000E+03 0.  0.
        998    1    1    2    0    0  0.73133887090E+01 -0.12791245844E+02  0.88974904015E+03  0.88992721954E+03  0.10000000000E+02 0. -1.
</event>
<event>
 5    1  0.1300052E-008  0.3820416E+03  0.7957747E-01  0.3442317E+00
         13   -1    0    0    0    0  0.00000000000E+00  0.00000000000E+00  0.14999999963E+04  0.15000000000E+04  0.10566000000E+00 0.  1.
        994   -1    0    0    0    0 -0.00000000000E+00 -0.00000000000E+00  0.11368683772E-12  0.17120000000E+03  0.17120000000E+03 0.  0.
         13    1    1    2    0    0  0.31659321762E+02 -0.96007536129E+01  0.15474326623E+03  0.15824025003E+03  0.10566000000E+00 0.  1.
        994    1    1    2    0    0 -0.32065624481E+02  0.21646909961E+02  0.80921814828E+01  0.17570348996E+03  0.17120000000E+03 0.  0.
        998    1    1    2    0    0  0.40630271844E+00 -0.12046156348E+02  0.13371645486E+04  0.13372562600E+04  0.10000000000E+02 0.  1.
</event>
<event>
 5    1  0.1300052E-008  0.3842885E+03  0.7957747E-01  0.3432695E+00
         13   -1    0    0    0    0  0.00000000000E+00  0.00000000000E+00  0.14999999963E+04  0.15000000000E+04  0.10566000000E+00 0.  1.
        994   -1    0    0    0    0 -0.00000000000E+00 -0.00000000000E+00  0.11368683772E-12  0.17120000000E+03  0.17120000000E+03 0.  0.
         13    1    1    2    0    0 -0.10368413910E+02 -0.14592545341E+02  0.75592321524E+02  0.77683052360E+02  0.10566000000E+00 0.  1.
        994    1    1    2    0    0  0.15292178937E+02  0.15720932974E+02  0.35709002002E+01  0.17263600377E+03  0.17120000000E+03 0.  0.
        998    1    1    2    0    0 -0.49237650274E+01 -0.11283876330E+01  0.14208367746E+04  0.14208809439E+04  0.10000000000E+02 0.  1.
</event>
<event>
 5    1  0.1300052E-008  0.3856700E+03  0.7957747E-01  0.3426836E+00
         13   -1    0    0    0    0  0.00000000000E+00  0.00000000000E+00  0.14999999963E+04  0.15000000000E+04  0.10566000000E+00 0. -1.
        994   -1    0    0    0    0 -0.00000000000E+00 -0.00000000000E+00  0.11368683772E-12  0.17120000000E+03  0.17120000000E+03 0.  0.
         13    1    1    2    0    0 -0.90903304388E+01 -0.45013747312E+01  0.41684523307E+02  0.42901132029E+02  0.10566000000E+00 0. -1.
        994    1    1    2    0    0 -0.27159540804E+01  0.33479766769E+01  0.13588749615E+01  0.17125966220E+03  0.17120000000E+03 0.  0.
        998    1    1    2    0    0  0.11806284519E+02  0.11533980544E+01  0.14569565980E+04  0.14570392058E+04  0.10000000000E+02 0. -1.
</event>
<event>
 5    1  0.1300052E-008  0.3705069E+03  0.7957747E-01  0.3493564E+00
         13   -1    0    0    0    0  0.00000000000E+00  0.00000000000E+00  0.14999999963E+04  0.15000000000E+04  0.10566000000E+00 0.  1.
        994   -1    0    0    0    0 -0.00000000000E+00 -0.00000000000E+00  0.11368683772E-12  0.17120000000E+03  0.17120000000E+03 0.  0.
         13    1    1    2    0    0  0.94783934026E+01 -0.13960236277E+02  0.12038437989E+02  0.20728321004E+02  0.10566000000E+00 0.  1.
        994    1    1    2    0    0 -0.87065322951E+01 -0.50315800236E+00  0.92669073602E+01  0.17167228211E+03  0.17120000000E+03 0.  0.
        998    1    1    2    0    0 -0.77186110751E+00  0.14463394279E+02  0.14786946509E+04  0.14787993969E+04  0.10000000000E+02 0.  1.
</event>
<event>
 5    1  0.1300052E-008  0.3857392E+03  0.7957747E-01  0.3426543E+00
         13   -1    0    0    0    0  0.00000000000E+00  0.00000000000E+00  0.14999999963E+04  0.15000000000E+04  0.10566000000E+00 0. -1.
        994   -1    0    0    0    0 -0.00000000000E+00 -0.00000000000E+00  0.11368683772E-12  0.17120000000E+03  0.17120000000E+03 0.  0.
         13    1    1    2    0    0  0.13165196967E+02 -0.44785654336E+01  0.73710245882E+02  0.75010609060E+02  0.10566000000E+00 0. -1.
        994    1    1    2    0    0 -0.13553902682E+02  0.71972037787E+01  0.20366172529E+01  0.17189850444E+03  0.17120000000E+03 0.  0.
        998    1    1    2    0    0  0.38870571421E+00 -0.27186383451E+01  0.14242531331E+04  0.14242908865E+04  0.10000000000E+02 0. -1.
</event>
<event>
 5    1  0.1300052E-008  0.3686018E+03  0.7957747E-01  0.3502341E+00
         13   -1    0    0    0    0  0.00000000000E+00  0.00000000000E+00  0.14999999963E+04  0.15000000000E+04  0.10566000000E+00 0.  1.
        994   -1    0    0    0    0 -0.00000000000E+00 -0.00000000000E+00  0.11368683772E-12  0.17120000000E+03  0.17120000000E+03 0.  0.
         13    1    1    2    0    0  0.77729401336E+00  0.70390211467E+02  0.21034053116E+03  0.22180743060E+03  0.10566000000E+00 0.  1.
        994    1    1    2    0    0  0.14410289979E+01 -0.66951374287E+02  0.25969858676E+02  0.18565677107E+03  0.17120000000E+03 0.  0.
        998    1    1    2    0    0 -0.22183230113E+01 -0.34388371797E+01  0.12636896064E+04  0.12637357983E+04  0.10000000000E+02 0.  1.
</event>
<event>
 5    1  0.1300052E-008  0.3845766E+03  0.7957747E-01  0.3431470E+00
         13   -1    0    0    0    0  0.00000000000E+00  0.00000000000E+00  0.14999999963E+04  0.15000000000E+04  0.10566000000E+00 0.  1.
        994   -1    0    0    0    0 -0.00000000000E+00 -0.00000000000E+00  0.11368683772E-12  0.17120000000E+03  0.17120000000E+03 0.  0.
         13    1    1    2    0    0  0.99330412301E+01  0.27298562097E+01  0.27918090280E+02  0.29758164458E+02  0.10566000000E+00 0.  1.
        994    1    1    2    0    0 -0.10666218099E+02 -0.42200869715E+01  0.22739429672E+01  0.17159891654E+03  0.17120000000E+03 0.  0.
        998    1    1    2    0    0  0.73317686901E+00  0.14902307617E+01  0.14698079630E+04  0.14698429190E+04  0.10000000000E+02 0.  1.
</event>
<event>
 5    1  0.1300052E-008  0.3861470E+03  0.7957747E-01  0.3424822E+00
         13   -1    0    0    0    0  0.00000000000E+00  0.00000000000E+00  0.14999999963E+04  0.15000000000E+04  0.10566000000E+00 0. -1.
        994   -1    0    0    0    0 -0.00000000000E+00 -0.00000000000E+00  0.11368683772E-12  0.17120000000E+03  0.17120000000E+03 0.  0.
         13    1    1    2    0    0  0.70369863412E+01 -0.87603462111E+01  0.58959025358E+02  0.60020335534E+02  0.10566000000E+00 0. -1.
        994    1    1    2    0    0 -0.19106704404E+01  0.12138258049E+02  0.15565928499E+01  0.17164746124E+03  0.17120000000E+03 0.  0.
        998    1    1    2    0    0 -0.51263159008E+01 -0.33779118380E+01  0.14394843781E+04  0.14395322032E+04  0.10000000000E+02 0. -1.
</event>
<event>
 5    1  0.1300052E-008  0.3785417E+03  0.7957747E-01  0.3457533E+00
         13   -1    0    0    0    0  0.00000000000E+00  0.00000000000E+00  0.14999999963E+04  0.15000000000E+04  0.10566000000E+00 0.  1.
        994   -1    0    0    0    0 -0.00000000000E+00 -0.00000000000E+00  0.11368683772E-12  0.17120000000E+03  0.17120000000E+03 0.  0.
         13    1    1    2    0    0 -0.12725454522E+02 -0.14461782777E+02  0.35176805505E+02  0.40106098831E+02  0.10566000000E+00 0.  1.
        994    1    1    2    0    0  0.20069895947E+02  0.11393150656E+02  0.66622244479E+01  0.17287692107E+03  0.17120000000E+03 0.  0.
        998    1    1    2    0    0 -0.73444414247E+01  0.30686321205E+01  0.14581609663E+04  0.14582169801E+04  0.10000000000E+02 0.  1.
</event>
<event>
 5    1  0.1300052E-008  0.3837034E+03  0.7957747E-01  0.3435190E+00
         13   -1    0    0    0    0  0.00000000000E+00  0.00000000000E+00  0.14999999963E+04  0.15000000000E+04  0.10566000000E+00 0. -1.
        994   -1    0    0    0    0 -0.00000000000E+00 -0.00000000000E+00  0.11368683772E-12  0.17120000000E+03  0.17120000000E+03 0.  0.
         13    1    1    2    0    0  0.77117995161E+02  0.83030534937E+02  0.64738647348E+03  0.65722942122E+03  0.10566000000E+00 0. -1.
        994    1    1    2    0    0  0.49784412071E+02 -0.65481563488E+02  0.43679466453E+02  0.19489396766E+03  0.17120000000E+03 0.  0.
        998    1    1    2    0    0 -0.12690240723E+03 -0.17548971449E+02  0.80893405635E+03  0.81907661112E+03  0.10000000000E+02 0. -1.
</event>
<event>
 5    1  0.1300052E-008  0.3857092E+03  0.7957747E-01  0.3426670E+00
         13   -1    0    0    0    0  0.00000000000E+00  0.00000000000E+00  0.14999999963E+04  0.15000000000E+04  0.10566000000E+00 0.  1.
        994   -1    0    0    0    0 -0.00000000000E+00 -0.00000000000E+00  0.11368683772E-12  0.17120000000E+03  0.17120000000E+03 0.  0.
         13    1    1    2    0    0  0.13158102689E+02 -0.46419747188E+01  0.71453010596E+02  0.72802661235E+02  0.10566000000E+00 0.  1.
        994    1    1    2    0    0 -0.19607541517E+02  0.11965677259E+01  0.25455790458E+01  0.17234212321E+03  0.17120000000E+03 0.  0.
        998    1    1    2    0    0  0.64494388275E+01  0.34454069929E+01  0.14260014066E+04  0.14260552156E+04  0.10000000000E+02 0.  1.
</event>
<event>
 5    1  0.1300052E-008  0.3843820E+03  0.7957747E-01  0.3432298E+00
         13   -1    0    0    0    0  0.00000000000E+00  0.00000000000E+00  0.14999999963E+04  0.15000000000E+04  0.10566000000E+00 0. -1.
        994   -1    0    0    0    0 -0.00000000000E+00 -0.00000000000E+00  0.11368683772E-12  0.17120000000E+03  0.17120000000E+03 0.  0.
         13    1    1    2    0    0 -0.26151643331E+01  0.11624500391E+02  0.34881507682E+02  0.36860532227E+02  0.10566000000E+00 0. -1.
        994    1    1    2    0    0  0.40062854017E+01 -0.16280753450E+02  0.28641814636E+01  0.17204289230E+03  0.17120000000E+03 0.  0.
        998    1    1    2    0    0 -0.13911210686E+01  0.46562530593E+01  0.14622543071E+04  0.14622965755E+04  0.10000000000E+02 0. -1.
</event>
<event>
 5    1  0.1300052E-008  0.3740753E+03  0.7957747E-01  0.3477369E+00
         13   -1    0    0    0    0  0.00000000000E+00  0.00000000000E+00  0.14999999963E+04  0.15000000000E+04  0.10566000000E+00 0.  1.
        994   -1    0    0    0    0 -0.00000000000E+00 -0.00000000000E+00  0.11368683772E-12  0.17120000000E+03  0.17120000000E+03 0.  0.
         13    1    1    2    0    0 -0.10589402649E+03 -0.51525682704E+02  0.46742558856E+03  0.48203229438E+03  0.10566000000E+00 0.  1.
        994    1    1    2    0    0  0.14749256377E+03  0.40090363229E+02  0.91526908359E+02  0.24707874969E+03  0.17120000000E+03 0.  0.
        998    1    1    2    0    0 -0.41598537283E+02  0.11435319475E+02  0.94104749936E+03  0.94208895593E+03  0.10000000000E+02 0. -1.
</event>
<event>
 5    1  0.1300052E-008  0.3816473E+03  0.7957747E-01  0.3444017E+00
         13   -1    0    0    0    0  0.00000000000E+00  0.00000000000E+00  0.14999999963E+04  0.15000000000E+04  0.10566000000E+00 0. -1.
        994   -1    0    0    0    0 -0.00000000000E+00 -0.00000000000E+00  0.11368683772E-12  0.17120000000E+03  0.17120000000E+03 0.  0.
         13    1    1    2    0    0  0.61440007380E+01  0.95250404805E+01  0.17694701691E+02  0.21014013734E+02  0.10566000000E+00 0. -1.
        994    1    1    2    0    0 -0.97260122798E+01 -0.12950681605E+02  0.41765570367E+01  0.17201511299E+03  0.17120000000E+03 0.  0.
        998    1    1    2    0    0  0.35820115418E+01  0.34256411243E+01  0.14781287376E+04  0.14781708733E+04  0.10000000000E+02 0. -1.
</event>
<event>
 5    1  0.1300052E-008  0.3816026E+03  0.7957747E-01  0.3444210E+00
         13   -1    0    0    0    0  0.00000000000E+00  0.00000000000E+00  0.14999999963E+04  0.15000000000E+04  0.10566000000E+00 0. -1.
        994   -1    0    0    0    0 -0.00000000000E+00 -0.00000000000E+00  0.11368683772E-12  0.17120000000E+03  0.17120000000E+03 0.  0.
         13    1    1    2    0    0  0.16423386058E+02 -0.38208978246E+01  0.40965313141E+02  0.44300055469E+02  0.10566000000E+00 0. -1.
        994    1    1    2    0    0 -0.13390728081E+02  0.85130071770E+01  0.41640233378E+01  0.17198419108E+03  0.17120000000E+03 0.  0.
        998    1    1    2    0    0 -0.30326579770E+01 -0.46921093524E+01  0.14548706598E+04  0.14549157535E+04  0.10000000000E+02 0. -1.
</event>
<event>
 5    1  0.1300052E-008  0.3773720E+03  0.7957747E-01  0.3462682E+00
         13   -1    0    0    0    0  0.00000000000E+00  0.00000000000E+00  0.14999999963E+04  0.15000000000E+04  0.10566000000E+00 0. -1.
        994   -1    0    0    0    0 -0.00000000000E+00 -0.00000000000E+00  0.11368683772E-12  0.17120000000E+03  0.17120000000E+03 0.  0.
         13    1    1    2    0    0 -0.44867900244E+02 -0.94046223915E+02  0.36463358173E+03  0.37923011589E+03  0.10566000000E+00 0. -1.
        994    1    1    2    0    0  0.57205317614E+01  0.63519727203E+02  0.29637369823E+02  0.18508185734E+03  0.17120000000E+03 0.  0.
        998    1    1    2    0    0  0.39147368483E+02  0.30526496712E+02  0.11057290447E+04  0.11068880268E+04  0.10000000000E+02 0.  1.
</event>
<event>
 5    1  0.1300052E-008  0.3848713E+03  0.7957747E-01  0.3430218E+00
         13   -1    0    0    0    0  0.00000000000E+00  0.00000000000E+00  0.14999999963E+04  0.15000000000E+04  0.10566000000E+00 0.  1.
        994   -1    0    0    0    0 -0.00000000000E+00 -0.00000000000E+00  0.11368683772E-12  0.17120000000E+03  0.17120000000E+03 0.  0.
         13    1    1    2    0    0  0.21727023669E+01 -0.10676809685E+02  0.33863267581E+02  0.35573121257E+02  0.10566000000E+00 0.  1.
        994    1    1    2    0    0 -0.15013160377E+01  0.13361046514E+02  0.22890185992E+01  0.17174239756E+03  0.17120000000E+03 0.  0.
        998    1    1    2    0    0 -0.67138632920E+00 -0.26842368288E+01  0.14638477101E+04  0.14638844812E+04  0.10000000000E+02 0.  1.
</event>
<event>
 5    1  0.1300052E-008  0.3739078E+03  0.7957747E-01  0.3478122E+00
         13   -1    0    0    0    0  0.00000000000E+00  0.00000000000E+00  0.14999999963E+04  0.15000000000E+04  0.10566000000E+00 0.  1.
        994   -1    0    0    0    0 -0.00000000000E+00 -0.00000000000E+00  0.11368683772E-12  0.17120000000E+03  0.17120000000E+03 0.  0.
         13    1    1    2    0    0 -0.47306560240E+01  0.62246473236E+02  0.28285880952E+03  0.28966553096E+03  0.10566000000E+00 0.  1.
        994    1    1    2    0    0  0.91512841108E+01 -0.26968154249E+02  0.10012685142E+02  0.17384108032E+03  0.17120000000E+03 0.  0.
        998    1    1    2    0    0 -0.44206280867E+01 -0.35278318987E+02  0.12071285016E+04  0.12076933887E+04  0.10000000000E+02 0.  1.
</event>
<event>
 5    1  0.1300052E-008  0.3854913E+03  0.7957747E-01  0.3427591E+00
         13   -1    0    0    0    0  0.00000000000E+00  0.00000000000E+00  0.14999999963E+04  0.15000000000E+04  0.10566000000E+00 0.  1.
        994   -1    0    0    0    0 -0.00000000000E+00 -0.00000000000E+00  0.11368683772E-12  0.17120000000E+03  0.17120000000E+03 0.  0.
         13    1    1    2    0    0  0.15315783062E+02  0.34810362903E+01  0.89499243677E+02  0.90867027063E+02  0.10566000000E+00 0.  1.
        994    1    1    2    0    0 -0.91922153262E+01 -0.48950682562E+01  0.17426090440E+01  0.17152531942E+03  0.17120000000E+03 0.  0.
        998    1    1    2    0    0 -0.61235677362E+01  0.14140319660E+01  0.14087581436E+04  0.14088076535E+04  0.10000000000E+02 0.  1.
</event>
<event>
 5    1  0.1300052E-008  0.3757051E+03  0.7957747E-01  0.3470075E+00
         13   -1    0    0    0    0  0.00000000000E+00  0.00000000000E+00  0.14999999963E+04  0.15000000000E+04  0.10566000000E+00 0.  1.
        994   -1    0    0    0    0 -0.00000000000E+00 -0.00000000000E+00  0.11368683772E-12  0.17120000000E+03  0.17120000000E+03 0.  0.
         13    1    1    2    0    0  0.14236149952E+02 -0.46877282112E+02  0.18576485317E+03  0.19211647347E+03  0.10566000000E+00 0.  1.
        994    1    1    2    0    0 -0.51291043595E+01  0.30231152007E+02  0.95121443904E+01  0.17418424485E+03  0.17120000000E+03 0.  0.
        998    1    1    2    0    0 -0.91070455928E+01  0.16646130105E+02  0.13047229987E+04  0.13048992817E+04  0.10000000000E+02 0.  1.
</event>
<event>
 5    1  0.1300052E-008  0.3772845E+03  0.7957747E-01  0.3463068E+00
         13   -1    0    0    0    0  0.00000000000E+00  0.00000000000E+00  0.14999999963E+04  0.15000000000E+04  0.10566000000E+00 0.  1.
        994   -1    0    0    0    0 -0.00000000000E+00 -0.00000000000E+00  0.11368683772E-12  0.17120000000E+03  0.17120000000E+03 0.  0.
         13    1    1    2    0    0  0.32420420967E+01 -0.49647333390E+02  0.18159680523E+03  0.18828908461E+03  0.10566000000E+00 0.  1.
        994    1    1    2    0    0 -0.23318046594E+02  0.61766701061E+02  0.20357691223E+02  0.18461509215E+03  0.17120000000E+03 0.  0.
        998    1    1    2    0    0  0.20076004497E+02 -0.12119367672E+02  0.12980454998E+04  0.12982958232E+04  0.10000000000E+02 0.  1.
</event>
<event>
 5    1  0.1300052E-008  0.3172996E+03  0.7957747E-01  0.3779766E+00
         13   -1    0    0    0    0  0.00000000000E+00  0.00000000000E+00  0.14999999963E+04  0.15000000000E+04  0.10566000000E+00 0. -1.
        994   -1    0    0    0    0 -0.00000000000E+00 -0.00000000000E+00  0.11368683772E-12  0.17120000000E+03  0.17120000000E+03 0.  0.
         13    1    1    2    0    0 -0.17503537880E+03  0.13538987485E+03  0.67541321033E+03  0.71073962735E+03  0.10566000000E+00 0. -1.
        994    1    1    2    0    0  0.18475300041E+03 -0.13994112821E+03  0.23809679105E+03  0.37378698805E+03  0.17120000000E+03 0.  0.
        998    1    1    2    0    0 -0.97176216130E+01  0.45512533651E+01  0.58648999490E+03  0.58667338460E+03  0.10000000000E+02 0. -1.
</event>
<event>
 5    1  0.1300052E-008  0.3685461E+03  0.7957747E-01  0.3502600E+00
         13   -1    0    0    0    0  0.00000000000E+00  0.00000000000E+00  0.14999999963E+04  0.15000000000E+04  0.10566000000E+00 0. -1.
        994   -1    0    0    0    0 -0.00000000000E+00 -0.00000000000E+00  0.11368683772E-12  0.17120000000E+03  0.17120000000E+03 0.  0.
         13    1    1    2    0    0  0.80026354422E+01  0.74123315394E+02  0.26441980700E+03  0.27472923681E+03  0.10566000000E+00 0. -1.
        994    1    1    2    0    0 -0.76715781508E+01 -0.48851492280E+02  0.18577296820E+02  0.17916438643E+03  0.17120000000E+03 0.  0.
        998    1    1    2    0    0 -0.33105729148E+00 -0.25271823114E+02  0.12170028925E+04  0.12173063768E+04  0.10000000000E+02 0. -1.
</event>
<event>
 5    1  0.1300052E-008  0.3822508E+03  0.7957747E-01  0.3441416E+00
         13   -1    0    0    0    0  0.00000000000E+00  0.00000000000E+00  0.14999999963E+04  0.15000000000E+04  0.10566000000E+00 0.  1.
        994   -1    0    0    0    0 -0.00000000000E+00 -0.00000000000E+00  0.11368683772E-12  0.17120000000E+03  0.17120000000E+03 0.  0.
         13    1    1    2    0    0 -0.17541861403E+02  0.33224237880E+02  0.20529708627E+03  0.20870666419E+03  0.10566000000E+00 0.  1.
        994    1    1    2    0    0  0.25387128519E+02 -0.28903440614E+02  0.79275457200E+01  0.17564794663E+03  0.17120000000E+03 0.  0.
        998    1    1    2    0    0 -0.78452671166E+01 -0.43207972655E+01  0.12867753643E+04  0.12868453892E+04  0.10000000000E+02 0.  1.
</event>
<event>
 5    1  0.1300052E-008  0.3838115E+03  0.7957747E-01  0.3434729E+00
         13   -1    0    0    0    0  0.00000000000E+00  0.00000000000E+00  0.14999999963E+04  0.15000000000E+04  0.10566000000E+00 0.  1.
        994   -1    0    0    0    0 -0.00000000000E+00 -0.00000000000E+00  0.11368683772E-12  0.17120000000E+03  0.17120000000E+03 0.  0.
         13    1    1    2    0    0 -0.36877140403E+01 -0.18194013916E+02  0.61070476217E+02  0.63829739202E+02  0.10566000000E+00 0.  1.
        994    1    1    2    0    0  0.44756807446E+01  0.57188585026E+02  0.13161462297E+02  0.18103378156E+03  0.17120000000E+03 0.  0.
        998    1    1    2    0    0 -0.78796670440E+00 -0.38994571110E+02  0.14257680578E+04  0.14263364792E+04  0.10000000000E+02 0.  1.
</event>
<event>
 5    1  0.1300052E-008  0.3831919E+03  0.7957747E-01  0.3437377E+00
         13   -1    0    0    0    0  0.00000000000E+00  0.00000000000E+00  0.14999999963E+04  0.15000000000E+04  0.10566000000E+00 0.  1.
        994   -1    0    0    0    0 -0.00000000000E+00 -0.00000000000E+00  0.11368683772E-12  0.17120000000E+03  0.17120000000E+03 0.  0.
         13    1    1    2    0    0 -0.22249531662E+02 -0.36992082197E+01  0.12460286118E+03  0.12662784046E+03  0.10566000000E+00 0.  1.
        994    1    1    2    0    0 -0.94798225208E+01 -0.31063631408E+02  0.60277185094E+01  0.17435764859E+03  0.17120000000E+03 0.  0.
        998    1    1    2    0    0  0.31729354183E+02  0.34762839628E+02  0.13693694166E+04  0.13702145110E+04  0.10000000000E+02 0.  1.
</event>
<event>
 5    1  0.1300052E-008  0.3858445E+03  0.7957747E-01  0.3426099E+00
         13   -1    0    0    0    0  0.00000000000E+00  0.00000000000E+00  0.14999999963E+04  0.15000000000E+04  0.10566000000E+00 0.  1.
        994   -1    0    0    0    0 -0.00000000000E+00 -0.00000000000E+00  0.11368683772E-12  0.17120000000E+03  0.17120000000E+03 0.  0.
         13    1    1    2    0    0 -0.11766836683E+02 -0.16200910500E+01  0.61204465784E+02  0.62346458893E+02  0.10566000000E+00 0.  1.
        994    1    1    2    0    0  0.30805831594E+01 -0.54010826465E+01  0.13382664267E+01  0.17131810367E+03  0.17120000000E+03 0.  0.
        998    1    1    2    0    0  0.86862535232E+01  0.70211736965E+01  0.14374572641E+04  0.14375354374E+04  0.10000000000E+02 0.  1.
</event>
<event>
 5    1  0.1300052E-008  0.3714973E+03  0.7957747E-01  0.3489038E+00
         13   -1    0    0    0    0  0.00000000000E+00  0.00000000000E+00  0.14999999963E+04  0.15000000000E+04  0.10566000000E+00 0.  1.
        994   -1    0    0    0    0 -0.00000000000E+00 -0.00000000000E+00  0.11368683772E-12  0.17120000000E+03  0.17120000000E+03 0.  0.
         13    1    1    2    0    0  0.30978122342E+02 -0.31248225799E+02  0.10296119834E+03  0.11196926010E+03  0.10566000000E+00 0.  1.
        994    1    1    2    0    0 -0.32737610166E+02  0.33137015721E+02  0.15989656278E+02  0.17814298201E+03  0.17120000000E+03 0.  0.
        998    1    1    2    0    0  0.17594878240E+01 -0.18887899219E+01  0.13810491417E+04  0.13810877579E+04  0.10000000000E+02 0.  1.
</event>
<event>
 5    1  0.1300052E-008  0.3783339E+03  0.7957747E-01  0.3458445E+00
         13   -1    0    0    0    0  0.00000000000E+00  0.00000000000E+00  0.14999999963E+04  0.15000000000E+04  0.10566000000E+00 0.  1.
        994   -1    0    0    0    0 -0.00000000000E+00 -0.00000000000E+00  0.11368683772E-12  0.17120000000E+03  0.17120000000E+03 0.  0.
         13    1    1    2    0    0  0.48756167998E+02  0.42425820155E+01  0.26217645022E+03  0.26670520361E+03  0.10566000000E+00 0.  1.
        994    1    1    2    0    0 -0.15657781994E+02 -0.12052415196E+02  0.62900220773E+01  0.17245124304E+03  0.17120000000E+03 0.  0.
        998    1    1    2    0    0 -0.33098386004E+02  0.78098331803E+01  0.12315335240E+04  0.12320435533E+04  0.10000000000E+02 0.  1.
</event>
<event>
 5    1  0.1300052E-008  0.3686071E+03  0.7957747E-01  0.3502317E+00
         13   -1    0    0    0    0  0.00000000000E+00  0.00000000000E+00  0.14999999963E+04  0.15000000000E+04  0.10566000000E+00 0. -1.
        994   -1    0    0    0    0 -0.00000000000E+00 -0.00000000000E+00  0.11368683772E-12  0.17120000000E+03  0.17120000000E+03 0.  0.
         13    1    1    2    0    0  0.48517984317E+01  0.21898449506E+02  0.19865324889E+02  0.29962048257E+02  0.10566000000E+00 0. -1.
        994    1    1    2    0    0 -0.10112802132E+02 -0.23954650625E+02  0.12559873856E+02  0.17361821473E+03  0.17120000000E+03 0.  0.
        998    1    1    2    0    0  0.52610037006E+01  0.20562011191E+01  0.14675747975E+04  0.14676197370E+04  0.10000000000E+02 0. -1.
</event>
<event>
 5    1  0.1300052E-008  0.3838583E+03  0.7957747E-01  0.3434529E+00
         13   -1    0    0    0    0  0.00000000000E+00  0.00000000000E+00  0.14999999963E+04  0.15000000000E+04  0.10566000000E+00 0.  1.
        994   -1    0    0    0    0 -0.00000000000E+00 -0.00000000000E+00  0.11368683772E-12  0.17120000000E+03  0.17120000000E+03 0.  0.
         13    1    1    2    0    0 -0.11014205678E+02  0.19571950222E+02  0.12123787885E+03  0.12330048011E+03  0.10566000000E+00 0.  1.
        994    1    1    2    0    0 -0.68375500417E+01 -0.11055901210E+02  0.27560166944E+01  0.17171494015E+03  0.17120000000E+03 0.  0.
        998    1    1    2    0    0  0.17851755719E+02 -0.85160490120E+01  0.13760061007E+04  0.13761845797E+04  0.10000000000E+02 0.  1.
</event>
<event>
 5    1  0.1300052E-008  0.3851238E+03  0.7957747E-01  0.3429147E+00
         13   -1    0    0    0    0  0.00000000000E+00  0.00000000000E+00  0.14999999963E+04  0.15000000000E+04  0.10566000000E+00 0.  1.
        994   -1    0    0    0    0 -0.00000000000E+00 -0.00000000000E+00  0.11368683772E-12  0.17120000000E+03  0.17120000000E+03 0.  0.
         13    1    1    2    0    0 -0.12048037338E+02  0.14359786300E+02  0.11139723621E+03  0.11296333062E+03  0.10566000000E+00 0.  1.
        994    1    1    2    0    0  0.11363636377E+01 -0.15779427401E+02  0.23918769325E+01  0.17194604598E+03  0.17120000000E+03 0.  0.
        998    1    1    2    0    0  0.10911673701E+02  0.14196411007E+01  0.13862108831E+04  0.13862906234E+04  0.10000000000E+02 0.  1.
</event>
<event>
 5    1  0.1300052E-008  0.3774661E+03  0.7957747E-01  0.3462266E+00
         13   -1    0    0    0    0  0.00000000000E+00  0.00000000000E+00  0.14999999963E+04  0.15000000000E+04  0.10566000000E+00 0.  1.
        994   -1    0    0    0    0 -0.00000000000E+00 -0.00000000000E+00  0.11368683772E-12  0.17120000000E+03  0.17120000000E+03 0.  0.
         13    1    1    2    0    0 -0.28242827115E+02 -0.43313135468E+02  0.26602540394E+03  0.27100408058E+03  0.10566000000E+00 0.  1.
        994    1    1    2    0    0  0.59520017634E-01  0.22885158293E+02  0.71853392152E+01  0.17287221614E+03  0.17120000000E+03 0.  0.
        998    1    1    2    0    0  0.28183307097E+02  0.20427977176E+02  0.12267892531E+04  0.12273237033E+04  0.10000000000E+02 0.  1.
</event>
<event>
 5    1  0.1300052E-008  0.3762338E+03  0.7957747E-01  0.3467723E+00
         13   -1    0    0    0    0  0.00000000000E+00  0.00000000000E+00  0.14999999963E+04  0.15000000000E+04  0.10566000000E+00 0.  1.
        994   -1    0    0    0    0 -0.00000000000E+00 -0.00000000000E+00  0.11368683772E-12  0.17120000000E+03  0.17120000000E+03 0.  0.
         13    1    1    2    0    0  0.15288662593E+03  0.79244061555E+02  0.93192520157E+03  0.94770171159E+03  0.10566000000E+00 0.  1.
        994    1    1    2    0    0 -0.18288024093E+03 -0.35797819197E+02  0.13444323804E+03  0.28655032828E+03  0.17120000000E+03 0.  0.
        998    1    1    2    0    0  0.29993615002E+02 -0.43446242358E+02  0.43363155668E+03  0.43694796013E+03  0.10000000000E+02 0.  1.
</event>
<event>
 5    1  0.1300052E-008  0.3778811E+03  0.7957747E-01  0.3460437E+00
         13   -1    0    0    0    0  0.00000000000E+00  0.00000000000E+00  0.14999999963E+04  0.15000000000E+04  0.10566000000E+00 0. -1.
        994   -1    0    0    0    0 -0.00000000000E+00 -0.00000000000E+00  0.11368683772E-12  0.17120000000E+03  0.17120000000E+03 0.  0.
         13    1    1    2    0    0 -0.12973339180E+02  0.23086672486E+02  0.66512289705E+02  0.71590486950E+02  0.10566000000E+00 0. -1.
        994    1    1    2    0    0  0.58544958711E+01 -0.11069289237E+02  0.57346412249E+01  0.17175310884E+03  0.17120000000E+03 0.  0.
        998    1    1    2    0    0  0.71188433090E+01 -0.12017383249E+02  0.14277530653E+04  0.14278564042E+04  0.10000000000E+02 0. -1.
</event>
<event>
 5    1  0.1300052E-008  0.3728932E+03  0.7957747E-01  0.3482699E+00
         13   -1    0    0    0    0  0.00000000000E+00  0.00000000000E+00  0.14999999963E+04  0.15000000000E+04  0.10566000000E+00 0.  1.
        994   -1    0    0    0    0 -0.00000000000E+00 -0.00000000000E+00  0.11368683772E-12  0.17120000000E+03  0.17120000000E+03 0.  0.
         13    1    1    2    0    0 -0.18344659130E+02  0.16620952354E+02  0.37992597784E+02  0.45345685860E+02  0.10566000000E+00 0.  1.
        994    1    1    2    0    0  0.40676254829E+01  0.36753931441E+01  0.78675209630E+01  0.17146834104E+03  0.17120000000E+03 0.  0.
        998    1    1    2    0    0  0.14277033647E+02 -0.20296345498E+02  0.14541398775E+04  0.14543859731E+04  0.10000000000E+02 0.  1.
</event>
<event>
 5    1  0.1300052E-008  0.3765982E+03  0.7957747E-01  0.3466106E+00
         13   -1    0    0    0    0  0.00000000000E+00  0.00000000000E+00  0.14999999963E+04  0.15000000000E+04  0.10566000000E+00 0. -1.
        994   -1    0    0    0    0 -0.00000000000E+00 -0.00000000000E+00  0.11368683772E-12  0.17120000000E+03  0.17120000000E+03 0.  0.
         13    1    1    2    0    0  0.35037355101E+02  0.45026965214E+02  0.25288524166E+03  0.25924120132E+03  0.10566000000E+00 0. -1.
        994    1    1    2    0    0 -0.24647398683E+02 -0.37576968294E+02  0.12718954209E+02  0.17745628928E+03  0.17120000000E+03 0.  0.
        998    1    1    2    0    0 -0.10389956417E+02 -0.74499969206E+01  0.12343958004E+04  0.12345025094E+04  0.10000000000E+02 0. -1.
</event>
<event>
 5    1  0.1300052E-008  0.3807655E+03  0.7957747E-01  0.3447832E+00
         13   -1    0    0    0    0  0.00000000000E+00  0.00000000000E+00  0.14999999963E+04  0.15000000000E+04  0.10566000000E+00 0.  1.
        994   -1    0    0    0    0 -0.00000000000E+00 -0.00000000000E+00  0.11368683772E-12  0.17120000000E+03  0.17120000000E+03 0.  0.
         13    1    1    2    0    0 -0.14328995338E+02 -0.49638255064E+01  0.28272863223E+02  0.32083105054E+02  0.10566000000E+00 0.  1.
        994    1    1    2    0    0  0.18462588721E+02  0.10533402602E+02  0.52552821547E+01  0.17259454726E+03  0.17120000000E+03 0.  0.
        998    1    1    2    0    0 -0.41335933825E+01 -0.55695770953E+01  0.14664718509E+04  0.14665223477E+04  0.10000000000E+02 0.  1.
</event>
<event>
 5    1  0.1300052E-008  0.3709402E+03  0.7957747E-01  0.3491581E+00
         13   -1    0    0    0    0  0.00000000000E+00  0.00000000000E+00  0.14999999963E+04  0.15000000000E+04  0.10566000000E+00 0. -1.
        994   -1    0    0    0    0 -0.00000000000E+00 -0.00000000000E+00  0.11368683772E-12  0.17120000000E+03  0.17120000000E+03 0.  0.
         13    1    1    2    0    0 -0.33207712469E+02  0.22052227937E+02  0.10343649034E+03  0.11085202580E+03  0.10566000000E+00 0. -1.
        994    1    1    2    0    0 -0.24525471936E+02 -0.39604654112E+01  0.10908506198E+02  0.17333672308E+03  0.17120000000E+03 0.  0.
        998    1    1    2    0    0  0.57733184405E+02 -0.18091762526E+02  0.13856549997E+04  0.13870112511E+04  0.10000000000E+02 0. -1.
</event>
<event>
 5    1  0.1300052E-008  0.3764877E+03  0.7957747E-01  0.3466596E+00
         13   -1    0    0    0    0  0.00000000000E+00  0.00000000000E+00  0.14999999963E+04  0.15000000000E+04  0.10566000000E+00 0. -1.
        994   -1    0    0    0    0 -0.00000000000E+00 -0.00000000000E+00  0.11368683772E-12  0.17120000000E+03  0.17120000000E+03 0.  0.
         13    1    1    2    0    0  0.16864261152E+01 -0.47878351410E+02  0.26543392194E+03  0.26972274403E+03  0.10566000000E+00 0. -1.
        994    1    1    2    0    0  0.50135403840E+01 -0.13638960172E+02  0.66312360828E+01  0.17194350850E+03  0.17120000000E+03 0.  0.
        998    1    1    2    0    0 -0.66999664992E+01  0.61517311582E+02  0.12279348383E+04  0.12295337475E+04  0.10000000000E+02 0. -1.
</event>
<event>
 5    1  0.1300052E-008  0.3759696E+03  0.7957747E-01  0.3468898E+00
         13   -1    0    0    0    0  0.00000000000E+00  0.00000000000E+00  0.14999999963E+04  0.15000000000E+04  0.10566000000E+00 0.  1.
        994   -1    0    0    0    0 -0.00000000000E+00 -0.00000000000E+00  0.11368683772E-12  0.17120000000E+03  0.17120000000E+03 0.  0.
         13    1    1    2    0    0  0.70328797343E+02  0.42835300398E+02  0.43237603047E+03  0.44014775426E+03  0.10566000000E+00 0.  1.
        994    1    1    2    0    0  0.27974890984E+02  0.13233633017E+02  0.17558187486E+02  0.17485838132E+03  0.17120000000E+03 0.  0.
        998    1    1    2    0    0 -0.98303688327E+02 -0.56068933415E+02  0.10500657783E+04  0.10561938644E+04  0.10000000000E+02 0.  1.
</event>
<event>
 5    1  0.1300052E-008  0.3847167E+03  0.7957747E-01  0.3430875E+00
         13   -1    0    0    0    0  0.00000000000E+00  0.00000000000E+00  0.14999999963E+04  0.15000000000E+04  0.10566000000E+00 0. -1.
        994   -1    0    0    0    0 -0.00000000000E+00 -0.00000000000E+00  0.11368683772E-12  0.17120000000E+03  0.17120000000E+03 0.  0.
         13    1    1    2    0    0  0.15176503373E+02 -0.62448955416E+01  0.79575203503E+02  0.81249917856E+02  0.10566000000E+00 0. -1.
        994    1    1    2    0    0 -0.16250292743E+01  0.59938266135E+01  0.18978182231E+01  0.17132311108E+03  0.17120000000E+03 0.  0.
        998    1    1    2    0    0 -0.13551474099E+02  0.25106892804E+00  0.14185269746E+04  0.14186269711E+04  0.10000000000E+02 0. -1.
</event>
<event>
 5    1  0.1300052E-008  0.2871288E+03  0.7957747E-01  0.3992420E+00
         13   -1    0    0    0    0  0.00000000000E+00  0.00000000000E+00  0.14999999963E+04  0.15000000000E+04  0.10566000000E+00 0.  1.
        994   -1    0    0    0    0 -0.00000000000E+00 -0.00000000000E+00  0.11368683772E-12  0.17120000000E+03  0.17120000000E+03 0.  0.
         13    1    1    2    0    0 -0.22878614814E+03  0.78910765560E+01  0.30731952936E+03  0.38321100579E+03  0.10566000000E+00 0.  1.
        994    1    1    2    0    0  0.23197449681E+03 -0.16819424554E+02  0.39049892951E+03  0.48568911267E+03  0.17120000000E+03 0.  0.
        998    1    1    2    0    0 -0.31883486749E+01  0.89283479977E+01  0.80218153740E+03  0.80229988154E+03  0.10000000000E+02 0.  1.
</event>
<event>
 5    1  0.1300052E-008  0.3841304E+03  0.7957747E-01  0.3433369E+00
         13   -1    0    0    0    0  0.00000000000E+00  0.00000000000E+00  0.14999999963E+04  0.15000000000E+04  0.10566000000E+00 0.  1.
        994   -1    0    0    0    0 -0.00000000000E+00 -0.00000000000E+00  0.11368683772E-12  0.17120000000E+03  0.17120000000E+03 0.  0.
         13    1    1    2    0    0 -0.71408299140E+01 -0.81121664957E+01  0.28043458624E+02  0.30054041870E+02  0.10566000000E+00 0.  1.
        994    1    1    2    0    0 -0.25086905234E+01  0.84448303338E+01  0.23185056217E+01  0.17144218896E+03  0.17120000000E+03 0.  0.
        998    1    1    2    0    0  0.96495204374E+01 -0.33266383806E+00  0.14696380320E+04  0.14697037692E+04  0.10000000000E+02 0.  1.
</event>
<event>
 5    1  0.1300052E-008  0.4122118E+03  0.7957747E-01  0.3321873E+00
         13   -1    0    0    0    0  0.00000000000E+00  0.00000000000E+00  0.14999999963E+04  0.15000000000E+04  0.10566000000E+00 0.  1.
        994   -1    0    0    0    0 -0.00000000000E+00 -0.00000000000E+00  0.11368683772E-12  0.17120000000E+03  0.17120000000E+03 0.  0.
         13    1    1    2    0    0 -0.68945961631E+02 -0.95037434971E+02  0.15391259608E+03  0.19358398195E+03  0.10566000000E+00 0.  1.
        994    1    1    2    0    0  0.81015422894E+02  0.10736324514E+03  0.11472602261E+03  0.24609320474E+03  0.17120000000E+03 0.  0.
        998    1    1    2    0    0 -0.12069461262E+02 -0.12325810170E+02  0.12313613776E+04  0.12315228133E+04  0.10000000000E+02 0.  1.
</event>
<event>
 5    1  0.1300052E-008  0.3775196E+03  0.7957747E-01  0.3462030E+00
         13   -1    0    0    0    0  0.00000000000E+00  0.00000000000E+00  0.14999999963E+04  0.15000000000E+04  0.10566000000E+00 0. -1.
        994   -1    0    0    0    0 -0.00000000000E+00 -0.00000000000E+00  0.11368683772E-12  0.17120000000E+03  0.17120000000E+03 0.  0.
         13    1    1    2    0    0 -0.70829957361E+02 -0.89019991128E+02  0.67714444623E+03  0.68663385723E+03  0.10566000000E+00 0. -1.
        994    1    1    2    0    0  0.77239734902E+02  0.79064724650E+02  0.47743337622E+02  0.20929900530E+03  0.17120000000E+03 0.  0.
        998    1    1    2    0    0 -0.64097775414E+01  0.99552664787E+01  0.77511221243E+03  0.77526713747E+03  0.10000000000E+02 0. -1.
</event>
<event>
 5    1  0.1300052E-008  0.3859513E+03  0.7957747E-01  0.3425648E+00
         13   -1    0    0    0    0  0.00000000000E+00  0.00000000000E+00  0.14999999963E+04  0.15000000000E+04  0.10566000000E+00 0. -1.
        994   -1    0    0    0    0 -0.00000000000E+00 -0.00000000000E+00  0.11368683772E-12  0.17120000000E+03  0.17120000000E+03 0.  0.
         13    1    1    2    0    0  0.31843264814E+02  0.70663241103E+02  0.16193741906E+03  0.17953001424E+03  0.10566000000E+00 0. -1.
        994    1    1    2    0    0 -0.29467543655E+02 -0.12789591915E+02  0.23467430358E+02  0.17576140099E+03  0.17120000000E+03 0.  0.
        998    1    1    2    0    0 -0.23757211589E+01 -0.57873649189E+02  0.13145951469E+04  0.13159085848E+04  0.10000000000E+02 0. -1.
</event>
<event>
 5    1  0.1300052E-008  0.3840809E+03  0.7957747E-01  0.3433579E+00
         13   -1    0    0    0    0  0.00000000000E+00  0.00000000000E+00  0.14999999963E+04  0.15000000000E+04  0.10566000000E+00 0.  1.
        994   -1    0    0    0    0 -0.00000000000E+00 -0.00000000000E+00  0.11368683772E-12  0.17120000000E+03  0.17120000000E+03 0.  0.
         13    1    1    2    0    0  0.19488092364E+02 -0.23087232344E+01  0.84532326634E+02  0.86780420356E+02  0.10566000000E+00 0.  1.
        994    1    1    2    0    0 -0.25591699304E+02  0.16064181901E+01  0.42589399988E+01  0.17316204614E+03  0.17120000000E+03 0.  0.
        998    1    1    2    0    0  0.61036069397E+01  0.70230504433E+00  0.14112087296E+04  0.14112575335E+04  0.10000000000E+02 0.  1.
</event>
<event>
 5    1  0.1300052E-008  0.3762111E+03  0.7957747E-01  0.3467824E+00
         13   -1    0    0    0    0  0.00000000000E+00  0.00000000000E+00  0.14999999963E+04  0.15000000000E+04  0.10566000000E+00 0. -1.
        994   -1    0    0    0    0 -0.00000000000E+00 -0.00000000000E+00  0.11368683772E-12  0.17120000000E+03  0.17120000000E+03 0.  0.
         13    1    1    2    0    0  0.67522705561E+02 -0.87444888273E+01  0.28892297173E+03  0.29683712134E+03  0.10566000000E+00 0. -1.
        994    1    1    2    0    0 -0.74170011486E+02  0.20717740572E+02  0.26406484094E+02  0.18957098349E+03  0.17120000000E+03 0.  0.
        998    1    1    2    0    0  0.66473059247E+01 -0.11973251744E+02  0.11846705405E+04  0.11847918952E+04  0.10000000000E+02 0. -1.
</event>
<event>
 5    1  0.1300052E-008  0.3851704E+03  0.7957747E-01  0.3428950E+00
         13   -1    0    0    0    0  0.00000000000E+00  0.00000000000E+00  0.14999999963E+04  0.15000000000E+04  0.10566000000E+00 0. -1.
        994   -1    0    0    0    0 -0.00000000000E+00 -0.00000000000E+00  0.11368683772E-12  0.17120000000E+03  0.17120000000E+03 0.  0.
         13    1    1    2    0    0  0.58155818197E+01 -0.10181266043E+02  0.45445655683E+02  0.46933974417E+02  0.10566000000E+00 0. -1.
        994    1    1    2    0    0 -0.67837181060E+01  0.66121299561E+00  0.16982822774E+01  0.17134404045E+03  0.17120000000E+03 0.  0.
        998    1    1    2    0    0  0.96813628638E+00  0.95200530476E+01  0.14528560583E+04  0.14529219851E+04  0.10000000000E+02 0. -1.
</event>
<event>
 5    1  0.1300052E-008  0.3815205E+03  0.7957747E-01  0.3444565E+00
         13   -1    0    0    0    0  0.00000000000E+00  0.00000000000E+00  0.14999999963E+04  0.15000000000E+04  0.10566000000E+00 0. -1.
        994   -1    0    0    0    0 -0.00000000000E+00 -0.00000000000E+00  0.11368683772E-12  0.17120000000E+03  0.17120000000E+03 0.  0.
         13    1    1    2    0    0  0.24172725766E+02 -0.13327901216E+01  0.83545246456E+02  0.86982276182E+02  0.10566000000E+00 0. -1.
        994    1    1    2    0    0 -0.20865024264E+02 -0.58825367258E+01  0.49323071916E+01  0.17263754264E+03  0.17120000000E+03 0.  0.
        998    1    1    2    0    0 -0.33077015030E+01  0.72153268474E+01  0.14115224426E+04  0.14115801812E+04  0.10000000000E+02 0. -1.
</event>
<event>
 5    1  0.1300052E-008  0.3776892E+03  0.7957747E-01  0.3461282E+00
         13   -1    0    0    0    0  0.00000000000E+00  0.00000000000E+00  0.14999999963E+04  0.15000000000E+04  0.10566000000E+00 0.  1.
        994   -1    0    0    0    0 -0.00000000000E+00 -0.00000000000E+00  0.11368683772E-12  0.17120000000E+03  0.17120000000E+03 0.  0.
         13    1    1    2    0    0  0.44572880146E+02 -0.12418399559E+02  0.70377324152E+02  0.84225514014E+02  0.10566000000E+00 0.  1.
        994    1    1    2    0    0 -0.16830474250E+01  0.20407351071E+02  0.16571643072E+02  0.17321475682E+03  0.17120000000E+03 0.  0.
        998    1    1    2    0    0 -0.42889832721E+02 -0.79889515122E+01  0.14130510291E+04  0.14137597292E+04  0.10000000000E+02 0.  1.
</event>
<event>
 5    1  0.1300052E-008  0.3825287E+03  0.7957747E-01  0.3440221E+00
         13   -1    0    0    0    0  0.00000000000E+00  0.00000000000E+00  0.14999999963E+04  0.15000000000E+04  0.10566000000E+00 0.  1.
        994   -1    0    0    0    0 -0.00000000000E+00 -0.00000000000E+00  0.11368683772E-12  0.17120000000E+03  0.17120000000E+03 0.  0.
         13    1    1    2    0    0  0.13953980159E+02 -0.52553690018E+01  0.37372079656E+02  0.40236997496E+02  0.10566000000E+00 0.  1.
        994    1    1    2    0    0 -0.12254189833E+02  0.57041829219E+01  0.34680184093E+01  0.17176777935E+03  0.17120000000E+03 0.  0.
        998    1    1    2    0    0 -0.16997903264E+01 -0.44881392011E+00  0.14591598982E+04  0.14591952232E+04  0.10000000000E+02 0.  1.
</event>
<event>
 5    1  0.1300052E-008  0.3691716E+03  0.7957747E-01  0.3499707E+00
         13   -1    0    0    0    0  0.00000000000E+00  0.00000000000E+00  0.14999999963E+04  0.15000000000E+04  0.10566000000E+00 0.  1.
        994   -1    0    0    0    0 -0.00000000000E+00 -0.00000000000E+00  0.11368683772E-12  0.17120000000E+03  0.17120000000E+03 0.  0.
         13    1    1    2    0    0  0.32556669283E+02 -0.48965601910E+02  0.29878338160E+03  0.30451451060E+03  0.10566000000E+00 0.  1.
        994    1    1    2    0    0 -0.16019020454E+02 -0.57865724766E+02  0.22309507830E+02  0.18279005788E+03  0.17120000000E+03 0.  0.
        998    1    1    2    0    0 -0.16537648829E+02  0.10683132668E+03  0.11789071069E+04  0.11838954315E+04  0.10000000000E+02 0.  1.
</event>
<event>
 5    1  0.1300052E-008  0.3849742E+03  0.7957747E-01  0.3429782E+00
         13   -1    0    0    0    0  0.00000000000E+00  0.00000000000E+00  0.14999999963E+04  0.15000000000E+04  0.10566000000E+00 0.  1.
        994   -1    0    0    0    0 -0.00000000000E+00 -0.00000000000E+00  0.11368683772E-12  0.17120000000E+03  0.17120000000E+03 0.  0.
         13    1    1    2    0    0 -0.63475704819E+00  0.14129981171E+02  0.65986885189E+02  0.67485846408E+02  0.10566000000E+00 0.  1.
        994    1    1    2    0    0 -0.34126001080E+01  0.30018324328E+01  0.17108994237E+01  0.17126886470E+03  0.17120000000E+03 0.  0.
        998    1    1    2    0    0  0.40473571562E+01 -0.17131813604E+02  0.14323022117E+04  0.14324452889E+04  0.10000000000E+02 0.  1.
</event>
<event>
 5    1  0.1300052E-008  0.3857498E+03  0.7957747E-01  0.3426499E+00
         13   -1    0    0    0    0  0.00000000000E+00  0.00000000000E+00  0.14999999963E+04  0.15000000000E+04  0.10566000000E+00 0.  1.
        994   -1    0    0    0    0 -0.00000000000E+00 -0.00000000000E+00  0.11368683772E-12  0.17120000000E+03  0.17120000000E+03 0.  0.
         13    1    1    2    0    0  0.11117119109E+02 -0.15826832225E+01  0.49774200020E+02  0.51025262127E+02  0.10566000000E+00 0.  1.
        994    1    1    2    0    0 -0.10567452678E+02 -0.41742769788E+01  0.16819808570E+01  0.17158486152E+03  0.17120000000E+03 0.  0.
        998    1    1    2    0    0 -0.54966643078E+00  0.57569602012E+01  0.14485438154E+04  0.14485898763E+04  0.10000000000E+02 0.  1.
</event>
<event>
 5    1  0.1300052E-008  0.3839250E+03  0.7957747E-01  0.3434244E+00
         13   -1    0    0    0    0  0.00000000000E+00  0.00000000000E+00  0.14999999963E+04  0.15000000000E+04  0.10566000000E+00 0.  1.
        994   -1    0    0    0    0 -0.00000000000E+00 -0.00000000000E+00  0.11368683772E-12  0.17120000000E+03  0.17120000000E+03 0.  0.
         13    1    1    2    0    0 -0.22037637807E+02 -0.10459757771E+02  0.12735484054E+03  0.12967008362E+03  0.10566000000E+00 0.  1.
        994    1    1    2    0    0  0.22802505851E+02  0.87557344409E+01  0.41361851460E+01  0.17298313555E+03  0.17120000000E+03 0.  0.
        998    1    1    2    0    0 -0.76486804448E+00  0.17040233300E+01  0.13685089706E+04  0.13685467808E+04  0.10000000000E+02 0.  1.
</event>
<event>
 5    1  0.1300052E-008  0.3845857E+03  0.7957747E-01  0.3431431E+00
         13   -1    0    0    0    0  0.00000000000E+00  0.00000000000E+00  0.14999999963E+04  0.15000000000E+04  0.10566000000E+00 0. -1.
        994   -1    0    0    0    0 -0.00000000000E+00 -0.00000000000E+00  0.11368683772E-12  0.17120000000E+03  0.17120000000E+03 0.  0.
         13    1    1    2    0    0  0.10839842652E+02 -0.35612437281E+01  0.35838286910E+02  0.37610884306E+02  0.10566000000E+00 0. -1.
        994    1    1    2    0    0 -0.98330539953E+00  0.74591019246E+01  0.20223782973E+01  0.17137717207E+03  0.17120000000E+03 0.  0.
        998    1    1    2    0    0 -0.98565372521E+01 -0.38978581965E+01  0.14621393311E+04  0.14622119436E+04  0.10000000000E+02 0. -1.
</event>
<event>
 5    1  0.1300052E-008  0.3754159E+03  0.7957747E-01  0.3471365E+00
         13   -1    0    0    0    0  0.00000000000E+00  0.00000000000E+00  0.14999999963E+04  0.15000000000E+04  0.10566000000E+00 0. -1.
        994   -1    0    0    0    0 -0.00000000000E+00 -0.00000000000E+00  0.11368683772E-12  0.17120000000E+03  0.17120000000E+03 0.  0.
         13    1    1    2    0    0 -0.38494470296E+02 -0.15180619345E+02  0.11896534156E+03  0.12595649687E+03  0.10566000000E+00 0. -1.
        994    1    1    2    0    0  0.42020550347E+02  0.14404141768E+02  0.13192828357E+02  0.17736035823E+03  0.17120000000E+03 0.  0.
        998    1    1    2    0    0 -0.35260800506E+01  0.77647757740E+00  0.13678418264E+04  0.13678831449E+04  0.10000000000E+02 0. -1.
</event>
<event>
 5    1  0.1300052E-008  0.3805770E+03  0.7957747E-01  0.3448650E+00
         13   -1    0    0    0    0  0.00000000000E+00  0.00000000000E+00  0.14999999963E+04  0.15000000000E+04  0.10566000000E+00 0.  1.
        994   -1    0    0    0    0 -0.00000000000E+00 -0.00000000000E+00  0.11368683772E-12  0.17120000000E+03  0.17120000000E+03 0.  0.
         13    1    1    2    0    0 -0.99824156460E+01 -0.42616755384E+02  0.22500601424E+03  0.22922380782E+03  0.10566000000E+00 0.  1.
        994    1    1    2    0    0  0.49957051333E+01  0.37087270350E+02  0.85288775692E+01  0.17544972056E+03  0.17120000000E+03 0.  0.
        998    1    1    2    0    0  0.49867105127E+01  0.55294850336E+01  0.12664651045E+04  0.12665264716E+04  0.10000000000E+02 0.  1.
</event>
<event>
 5    1  0.1300052E-008  0.3838925E+03  0.7957747E-01  0.3434383E+00
         13   -1    0    0    0    0  0.00000000000E+00  0.00000000000E+00  0.14999999963E+04  0.15000000000E+04  0.10566000000E+00 0.  1.
        994   -1    0    0    0    0 -0.00000000000E+00 -0.00000000000E+00  0.11368683772E-12  0.17120000000E+03  0.17120000000E+03 0.  0.
         13    1    1    2    0    0  0.18412198701E+02 -0.95882405019E+01  0.96179751356E+02  0.98394609364E+02  0.10566000000E+00 0.  1.
        994    1    1    2    0    0 -0.16275053451E+02  0.41811971026E+01  0.31134617712E+01  0.17205084544E+03  0.17120000000E+03 0.  0.
        998    1    1    2    0    0 -0.21371452496E+01  0.54070433993E+01  0.14007067832E+04  0.14007545452E+04  0.10000000000E+02 0.  1.
</event>
<event>
 5    1  0.1300052E-008  0.3838336E+03  0.7957747E-01  0.3434634E+00
         13   -1    0    0    0    0  0.00000000000E+00  0.00000000000E+00  0.14999999963E+04  0.15000000000E+04  0.10566000000E+00 0.  1.
        994   -1    0    0    0    0 -0.00000000000E+00 -0.00000000000E+00  0.11368683772E-12  0.17120000000E+03  0.17120000000E+03 0.  0.
         13    1    1    2    0    0 -0.19933364494E+02  0.31074674024E+02  0.21279703461E+03  0.21597584005E+03  0.10566000000E+00 0.  1.
        994    1    1    2    0    0  0.31605502977E+02 -0.51238667086E+02  0.14267866013E+02  0.18203659199E+03  0.17120000000E+03 0.  0.
        998    1    1    2    0    0 -0.11672138482E+02  0.20163993063E+02  0.12729350957E+04  0.12731875680E+04  0.10000000000E+02 0.  1.
</event>
<event>
 5    1  0.1300052E-008  0.3809818E+03  0.7957747E-01  0.3446895E+00
         13   -1    0    0    0    0  0.00000000000E+00  0.00000000000E+00  0.14999999963E+04  0.15000000000E+04  0.10566000000E+00 0.  1.
        994   -1    0    0    0    0 -0.00000000000E+00 -0.00000000000E+00  0.11368683772E-12  0.17120000000E+03  0.17120000000E+03 0.  0.
         13    1    1    2    0    0 -0.85774321201E+01 -0.15848311669E+02  0.42749429500E+02  0.46392523224E+02  0.10566000000E+00 0.  1.
        994    1    1    2    0    0  0.12319241907E+02  0.10773920595E+02  0.45313415656E+01  0.17204015270E+03  0.17120000000E+03 0.  0.
        998    1    1    2    0    0 -0.37418097869E+01  0.50743910742E+01  0.14527192252E+04  0.14527673241E+04  0.10000000000E+02 0.  1.
</event>
<event>
 5    1  0.1300052E-008  0.3841264E+03  0.7957747E-01  0.3433386E+00
         13   -1    0    0    0    0  0.00000000000E+00  0.00000000000E+00  0.14999999963E+04  0.15000000000E+04  0.10566000000E+00 0.  1.
        994   -1    0    0    0    0 -0.00000000000E+00 -0.00000000000E+00  0.11368683772E-12  0.17120000000E+03  0.17120000000E+03 0.  0.
         13    1    1    2    0    0  0.76674305432E+01  0.10674652520E+02  0.41001848360E+02  0.43056944045E+02  0.10566000000E+00 0.  1.
        994    1    1    2    0    0 -0.53728373773E+01 -0.94180514436E+01  0.24523146925E+01  0.17156054594E+03  0.17120000000E+03 0.  0.
        998    1    1    2    0    0 -0.22945931659E+01 -0.12566010759E+01  0.14565458332E+04  0.14565825100E+04  0.10000000000E+02 0.  1.
</event>
<event>
 5    1  0.1300052E-008  0.3800811E+03  0.7957747E-01  0.3450805E+00
         13   -1    0    0    0    0  0.00000000000E+00  0.00000000000E+00  0.14999999963E+04  0.15000000000E+04  0.10566000000E+00 0.  1.
        994   -1    0    0    0    0 -0.00000000000E+00 -0.00000000000E+00  0.11368683772E-12  0.17120000000E+03  0.17120000000E+03 0.  0.
         13    1    1    2    0    0  0.39259119552E+02  0.87905027658E+01  0.10034448086E+03  0.10810909957E+03  0.10566000000E+00 0.  1.
        994    1    1    2    0    0 -0.14962805084E+03 -0.53193904442E+02  0.93570990977E+02  0.25156135518E+03  0.17120000000E+03 0.  0.
        998    1    1    2    0    0  0.11036893129E+03  0.44403401676E+02  0.13060845244E+04  0.13115295452E+04  0.10000000000E+02 0.  1.
</event>
<event>
 5    1  0.1300052E-008  0.3886434E+03  0.7957747E-01  0.3414365E+00
         13   -1    0    0    0    0  0.00000000000E+00  0.00000000000E+00  0.14999999963E+04  0.15000000000E+04  0.10566000000E+00 0.  1.
        994   -1    0    0    0    0 -0.00000000000E+00 -0.00000000000E+00  0.11368683772E-12  0.17120000000E+03  0.17120000000E+03 0.  0.
         13    1    1    2    0    0 -0.22077688381E+02  0.63661473978E+02  0.89438178911E+02  0.11197949189E+03  0.10566000000E+00 0.  1.
        994    1    1    2    0    0  0.24128950716E+02 -0.81788337807E+02  0.48918573127E+02  0.19741835087E+03  0.17120000000E+03 0.  0.
        998    1    1    2    0    0 -0.20512623353E+01  0.18126863830E+02  0.13616432442E+04  0.13618021572E+04  0.10000000000E+02 0.  1.
</event>
<event>
 5    1  0.1300052E-008  0.3860876E+03  0.7957747E-01  0.3425073E+00
         13   -1    0    0    0    0  0.00000000000E+00  0.00000000000E+00  0.14999999963E+04  0.15000000000E+04  0.10566000000E+00 0.  1.
        994   -1    0    0    0    0 -0.00000000000E+00 -0.00000000000E+00  0.11368683772E-12  0.17120000000E+03  0.17120000000E+03 0.  0.
         13    1    1    2    0    0  0.71695636791E+01  0.91692270749E+01  0.61982903431E+02  0.63066384471E+02  0.10566000000E+00 0.  1.
        994    1    1    2    0    0 -0.22998158732E+01 -0.10615295309E+02  0.14778331208E+01  0.17155056875E+03  0.17120000000E+03 0.  0.
        998    1    1    2    0    0 -0.48697478059E+01  0.14460682341E+01  0.14365392597E+04  0.14365830468E+04  0.10000000000E+02 0.  1.
</event>
<event>
 5    1  0.1300052E-008  0.3812595E+03  0.7957747E-01  0.3445693E+00
         13   -1    0    0    0    0  0.00000000000E+00  0.00000000000E+00  0.14999999963E+04  0.15000000000E+04  0.10566000000E+00 0.  1.
        994   -1    0    0    0    0 -0.00000000000E+00 -0.00000000000E+00  0.11368683772E-12  0.17120000000E+03  0.17120000000E+03 0.  0.
         13    1    1    2    0    0 -0.14496944548E+02 -0.16789354728E+02  0.78157569906E+02  0.81244450464E+02  0.10566000000E+00 0.  1.
        994    1    1    2    0    0 -0.22213273289E+02  0.55796326178E+01  0.52469749608E+01  0.17280489737E+03  0.17120000000E+03 0.  0.
        998    1    1    2    0    0  0.36710217837E+02  0.11209722110E+02  0.14165954514E+04  0.14171506522E+04  0.10000000000E+02 0.  1.
</event>
<event>
 5    1  0.1300052E-008  0.3786062E+03  0.7957747E-01  0.3457250E+00
         13   -1    0    0    0    0  0.00000000000E+00  0.00000000000E+00  0.14999999963E+04  0.15000000000E+04  0.10566000000E+00 0. -1.
        994   -1    0    0    0    0 -0.00000000000E+00 -0.00000000000E+00  0.11368683772E-12  0.17120000000E+03  0.17120000000E+03 0.  0.
         13    1    1    2    0    0 -0.23816350888E+02  0.12967272895E+02  0.70751977215E+02  0.75770853102E+02  0.10566000000E+00 0. -1.
        994    1    1    2    0    0  0.33404631262E+02  0.10160575012E+01  0.85985188460E+01  0.17464328298E+03  0.17120000000E+03 0.  0.
        998    1    1    2    0    0 -0.95882803742E+01 -0.13983330396E+02  0.14206495002E+04  0.14207858639E+04  0.10000000000E+02 0. -1.
</event>
<event>
 5    1  0.1300052E-008  0.3860139E+03  0.7957747E-01  0.3425383E+00
         13   -1    0    0    0    0  0.00000000000E+00  0.00000000000E+00  0.14999999963E+04  0.15000000000E+04  0.10566000000E+00 0. -1.
        994   -1    0    0    0    0 -0.00000000000E+00 -0.00000000000E+00  0.11368683772E-12  0.17120000000E+03  0.17120000000E+03 0.  0.
         13    1    1    2    0    0 -0.50044759225E+01  0.12040917297E+02  0.72004544302E+02  0.73175774904E+02  0.10566000000E+00 0. -1.
        994    1    1    2    0    0  0.41503125806E+01 -0.15547860246E+02  0.19768683901E+01  0.17196601136E+03  0.17120000000E+03 0.  0.
        998    1    1    2    0    0  0.85416334185E+00  0.35069429483E+01  0.14260185836E+04  0.14260582137E+04  0.10000000000E+02 0. -1.
</event>
<event>
 5    1  0.1300052E-008  0.4311301E+03  0.7957747E-01  0.3254860E+00
         13   -1    0    0    0    0  0.00000000000E+00  0.00000000000E+00  0.14999999963E+04  0.15000000000E+04  0.10566000000E+00 0. -1.
        994   -1    0    0    0    0 -0.00000000000E+00 -0.00000000000E+00  0.11368683772E-12  0.17120000000E+03  0.17120000000E+03 0.  0.
         13    1    1    2    0    0 -0.73452012841E+02  0.11385661674E+03  0.16335981010E+03  0.21223799398E+03  0.10566000000E+00 0. -1.
        994    1    1    2    0    0  0.71668814361E+02 -0.10223586503E+03  0.12255966068E+03  0.24478337664E+03  0.17120000000E+03 0.  0.
        998    1    1    2    0    0  0.17831984800E+01 -0.11620751710E+02  0.12140805255E+04  0.12141786294E+04  0.10000000000E+02 0.  1.
</event>
<event>
 5    1  0.1300052E-008  0.3744149E+03  0.7957747E-01  0.3475844E+00
         13   -1    0    0    0    0  0.00000000000E+00  0.00000000000E+00  0.14999999963E+04  0.15000000000E+04  0.10566000000E+00 0. -1.
        994   -1    0    0    0    0 -0.00000000000E+00 -0.00000000000E+00  0.11368683772E-12  0.17120000000E+03  0.17120000000E+03 0.  0.
         13    1    1    2    0    0  0.33453238905E+02 -0.79581934068E+01  0.76220444379E+02  0.83618295491E+02  0.10566000000E+00 0. -1.
        994    1    1    2    0    0 -0.41231796548E+02  0.79125764948E+01  0.13006780165E+02  0.17675204735E+03  0.17120000000E+03 0.  0.
        998    1    1    2    0    0  0.77785576427E+01  0.45616912001E-01  0.14107727717E+04  0.14108296572E+04  0.10000000000E+02 0. -1.
</event>
<event>
 5    1  0.1300052E-008  0.3789328E+03  0.7957747E-01  0.3455818E+00
         13   -1    0    0    0    0  0.00000000000E+00  0.00000000000E+00  0.14999999963E+04  0.15000000000E+04  0.10566000000E+00 0.  1.
        994   -1    0    0    0    0 -0.00000000000E+00 -0.00000000000E+00  0.11368683772E-12  0.17120000000E+03  0.17120000000E+03 0.  0.
         13    1    1    2    0    0  0.52353373849E+01  0.24641896358E+02  0.64945076305E+02  0.69659930476E+02  0.10566000000E+00 0.  1.
        994    1    1    2    0    0 -0.87508093398E+00 -0.21007063860E+02  0.61572177508E+01  0.17259610027E+03  0.17120000000E+03 0.  0.
        998    1    1    2    0    0 -0.43602564509E+01 -0.36348324985E+01  0.14288977022E+04  0.14289439693E+04  0.10000000000E+02 0.  1.
</event>
<event>
 5    1  0.1300052E-008  0.3706351E+03  0.7957747E-01  0.3492977E+00
         13   -1    0    0    0    0  0.00000000000E+00  0.00000000000E+00  0.14999999963E+04  0.15000000000E+04  0.10566000000E+00 0.  1.
        994   -1    0    0    0    0 -0.00000000000E+00 -0.00000000000E+00  0.11368683772E-12  0.17120000000E+03  0.17120000000E+03 0.  0.
         13    1    1    2    0    0 -0.10848841526E+02 -0.20355196741E+01  0.26670208442E+01  0.11356269943E+02  0.10566000000E+00 0.  1.
        994    1    1    2    0    0  0.79386411599E+01  0.33072011404E+00  0.91553079352E+01  0.17162864290E+03  0.17120000000E+03 0.  0.
        998    1    1    2    0    0  0.29102003659E+01  0.17047995601E+01  0.14881776675E+04  0.14882150872E+04  0.10000000000E+02 0.  1.
</event>
<event>
 5    1  0.1300052E-008  0.3854920E+03  0.7957747E-01  0.3427588E+00
         13   -1    0    0    0    0  0.00000000000E+00  0.00000000000E+00  0.14999999963E+04  0.15000000000E+04  0.10566000000E+00 0. -1.
        994   -1    0    0    0    0 -0.00000000000E+00 -0.00000000000E+00  0.11368683772E-12  0.17120000000E+03  0.17120000000E+03 0.  0.
         13    1    1    2    0    0 -0.12583609034E+02 -0.82754148562E+01  0.84435548790E+02  0.85768308663E+02  0.10566000000E+00 0. -1.
        994    1    1    2    0    0  0.18421509988E+01  0.90472272531E+01  0.16660088699E+01  0.17145687921E+03  0.17120000000E+03 0.  0.
        998    1    1    2    0    0  0.10741458035E+02 -0.77181239687E+00  0.14138984386E+04  0.14139748121E+04  0.10000000000E+02 0. -1.
</event>
<event>
 5    1  0.1300052E-008  0.3849785E+03  0.7957747E-01  0.3429763E+00
         13   -1    0    0    0    0  0.00000000000E+00  0.00000000000E+00  0.14999999963E+04  0.15000000000E+04  0.10566000000E+00 0. -1.
        994   -1    0    0    0    0 -0.00000000000E+00 -0.00000000000E+00  0.11368683772E-12  0.17120000000E+03  0.17120000000E+03 0.  0.
         13    1    1    2    0    0 -0.10717487156E+02 -0.28086020859E+00  0.39525099399E+02  0.40953486542E+02  0.10566000000E+00 0. -1.
        994    1    1    2    0    0 -0.17640355657E+02  0.38067536459E+01  0.27126276717E+01  0.17216989246E+03  0.17120000000E+03 0.  0.
        998    1    1    2    0    0  0.28357842813E+02 -0.35258934373E+01  0.14577622692E+04  0.14580766210E+04  0.10000000000E+02 0. -1.
</event>
<event>
 5    1  0.1300052E-008  0.3799547E+03  0.7957747E-01  0.3451356E+00
         13   -1    0    0    0    0  0.00000000000E+00  0.00000000000E+00  0.14999999963E+04  0.15000000000E+04  0.10566000000E+00 0. -1.
        994   -1    0    0    0    0 -0.00000000000E+00 -0.00000000000E+00  0.11368683772E-12  0.17120000000E+03  0.17120000000E+03 0.  0.
         13    1    1    2    0    0 -0.88851313825E+00  0.42492581600E+02  0.48252711480E+02  0.64301977231E+02  0.10566000000E+00 0. -1.
        994    1    1    2    0    0 -0.13282458430E+02 -0.38938288807E+02  0.22459576686E+02  0.17750066654E+03  0.17120000000E+03 0.  0.
        998    1    1    2    0    0  0.14170971568E+02 -0.35542927923E+01  0.14292877081E+04  0.14293973562E+04  0.10000000000E+02 0. -1.
</event>
<event>
 5    1  0.2102402E-008  0.3862636E+03  0.7957747E-01  0.3424331E+00
         13   -1    0    0    0    0  0.00000000000E+00  0.00000000000E+00  0.14999999963E+04  0.15000000000E+04  0.10566000000E+00 0.  1.
        994   -1    0    0    0    0 -0.00000000000E+00 -0.00000000000E+00  0.11368683772E-12  0.17120000000E+03  0.17120000000E+03 0.  0.
         13    1    1    2    0    0  0.92212738803E+01  0.53150715348E+01  0.56170096748E+02  0.57169684363E+02  0.10566000000E+00 0.  1.
        994    1    1    2    0    0 -0.69736350636E+01 -0.78732006808E+01  0.13664737366E+01  0.17152820796E+03  0.17120000000E+03 0.  0.
        998    1    1    2    0    0 -0.22476388167E+01  0.25581291460E+01  0.14424634258E+04  0.14425021077E+04  0.10000000000E+02 0.  1.
</event>
<event>
 5    1  0.1300052E-008  0.3818061E+03  0.7957747E-01  0.3443332E+00
         13   -1    0    0    0    0  0.00000000000E+00  0.00000000000E+00  0.14999999963E+04  0.15000000000E+04  0.10566000000E+00 0.  1.
        994   -1    0    0    0    0 -0.00000000000E+00 -0.00000000000E+00  0.11368683772E-12  0.17120000000E+03  0.17120000000E+03 0.  0.
         13    1    1    2    0    0  0.13998546825E+02 -0.18884996501E+01  0.29758342885E+02  0.32940793546E+02  0.10566000000E+00 0.  1.
        994    1    1    2    0    0 -0.97703236639E+01 -0.19496382720E+01  0.35541298080E+01  0.17152647654E+03  0.17120000000E+03 0.  0.
        998    1    1    2    0    0 -0.42282231608E+01  0.38381379221E+01  0.14666875236E+04  0.14667327299E+04  0.10000000000E+02 0.  1.
</event>
<event>
 5    1  0.1300052E-008  0.3829371E+03  0.7957747E-01  0.3438469E+00
         13   -1    0    0    0    0  0.00000000000E+00  0.00000000000E+00  0.14999999963E+04  0.15000000000E+04  0.10566000000E+00 0. -1.
        994   -1    0    0    0    0 -0.00000000000E+00 -0.00000000000E+00  0.11368683772E-12  0.17120000000E+03  0.17120000000E+03 0.  0.
         13    1    1    2    0    0 -0.11735852322E+02 -0.17527800653E+01  0.25168805989E+02  0.27825930832E+02  0.10566000000E+00 0. -1.
        994    1    1    2    0    0  0.13971362481E+02 -0.80172288728E+01  0.35173514189E+01  0.17199211229E+03  0.17120000000E+03 0.  0.
        998    1    1    2    0    0 -0.22355101587E+01  0.97700089380E+01  0.14713138389E+04  0.14713819569E+04  0.10000000000E+02 0. -1.
</event>
<event>
 5    1  0.1300052E-008  0.3831656E+03  0.7957747E-01  0.3437490E+00
         13   -1    0    0    0    0  0.00000000000E+00  0.00000000000E+00  0.14999999963E+04  0.15000000000E+04  0.10566000000E+00 0. -1.
        994   -1    0    0    0    0 -0.00000000000E+00 -0.00000000000E+00  0.11368683772E-12  0.17120000000E+03  0.17120000000E+03 0.  0.
         13    1    1    2    0    0 -0.25926601204E+02 -0.74776326185E+01  0.13813997246E+03  0.14075072573E+03  0.10566000000E+00 0. -1.
        994    1    1    2    0    0  0.19710269993E+02  0.48177207714E+01  0.39068819889E+01  0.17244247999E+03  0.17120000000E+03 0.  0.
        998    1    1    2    0    0  0.62163312106E+01  0.26599118471E+01  0.13579531418E+04  0.13580067943E+04  0.10000000000E+02 0. -1.
</event>
<event>
 5    1  0.1300052E-008  0.3798863E+03  0.7957747E-01  0.3451654E+00
         13   -1    0    0    0    0  0.00000000000E+00  0.00000000000E+00  0.14999999963E+04  0.15000000000E+04  0.10566000000E+00 0.  1.
        994   -1    0    0    0    0 -0.00000000000E+00 -0.00000000000E+00  0.11368683772E-12  0.17120000000E+03  0.17120000000E+03 0.  0.
         13    1    1    2    0    0  0.34289757153E+02 -0.26192894384E+02  0.20920186584E+03  0.21360544702E+03  0.10566000000E+00 0.  1.
        994    1    1    2    0    0 -0.40255625737E+02  0.13659183994E+01  0.96351946628E+01  0.17613817903E+03  0.17120000000E+03 0.  0.
        998    1    1    2    0    0  0.59658685839E+01  0.24826975984E+02  0.12811629358E+04  0.12814563740E+04  0.10000000000E+02 0.  1.
</event>
<event>
 5    1  0.1300052E-008  0.3839299E+03  0.7957747E-01  0.3434223E+00
         13   -1    0    0    0    0  0.00000000000E+00  0.00000000000E+00  0.14999999963E+04  0.15000000000E+04  0.10566000000E+00 0. -1.
        994   -1    0    0    0    0 -0.00000000000E+00 -0.00000000000E+00  0.11368683772E-12  0.17120000000E+03  0.17120000000E+03 0.  0.
         13    1    1    2    0    0 -0.75515388947E+01 -0.90071135445E+01  0.30910725613E+02  0.33070197400E+02  0.10566000000E+00 0. -1.
        994    1    1    2    0    0  0.24309789071E+01  0.13017591183E+02  0.27412777841E+01  0.17173328723E+03  0.17120000000E+03 0.  0.
        998    1    1    2    0    0  0.51205599876E+01 -0.40104776387E+01  0.14663479929E+04  0.14663965154E+04  0.10000000000E+02 0. -1.
</event>
<event>
 5    1  0.1300052E-008  0.3852773E+03  0.7957747E-01  0.3428497E+00
         13   -1    0    0    0    0  0.00000000000E+00  0.00000000000E+00  0.14999999963E+04  0.15000000000E+04  0.10566000000E+00 0.  1.
        994   -1    0    0    0    0 -0.00000000000E+00 -0.00000000000E+00  0.11368683772E-12  0.17120000000E+03  0.17120000000E+03 0.  0.
         13    1    1    2    0    0  0.10222425939E+02 -0.82552049045E+01  0.57617375924E+02  0.59096696799E+02  0.10566000000E+00 0.  1.
        994    1    1    2    0    0 -0.87086648344E+01  0.47385993067E+01  0.18155599988E+01  0.17149644727E+03  0.17120000000E+03 0.  0.
        998    1    1    2    0    0 -0.15137611042E+01  0.35166055978E+01  0.14405670604E+04  0.14406068559E+04  0.10000000000E+02 0.  1.
</event>
<event>
 5    1  0.1300052E-008  0.3728397E+03  0.7957747E-01  0.3482941E+00
         13   -1    0    0    0    0  0.00000000000E+00  0.00000000000E+00  0.14999999963E+04  0.15000000000E+04  0.10566000000E+00 0.  1.
        994   -1    0    0    0    0 -0.00000000000E+00 -0.00000000000E+00  0.11368683772E-12  0.17120000000E+03  0.17120000000E+03 0.  0.
         13    1    1    2    0    0  0.17521285019E+02 -0.23918267288E+02  0.67513350245E+02  0.73736982337E+02  0.10566000000E+00 0.  1.
        994    1    1    2    0    0  0.38892748096E+02 -0.33459322639E+02  0.16859539628E+02  0.17951561548E+03  0.17120000000E+03 0.  0.
        998    1    1    2    0    0 -0.56414033115E+02  0.57377589927E+02  0.14156271064E+04  0.14179474022E+04  0.10000000000E+02 0.  1.
</event>
<event>
 5    1  0.1300052E-008  0.3822623E+03  0.7957747E-01  0.3441367E+00
         13   -1    0    0    0    0  0.00000000000E+00  0.00000000000E+00  0.14999999963E+04  0.15000000000E+04  0.10566000000E+00 0. -1.
        994   -1    0    0    0    0 -0.00000000000E+00 -0.00000000000E+00  0.11368683772E-12  0.17120000000E+03  0.17120000000E+03 0.  0.
         13    1    1    2    0    0 -0.14332703708E+02 -0.71254532892E+01  0.43495658909E+02  0.46347405409E+02  0.10566000000E+00 0. -1.
        994    1    1    2    0    0  0.21107480929E+01 -0.32121492387E+01  0.30444892906E+01  0.17127020195E+03  0.17120000000E+03 0.  0.
        998    1    1    2    0    0  0.12221955615E+02  0.10337602528E+02  0.14534598481E+04  0.14535823926E+04  0.10000000000E+02 0. -1.
</event>
<event>
 5    1  0.1300052E-008  0.3826567E+03  0.7957747E-01  0.3439671E+00
         13   -1    0    0    0    0  0.00000000000E+00  0.00000000000E+00  0.14999999963E+04  0.15000000000E+04  0.10566000000E+00 0.  1.
        994   -1    0    0    0    0 -0.00000000000E+00 -0.00000000000E+00  0.11368683772E-12  0.17120000000E+03  0.17120000000E+03 0.  0.
         13    1    1    2    0    0 -0.15420932111E+02  0.11985965233E+02  0.67792967819E+02  0.70550451165E+02  0.10566000000E+00 0.  1.
        994    1    1    2    0    0  0.13441800319E+02 -0.90675522036E+00  0.33997221037E+01  0.17176292473E+03  0.17120000000E+03 0.  0.
        998    1    1    2    0    0  0.19791317915E+01 -0.11079210013E+02  0.14288073064E+04  0.14288866241E+04  0.10000000000E+02 0.  1.
</event>
<event>
 5    1  0.1300052E-008  0.3840641E+03  0.7957747E-01  0.3433651E+00
         13   -1    0    0    0    0  0.00000000000E+00  0.00000000000E+00  0.14999999963E+04  0.15000000000E+04  0.10566000000E+00 0. -1.
        994   -1    0    0    0    0 -0.00000000000E+00 -0.00000000000E+00  0.11368683772E-12  0.17120000000E+03  0.17120000000E+03 0.  0.
         13    1    1    2    0    0 -0.12287371214E+02  0.15666080414E+02  0.90628409167E+02  0.92789683042E+02  0.10566000000E+00 0. -1.
        994    1    1    2    0    0  0.20912317911E+02 -0.72580654278E+01  0.37135399916E+01  0.17266509472E+03  0.17120000000E+03 0.  0.
        998    1    1    2    0    0 -0.86249466966E+01 -0.84080149860E+01  0.14056580471E+04  0.14057452222E+04  0.10000000000E+02 0. -1.
</event>
<event>
 5    1  0.1300052E-008  0.3789684E+03  0.7957747E-01  0.3455663E+00
         13   -1    0    0    0    0  0.00000000000E+00  0.00000000000E+00  0.14999999963E+04  0.15000000000E+04  0.10566000000E+00 0.  1.
        994   -1    0    0    0    0 -0.00000000000E+00 -0.00000000000E+00  0.11368683772E-12  0.17120000000E+03  0.17120000000E+03 0.  0.
         13    1    1    2    0    0  0.36755337064E+02  0.84402262708E+01  0.18273398114E+03  0.18658486340E+03  0.10566000000E+00 0.  1.
        994    1    1    2    0    0  0.44907001845E+01  0.51994387530E+01  0.48131323199E+01  0.17140538730E+03  0.17120000000E+03 0.  0.
        998    1    1    2    0    0 -0.41246037248E+02 -0.13639665024E+02  0.13124528828E+04  0.13132097493E+04  0.10000000000E+02 0.  1.
</event>
<event>
 5    1  0.1300052E-008  0.3812859E+03  0.7957747E-01  0.3445579E+00
         13   -1    0    0    0    0  0.00000000000E+00  0.00000000000E+00  0.14999999963E+04  0.15000000000E+04  0.10566000000E+00 0. -1.
        994   -1    0    0    0    0 -0.00000000000E+00 -0.00000000000E+00  0.11368683772E-12  0.17120000000E+03  0.17120000000E+03 0.  0.
         13    1    1    2    0    0  0.14918911572E+02  0.35211470557E+02  0.21675106926E+03  0.22009874777E+03  0.10566000000E+00 0. -1.
        994    1    1    2    0    0 -0.57526639441E+01 -0.16590641061E+02  0.45125163710E+01  0.17215732723E+03  0.17120000000E+03 0.  0.
        998    1    1    2    0    0 -0.91662476281E+01 -0.18620829496E+02  0.12787364106E+04  0.12789439250E+04  0.10000000000E+02 0. -1.
</event>
<event>
 5    1  0.1300052E-008  0.3713861E+03  0.7957747E-01  0.3489545E+00
         13   -1    0    0    0    0  0.00000000000E+00  0.00000000000E+00  0.14999999963E+04  0.15000000000E+04  0.10566000000E+00 0. -1.
        994   -1    0    0    0    0 -0.00000000000E+00 -0.00000000000E+00  0.11368683772E-12  0.17120000000E+03  0.17120000000E+03 0.  0.
         13    1    1    2    0    0  0.54056491458E+02 -0.11299795859E+02  0.18965305555E+03  0.19752995292E+03  0.10566000000E+00 0. -1.
        994    1    1    2    0    0 -0.19911250515E+02 -0.67892968576E+01  0.10070756059E+02  0.17278140113E+03  0.17120000000E+03 0.  0.
        998    1    1    2    0    0 -0.34145240942E+02  0.18089092717E+02  0.13002761847E+04  0.13008886460E+04  0.10000000000E+02 0. -1.
</event>
<event>
 5    1  0.1300052E-008  0.3819703E+03  0.7957747E-01  0.3442624E+00
         13   -1    0    0    0    0  0.00000000000E+00  0.00000000000E+00  0.14999999963E+04  0.15000000000E+04  0.10566000000E+00 0. -1.
        994   -1    0    0    0    0 -0.00000000000E+00 -0.00000000000E+00  0.11368683772E-12  0.17120000000E+03  0.17120000000E+03 0.  0.
         13    1    1    2    0    0  0.39811389062E+01  0.29160322467E+02  0.12812553752E+03  0.13146230791E+03  0.10566000000E+00 0. -1.
        994    1    1    2    0    0 -0.62067874952E+01 -0.27115111709E+02  0.57159421760E+01  0.17353923328E+03  0.17120000000E+03 0.  0.
        998    1    1    2    0    0  0.22256485890E+01 -0.20452107576E+01  0.13661585166E+04  0.13661984588E+04  0.10000000000E+02 0. -1.
</event>
<event>
 5    1  0.1300052E-008  0.3838600E+03  0.7957747E-01  0.3434522E+00
         13   -1    0    0    0    0  0.00000000000E+00  0.00000000000E+00  0.14999999963E+04  0.15000000000E+04  0.10566000000E+00 0.  1.
        994   -1    0    0    0    0 -0.00000000000E+00 -0.00000000000E+00  0.11368683772E-12  0.17120000000E+03  0.17120000000E+03 0.  0.
         13    1    1    2    0    0 -0.16218268148E+02  0.91340775402E+01  0.81679437864E+02  0.83773535965E+02  0.10566000000E+00 0.  1.
        994    1    1    2    0    0  0.91428825131E+01  0.53307347604E+01  0.25670039403E+01  0.17154602456E+03  0.17120000000E+03 0.  0.
        998    1    1    2    0    0  0.70753856346E+01 -0.14464812301E+02  0.14157535545E+04  0.14158804395E+04  0.10000000000E+02 0.  1.
</event>
<event>
 5    1  0.1300052E-008  0.3816258E+03  0.7957747E-01  0.3444110E+00
         13   -1    0    0    0    0  0.00000000000E+00  0.00000000000E+00  0.14999999963E+04  0.15000000000E+04  0.10566000000E+00 0.  1.
        994   -1    0    0    0    0 -0.00000000000E+00 -0.00000000000E+00  0.11368683772E-12  0.17120000000E+03  0.17120000000E+03 0.  0.
         13    1    1    2    0    0 -0.70033898124E+01 -0.23938996740E+02  0.10006364467E+03  0.10312549240E+03  0.10566000000E+00 0.  1.
        994    1    1    2    0    0 -0.13103737933E+01  0.25933453664E+01  0.33427794549E+01  0.17125728216E+03  0.17120000000E+03 0.  0.
        998    1    1    2    0    0  0.83137636057E+01  0.21345651373E+02  0.13965935722E+04  0.13968172254E+04  0.10000000000E+02 0.  1.
</event>
<event>
 5    1  0.1300052E-008  0.3753485E+03  0.7957747E-01  0.3471666E+00
         13   -1    0    0    0    0  0.00000000000E+00  0.00000000000E+00  0.14999999963E+04  0.15000000000E+04  0.10566000000E+00 0.  1.
        994   -1    0    0    0    0 -0.00000000000E+00 -0.00000000000E+00  0.11368683772E-12  0.17120000000E+03  0.17120000000E+03 0.  0.
         13    1    1    2    0    0  0.88314779116E+01 -0.13251553814E+02  0.17360884958E+02  0.23558653848E+02  0.10566000000E+00 0.  1.
        994    1    1    2    0    0  0.13985321684E+02  0.25513322711E+01  0.71863258004E+01  0.17193947132E+03  0.17120000000E+03 0.  0.
        998    1    1    2    0    0 -0.22816799595E+02  0.10700221543E+02  0.14754527855E+04  0.14757018748E+04  0.10000000000E+02 0.  1.
</event>
<event>
 5    1  0.1300052E-008  0.3759255E+03  0.7957747E-01  0.3469094E+00
         13   -1    0    0    0    0  0.00000000000E+00  0.00000000000E+00  0.14999999963E+04  0.15000000000E+04  0.10566000000E+00 0.  1.
        994   -1    0    0    0    0 -0.00000000000E+00 -0.00000000000E+00  0.11368683772E-12  0.17120000000E+03  0.17120000000E+03 0.  0.
         13    1    1    2    0    0 -0.37417635044E+02  0.52981807808E+02  0.24235286060E+03  0.25088258524E+03  0.10566000000E+00 0.  1.
        994    1    1    2    0    0  0.88535028443E+02 -0.46933819887E+02  0.41027543021E+02  0.20256834401E+03  0.17120000000E+03 0.  0.
        998    1    1    2    0    0 -0.51117393399E+02 -0.60479879214E+01  0.12166195927E+04  0.12177490707E+04  0.10000000000E+02 0.  1.
</event>
<event>
 5    1  0.1300052E-008  0.3828867E+03  0.7957747E-01  0.3438684E+00
         13   -1    0    0    0    0  0.00000000000E+00  0.00000000000E+00  0.14999999963E+04  0.15000000000E+04  0.10566000000E+00 0. -1.
        994   -1    0    0    0    0 -0.00000000000E+00 -0.00000000000E+00  0.11368683772E-12  0.17120000000E+03  0.17120000000E+03 0.  0.
         13    1    1    2    0    0  0.10462637294E+02  0.42879941528E+01  0.22556531688E+02  0.25232161200E+02  0.10566000000E+00 0. -1.
        994    1    1    2    0    0 -0.12495116669E+02 -0.77116105650E+00  0.32021081355E+01  0.17168697134E+03  0.17120000000E+03 0.  0.
        998    1    1    2    0    0  0.20324793746E+01 -0.35168330963E+01  0.14742413565E+04  0.14742808675E+04  0.10000000000E+02 0. -1.
</event>
<event>
 5    1  0.1300052E-008  0.3776177E+03  0.7957747E-01  0.3461598E+00
         13   -1    0    0    0    0  0.00000000000E+00  0.00000000000E+00  0.14999999963E+04  0.15000000000E+04  0.10566000000E+00 0.  1.
        994   -1    0    0    0    0 -0.00000000000E+00 -0.00000000000E+00  0.11368683772E-12  0.17120000000E+03  0.17120000000E+03 0.  0.
         13    1    1    2    0    0 -0.50817416209E+02 -0.12502250931E+02  0.22736191567E+03  0.23330702504E+03  0.10566000000E+00 0.  1.
        994    1    1    2    0    0  0.43919639763E+02  0.15212484442E+02  0.12654649003E+02  0.17784806600E+03  0.17120000000E+03 0.  0.
        998    1    1    2    0    0  0.68977764461E+01 -0.27102335104E+01  0.12599834316E+04  0.12600449090E+04  0.10000000000E+02 0.  1.
</event>
<event>
 5    1  0.1300052E-008  0.3788612E+03  0.7957747E-01  0.3456132E+00
         13   -1    0    0    0    0  0.00000000000E+00  0.00000000000E+00  0.14999999963E+04  0.15000000000E+04  0.10566000000E+00 0. -1.
        994   -1    0    0    0    0 -0.00000000000E+00 -0.00000000000E+00  0.11368683772E-12  0.17120000000E+03  0.17120000000E+03 0.  0.
         13    1    1    2    0    0 -0.14134236534E+03  0.40518637224E+02  0.85826424552E+03  0.87076802336E+03  0.10566000000E+00 0. -1.
        994    1    1    2    0    0  0.13968557044E+03 -0.86312254503E+02  0.10125869719E+03  0.25792368565E+03  0.17120000000E+03 0.  0.
        998    1    1    2    0    0  0.16567949013E+01  0.45793617279E+02  0.54047705357E+03  0.54250829099E+03  0.10000000000E+02 0. -1.
</event>
<event>
 5    1  0.1300052E-008  0.3694850E+03  0.7957747E-01  0.3498261E+00
         13   -1    0    0    0    0  0.00000000000E+00  0.00000000000E+00  0.14999999963E+04  0.15000000000E+04  0.10566000000E+00 0.  1.
        994   -1    0    0    0    0 -0.00000000000E+00 -0.00000000000E+00  0.11368683772E-12  0.17120000000E+03  0.17120000000E+03 0.  0.
         13    1    1    2    0    0 -0.25704925336E+02 -0.11973046042E+02  0.37469265953E+02  0.46989935870E+02  0.10566000000E+00 0.  1.
        994    1    1    2    0    0 -0.93092197767E+01 -0.43768380042E+02  0.17687041462E+02  0.17783307932E+03  0.17120000000E+03 0.  0.
        998    1    1    2    0    0  0.35014145112E+02  0.55741426084E+02  0.14448436889E+04  0.14463769848E+04  0.10000000000E+02 0.  1.
</event>
<event>
 5    1  0.1300052E-008  0.3740992E+03  0.7957747E-01  0.3477261E+00
         13   -1    0    0    0    0  0.00000000000E+00  0.00000000000E+00  0.14999999963E+04  0.15000000000E+04  0.10566000000E+00 0.  1.
        994   -1    0    0    0    0 -0.00000000000E+00 -0.00000000000E+00  0.11368683772E-12  0.17120000000E+03  0.17120000000E+03 0.  0.
         13    1    1    2    0    0 -0.76855582180E+01 -0.30107974716E+02  0.61436571033E+02  0.68847813116E+02  0.10566000000E+00 0.  1.
        994    1    1    2    0    0  0.62282066365E+01  0.35925475325E+02  0.11688319002E+02  0.17542943635E+03  0.17120000000E+03 0.  0.
        998    1    1    2    0    0  0.14573515816E+01 -0.58175006091E+01  0.14268751062E+04  0.14269227505E+04  0.10000000000E+02 0.  1.
</event>
<event>
 5    1  0.1300052E-008  0.3846664E+03  0.7957747E-01  0.3431088E+00
         13   -1    0    0    0    0  0.00000000000E+00  0.00000000000E+00  0.14999999963E+04  0.15000000000E+04  0.10566000000E+00 0. -1.
        994   -1    0    0    0    0 -0.00000000000E+00 -0.00000000000E+00  0.11368683772E-12  0.17120000000E+03  0.17120000000E+03 0.  0.
         13    1    1    2    0    0 -0.16485788307E+02  0.59501480868E+01  0.86360064908E+02  0.88120698212E+02  0.10566000000E+00 0. -1.
        994    1    1    2    0    0  0.56310682090E+01 -0.13339714719E+02  0.24863683912E+01  0.17182921447E+03  0.17120000000E+03 0.  0.
        998    1    1    2    0    0  0.10854720098E+02  0.73895666317E+01  0.14111535630E+04  0.14112500873E+04  0.10000000000E+02 0. -1.
</event>
<event>
 5    1  0.1300052E-008  0.3688179E+03  0.7957747E-01  0.3501341E+00
         13   -1    0    0    0    0  0.00000000000E+00  0.00000000000E+00  0.14999999963E+04  0.15000000000E+04  0.10566000000E+00 0. -1.
        994   -1    0    0    0    0 -0.00000000000E+00 -0.00000000000E+00  0.11368683772E-12  0.17120000000E+03  0.17120000000E+03 0.  0.
         13    1    1    2    0    0  0.19571754105E+02 -0.18219246656E+02  0.31421678234E+02  0.41259272104E+02  0.10566000000E+00 0. -1.
        994    1    1    2    0    0 -0.15688133593E+02  0.23443182362E+02  0.12655758143E+02  0.17396927473E+03  0.17120000000E+03 0.  0.
        998    1    1    2    0    0 -0.38836205125E+01 -0.52239357066E+01  0.14559225599E+04  0.14559714532E+04  0.10000000000E+02 0. -1.
</event>
<event>
 5    1  0.1300052E-008  0.3853927E+03  0.7957747E-01  0.3428008E+00
         13   -1    0    0    0    0  0.00000000000E+00  0.00000000000E+00  0.14999999963E+04  0.15000000000E+04  0.10566000000E+00 0. -1.
        994   -1    0    0    0    0 -0.00000000000E+00 -0.00000000000E+00  0.11368683772E-12  0.17120000000E+03  0.17120000000E+03 0.  0.
         13    1    1    2    0    0 -0.12391608276E+03 -0.44665873822E+01  0.43476013335E+03  0.45209681561E+03  0.10566000000E+00 0. -1.
        994    1    1    2    0    0  0.60124696868E+02 -0.32604743632E+02  0.36827791897E+02  0.18799940089E+03  0.17120000000E+03 0.  0.
        998    1    1    2    0    0  0.63791385891E+02  0.37071331014E+02  0.10284120710E+04  0.10311037835E+04  0.10000000000E+02 0. -1.
</event>
<event>
 5    1  0.1300052E-008  0.3688577E+03  0.7957747E-01  0.3501157E+00
         13   -1    0    0    0    0  0.00000000000E+00  0.00000000000E+00  0.14999999963E+04  0.15000000000E+04  0.10566000000E+00 0.  1.
        994   -1    0    0    0    0 -0.00000000000E+00 -0.00000000000E+00  0.11368683772E-12  0.17120000000E+03  0.17120000000E+03 0.  0.
         13    1    1    2    0    0 -0.74719576254E+02  0.20926314602E+02  0.25812246968E+03  0.26953320062E+03  0.10566000000E+00 0.  1.
        994    1    1    2    0    0  0.60279143567E+02 -0.24026196833E+02  0.25145606294E+02  0.18480415255E+03  0.17120000000E+03 0.  0.
        998    1    1    2    0    0  0.14440432688E+02  0.30998822311E+01  0.12167319203E+04  0.12168626468E+04  0.10000000000E+02 0.  1.
</event>
<event>
 5    1  0.1300052E-008  0.3795878E+03  0.7957747E-01  0.3452955E+00
         13   -1    0    0    0    0  0.00000000000E+00  0.00000000000E+00  0.14999999963E+04  0.15000000000E+04  0.10566000000E+00 0.  1.
        994   -1    0    0    0    0 -0.00000000000E+00 -0.00000000000E+00  0.11368683772E-12  0.17120000000E+03  0.17120000000E+03 0.  0.
         13    1    1    2    0    0  0.17746673546E+02  0.92072418391E+01  0.44577870245E+02  0.48856068239E+02  0.10566000000E+00 0.  1.
        994    1    1    2    0    0 -0.18819740573E+02  0.10298847816E+02  0.58835540191E+01  0.17263923398E+03  0.17120000000E+03 0.  0.
        998    1    1    2    0    0  0.10730670274E+01 -0.19506089655E+02  0.14495385720E+04  0.14497046978E+04  0.10000000000E+02 0.  1.
</event>
<event>
 5    1  0.1300052E-008  0.4013680E+03  0.7957747E-01  0.3363088E+00
         13   -1    0    0    0    0  0.00000000000E+00  0.00000000000E+00  0.14999999963E+04  0.15000000000E+04  0.10566000000E+00 0. -1.
        994   -1    0    0    0    0 -0.00000000000E+00 -0.00000000000E+00  0.11368683772E-12  0.17120000000E+03  0.17120000000E+03 0.  0.
         13    1    1    2    0    0 -0.14504372191E+02 -0.55605352919E+02  0.45874680972E+02  0.73531147171E+02  0.10566000000E+00 0. -1.
        994    1    1    2    0    0  0.62219321539E+00  0.61550765674E+02  0.43670047041E+02  0.18709729257E+03  0.17120000000E+03 0.  0.
        998    1    1    2    0    0  0.13882178976E+02 -0.59454127550E+01  0.14104552683E+04  0.14105715603E+04  0.10000000000E+02 0. -1.
</event>
<event>
 5    1  0.1300052E-008  0.3816270E+03  0.7957747E-01  0.3444105E+00
         13   -1    0    0    0    0  0.00000000000E+00  0.00000000000E+00  0.14999999963E+04  0.15000000000E+04  0.10566000000E+00 0. -1.
        994   -1    0    0    0    0 -0.00000000000E+00 -0.00000000000E+00  0.11368683772E-12  0.17120000000E+03  0.17120000000E+03 0.  0.
         13    1    1    2    0    0  0.10313892397E+02  0.24447959995E+01  0.16465767522E+02  0.19582800309E+02  0.10566000000E+00 0. -1.
        994    1    1    2    0    0  0.23467956523E+02 -0.39349999911E+02  0.10325559386E+02  0.17752527891E+03  0.17120000000E+03 0.  0.
        998    1    1    2    0    0 -0.33781848920E+02  0.36905203911E+02  0.14732086694E+04  0.14740919208E+04  0.10000000000E+02 0. -1.
</event>
<event>
 5    1  0.1300052E-008  0.3851415E+03  0.7957747E-01  0.3429072E+00
         13   -1    0    0    0    0  0.00000000000E+00  0.00000000000E+00  0.14999999963E+04  0.15000000000E+04  0.10566000000E+00 0.  1.
        994   -1    0    0    0    0 -0.00000000000E+00 -0.00000000000E+00  0.11368683772E-12  0.17120000000E+03  0.17120000000E+03 0.  0.
         13    1    1    2    0    0 -0.37848729807E+00 -0.12632981692E+02  0.50945711425E+02  0.52490114838E+02  0.10566000000E+00 0.  1.
        994    1    1    2    0    0  0.86394275814E+00  0.93810831400E+01  0.18516891346E+01  0.17146900557E+03  0.17120000000E+03 0.  0.
        998    1    1    2    0    0 -0.48545546007E+00  0.32518985516E+01  0.14472025957E+04  0.14472408796E+04  0.10000000000E+02 0.  1.
</event>
<event>
 5    1  0.1300052E-008  0.2561093E+03  0.7957747E-01  0.4269607E+00
         13   -1    0    0    0    0  0.00000000000E+00  0.00000000000E+00  0.14999999963E+04  0.15000000000E+04  0.10566000000E+00 0.  1.
        994   -1    0    0    0    0 -0.00000000000E+00 -0.00000000000E+00  0.11368683772E-12  0.17120000000E+03  0.17120000000E+03 0.  0.
         13    1    1    2    0    0  0.14523326019E+03  0.11603143492E+03  0.41585735411E+03  0.45551437286E+03  0.10566000000E+00 0.  1.
        994    1    1    2    0    0 -0.88691030840E+02 -0.79506809393E+02  0.10376048126E+03  0.23294443364E+03  0.17120000000E+03 0.  0.
        998    1    1    2    0    0 -0.56542229347E+02 -0.36524625525E+02  0.98038216091E+03  0.98274119350E+03  0.10000000000E+02 0.  1.
</event>
<event>
 5    1  0.1300052E-008  0.3760986E+03  0.7957747E-01  0.3468324E+00
         13   -1    0    0    0    0  0.00000000000E+00  0.00000000000E+00  0.14999999963E+04  0.15000000000E+04  0.10566000000E+00 0.  1.
        994   -1    0    0    0    0 -0.00000000000E+00 -0.00000000000E+00  0.11368683772E-12  0.17120000000E+03  0.17120000000E+03 0.  0.
         13    1    1    2    0    0  0.10280516393E+03 -0.14707573591E+03  0.10621392347E+04  0.10771907625E+04  0.10566000000E+00 0.  1.
        994    1    1    2    0    0 -0.69473404269E+02  0.15761106255E+03  0.11428928405E+03  0.26840134386E+03  0.17120000000E+03 0.  0.
        998    1    1    2    0    0 -0.33331759661E+02 -0.10535326642E+02  0.32357147751E+03  0.32560789359E+03  0.10000000000E+02 0. -1.
</event>
<event>
 5    1  0.1300052E-008  0.3843967E+03  0.7957747E-01  0.3432235E+00
         13   -1    0    0    0    0  0.00000000000E+00  0.00000000000E+00  0.14999999963E+04  0.15000000000E+04  0.10566000000E+00 0. -1.
        994   -1    0    0    0    0 -0.00000000000E+00 -0.00000000000E+00  0.11368683772E-12  0.17120000000E+03  0.17120000000E+03 0.  0.
         13    1    1    2    0    0 -0.92003348365E+01 -0.83499661761E+01  0.41401207024E+02  0.43225446248E+02  0.10566000000E+00 0. -1.
        994    1    1    2    0    0  0.29322107151E+01 -0.45130390303E+01  0.20253911129E+01  0.17129654868E+03  0.17120000000E+03 0.  0.
        998    1    1    2    0    0  0.62681241214E+01  0.12863005206E+02  0.14565733981E+04  0.14566780051E+04  0.10000000000E+02 0. -1.
</event>
<event>
 5    1  0.1300052E-008  0.3842647E+03  0.7957747E-01  0.3432797E+00
         13   -1    0    0    0    0  0.00000000000E+00  0.00000000000E+00  0.14999999963E+04  0.15000000000E+04  0.10566000000E+00 0. -1.
        994   -1    0    0    0    0 -0.00000000000E+00 -0.00000000000E+00  0.11368683772E-12  0.17120000000E+03  0.17120000000E+03 0.  0.
         13    1    1    2    0    0 -0.11654367629E+02  0.26919590701E+03  0.10582817801E+04  0.10920451447E+04  0.10566000000E+00 0. -1.
        994    1    1    2    0    0  0.65897271116E+01 -0.27694243739E+03  0.31961407770E+03  0.45629281914E+03  0.17120000000E+03 0.  0.
        998    1    1    2    0    0  0.50646405178E+01  0.77465303840E+01  0.12210413844E+03  0.12286203621E+03  0.10000000000E+02 0. -1.
</event>
<event>
 5    1  0.1300052E-008  0.3734595E+03  0.7957747E-01  0.3480141E+00
         13   -1    0    0    0    0  0.00000000000E+00  0.00000000000E+00  0.14999999963E+04  0.15000000000E+04  0.10566000000E+00 0.  1.
        994   -1    0    0    0    0 -0.00000000000E+00 -0.00000000000E+00  0.11368683772E-12  0.17120000000E+03  0.17120000000E+03 0.  0.
         13    1    1    2    0    0 -0.49092721967E+02 -0.60386020429E+02  0.38301440190E+03  0.39084090118E+03  0.10566000000E+00 0.  1.
        994    1    1    2    0    0  0.25478347256E+02  0.44609237489E+02  0.16543953304E+02  0.17950563400E+03  0.17120000000E+03 0.  0.
        998    1    1    2    0    0  0.23614374711E+02  0.15776782940E+02  0.11004416411E+04  0.11008534648E+04  0.10000000000E+02 0.  1.
</event>
<event>
 5    1  0.1300052E-008  0.3751516E+03  0.7957747E-01  0.3472545E+00
         13   -1    0    0    0    0  0.00000000000E+00  0.00000000000E+00  0.14999999963E+04  0.15000000000E+04  0.10566000000E+00 0. -1.
        994   -1    0    0    0    0 -0.00000000000E+00 -0.00000000000E+00  0.11368683772E-12  0.17120000000E+03  0.17120000000E+03 0.  0.
         13    1    1    2    0    0  0.13878603904E+02  0.28135372699E+00  0.11550879095E+02  0.18059035914E+02  0.10566000000E+00 0. -1.
        994    1    1    2    0    0 -0.14067684415E+02  0.12953463105E+02  0.78443066949E+01  0.17244322283E+03  0.17120000000E+03 0.  0.
        998    1    1    2    0    0  0.18908051013E+00 -0.13234816832E+02  0.14806048105E+04  0.14806977413E+04  0.10000000000E+02 0. -1.
</event>
<event>
 5    1  0.1300052E-008  0.3839102E+03  0.7957747E-01  0.3434307E+00
         13   -1    0    0    0    0  0.00000000000E+00  0.00000000000E+00  0.14999999963E+04  0.15000000000E+04  0.10566000000E+00 0.  1.
        994   -1    0    0    0    0 -0.00000000000E+00 -0.00000000000E+00  0.11368683772E-12  0.17120000000E+03  0.17120000000E+03 0.  0.
         13    1    1    2    0    0 -0.10107327343E+02 -0.13309348030E+02  0.62345243690E+02  0.64546397156E+02  0.10566000000E+00 0.  1.
        994    1    1    2    0    0  0.10068005964E+02  0.11469699174E+02  0.29412506412E+01  0.17190407121E+03  0.17120000000E+03 0.  0.
        998    1    1    2    0    0  0.39321379489E-01  0.18396488554E+01  0.14347135019E+04  0.14347495316E+04  0.10000000000E+02 0.  1.
</event>
<event>
 5    1  0.1300052E-008  0.3777147E+03  0.7957747E-01  0.3461170E+00
         13   -1    0    0    0    0  0.00000000000E+00  0.00000000000E+00  0.14999999963E+04  0.15000000000E+04  0.10566000000E+00 0. -1.
        994   -1    0    0    0    0 -0.00000000000E+00 -0.00000000000E+00  0.11368683772E-12  0.17120000000E+03  0.17120000000E+03 0.  0.
         13    1    1    2    0    0  0.44120475086E+02  0.60553299506E+02  0.44703120688E+03  0.45326617952E+03  0.10566000000E+00 0. -1.
        994    1    1    2    0    0 -0.16031981428E+02 -0.62675193463E+02  0.19520681084E+02  0.18405352834E+03  0.17120000000E+03 0.  0.
        998    1    1    2    0    0 -0.28088493658E+02  0.21218939575E+01  0.10334481083E+04  0.10338802921E+04  0.10000000000E+02 0. -1.
</event>
<event>
 5    1  0.1300052E-008  0.3738205E+03  0.7957747E-01  0.3478515E+00
         13   -1    0    0    0    0  0.00000000000E+00  0.00000000000E+00  0.14999999963E+04  0.15000000000E+04  0.10566000000E+00 0.  1.
        994   -1    0    0    0    0 -0.00000000000E+00 -0.00000000000E+00  0.11368683772E-12  0.17120000000E+03  0.17120000000E+03 0.  0.
         13    1    1    2    0    0  0.30038359187E+02  0.38014681826E+02  0.16506463101E+03  0.17202837740E+03  0.10566000000E+00 0.  1.
        994    1    1    2    0    0 -0.24289943293E+02 -0.77883101435E+01  0.95094109182E+01  0.17335088121E+03  0.17120000000E+03 0.  0.
        998    1    1    2    0    0 -0.57484158932E+01 -0.30226371683E+02  0.13254259544E+04  0.13258207414E+04  0.10000000000E+02 0.  1.
</event>
<event>
 5    1  0.1300052E-008  0.3740650E+03  0.7957747E-01  0.3477415E+00
         13   -1    0    0    0    0  0.00000000000E+00  0.00000000000E+00  0.14999999963E+04  0.15000000000E+04  0.10566000000E+00 0. -1.
        994   -1    0    0    0    0 -0.00000000000E+00 -0.00000000000E+00  0.11368683772E-12  0.17120000000E+03  0.17120000000E+03 0.  0.
         13    1    1    2    0    0 -0.31087836701E+02 -0.30837209318E+02  0.72413780059E+02  0.84623600584E+02  0.10566000000E+00 0. -1.
        994    1    1    2    0    0  0.42438413011E+02 -0.29238326583E+02  0.22584239728E+02  0.18020928534E+03  0.17120000000E+03 0.  0.
        998    1    1    2    0    0 -0.11350576310E+02  0.60075535901E+02  0.14050019765E+04  0.14063671141E+04  0.10000000000E+02 0. -1.
</event>
<event>
 5    1  0.1300052E-008  0.3851188E+03  0.7957747E-01  0.3429169E+00
         13   -1    0    0    0    0  0.00000000000E+00  0.00000000000E+00  0.14999999963E+04  0.15000000000E+04  0.10566000000E+00 0.  1.
        994   -1    0    0    0    0 -0.00000000000E+00 -0.00000000000E+00  0.11368683772E-12  0.17120000000E+03  0.17120000000E+03 0.  0.
         13    1    1    2    0    0 -0.18490302300E+02 -0.65240483674E-01  0.10522630832E+03  0.10683858228E+03  0.10566000000E+00 0.  1.
        994    1    1    2    0    0  0.16099568094E+02 -0.60171039560E+01  0.25428868935E+01  0.17207936514E+03  0.17120000000E+03 0.  0.
        998    1    1    2    0    0  0.23907342058E+01  0.60823444397E+01  0.13922308011E+04  0.13922820526E+04  0.10000000000E+02 0.  0.
</event>
<event>
 5    1  0.1300052E-008  0.3838444E+03  0.7957747E-01  0.3434588E+00
         13   -1    0    0    0    0  0.00000000000E+00  0.00000000000E+00  0.14999999963E+04  0.15000000000E+04  0.10566000000E+00 0.  1.
        994   -1    0    0    0    0 -0.00000000000E+00 -0.00000000000E+00  0.11368683772E-12  0.17120000000E+03  0.17120000000E+03 0.  0.
         13    1    1    2    0    0 -0.21842150856E+01 -0.16343300144E+02  0.59334560736E+02  0.61583078170E+02  0.10566000000E+00 0.  1.
        994    1    1    2    0    0  0.42326792378E+00  0.16628412037E+02  0.31188471038E+01  0.17203444553E+03  0.17120000000E+03 0.  0.
        998    1    1    2    0    0  0.17609471618E+01 -0.28511189339E+00  0.14375465884E+04  0.14375824763E+04  0.10000000000E+02 0.  1.
</event>
<event>
 5    1  0.1300052E-008  0.3829174E+03  0.7957747E-01  0.3438553E+00
         13   -1    0    0    0    0  0.00000000000E+00  0.00000000000E+00  0.14999999963E+04  0.15000000000E+04  0.10566000000E+00 0. -1.
        994   -1    0    0    0    0 -0.00000000000E+00 -0.00000000000E+00  0.11368683772E-12  0.17120000000E+03  0.17120000000E+03 0.  0.
         13    1    1    2    0    0  0.10265737693E+02  0.17112018373E+02  0.76829707650E+02  0.79378975080E+02  0.10566000000E+00 0. -1.
        994    1    1    2    0    0  0.22348799977E+01 -0.78686206378E+01  0.28892066450E+01  0.17141965288E+03  0.17120000000E+03 0.  0.
        998    1    1    2    0    0 -0.12500617691E+02 -0.92433977347E+01  0.14202810820E+04  0.14204013720E+04  0.10000000000E+02 0. -1.
</event>
<event>
 5    1  0.1300052E-008  0.3831769E+03  0.7957747E-01  0.3437441E+00
         13   -1    0    0    0    0  0.00000000000E+00  0.00000000000E+00  0.14999999963E+04  0.15000000000E+04  0.10566000000E+00 0.  1.
        994   -1    0    0    0    0 -0.00000000000E+00 -0.00000000000E+00  0.11368683772E-12  0.17120000000E+03  0.17120000000E+03 0.  0.
         13    1    1    2    0    0  0.64749085797E+01  0.19785893145E+02  0.39926828640E+01  0.21198082204E+02  0.10566000000E+00 0.  1.
        994    1    1    2    0    0  0.60371391837E+01 -0.19797157564E+02  0.19655376058E+02  0.17356309603E+03  0.17120000000E+03 0.  0.
        998    1    1    2    0    0 -0.12512047763E+02  0.11264419302E-01  0.14763519374E+04  0.14764388218E+04  0.10000000000E+02 0.  1.
</event>
<event>
 5    1  0.1300052E-008  0.3849081E+03  0.7957747E-01  0.3430062E+00
         13   -1    0    0    0    0  0.00000000000E+00  0.00000000000E+00  0.14999999963E+04  0.15000000000E+04  0.10566000000E+00 0.  1.
        994   -1    0    0    0    0 -0.00000000000E+00 -0.00000000000E+00  0.11368683772E-12  0.17120000000E+03  0.17120000000E+03 0.  0.
         13    1    1    2    0    0  0.16370131396E+02  0.13239175650E+01  0.77765145056E+02  0.79480581964E+02  0.10566000000E+00 0.  1.
        994    1    1    2    0    0 -0.15386336347E+02 -0.48767224270E+01  0.25332829531E+01  0.17197784535E+03  0.17120000000E+03 0.  0.
        998    1    1    2    0    0 -0.98379504884E+00  0.35528048620E+01  0.14197015683E+04  0.14197415727E+04  0.10000000000E+02 0.  1.
</event>
<event>
 5    1  0.1300052E-008  0.3805833E+03  0.7957747E-01  0.3448622E+00
         13   -1    0    0    0    0  0.00000000000E+00  0.00000000000E+00  0.14999999963E+04  0.15000000000E+04  0.10566000000E+00 0. -1.
        994   -1    0    0    0    0 -0.00000000000E+00 -0.00000000000E+00  0.11368683772E-12  0.17120000000E+03  0.17120000000E+03 0.  0.
         13    1    1    2    0    0  0.10588413481E+02 -0.37582757700E+01  0.15009082249E+02  0.18748942658E+02  0.10566000000E+00 0. -1.
        994    1    1    2    0    0 -0.52610885093E+00  0.64452452252E+01  0.39785133856E+01  0.17136827753E+03  0.17120000000E+03 0.  0.
        998    1    1    2    0    0 -0.10062304630E+02 -0.26869694552E+01  0.14810124006E+04  0.14810827798E+04  0.10000000000E+02 0. -1.
</event>
<event>
 5    1  0.1300052E-008  0.3859421E+03  0.7957747E-01  0.3425686E+00
         13   -1    0    0    0    0  0.00000000000E+00  0.00000000000E+00  0.14999999963E+04  0.15000000000E+04  0.10566000000E+00 0. -1.
        994   -1    0    0    0    0 -0.00000000000E+00 -0.00000000000E+00  0.11368683772E-12  0.17120000000E+03  0.17120000000E+03 0.  0.
         13    1    1    2    0    0  0.37044785110E+02 -0.79932165130E+01  0.30053509411E+02  0.48367677286E+02  0.10566000000E+00 0. -1.
        994    1    1    2    0    0 -0.15330233450E+02 -0.12766409739E+02  0.21105987627E+02  0.17364590404E+03  0.17120000000E+03 0.  0.
        998    1    1    2    0    0 -0.21714551661E+02  0.20759626252E+02  0.14488404992E+04  0.14491864187E+04  0.10000000000E+02 0. -1.
</event>
<event>
 5    1  0.1300052E-008  0.3810783E+03  0.7957747E-01  0.3446477E+00
         13   -1    0    0    0    0  0.00000000000E+00  0.00000000000E+00  0.14999999963E+04  0.15000000000E+04  0.10566000000E+00 0. -1.
        994   -1    0    0    0    0 -0.00000000000E+00 -0.00000000000E+00  0.11368683772E-12  0.17120000000E+03  0.17120000000E+03 0.  0.
         13    1    1    2    0    0 -0.34030691503E+02 -0.22475605848E+01  0.15615673162E+03  0.15983765353E+03  0.10566000000E+00 0. -1.
        994    1    1    2    0    0  0.24209960711E+02  0.23446711246E+01  0.55630045918E+01  0.17300868967E+03  0.17120000000E+03 0.  0.
        998    1    1    2    0    0  0.98207307916E+01 -0.97110539817E-01  0.13382802601E+04  0.13383536568E+04  0.10000000000E+02 0. -1.
</event>
<event>
 5    1  0.1300052E-008  0.3916227E+03  0.7957747E-01  0.3402061E+00
         13   -1    0    0    0    0  0.00000000000E+00  0.00000000000E+00  0.14999999963E+04  0.15000000000E+04  0.10566000000E+00 0.  1.
        994   -1    0    0    0    0 -0.00000000000E+00 -0.00000000000E+00  0.11368683772E-12  0.17120000000E+03  0.17120000000E+03 0.  0.
         13    1    1    2    0    0 -0.60495197102E+02  0.11415423382E+02  0.74953524592E+02  0.96994962633E+02  0.10566000000E+00 0.  1.
        994    1    1    2    0    0  0.46814761052E+02  0.10115906783E+01  0.31211491771E+02  0.18021165996E+03  0.17120000000E+03 0.  0.
        998    1    1    2    0    0  0.13680436050E+02 -0.12427014061E+02  0.13938349799E+04  0.13939933774E+04  0.10000000000E+02 0.  1.
</event>
<event>
 5    1  0.1300052E-008  0.3763292E+03  0.7957747E-01  0.3467299E+00
         13   -1    0    0    0    0  0.00000000000E+00  0.00000000000E+00  0.14999999963E+04  0.15000000000E+04  0.10566000000E+00 0.  1.
        994   -1    0    0    0    0 -0.00000000000E+00 -0.00000000000E+00  0.11368683772E-12  0.17120000000E+03  0.17120000000E+03 0.  0.
         13    1    1    2    0    0 -0.47404600312E+02  0.20369862303E+02  0.27282832485E+03  0.27766424585E+03  0.10566000000E+00 0.  1.
        994    1    1    2    0    0  0.11736634618E+02  0.20677384139E+02  0.79130969397E+01  0.17302415990E+03  0.17120000000E+03 0.  0.
        998    1    1    2    0    0  0.35667965694E+02 -0.41047246442E+02  0.12192585745E+04  0.12205115942E+04  0.10000000000E+02 0.  1.
</event>
<event>
 5    1  0.1300052E-008  0.3690937E+03  0.7957747E-01  0.3500067E+00
         13   -1    0    0    0    0  0.00000000000E+00  0.00000000000E+00  0.14999999963E+04  0.15000000000E+04  0.10566000000E+00 0. -1.
        994   -1    0    0    0    0 -0.00000000000E+00 -0.00000000000E+00  0.11368683772E-12  0.17120000000E+03  0.17120000000E+03 0.  0.
         13    1    1    2    0    0  0.45921192628E+02 -0.32143354356E+02  0.17660488415E+03  0.18528693270E+03  0.10566000000E+00 0. -1.
        994    1    1    2    0    0  0.40209947552E+01 -0.34256862415E+01  0.10557632534E+02  0.17160654804E+03  0.17120000000E+03 0.  0.
        998    1    1    2    0    0 -0.49942187383E+02  0.35569040597E+02  0.13128374796E+04  0.13143065193E+04  0.10000000000E+02 0. -1.
</event>
<event>
 5    1  0.1300052E-008  0.3853250E+03  0.7957747E-01  0.3428295E+00
         13   -1    0    0    0    0  0.00000000000E+00  0.00000000000E+00  0.14999999963E+04  0.15000000000E+04  0.10566000000E+00 0. -1.
        994   -1    0    0    0    0 -0.00000000000E+00 -0.00000000000E+00  0.11368683772E-12  0.17120000000E+03  0.17120000000E+03 0.  0.
         13    1    1    2    0    0  0.11738521537E+02 -0.13630123426E+02  0.90951989331E+02  0.92713799835E+02  0.10566000000E+00 0. -1.
        994    1    1    2    0    0 -0.18551865880E+02  0.33160823087E+02  0.62264943545E+01  0.17547655441E+03  0.17120000000E+03 0.  0.
        998    1    1    2    0    0  0.68133443430E+01 -0.19530699661E+02  0.14028215126E+04  0.14030096458E+04  0.10000000000E+02 0. -1.
</event>
<event>
 5    1  0.1300052E-008  0.3852163E+03  0.7957747E-01  0.3428755E+00
         13   -1    0    0    0    0  0.00000000000E+00  0.00000000000E+00  0.14999999963E+04  0.15000000000E+04  0.10566000000E+00 0.  1.
        994   -1    0    0    0    0 -0.00000000000E+00 -0.00000000000E+00  0.11368683772E-12  0.17120000000E+03  0.17120000000E+03 0.  0.
         13    1    1    2    0    0  0.12458135408E+02 -0.10793301579E+02  0.90205439460E+02  0.91699143775E+02  0.10566000000E+00 0.  1.
        994    1    1    2    0    0 -0.81195967647E+01  0.51569153483E+01  0.18269121804E+01  0.17147973418E+03  0.17120000000E+03 0.  0.
        998    1    1    2    0    0 -0.43385386433E+01  0.56363862311E+01  0.14079676446E+04  0.14080211220E+04  0.10000000000E+02 0.  1.
</event>
<event>
 5    1  0.1300052E-008  0.3789459E+03  0.7957747E-01  0.3455761E+00
         13   -1    0    0    0    0  0.00000000000E+00  0.00000000000E+00  0.14999999963E+04  0.15000000000E+04  0.10566000000E+00 0.  1.
        994   -1    0    0    0    0 -0.00000000000E+00 -0.00000000000E+00  0.11368683772E-12  0.17120000000E+03  0.17120000000E+03 0.  0.
         13    1    1    2    0    0  0.68497253116E+01 -0.12400516012E+02  0.19747563265E+02  0.24303681884E+02  0.10566000000E+00 0.  1.
        994    1    1    2    0    0 -0.52224111963E+01  0.36814461943E+01  0.48031752412E+01  0.17138651381E+03  0.17120000000E+03 0.  0.
        998    1    1    2    0    0 -0.16273141153E+01  0.87190698172E+01  0.14754492578E+04  0.14755098043E+04  0.10000000000E+02 0.  1.
</event>
<event>
 5    1  0.1300052E-008  0.3828111E+03  0.7957747E-01  0.3439009E+00
         13   -1    0    0    0    0  0.00000000000E+00  0.00000000000E+00  0.14999999963E+04  0.15000000000E+04  0.10566000000E+00 0. -1.
        994   -1    0    0    0    0 -0.00000000000E+00 -0.00000000000E+00  0.11368683772E-12  0.17120000000E+03  0.17120000000E+03 0.  0.
         13    1    1    2    0    0 -0.40798831565E+01 -0.19071768340E+02  0.68535406736E+02  0.71256515033E+02  0.10566000000E+00 0. -1.
        994    1    1    2    0    0  0.81531679085E+00  0.14222266192E+02  0.33932595587E+01  0.17182517804E+03  0.17120000000E+03 0.  0.
        998    1    1    2    0    0  0.32645663657E+01  0.48495021484E+01  0.14280713300E+04  0.14281183069E+04  0.10000000000E+02 0. -1.
</event>
<event>
 5    1  0.1300052E-008  0.3776022E+03  0.7957747E-01  0.3461666E+00
         13   -1    0    0    0    0  0.00000000000E+00  0.00000000000E+00  0.14999999963E+04  0.15000000000E+04  0.10566000000E+00 0. -1.
        994   -1    0    0    0    0 -0.00000000000E+00 -0.00000000000E+00  0.11368683772E-12  0.17120000000E+03  0.17120000000E+03 0.  0.
         13    1    1    2    0    0 -0.83675049614E+01 -0.70013122143E+02  0.34283580058E+03  0.35001178513E+03  0.10566000000E+00 0. -1.
        994    1    1    2    0    0  0.11148868066E+02  0.74163276507E+02  0.24541681490E+02  0.18851053809E+03  0.17120000000E+03 0.  0.
        998    1    1    2    0    0 -0.27813631042E+01 -0.41501543647E+01  0.11326225142E+04  0.11326776768E+04  0.10000000000E+02 0.  0.
</event>
<event>
 5    1  0.1300052E-008  0.4026602E+03  0.7957747E-01  0.3358061E+00
         13   -1    0    0    0    0  0.00000000000E+00  0.00000000000E+00  0.14999999963E+04  0.15000000000E+04  0.10566000000E+00 0. -1.
        994   -1    0    0    0    0 -0.00000000000E+00 -0.00000000000E+00  0.11368683772E-12  0.17120000000E+03  0.17120000000E+03 0.  0.
         13    1    1    2    0    0 -0.27097073618E+02  0.12867079929E+03  0.33117361259E+03  0.35632344693E+03  0.10566000000E+00 0. -1.
        994    1    1    2    0    0 -0.13986259176E+03 -0.92535152552E+02  0.15208749637E+03  0.28383859072E+03  0.17120000000E+03 0.  0.
        998    1    1    2    0    0  0.16695966537E+03 -0.36135646738E+02  0.10167388873E+04  0.10310379624E+04  0.10000000000E+02 0. -1.
</event>
<event>
 5    1  0.1300052E-008  0.3817427E+03  0.7957747E-01  0.3443605E+00
         13   -1    0    0    0    0  0.00000000000E+00  0.00000000000E+00  0.14999999963E+04  0.15000000000E+04  0.10566000000E+00 0. -1.
        994   -1    0    0    0    0 -0.00000000000E+00 -0.00000000000E+00  0.11368683772E-12  0.17120000000E+03  0.17120000000E+03 0.  0.
         13    1    1    2    0    0  0.68455544316E+01  0.10174768641E+02  0.22274241995E+02  0.25427161714E+02  0.10566000000E+00 0. -1.
        994    1    1    2    0    0 -0.35737754757E+01  0.55456701208E+00  0.32994737158E+01  0.17126997969E+03  0.17120000000E+03 0.  0.
        998    1    1    2    0    0 -0.32717789559E+01 -0.10729335653E+02  0.14744262806E+04  0.14745028586E+04  0.10000000000E+02 0. -1.
</event>
<event>
 5    1  0.1300052E-008  0.3807610E+03  0.7957747E-01  0.3447852E+00
         13   -1    0    0    0    0  0.00000000000E+00  0.00000000000E+00  0.14999999963E+04  0.15000000000E+04  0.10566000000E+00 0. -1.
        994   -1    0    0    0    0 -0.00000000000E+00 -0.00000000000E+00  0.11368683772E-12  0.17120000000E+03  0.17120000000E+03 0.  0.
         13    1    1    2    0    0 -0.93182775570E+01  0.48249614360E+01  0.12862043373E+02  0.16599815458E+02  0.10566000000E+00 0. -1.
        994    1    1    2    0    0  0.17933609719E+02  0.43278292182E+01  0.48852071597E+01  0.17226041249E+03  0.17120000000E+03 0.  0.
        998    1    1    2    0    0 -0.86153321618E+01 -0.91527906542E+01  0.14822527457E+04  0.14823397720E+04  0.10000000000E+02 0. -1.
</event>
<event>
 5    1  0.1300052E-008  0.3853096E+03  0.7957747E-01  0.3428360E+00
         13   -1    0    0    0    0  0.00000000000E+00  0.00000000000E+00  0.14999999963E+04  0.15000000000E+04  0.10566000000E+00 0.  1.
        994   -1    0    0    0    0 -0.00000000000E+00 -0.00000000000E+00  0.11368683772E-12  0.17120000000E+03  0.17120000000E+03 0.  0.
         13    1    1    2    0    0  0.58681602061E+01  0.94040141555E+01  0.39662204100E+02  0.41182185281E+02  0.10566000000E+00 0.  1.
        994    1    1    2    0    0 -0.48086825862E+01 -0.16874473872E+02  0.24885991211E+01  0.17211480013E+03  0.17120000000E+03 0.  0.
        998    1    1    2    0    0 -0.10594776199E+01  0.74704597164E+01  0.14578491931E+04  0.14579030146E+04  0.10000000000E+02 0.  1.
</event>
<event>
 5    1  0.1300052E-008  0.3832386E+03  0.7957747E-01  0.3437177E+00
         13   -1    0    0    0    0  0.00000000000E+00  0.00000000000E+00  0.14999999963E+04  0.15000000000E+04  0.10566000000E+00 0. -1.
        994   -1    0    0    0    0 -0.00000000000E+00 -0.00000000000E+00  0.11368683772E-12  0.17120000000E+03  0.17120000000E+03 0.  0.
         13    1    1    2    0    0 -0.13244032392E+02  0.30312917658E+02  0.19989247688E+03  0.20261118145E+03  0.10566000000E+00 0. -1.
        994    1    1    2    0    0  0.17151672685E+02 -0.23735112586E+02  0.53486876859E+01  0.17376876562E+03  0.17120000000E+03 0.  0.
        998    1    1    2    0    0 -0.39076402932E+01 -0.65778050723E+01  0.12947588317E+04  0.12948200529E+04  0.10000000000E+02 0. -1.
</event>
<event>
 5    1  0.1300052E-008  0.3695098E+03  0.7957747E-01  0.3498147E+00
         13   -1    0    0    0    0  0.00000000000E+00  0.00000000000E+00  0.14999999963E+04  0.15000000000E+04  0.10566000000E+00 0. -1.
        994   -1    0    0    0    0 -0.00000000000E+00 -0.00000000000E+00  0.11368683772E-12  0.17120000000E+03  0.17120000000E+03 0.  0.
         13    1    1    2    0    0  0.58731791388E+02  0.32844872649E+02  0.19378326275E+03  0.20513452431E+03  0.10566000000E+00 0. -1.
        994    1    1    2    0    0 -0.65158336038E+02 -0.42678201393E+02  0.30843007300E+02  0.19059844891E+03  0.17120000000E+03 0.  0.
        998    1    1    2    0    0  0.64265446499E+01  0.98333287434E+01  0.12753737262E+04  0.12754670268E+04  0.10000000000E+02 0. -1.
</event>
<event>
 5    1  0.1300052E-008  0.3855752E+03  0.7957747E-01  0.3427236E+00
         13   -1    0    0    0    0  0.00000000000E+00  0.00000000000E+00  0.14999999963E+04  0.15000000000E+04  0.10566000000E+00 0. -1.
        994   -1    0    0    0    0 -0.00000000000E+00 -0.00000000000E+00  0.11368683772E-12  0.17120000000E+03  0.17120000000E+03 0.  0.
         13    1    1    2    0    0  0.14943209180E+02  0.62268178380E+01  0.96845414856E+02  0.98189196471E+02  0.10566000000E+00 0. -1.
        994    1    1    2    0    0 -0.11910089924E+02 -0.21130428124E+01  0.18252745303E+01  0.17163649617E+03  0.17120000000E+03 0.  0.
        998    1    1    2    0    0 -0.30331192559E+01 -0.41137750256E+01  0.14013293069E+04  0.14013743074E+04  0.10000000000E+02 0. -1.
</event>
<event>
 5    1  0.1300052E-008  0.3843662E+03  0.7957747E-01  0.3432365E+00
         13   -1    0    0    0    0  0.00000000000E+00  0.00000000000E+00  0.14999999963E+04  0.15000000000E+04  0.10566000000E+00 0.  1.
        994   -1    0    0    0    0 -0.00000000000E+00 -0.00000000000E+00  0.11368683772E-12  0.17120000000E+03  0.17120000000E+03 0.  0.
         13    1    1    2    0    0  0.11189886587E+02  0.18696365977E+01  0.33602256852E+02  0.35465926358E+02  0.10566000000E+00 0.  1.
        994    1    1    2    0    0 -0.17534059542E+01  0.44288748730E+01  0.20199217187E+01  0.17127816396E+03  0.17120000000E+03 0.  0.
        998    1    1    2    0    0 -0.94364806329E+01 -0.62985114707E+01  0.14643778177E+04  0.14644559097E+04  0.10000000000E+02 0.  1.
</event>
<event>
 5    1  0.1300052E-008  0.3759537E+03  0.7957747E-01  0.3468968E+00
         13   -1    0    0    0    0  0.00000000000E+00  0.00000000000E+00  0.14999999963E+04  0.15000000000E+04  0.10566000000E+00 0. -1.
        994   -1    0    0    0    0 -0.00000000000E+00 -0.00000000000E+00  0.11368683772E-12  0.17120000000E+03  0.17120000000E+03 0.  0.
         13    1    1    2    0    0 -0.27020033950E+02  0.21300625630E+02  0.95793183795E+02  0.10178479313E+03  0.10566000000E+00 0. -1.
        994    1    1    2    0    0  0.18452842232E+02 -0.13027821680E+01  0.73501312660E+01  0.17235332622E+03  0.17120000000E+03 0.  0.
        998    1    1    2    0    0  0.85671917174E+01 -0.19997843462E+02  0.13968566812E+04  0.13970618807E+04  0.10000000000E+02 0. -1.
</event>
<event>
 5    1  0.1300052E-008  0.3840207E+03  0.7957747E-01  0.3433836E+00
         13   -1    0    0    0    0  0.00000000000E+00  0.00000000000E+00  0.14999999963E+04  0.15000000000E+04  0.10566000000E+00 0.  1.
        994   -1    0    0    0    0 -0.00000000000E+00 -0.00000000000E+00  0.11368683772E-12  0.17120000000E+03  0.17120000000E+03 0.  0.
         13    1    1    2    0    0  0.16968722586E+02  0.13764947869E+02  0.11387567599E+03  0.11595297358E+03  0.10566000000E+00 0.  1.
        994    1    1    2    0    0 -0.76978746135E+01 -0.91291966275E+01  0.25877325002E+01  0.17163547379E+03  0.17120000000E+03 0.  0.
        998    1    1    2    0    0 -0.92708479723E+01 -0.46357512411E+01  0.13835365878E+04  0.13836115526E+04  0.10000000000E+02 0.  1.
</event>
<event>
 5    1  0.1300052E-008  0.3808657E+03  0.7957747E-01  0.3447398E+00
         13   -1    0    0    0    0  0.00000000000E+00  0.00000000000E+00  0.14999999963E+04  0.15000000000E+04  0.10566000000E+00 0.  1.
        994   -1    0    0    0    0 -0.00000000000E+00 -0.00000000000E+00  0.11368683772E-12  0.17120000000E+03  0.17120000000E+03 0.  0.
         13    1    1    2    0    0 -0.10212691659E+02  0.43666422506E+01  0.15054888334E+02  0.18709020878E+02  0.10566000000E+00 0.  1.
        994    1    1    2    0    0  0.87311052320E+01 -0.40945918303E+01  0.40068564643E+01  0.17151819956E+03  0.17120000000E+03 0.  0.
        998    1    1    2    0    0  0.14815864267E+01 -0.27205042027E+00  0.14809382515E+04  0.14809727796E+04  0.10000000000E+02 0.  1.
</event>
<event>
 5    1  0.1300052E-008  0.3731291E+03  0.7957747E-01  0.3481633E+00
         13   -1    0    0    0    0  0.00000000000E+00  0.00000000000E+00  0.14999999963E+04  0.15000000000E+04  0.10566000000E+00 0. -1.
        994   -1    0    0    0    0 -0.00000000000E+00 -0.00000000000E+00  0.11368683772E-12  0.17120000000E+03  0.17120000000E+03 0.  0.
         13    1    1    2    0    0  0.33140981419E+02  0.19677642973E+02  0.92512174027E+02  0.10021999696E+03  0.10566000000E+00 0. -1.
        994    1    1    2    0    0 -0.27978591231E+02 -0.10328162944E+02  0.10691357963E+02  0.17410691443E+03  0.17120000000E+03 0.  0.
        998    1    1    2    0    0 -0.51623901881E+01 -0.93494800291E+01  0.13967964643E+04  0.13968730886E+04  0.10000000000E+02 0. -1.
</event>
<event>
 5    1  0.1300052E-008  0.3843153E+03  0.7957747E-01  0.3432581E+00
         13   -1    0    0    0    0  0.00000000000E+00  0.00000000000E+00  0.14999999963E+04  0.15000000000E+04  0.10566000000E+00 0. -1.
        994   -1    0    0    0    0 -0.00000000000E+00 -0.00000000000E+00  0.11368683772E-12  0.17120000000E+03  0.17120000000E+03 0.  0.
         13    1    1    2    0    0 -0.12251605487E+02  0.10730264799E+02  0.67683778122E+02  0.69615697975E+02  0.10566000000E+00 0. -1.
        994    1    1    2    0    0  0.25314856241E+01 -0.10692877465E+02  0.23685514897E+01  0.17156863374E+03  0.17120000000E+03 0.  0.
        998    1    1    2    0    0  0.97201198632E+01 -0.37387334538E-01  0.14299476667E+04  0.14300156683E+04  0.10000000000E+02 0. -1.
</event>
<event>
 5    1  0.1300052E-008  0.3850686E+03  0.7957747E-01  0.3429381E+00
         13   -1    0    0    0    0  0.00000000000E+00  0.00000000000E+00  0.14999999963E+04  0.15000000000E+04  0.10566000000E+00 0. -1.
        994   -1    0    0    0    0 -0.00000000000E+00 -0.00000000000E+00  0.11368683772E-12  0.17120000000E+03  0.17120000000E+03 0.  0.
         13    1    1    2    0    0  0.97426833150E+01 -0.73982106704E+01  0.47278099330E+02  0.48835266351E+02  0.10566000000E+00 0. -1.
        994    1    1    2    0    0 -0.48472830929E+01  0.43838675880E+01  0.17365161482E+01  0.17133350500E+03  0.17120000000E+03 0.  0.
        998    1    1    2    0    0 -0.48954002221E+01  0.30143430824E+01  0.14509853808E+04  0.14510312286E+04  0.10000000000E+02 0. -1.
</event>
<event>
 5    1  0.1300052E-008  0.3947632E+03  0.7957747E-01  0.3389292E+00
         13   -1    0    0    0    0  0.00000000000E+00  0.00000000000E+00  0.14999999963E+04  0.15000000000E+04  0.10566000000E+00 0.  1.
        994   -1    0    0    0    0 -0.00000000000E+00 -0.00000000000E+00  0.11368683772E-12  0.17120000000E+03  0.17120000000E+03 0.  0.
         13    1    1    2    0    0  0.11053877279E+02 -0.20503822955E+02  0.11788441519E+00  0.23294205706E+02  0.10566000000E+00 0.  1.
        994    1    1    2    0    0 -0.11369922804E+02  0.25274406611E+02  0.27634621476E+02  0.17561657974E+03  0.17120000000E+03 0.  0.
        998    1    1    2    0    0  0.31604552566E+00 -0.47705836553E+01  0.14722474904E+04  0.14722892146E+04  0.10000000000E+02 0.  1.
</event>
<event>
 5    1  0.1300052E-008  0.3797659E+03  0.7957747E-01  0.3452178E+00
         13   -1    0    0    0    0  0.00000000000E+00  0.00000000000E+00  0.14999999963E+04  0.15000000000E+04  0.10566000000E+00 0.  1.
        994   -1    0    0    0    0 -0.00000000000E+00 -0.00000000000E+00  0.11368683772E-12  0.17120000000E+03  0.17120000000E+03 0.  0.
         13    1    1    2    0    0 -0.95690365824E+00 -0.12120277382E+02  0.15445730667E+02  0.19657022875E+02  0.10566000000E+00 0.  1.
        994    1    1    2    0    0  0.23959174651E+01  0.11502529133E+02  0.47133268800E+01  0.17166742279E+03  0.17120000000E+03 0.  0.
        998    1    1    2    0    0 -0.14390138069E+01  0.61774824906E+00  0.14798409387E+04  0.14798755543E+04  0.10000000000E+02 0.  1.
</event>
<event>
 5    1  0.1300052E-008  0.3855269E+03  0.7957747E-01  0.3427441E+00
         13   -1    0    0    0    0  0.00000000000E+00  0.00000000000E+00  0.14999999963E+04  0.15000000000E+04  0.10566000000E+00 0.  1.
        994   -1    0    0    0    0 -0.00000000000E+00 -0.00000000000E+00  0.11368683772E-12  0.17120000000E+03  0.17120000000E+03 0.  0.
         13    1    1    2    0    0  0.10808166376E+02 -0.11437737361E+02  0.85010111222E+02  0.86454430021E+02  0.10566000000E+00 0.  1.
        994    1    1    2    0    0 -0.19432434326E+02  0.77776359172E+01  0.28084450759E+01  0.17249764778E+03  0.17120000000E+03 0.  0.
        998    1    1    2    0    0  0.86242679497E+01  0.36601014442E+01  0.14121814400E+04  0.14122479222E+04  0.10000000000E+02 0.  1.
</event>
<event>
 5    1  0.1300052E-008  0.3761097E+03  0.7957747E-01  0.3468275E+00
         13   -1    0    0    0    0  0.00000000000E+00  0.00000000000E+00  0.14999999963E+04  0.15000000000E+04  0.10566000000E+00 0. -1.
        994   -1    0    0    0    0 -0.00000000000E+00 -0.00000000000E+00  0.11368683772E-12  0.17120000000E+03  0.17120000000E+03 0.  0.
         13    1    1    2    0    0 -0.54421198540E+01  0.92944472427E+01  0.67238619068E+01  0.12697436790E+02  0.10566000000E+00 0. -1.
        994    1    1    2    0    0  0.76828005509E+01 -0.26230901736E+01  0.63331954464E+01  0.17150934491E+03  0.17120000000E+03 0.  0.
        998    1    1    2    0    0 -0.22406806969E+01 -0.66713570691E+01  0.14869429389E+04  0.14869932183E+04  0.10000000000E+02 0. -1.
</event>
<event>
 5    1  0.1300052E-008  0.3751322E+03  0.7957747E-01  0.3472632E+00
         13   -1    0    0    0    0  0.00000000000E+00  0.00000000000E+00  0.14999999963E+04  0.15000000000E+04  0.10566000000E+00 0.  1.
        994   -1    0    0    0    0 -0.00000000000E+00 -0.00000000000E+00  0.11368683772E-12  0.17120000000E+03  0.17120000000E+03 0.  0.
         13    1    1    2    0    0 -0.68419017911E+02  0.67894088529E+02  0.26600153685E+03  0.28292684221E+03  0.10566000000E+00 0.  1.
        994    1    1    2    0    0  0.80459021120E+02 -0.62902351947E+02  0.51810663248E+02  0.20597122320E+03  0.17120000000E+03 0.  0.
        998    1    1    2    0    0 -0.12040003208E+02 -0.49917365816E+01  0.11821877962E+04  0.11823019346E+04  0.10000000000E+02 0.  1.
</event>
<event>
 5    1  0.1300052E-008  0.4367426E+03  0.7957747E-01  0.3236071E+00
         13   -1    0    0    0    0  0.00000000000E+00  0.00000000000E+00  0.14999999963E+04  0.15000000000E+04  0.10566000000E+00 0.  1.
        994   -1    0    0    0    0 -0.00000000000E+00 -0.00000000000E+00  0.11368683772E-12  0.17120000000E+03  0.17120000000E+03 0.  0.
         13    1    1    2    0    0  0.77534669121E+02 -0.51479201634E+02  0.95707076536E+02  0.13349752350E+03  0.10566000000E+00 0.  1.
        994    1    1    2    0    0  0.20208426921E+02 -0.63293483538E+02  0.72606606072E+02  0.19747304834E+03  0.17120000000E+03 0.  0.
        998    1    1    2    0    0 -0.97743096042E+02  0.11477268517E+03  0.13316863137E+04  0.13402294282E+04  0.10000000000E+02 0.  1.
</event>
<event>
 5    1  0.1300052E-008  0.3851718E+03  0.7957747E-01  0.3428944E+00
         13   -1    0    0    0    0  0.00000000000E+00  0.00000000000E+00  0.14999999963E+04  0.15000000000E+04  0.10566000000E+00 0. -1.
        994   -1    0    0    0    0 -0.00000000000E+00 -0.00000000000E+00  0.11368683772E-12  0.17120000000E+03  0.17120000000E+03 0.  0.
         13    1    1    2    0    0 -0.94910172818E+01  0.85555032695E+01  0.53124302810E+02  0.54639534756E+02  0.10566000000E+00 0. -1.
        994    1    1    2    0    0 -0.45465313212E+00 -0.12298169170E+02  0.20428208828E+01  0.17165390992E+03  0.17120000000E+03 0.  0.
        998    1    1    2    0    0  0.99456704139E+01  0.37426659010E+01  0.14448328726E+04  0.14449065553E+04  0.10000000000E+02 0. -1.
</event>
<event>
 5    1  0.1300052E-008  0.3795062E+03  0.7957747E-01  0.3453311E+00
         13   -1    0    0    0    0  0.00000000000E+00  0.00000000000E+00  0.14999999963E+04  0.15000000000E+04  0.10566000000E+00 0.  1.
        994   -1    0    0    0    0 -0.00000000000E+00 -0.00000000000E+00  0.11368683772E-12  0.17120000000E+03  0.17120000000E+03 0.  0.
         13    1    1    2    0    0 -0.25696370955E+02 -0.79102425354E+02  0.22309742691E+03  0.23809655654E+03  0.10566000000E+00 0.  1.
        994    1    1    2    0    0  0.64581059871E+02  0.20492614106E+02  0.32854023489E+02  0.18702803904E+03  0.17120000000E+03 0.  0.
        998    1    1    2    0    0 -0.38884688916E+02  0.58609811248E+02  0.12440485459E+04  0.12460754044E+04  0.10000000000E+02 0.  1.
</event>
<event>
 5    1  0.1300052E-008  0.3852462E+03  0.7957747E-01  0.3428629E+00
         13   -1    0    0    0    0  0.00000000000E+00  0.00000000000E+00  0.14999999963E+04  0.15000000000E+04  0.10566000000E+00 0. -1.
        994   -1    0    0    0    0 -0.00000000000E+00 -0.00000000000E+00  0.11368683772E-12  0.17120000000E+03  0.17120000000E+03 0.  0.
         13    1    1    2    0    0  0.48497129149E+01  0.11390185384E+02  0.53516278251E+02  0.54929584381E+02  0.10566000000E+00 0. -1.
        994    1    1    2    0    0 -0.72417152377E+01  0.30593492569E+01  0.17110859390E+01  0.17138894326E+03  0.17120000000E+03 0.  0.
        998    1    1    2    0    0  0.23920023228E+01 -0.14449534640E+02  0.14447726321E+04  0.14448814724E+04  0.10000000000E+02 0. -1.
</event>
<event>
 5    1  0.1300052E-008  0.3759218E+03  0.7957747E-01  0.3469111E+00
         13   -1    0    0    0    0  0.00000000000E+00  0.00000000000E+00  0.14999999963E+04  0.15000000000E+04  0.10566000000E+00 0.  1.
        994   -1    0    0    0    0 -0.00000000000E+00 -0.00000000000E+00  0.11368683772E-12  0.17120000000E+03  0.17120000000E+03 0.  0.
         13    1    1    2    0    0  0.27910482121E+02 -0.32458119312E+02  0.13843443200E+03  0.14490213128E+03  0.10566000000E+00 0.  1.
        994    1    1    2    0    0 -0.20865681911E+02  0.28537894866E+02  0.10452975084E+02  0.17512422109E+03  0.17120000000E+03 0.  0.
        998    1    1    2    0    0 -0.70448002098E+01  0.39202244452E+01  0.13511125892E+04  0.13511736476E+04  0.10000000000E+02 0.  1.
</event>
<event>
 5    1  0.1300052E-008  0.3832912E+03  0.7957747E-01  0.3436952E+00
         13   -1    0    0    0    0  0.00000000000E+00  0.00000000000E+00  0.14999999963E+04  0.15000000000E+04  0.10566000000E+00 0.  1.
        994   -1    0    0    0    0 -0.00000000000E+00 -0.00000000000E+00  0.11368683772E-12  0.17120000000E+03  0.17120000000E+03 0.  0.
         13    1    1    2    0    0 -0.59490033178E+01  0.32910128638E+02  0.19828911265E+03  0.20108965803E+03  0.10566000000E+00 0.  1.
        994    1    1    2    0    0  0.81506740284E+01 -0.32360864059E+02  0.61724909214E+01  0.17453136868E+03  0.17120000000E+03 0.  0.
        998    1    1    2    0    0 -0.22016707106E+01 -0.54926457832E+00  0.12955383927E+04  0.12955789733E+04  0.10000000000E+02 0.  0.
</event>
<event>
 5    1  0.1300052E-008  0.3855526E+03  0.7957747E-01  0.3427332E+00
         13   -1    0    0    0    0  0.00000000000E+00  0.00000000000E+00  0.14999999963E+04  0.15000000000E+04  0.10566000000E+00 0.  1.
        994   -1    0    0    0    0 -0.00000000000E+00 -0.00000000000E+00  0.11368683772E-12  0.17120000000E+03  0.17120000000E+03 0.  0.
         13    1    1    2    0    0  0.21718850250E+01 -0.13174011784E+02  0.65052337941E+02  0.66408504777E+02  0.10566000000E+00 0.  1.
        994    1    1    2    0    0 -0.59295098121E+01  0.10377040010E+02  0.18250830253E+01  0.17162637610E+03  0.17120000000E+03 0.  0.
        998    1    1    2    0    0  0.37576247871E+01  0.27969717738E+01  0.14331225753E+04  0.14331651191E+04  0.10000000000E+02 0.  1.
</event>
<event>
 5    1  0.1300052E-008  0.3856891E+03  0.7957747E-01  0.3426755E+00
         13   -1    0    0    0    0  0.00000000000E+00  0.00000000000E+00  0.14999999963E+04  0.15000000000E+04  0.10566000000E+00 0.  1.
        994   -1    0    0    0    0 -0.00000000000E+00 -0.00000000000E+00  0.11368683772E-12  0.17120000000E+03  0.17120000000E+03 0.  0.
         13    1    1    2    0    0  0.35713730492E+01 -0.14822801339E+02  0.87275199769E+02  0.88597075594E+02  0.10566000000E+00 0.  1.
        994    1    1    2    0    0  0.11763877012E+01  0.15565219613E+02  0.20883362469E+01  0.17192283472E+03  0.17120000000E+03 0.  0.
        998    1    1    2    0    0 -0.47477607504E+01 -0.74241827397E+00  0.14106364603E+04  0.14106800897E+04  0.10000000000E+02 0.  1.
</event>
<event>
 5    1  0.1300052E-008  0.3759895E+03  0.7957747E-01  0.3468809E+00
         13   -1    0    0    0    0  0.00000000000E+00  0.00000000000E+00  0.14999999963E+04  0.15000000000E+04  0.10566000000E+00 0.  1.
        994   -1    0    0    0    0 -0.00000000000E+00 -0.00000000000E+00  0.11368683772E-12  0.17120000000E+03  0.17120000000E+03 0.  0.
         13    1    1    2    0    0 -0.95876173013E+01  0.33795045470E+02  0.92470031180E+02  0.98917871663E+02  0.10566000000E+00 0.  1.
        994    1    1    2    0    0  0.11354478635E+02 -0.33035681585E+02  0.10316820165E+02  0.17503187487E+03  0.17120000000E+03 0.  0.
        998    1    1    2    0    0 -0.17668613340E+01 -0.75936388446E+00  0.13972131449E+04  0.13972502535E+04  0.10000000000E+02 0.  1.
</event>
<event>
 5    1  0.1300052E-008  0.3837610E+03  0.7957747E-01  0.3434944E+00
         13   -1    0    0    0    0  0.00000000000E+00  0.00000000000E+00  0.14999999963E+04  0.15000000000E+04  0.10566000000E+00 0.  1.
        994   -1    0    0    0    0 -0.00000000000E+00 -0.00000000000E+00  0.11368683772E-12  0.17120000000E+03  0.17120000000E+03 0.  0.
         13    1    1    2    0    0  0.10344450711E+02  0.52721262565E+01  0.28494535675E+02  0.30769346810E+02  0.10566000000E+00 0.  1.
        994    1    1    2    0    0 -0.14329277729E+02 -0.62705808695E+01  0.30547664368E+01  0.17194016396E+03  0.17120000000E+03 0.  0.
        998    1    1    2    0    0  0.39848270187E+01  0.99845461300E+00  0.14684506942E+04  0.14684904892E+04  0.10000000000E+02 0.  1.
</event>
<event>
 5    1  0.1300052E-008  0.3722175E+03  0.7957747E-01  0.3485761E+00
         13   -1    0    0    0    0  0.00000000000E+00  0.00000000000E+00  0.14999999963E+04  0.15000000000E+04  0.10566000000E+00 0.  1.
        994   -1    0    0    0    0 -0.00000000000E+00 -0.00000000000E+00  0.11368683772E-12  0.17120000000E+03  0.17120000000E+03 0.  0.
         13    1    1    2    0    0 -0.10634637917E+02  0.29362910436E+01  0.37305425271E+01  0.11646692248E+02  0.10566000000E+00 0.  1.
        994    1    1    2    0    0  0.11142377361E+02  0.71522127850E+01  0.87163708049E+01  0.17193231762E+03  0.17120000000E+03 0.  0.
        998    1    1    2    0    0 -0.50773944371E+00 -0.10088503829E+02  0.14875530829E+04  0.14876209901E+04  0.10000000000E+02 0.  1.
</event>
<event>
 5    1  0.1300052E-008  0.3772647E+03  0.7957747E-01  0.3463156E+00
         13   -1    0    0    0    0  0.00000000000E+00  0.00000000000E+00  0.14999999963E+04  0.15000000000E+04  0.10566000000E+00 0.  1.
        994   -1    0    0    0    0 -0.00000000000E+00 -0.00000000000E+00  0.11368683772E-12  0.17120000000E+03  0.17120000000E+03 0.  0.
         13    1    1    2    0    0 -0.44603207747E+02  0.13007846240E+01  0.18718420242E+03  0.19242940259E+03  0.10566000000E+00 0.  1.
        994    1    1    2    0    0  0.18442379250E+02  0.26460604880E+01  0.66921888760E+01  0.17234079140E+03  0.17120000000E+03 0.  0.
        998    1    1    2    0    0  0.26160828497E+02 -0.39468451120E+01  0.13061236050E+04  0.13064298060E+04  0.10000000000E+02 0.  1.
</event>
<event>
 5    1  0.1300052E-008  0.3856578E+03  0.7957747E-01  0.3426887E+00
         13   -1    0    0    0    0  0.00000000000E+00  0.00000000000E+00  0.14999999963E+04  0.15000000000E+04  0.10566000000E+00 0.  1.
        994   -1    0    0    0    0 -0.00000000000E+00 -0.00000000000E+00  0.11368683772E-12  0.17120000000E+03  0.17120000000E+03 0.  0.
         13    1    1    2    0    0  0.15620926081E+02  0.25027483063E+01  0.88970862088E+02  0.90366490169E+02  0.10566000000E+00 0.  1.
        994    1    1    2    0    0 -0.19790293710E+02 -0.52380176416E+01  0.26804285785E+01  0.17244047452E+03  0.17120000000E+03 0.  0.
        998    1    1    2    0    0  0.41693676295E+01  0.27352693353E+01  0.14083487056E+04  0.14083930353E+04  0.10000000000E+02 0.  1.
</event>
<event>
 5    1  0.1300052E-008  0.3825798E+03  0.7957747E-01  0.3440002E+00
         13   -1    0    0    0    0  0.00000000000E+00  0.00000000000E+00  0.14999999963E+04  0.15000000000E+04  0.10566000000E+00 0. -1.
        994   -1    0    0    0    0 -0.00000000000E+00 -0.00000000000E+00  0.11368683772E-12  0.17120000000E+03  0.17120000000E+03 0.  0.
         13    1    1    2    0    0 -0.60047339672E+01 -0.13519937713E+02  0.36564044483E+02  0.39443453941E+02  0.10566000000E+00 0. -1.
        994    1    1    2    0    0  0.11588826672E+02  0.13912258611E+02  0.39239606230E+01  0.17219956246E+03  0.17120000000E+03 0.  0.
        998    1    1    2    0    0 -0.55840927046E+01 -0.39232089805E+00  0.14595119912E+04  0.14595569836E+04  0.10000000000E+02 0. -1.
</event>
<event>
 5    1  0.1300052E-008  0.3831483E+03  0.7957747E-01  0.3437564E+00
         13   -1    0    0    0    0  0.00000000000E+00  0.00000000000E+00  0.14999999963E+04  0.15000000000E+04  0.10566000000E+00 0. -1.
        994   -1    0    0    0    0 -0.00000000000E+00 -0.00000000000E+00  0.11368683772E-12  0.17120000000E+03  0.17120000000E+03 0.  0.
         13    1    1    2    0    0 -0.22367780573E+02 -0.43017631411E+01  0.89307690352E+02  0.92166683210E+02  0.10566000000E+00 0. -1.
        994    1    1    2    0    0  0.33962688751E+02  0.81376219893E+01  0.65981045323E+01  0.17485039349E+03  0.17120000000E+03 0.  0.
        998    1    1    2    0    0 -0.11594908178E+02 -0.38358588482E+01  0.14040942014E+04  0.14041829233E+04  0.10000000000E+02 0. -1.
</event>
<event>
 5    1  0.1300052E-008  0.3694240E+03  0.7957747E-01  0.3498542E+00
         13   -1    0    0    0    0  0.00000000000E+00  0.00000000000E+00  0.14999999963E+04  0.15000000000E+04  0.10566000000E+00 0. -1.
        994   -1    0    0    0    0 -0.00000000000E+00 -0.00000000000E+00  0.11368683772E-12  0.17120000000E+03  0.17120000000E+03 0.  0.
         13    1    1    2    0    0  0.14724124460E+03 -0.32138473640E+02  0.80313731139E+03  0.81715507568E+03  0.10566000000E+00 0. -1.
        994    1    1    2    0    0 -0.11543713742E+03  0.50865277374E+02  0.66911244391E+02  0.22293398970E+03  0.17120000000E+03 0.  0.
        998    1    1    2    0    0 -0.31804107176E+02 -0.18726803734E+02  0.62995144050E+03  0.63111093462E+03  0.10000000000E+02 0. -1.
</event>
<event>
 5    1  0.1300052E-008  0.3832145E+03  0.7957747E-01  0.3437280E+00
         13   -1    0    0    0    0  0.00000000000E+00  0.00000000000E+00  0.14999999963E+04  0.15000000000E+04  0.10566000000E+00 0. -1.
        994   -1    0    0    0    0 -0.00000000000E+00 -0.00000000000E+00  0.11368683772E-12  0.17120000000E+03  0.17120000000E+03 0.  0.
         13    1    1    2    0    0 -0.67786802817E+01  0.24327113401E+02  0.11962413756E+03  0.12226080485E+03  0.10566000000E+00 0. -1.
        994    1    1    2    0    0 -0.23660037702E+00 -0.23686301896E+02  0.43774067681E+01  0.17288637473E+03  0.17120000000E+03 0.  0.
        998    1    1    2    0    0  0.70152806587E+01 -0.64081150506E+00  0.13759984520E+04  0.13760528204E+04  0.10000000000E+02 0. -1.
</event>
<event>
 5    1  0.1300052E-008  0.3764577E+03  0.7957747E-01  0.3466729E+00
         13   -1    0    0    0    0  0.00000000000E+00  0.00000000000E+00  0.14999999963E+04  0.15000000000E+04  0.10566000000E+00 0. -1.
        994   -1    0    0    0    0 -0.00000000000E+00 -0.00000000000E+00  0.11368683772E-12  0.17120000000E+03  0.17120000000E+03 0.  0.
         13    1    1    2    0    0 -0.53912329815E+01  0.10205224225E+02  0.85035713133E+01  0.14336452966E+02  0.10566000000E+00 0. -1.
        994    1    1    2    0    0  0.52790960057E+01 -0.89978378960E+01  0.63002611123E+01  0.17163322298E+03  0.17120000000E+03 0.  0.
        998    1    1    2    0    0  0.11213697585E+00 -0.12073863286E+01  0.14851961639E+04  0.14852303241E+04  0.10000000000E+02 0. -1.
</event>
<event>
 5    1  0.1300052E-008  0.3808097E+03  0.7957747E-01  0.3447640E+00
         13   -1    0    0    0    0  0.00000000000E+00  0.00000000000E+00  0.14999999963E+04  0.15000000000E+04  0.10566000000E+00 0.  1.
        994   -1    0    0    0    0 -0.00000000000E+00 -0.00000000000E+00  0.11368683772E-12  0.17120000000E+03  0.17120000000E+03 0.  0.
         13    1    1    2    0    0 -0.78239234784E+02 -0.19335993684E+02  0.16627787011E+03  0.18477986840E+03  0.10566000000E+00 0.  1.
        994    1    1    2    0    0  0.78936565378E+02  0.25120531563E+02  0.42158333614E+02  0.19480448545E+03  0.17120000000E+03 0.  0.
        998    1    1    2    0    0 -0.69733059448E+00 -0.57845378781E+01  0.12915637926E+04  0.12916156461E+04  0.10000000000E+02 0.  0.
</event>
<event>
 5    1  0.1300052E-008  0.3835580E+03  0.7957747E-01  0.3435811E+00
         13   -1    0    0    0    0  0.00000000000E+00  0.00000000000E+00  0.14999999963E+04  0.15000000000E+04  0.10566000000E+00 0. -1.
        994   -1    0    0    0    0 -0.00000000000E+00 -0.00000000000E+00  0.11368683772E-12  0.17120000000E+03  0.17120000000E+03 0.  0.
         13    1    1    2    0    0 -0.90411968757E+01 -0.45644703558E+01  0.20800604020E+02  0.23135555368E+02  0.10566000000E+00 0. -1.
        994    1    1    2    0    0  0.92322734574E+01  0.49688066937E+01  0.27110420273E+01  0.17154216293E+03  0.17120000000E+03 0.  0.
        998    1    1    2    0    0 -0.19107658170E+00 -0.40433633794E+00  0.14764883502E+04  0.14765222817E+04  0.10000000000E+02 0. -1.
</event>
<event>
 5    1  0.1300052E-008  0.3869791E+03  0.7957747E-01  0.3421322E+00
         13   -1    0    0    0    0  0.00000000000E+00  0.00000000000E+00  0.14999999963E+04  0.15000000000E+04  0.10566000000E+00 0. -1.
        994   -1    0    0    0    0 -0.00000000000E+00 -0.00000000000E+00  0.11368683772E-12  0.17120000000E+03  0.17120000000E+03 0.  0.
         13    1    1    2    0    0  0.15310892876E+02  0.10947709241E+03  0.63224102302E+03  0.64183204934E+03  0.10566000000E+00 0. -1.
        994    1    1    2    0    0  0.41414305903E+02  0.79838253058E+01  0.26859593016E+02  0.17835291962E+03  0.17120000000E+03 0.  0.
        998    1    1    2    0    0 -0.56725198780E+02 -0.11746091772E+03  0.84089938024E+03  0.85101503104E+03  0.10000000000E+02 0. -1.
</event>
<event>
 5    1  0.1300052E-008  0.3814548E+03  0.7957747E-01  0.3444848E+00
         13   -1    0    0    0    0  0.00000000000E+00  0.00000000000E+00  0.14999999963E+04  0.15000000000E+04  0.10566000000E+00 0. -1.
        994   -1    0    0    0    0 -0.00000000000E+00 -0.00000000000E+00  0.11368683772E-12  0.17120000000E+03  0.17120000000E+03 0.  0.
         13    1    1    2    0    0  0.29483693225E+01 -0.11280627063E+02  0.18326647475E+02  0.21721477857E+02  0.10566000000E+00 0. -1.
        994    1    1    2    0    0 -0.34558917780E+01  0.13161714400E+02  0.40168778135E+01  0.17178692972E+03  0.17120000000E+03 0.  0.
        998    1    1    2    0    0  0.50752245547E+00 -0.18810873367E+01  0.14776564710E+04  0.14776915924E+04  0.10000000000E+02 0.  0.
</event>
<event>
 5    1  0.1300052E-008  0.3799133E+03  0.7957747E-01  0.3451536E+00
         13   -1    0    0    0    0  0.00000000000E+00  0.00000000000E+00  0.14999999963E+04  0.15000000000E+04  0.10566000000E+00 0. -1.
        994   -1    0    0    0    0 -0.00000000000E+00 -0.00000000000E+00  0.11368683772E-12  0.17120000000E+03  0.17120000000E+03 0.  0.
         13    1    1    2    0    0  0.12022570230E+02  0.79366494707E+01  0.23081136332E+02  0.27208135147E+02  0.10566000000E+00 0. -1.
        994    1    1    2    0    0 -0.12236151571E+02 -0.93989945886E+00  0.46807010725E+01  0.17170310358E+03  0.17120000000E+03 0.  0.
        998    1    1    2    0    0  0.21358134040E+00 -0.69967500118E+01  0.14722381589E+04  0.14722887613E+04  0.10000000000E+02 0. -1.
</event>
<event>
 5    1  0.1300052E-008  0.3819078E+03  0.7957747E-01  0.3442893E+00
         13   -1    0    0    0    0  0.00000000000E+00  0.00000000000E+00  0.14999999963E+04  0.15000000000E+04  0.10566000000E+00 0. -1.
        994   -1    0    0    0    0 -0.00000000000E+00 -0.00000000000E+00  0.11368683772E-12  0.17120000000E+03  0.17120000000E+03 0.  0.
         13    1    1    2    0    0  0.13499003184E+02 -0.21268612886E+02  0.10697717457E+03  0.10990315748E+03  0.10566000000E+00 0. -1.
        994    1    1    2    0    0 -0.32536671315E+00  0.28393195267E+01  0.32003174815E+01  0.17125375801E+03  0.17120000000E+03 0.  0.
        998    1    1    2    0    0 -0.13173636470E+02  0.18429293359E+02  0.13898225042E+04  0.13900430845E+04  0.10000000000E+02 0. -1.
</event>
<event>
 5    1  0.1300052E-008  0.3827084E+03  0.7957747E-01  0.3439450E+00
         13   -1    0    0    0    0  0.00000000000E+00  0.00000000000E+00  0.14999999963E+04  0.15000000000E+04  0.10566000000E+00 0.  1.
        994   -1    0    0    0    0 -0.00000000000E+00 -0.00000000000E+00  0.11368683772E-12  0.17120000000E+03  0.17120000000E+03 0.  0.
         13    1    1    2    0    0 -0.41344817546E+01 -0.44301198605E+02  0.47903572744E+02  0.65379305464E+02  0.10566000000E+00 0.  1.
        994    1    1    2    0    0  0.21121465416E+01  0.40503802507E+02  0.23867544557E+02  0.17755032769E+03  0.17120000000E+03 0.  0.
        998    1    1    2    0    0  0.20223352130E+01  0.37973960980E+01  0.14282288790E+04  0.14282703668E+04  0.10000000000E+02 0.  1.
</event>
<event>
 5    1  0.1300052E-008  0.3820675E+03  0.7957747E-01  0.3442205E+00
         13   -1    0    0    0    0  0.00000000000E+00  0.00000000000E+00  0.14999999963E+04  0.15000000000E+04  0.10566000000E+00 0. -1.
        994   -1    0    0    0    0 -0.00000000000E+00 -0.00000000000E+00  0.11368683772E-12  0.17120000000E+03  0.17120000000E+03 0.  0.
         13    1    1    2    0    0  0.19033569161E+03 -0.17797481461E+02  0.10096068430E+04  0.10275458211E+04  0.10566000000E+00 0. -1.
        994    1    1    2    0    0 -0.19984097807E+03  0.19298281746E+02  0.15105572682E+03  0.30403307846E+03  0.17120000000E+03 0.  0.
        998    1    1    2    0    0  0.95052864552E+01 -0.15008002846E+01  0.33933742641E+03  0.33962110040E+03  0.10000000000E+02 0.  0.
</event>
<event>
 5    1  0.1679513E-008  0.3860695E+03  0.7957747E-01  0.3425149E+00
         13   -1    0    0    0    0  0.00000000000E+00  0.00000000000E+00  0.14999999963E+04  0.15000000000E+04  0.10566000000E+00 0. -1.
        994   -1    0    0    0    0 -0.00000000000E+00 -0.00000000000E+00  0.11368683772E-12  0.17120000000E+03  0.17120000000E+03 0.  0.
         13    1    1    2    0    0 -0.85542607906E+00 -0.13267369715E+02  0.75255672573E+02  0.76421085254E+02  0.10566000000E+00 0. -1.
        994    1    1    2    0    0  0.39703982990E+01  0.18129106623E+02  0.22296967953E+01  0.17221742106E+03  0.17120000000E+03 0.  0.
        998    1    1    2    0    0 -0.31149722199E+01 -0.48617369087E+01  0.14225146269E+04  0.14225614937E+04  0.10000000000E+02 0. -1.
</event>
<event>
 5    1  0.1300052E-008  0.3733420E+03  0.7957747E-01  0.3480671E+00
         13   -1    0    0    0    0  0.00000000000E+00  0.00000000000E+00  0.14999999963E+04  0.15000000000E+04  0.10566000000E+00 0.  1.
        994   -1    0    0    0    0 -0.00000000000E+00 -0.00000000000E+00  0.11368683772E-12  0.17120000000E+03  0.17120000000E+03 0.  0.
         13    1    1    2    0    0  0.87006456169E+01 -0.16826961660E+02  0.20720186874E+02  0.28074635901E+02  0.10566000000E+00 0.  1.
        994    1    1    2    0    0 -0.55644787042E+01  0.95466366776E+01  0.79501268378E+01  0.17174034532E+03  0.17120000000E+03 0.  0.
        998    1    1    2    0    0 -0.31361669127E+01  0.72803249821E+01  0.14713296826E+04  0.14713850188E+04  0.10000000000E+02 0.  1.
</event>
<event>
 5    1  0.1300052E-008  0.3749765E+03  0.7957747E-01  0.3473328E+00
         13   -1    0    0    0    0  0.00000000000E+00  0.00000000000E+00  0.14999999963E+04  0.15000000000E+04  0.10566000000E+00 0.  1.
        994   -1    0    0    0    0 -0.00000000000E+00 -0.00000000000E+00  0.11368683772E-12  0.17120000000E+03  0.17120000000E+03 0.  0.
         13    1    1    2    0    0  0.13672001786E+02 -0.50753269051E+02  0.18318118953E+03  0.19057328594E+03  0.10566000000E+00 0.  1.
        994    1    1    2    0    0 -0.10514071555E+02  0.48883659217E+02  0.15237890355E+02  0.17900220988E+03  0.17120000000E+03 0.  0.
        998    1    1    2    0    0 -0.31579302312E+01  0.18696098345E+01  0.13015809164E+04  0.13016245042E+04  0.10000000000E+02 0.  1.
</event>
<event>
 5    1  0.1300052E-008  0.3758185E+03  0.7957747E-01  0.3469570E+00
         13   -1    0    0    0    0  0.00000000000E+00  0.00000000000E+00  0.14999999963E+04  0.15000000000E+04  0.10566000000E+00 0.  1.
        994   -1    0    0    0    0 -0.00000000000E+00 -0.00000000000E+00  0.11368683772E-12  0.17120000000E+03  0.17120000000E+03 0.  0.
         13    1    1    2    0    0 -0.16436952586E+02 -0.47695762519E+01  0.20485324890E+02  0.26694230984E+02  0.10566000000E+00 0.  1.
        994    1    1    2    0    0  0.16354134671E+02  0.39753957220E+01  0.72198114607E+01  0.17217673237E+03  0.17120000000E+03 0.  0.
        998    1    1    2    0    0  0.82817915496E-01  0.79418052983E+00  0.14722948599E+04  0.14723290366E+04  0.10000000000E+02 0.  1.
</event>
<event>
 5    1  0.1300052E-008  0.3803536E+03  0.7957747E-01  0.3449620E+00
         13   -1    0    0    0    0  0.00000000000E+00  0.00000000000E+00  0.14999999963E+04  0.15000000000E+04  0.10566000000E+00 0.  1.
        994   -1    0    0    0    0 -0.00000000000E+00 -0.00000000000E+00  0.11368683772E-12  0.17120000000E+03  0.17120000000E+03 0.  0.
         13    1    1    2    0    0 -0.13286017755E+02 -0.13633141869E+02  0.43420074316E+02  0.47409860184E+02  0.10566000000E+00 0.  1.
        994    1    1    2    0    0  0.18129240246E+02  0.79685609269E+01  0.52653246728E+01  0.17242195614E+03  0.17120000000E+03 0.  0.
        998    1    1    2    0    0 -0.48432224906E+01  0.56645809420E+01  0.14513145973E+04  0.14513681837E+04  0.10000000000E+02 0.  1.
</event>
<event>
 5    1  0.1300052E-008  0.3852130E+03  0.7957747E-01  0.3428769E+00
         13   -1    0    0    0    0  0.00000000000E+00  0.00000000000E+00  0.14999999963E+04  0.15000000000E+04  0.10566000000E+00 0. -1.
        994   -1    0    0    0    0 -0.00000000000E+00 -0.00000000000E+00  0.11368683772E-12  0.17120000000E+03  0.17120000000E+03 0.  0.
         13    1    1    2    0    0 -0.27694490019E+00 -0.19259667422E+02  0.10959941316E+03  0.11127917153E+03  0.10566000000E+00 0. -1.
        994    1    1    2    0    0  0.13240990676E+01  0.24933036490E+02  0.35758829990E+01  0.17304807565E+03  0.17120000000E+03 0.  0.
        998    1    1    2    0    0 -0.10471541674E+01 -0.56733690678E+01  0.13868247001E+04  0.13868727528E+04  0.10000000000E+02 0. -1.
</event>
<event>
 5    1  0.1300052E-008  0.3847396E+03  0.7957747E-01  0.3430777E+00
         13   -1    0    0    0    0  0.00000000000E+00  0.00000000000E+00  0.14999999963E+04  0.15000000000E+04  0.10566000000E+00 0.  1.
        994   -1    0    0    0    0 -0.00000000000E+00 -0.00000000000E+00  0.11368683772E-12  0.17120000000E+03  0.17120000000E+03 0.  0.
         13    1    1    2    0    0 -0.25605700587E+01 -0.15216495592E+02  0.70204115390E+02  0.71879950187E+02  0.10566000000E+00 0.  1.
        994    1    1    2    0    0  0.93125265866E+01  0.26579675397E+01  0.20682137391E+01  0.17148616694E+03  0.17120000000E+03 0.  0.
        998    1    1    2    0    0 -0.67519565279E+01  0.12558528052E+02  0.14277276671E+04  0.14278338829E+04  0.10000000000E+02 0.  1.
</event>
<event>
 5    1  0.1300052E-008  0.3828742E+03  0.7957747E-01  0.3438738E+00
         13   -1    0    0    0    0  0.00000000000E+00  0.00000000000E+00  0.14999999963E+04  0.15000000000E+04  0.10566000000E+00 0. -1.
        994   -1    0    0    0    0 -0.00000000000E+00 -0.00000000000E+00  0.11368683772E-12  0.17120000000E+03  0.17120000000E+03 0.  0.
         13    1    1    2    0    0  0.24876943525E+01 -0.12138921392E+02  0.27317823814E+02  0.29996944807E+02  0.10566000000E+00 0. -1.
        994    1    1    2    0    0 -0.44421430056E+01  0.10880244966E+02  0.31467200201E+01  0.17163174011E+03  0.17120000000E+03 0.  0.
        998    1    1    2    0    0  0.19544486531E+01  0.12586764267E+01  0.14695354524E+04  0.14695713151E+04  0.10000000000E+02 0. -1.
</event>
<event>
 5    1  0.1300052E-008  0.3738726E+03  0.7957747E-01  0.3478280E+00
         13   -1    0    0    0    0  0.00000000000E+00  0.00000000000E+00  0.14999999963E+04  0.15000000000E+04  0.10566000000E+00 0.  1.
        994   -1    0    0    0    0 -0.00000000000E+00 -0.00000000000E+00  0.11368683772E-12  0.17120000000E+03  0.17120000000E+03 0.  0.
         13    1    1    2    0    0 -0.36983173437E+02 -0.16698343715E+02  0.10148580889E+03  0.10929762290E+03  0.10566000000E+00 0.  1.
        994    1    1    2    0    0  0.43441405809E+02  0.16456978325E+02  0.14658232268E+02  0.17799520119E+03  0.17120000000E+03 0.  0.
        998    1    1    2    0    0 -0.64582323721E+01  0.24136538944E+00  0.13838559551E+04  0.13839071759E+04  0.10000000000E+02 0.  1.
</event>
<event>
 5    1  0.1300052E-008  0.3803484E+03  0.7957747E-01  0.3449643E+00
         13   -1    0    0    0    0  0.00000000000E+00  0.00000000000E+00  0.14999999963E+04  0.15000000000E+04  0.10566000000E+00 0. -1.
        994   -1    0    0    0    0 -0.00000000000E+00 -0.00000000000E+00  0.11368683772E-12  0.17120000000E+03  0.17120000000E+03 0.  0.
         13    1    1    2    0    0  0.25684817754E+02  0.94178445984E+00  0.85838206498E+02  0.89603603052E+02  0.10566000000E+00 0. -1.
        994    1    1    2    0    0 -0.64118951725E+01 -0.15112190025E+02  0.48577281007E+01  0.17205385264E+03  0.17120000000E+03 0.  0.
        998    1    1    2    0    0 -0.19272922581E+02  0.14170405565E+02  0.14093040617E+04  0.14095425443E+04  0.10000000000E+02 0. -1.
</event>
<event>
 5    1  0.1300052E-008  0.3927069E+03  0.7957747E-01  0.3397630E+00
         13   -1    0    0    0    0  0.00000000000E+00  0.00000000000E+00  0.14999999963E+04  0.15000000000E+04  0.10566000000E+00 0.  1.
        994   -1    0    0    0    0 -0.00000000000E+00 -0.00000000000E+00  0.11368683772E-12  0.17120000000E+03  0.17120000000E+03 0.  0.
         13    1    1    2    0    0 -0.87653361453E+01  0.99133827175E+01 -0.70205655847E+01  0.14980179565E+02  0.10566000000E+00 0.  1.
        994    1    1    2    0    0  0.13438484914E+02 -0.15670358505E+02  0.25112058572E+02  0.17425902702E+03  0.17120000000E+03 0.  0.
        998    1    1    2    0    0 -0.46731487691E+01  0.57569757874E+01  0.14819085033E+04  0.14819607934E+04  0.10000000000E+02 0.  1.
</event>
<event>
 5    1  0.1300052E-008  0.3818017E+03  0.7957747E-01  0.3443351E+00
         13   -1    0    0    0    0  0.00000000000E+00  0.00000000000E+00  0.14999999963E+04  0.15000000000E+04  0.10566000000E+00 0.  1.
        994   -1    0    0    0    0 -0.00000000000E+00 -0.00000000000E+00  0.11368683772E-12  0.17120000000E+03  0.17120000000E+03 0.  0.
         13    1    1    2    0    0 -0.51521717376E+01 -0.41513539845E+02  0.24106291325E+03  0.24466560480E+03  0.10566000000E+00 0.  1.
        994    1    1    2    0    0  0.40447966091E+01  0.36386748016E+02  0.76934322363E+01  0.17523979203E+03  0.17120000000E+03 0.  0.
        998    1    1    2    0    0  0.11073751285E+01  0.51267918290E+01  0.12512436508E+04  0.12512946032E+04  0.10000000000E+02 0.  1.
</event>
<event>
 5    1  0.1300052E-008  0.3787172E+03  0.7957747E-01  0.3456763E+00
         13   -1    0    0    0    0  0.00000000000E+00  0.00000000000E+00  0.14999999963E+04  0.15000000000E+04  0.10566000000E+00 0. -1.
        994   -1    0    0    0    0 -0.00000000000E+00 -0.00000000000E+00  0.11368683772E-12  0.17120000000E+03  0.17120000000E+03 0.  0.
         13    1    1    2    0    0 -0.10090376867E+02  0.27889673566E+02  0.81060822998E+02  0.86316381911E+02  0.10566000000E+00 0. -1.
        994    1    1    2    0    0  0.25108665127E+02 -0.36723597057E+02  0.11455020137E+02  0.17725610041E+03  0.17120000000E+03 0.  0.
        998    1    1    2    0    0 -0.15018288260E+02  0.88339234912E+01  0.14074841531E+04  0.14076275177E+04  0.10000000000E+02 0. -1.
</event>
<event>
 5    1  0.1300052E-008  0.3778648E+03  0.7957747E-01  0.3460509E+00
         13   -1    0    0    0    0  0.00000000000E+00  0.00000000000E+00  0.14999999963E+04  0.15000000000E+04  0.10566000000E+00 0. -1.
        994   -1    0    0    0    0 -0.00000000000E+00 -0.00000000000E+00  0.11368683772E-12  0.17120000000E+03  0.17120000000E+03 0.  0.
         13    1    1    2    0    0 -0.23966349678E+03 -0.84916496395E+02  0.72971729470E+03  0.77274623544E+03  0.10566000000E+00 0. -1.
        994    1    1    2    0    0  0.28759600068E+03  0.74265864440E+02  0.40886723874E+03  0.53358105021E+03  0.17120000000E+03 0.  0.
        998    1    1    2    0    0 -0.47932503907E+02  0.10650631955E+02  0.36141546284E+03  0.36487271435E+03  0.10000000000E+02 0. -1.
</event>
<event>
 5    1  0.1300052E-008  0.3838189E+03  0.7957747E-01  0.3434697E+00
         13   -1    0    0    0    0  0.00000000000E+00  0.00000000000E+00  0.14999999963E+04  0.15000000000E+04  0.10566000000E+00 0.  1.
        994   -1    0    0    0    0 -0.00000000000E+00 -0.00000000000E+00  0.11368683772E-12  0.17120000000E+03  0.17120000000E+03 0.  0.
         13    1    1    2    0    0 -0.90618922642E+00  0.23028917418E+02  0.12479822972E+03  0.12690847695E+03  0.10566000000E+00 0.  1.
        994    1    1    2    0    0 -0.25124879260E+01 -0.83737871923E+01  0.24700231927E+01  0.17144087588E+03  0.17120000000E+03 0.  0.
        998    1    1    2    0    0  0.34186771524E+01 -0.14655130225E+02  0.13727317434E+04  0.13728506472E+04  0.10000000000E+02 0.  1.
</event>
<event>
 5    1  0.1300052E-008  0.3830804E+03  0.7957747E-01  0.3437854E+00
         13   -1    0    0    0    0  0.00000000000E+00  0.00000000000E+00  0.14999999963E+04  0.15000000000E+04  0.10566000000E+00 0.  1.
        994   -1    0    0    0    0 -0.00000000000E+00 -0.00000000000E+00  0.11368683772E-12  0.17120000000E+03  0.17120000000E+03 0.  0.
         13    1    1    2    0    0 -0.17348203329E+01 -0.24970620736E+02  0.11664739280E+03  0.11930283698E+03  0.10566000000E+00 0.  1.
        994    1    1    2    0    0 -0.27953531021E+01  0.20177515850E+02  0.39605551012E+01  0.17245310128E+03  0.17120000000E+03 0.  0.
        998    1    1    2    0    0  0.45301734350E+01  0.47931048862E+01  0.13793920484E+04  0.13794440617E+04  0.10000000000E+02 0.  1.
</event>
<event>
 5    1  0.1300052E-008  0.3849238E+03  0.7957747E-01  0.3429996E+00
         13   -1    0    0    0    0  0.00000000000E+00  0.00000000000E+00  0.14999999963E+04  0.15000000000E+04  0.10566000000E+00 0.  1.
        994   -1    0    0    0    0 -0.00000000000E+00 -0.00000000000E+00  0.11368683772E-12  0.17120000000E+03  0.17120000000E+03 0.  0.
         13    1    1    2    0    0  0.16650876281E+01  0.10526114152E+02  0.34219854480E+02  0.35841054681E+02  0.10566000000E+00 0.  1.
        994    1    1    2    0    0 -0.52675614859E+01 -0.39612070223E+01  0.18108887172E+01  0.17133638750E+03  0.17120000000E+03 0.  0.
        998    1    1    2    0    0  0.36024738577E+01 -0.65649071299E+01  0.14639692531E+04  0.14640225578E+04  0.10000000000E+02 0.  1.
</event>
<event>
 5    1  0.1300052E-008  0.3763086E+03  0.7957747E-01  0.3467391E+00
         13   -1    0    0    0    0  0.00000000000E+00  0.00000000000E+00  0.14999999963E+04  0.15000000000E+04  0.10566000000E+00 0.  1.
        994   -1    0    0    0    0 -0.00000000000E+00 -0.00000000000E+00  0.11368683772E-12  0.17120000000E+03  0.17120000000E+03 0.  0.
         13    1    1    2    0    0  0.10902465006E+02 -0.20742138129E+00  0.69929901045E+01  0.12954529767E+02  0.10566000000E+00 0.  1.
        994    1    1    2    0    0 -0.17549031207E+02  0.21939860117E+01  0.70674988600E+01  0.17225612213E+03  0.17120000000E+03 0.  0.
        998    1    1    2    0    0  0.66465662011E+01 -0.19865646304E+01  0.14859395073E+04  0.14859893481E+04  0.10000000000E+02 0.  1.
</event>
<event>
 5    1  0.1405426E-008  0.3856079E+03  0.7957747E-01  0.3427098E+00
         13   -1    0    0    0    0  0.00000000000E+00  0.00000000000E+00  0.14999999963E+04  0.15000000000E+04  0.10566000000E+00 0. -1.
        994   -1    0    0    0    0 -0.00000000000E+00 -0.00000000000E+00  0.11368683772E-12  0.17120000000E+03  0.17120000000E+03 0.  0.
         13    1    1    2    0    0 -0.79155454021E+01 -0.99774494231E+01  0.54820405555E+02  0.56280488495E+02  0.10566000000E+00 0. -1.
        994    1    1    2    0    0  0.18895119986E+02  0.18934402257E+02  0.36806591126E+01  0.17331625544E+03  0.17120000000E+03 0.  0.
        998    1    1    2    0    0 -0.10979574584E+02 -0.89569528334E+01  0.14414989316E+04  0.14416032561E+04  0.10000000000E+02 0. -1.
</event>
<event>
 5    1  0.1300052E-008  0.3853472E+03  0.7957747E-01  0.3428201E+00
         13   -1    0    0    0    0  0.00000000000E+00  0.00000000000E+00  0.14999999963E+04  0.15000000000E+04  0.10566000000E+00 0.  1.
        994   -1    0    0    0    0 -0.00000000000E+00 -0.00000000000E+00  0.11368683772E-12  0.17120000000E+03  0.17120000000E+03 0.  0.
         13    1    1    2    0    0 -0.17845237684E+02  0.26594606303E+01  0.10470589112E+03  0.10624904724E+03  0.10566000000E+00 0.  1.
        994    1    1    2    0    0  0.19116252885E+02 -0.40880028386E+01  0.27142016030E+01  0.17233383238E+03  0.17120000000E+03 0.  0.
        998    1    1    2    0    0 -0.12710152002E+01  0.14285422083E+01  0.13925799036E+04  0.13926171204E+04  0.10000000000E+02 0.  1.
</event>
<event>
 5    1  0.1300052E-008  0.3787221E+03  0.7957747E-01  0.3456742E+00
         13   -1    0    0    0    0  0.00000000000E+00  0.00000000000E+00  0.14999999963E+04  0.15000000000E+04  0.10566000000E+00 0. -1.
        994   -1    0    0    0    0 -0.00000000000E+00 -0.00000000000E+00  0.11368683772E-12  0.17120000000E+03  0.17120000000E+03 0.  0.
         13    1    1    2    0    0 -0.33869667013E+02  0.57549322003E+02  0.38249375008E+03  0.38827897035E+03  0.10566000000E+00 0. -1.
        994    1    1    2    0    0  0.32736090995E+02 -0.47765262635E+02  0.16120156893E+02  0.18144550539E+03  0.17120000000E+03 0.  0.
        998    1    1    2    0    0  0.11335760182E+01 -0.97840593681E+01  0.11013860893E+04  0.11014755243E+04  0.10000000000E+02 0. -1.
</event>
<event>
 5    1  0.1300052E-008  0.3856485E+03  0.7957747E-01  0.3426927E+00
         13   -1    0    0    0    0  0.00000000000E+00  0.00000000000E+00  0.14999999963E+04  0.15000000000E+04  0.10566000000E+00 0.  1.
        994   -1    0    0    0    0 -0.00000000000E+00 -0.00000000000E+00  0.11368683772E-12  0.17120000000E+03  0.17120000000E+03 0.  0.
         13    1    1    2    0    0  0.91147595429E+01 -0.73417499360E+01  0.52283953291E+02  0.53578009196E+02  0.10566000000E+00 0.  1.
        994    1    1    2    0    0 -0.53788126894E+01  0.77617540584E+01  0.16012379515E+01  0.17146772412E+03  0.17120000000E+03 0.  0.
        998    1    1    2    0    0 -0.37359468535E+01 -0.42000412244E+00  0.14461148050E+04  0.14461542667E+04  0.10000000000E+02 0.  1.
</event>
<event>
 5    1  0.1300052E-008  0.3840380E+03  0.7957747E-01  0.3433762E+00
         13   -1    0    0    0    0  0.00000000000E+00  0.00000000000E+00  0.14999999963E+04  0.15000000000E+04  0.10566000000E+00 0. -1.
        994   -1    0    0    0    0 -0.00000000000E+00 -0.00000000000E+00  0.11368683772E-12  0.17120000000E+03  0.17120000000E+03 0.  0.
         13    1    1    2    0    0 -0.19597343997E+02 -0.11784728218E+02  0.13129400262E+03  0.13327063442E+03  0.10566000000E+00 0. -1.
        994    1    1    2    0    0  0.71330631818E+01  0.94845585959E+00  0.22793491742E+01  0.17136631989E+03  0.17120000000E+03 0.  0.
        998    1    1    2    0    0  0.12464280815E+02  0.10836272359E+02  0.13664266445E+04  0.13665630457E+04  0.10000000000E+02 0. -1.
</event>
<event>
 5    1  0.1300052E-008  0.3830622E+03  0.7957747E-01  0.3437933E+00
         13   -1    0    0    0    0  0.00000000000E+00  0.00000000000E+00  0.14999999963E+04  0.15000000000E+04  0.10566000000E+00 0.  1.
        994   -1    0    0    0    0 -0.00000000000E+00 -0.00000000000E+00  0.11368683772E-12  0.17120000000E+03  0.17120000000E+03 0.  0.
         13    1    1    2    0    0  0.15216866143E+02  0.27946581307E+01  0.48604970481E+02  0.51008013574E+02  0.10566000000E+00 0.  1.
        994    1    1    2    0    0  0.39654244946E+01  0.69593195083E+01  0.28076552652E+01  0.17141026704E+03  0.17120000000E+03 0.  0.
        998    1    1    2    0    0 -0.19182290637E+02 -0.97539776391E+01  0.14485873705E+04  0.14487817194E+04  0.10000000000E+02 0.  1.
</event>
<event>
 5    1  0.1300052E-008  0.3747087E+03  0.7957747E-01  0.3474527E+00
         13   -1    0    0    0    0  0.00000000000E+00  0.00000000000E+00  0.14999999963E+04  0.15000000000E+04  0.10566000000E+00 0.  1.
        994   -1    0    0    0    0 -0.00000000000E+00 -0.00000000000E+00  0.11368683772E-12  0.17120000000E+03  0.17120000000E+03 0.  0.
         13    1    1    2    0    0 -0.57389723772E+02  0.13267042122E+01  0.31265826120E+03  0.31788447588E+03  0.10566000000E+00 0.  1.
        994    1    1    2    0    0 -0.66622231352E+00 -0.45906920373E+01  0.69016440179E+01  0.17140184070E+03  0.17120000000E+03 0.  0.
        998    1    1    2    0    0  0.58055946086E+02  0.32639878251E+01  0.11804400911E+04  0.11819136834E+04  0.10000000000E+02 0.  1.
</event>
<event>
 5    1  0.1300052E-008  0.3819491E+03  0.7957747E-01  0.3442716E+00
         13   -1    0    0    0    0  0.00000000000E+00  0.00000000000E+00  0.14999999963E+04  0.15000000000E+04  0.10566000000E+00 0. -1.
        994   -1    0    0    0    0 -0.00000000000E+00 -0.00000000000E+00  0.11368683772E-12  0.17120000000E+03  0.17120000000E+03 0.  0.
         13    1    1    2    0    0  0.30991938356E+02  0.35643886895E+02  0.21113152565E+03  0.21635045460E+03  0.10566000000E+00 0. -1.
        994    1    1    2    0    0 -0.43303945376E+02 -0.85320086649E+02  0.34181389764E+02  0.19907927134E+03  0.17120000000E+03 0.  0.
        998    1    1    2    0    0  0.12312007021E+02  0.49676199754E+02  0.12546870809E+04  0.12557702741E+04  0.10000000000E+02 0. -1.
</event>
<event>
 5    1  0.1300052E-008  0.4229497E+03  0.7957747E-01  0.3283115E+00
         13   -1    0    0    0    0  0.00000000000E+00  0.00000000000E+00  0.14999999963E+04  0.15000000000E+04  0.10566000000E+00 0. -1.
        994   -1    0    0    0    0 -0.00000000000E+00 -0.00000000000E+00  0.11368683772E-12  0.17120000000E+03  0.17120000000E+03 0.  0.
         13    1    1    2    0    0 -0.21850410598E+02  0.21558299084E+02 -0.70622369756E+01  0.31497413510E+02  0.10566000000E+00 0. -1.
        994    1    1    2    0    0  0.47475144107E+02 -0.42725183321E+02  0.60146175457E+02  0.19237030181E+03  0.17120000000E+03 0.  0.
        998    1    1    2    0    0 -0.25624733509E+02  0.21166884237E+02  0.14469160578E+04  0.14473322847E+04  0.10000000000E+02 0. -1.
</event>
<event>
 5    1  0.1300052E-008  0.3824830E+03  0.7957747E-01  0.3440418E+00
         13   -1    0    0    0    0  0.00000000000E+00  0.00000000000E+00  0.14999999963E+04  0.15000000000E+04  0.10566000000E+00 0. -1.
        994   -1    0    0    0    0 -0.00000000000E+00 -0.00000000000E+00  0.11368683772E-12  0.17120000000E+03  0.17120000000E+03 0.  0.
         13    1    1    2    0    0  0.23799201882E+02 -0.11073486267E+02  0.13024243284E+03  0.13286130582E+03  0.10566000000E+00 0. -1.
        994    1    1    2    0    0 -0.33991217043E+01 -0.14794025316E+01  0.29305130983E+01  0.17126520536E+03  0.17120000000E+03 0.  0.
        998    1    1    2    0    0 -0.20400080177E+02  0.12552888798E+02  0.13668270503E+04  0.13670734888E+04  0.10000000000E+02 0. -1.
</event>
<event>
 5    1  0.1300052E-008  0.3757291E+03  0.7957747E-01  0.3469968E+00
         13   -1    0    0    0    0  0.00000000000E+00  0.00000000000E+00  0.14999999963E+04  0.15000000000E+04  0.10566000000E+00 0. -1.
        994   -1    0    0    0    0 -0.00000000000E+00 -0.00000000000E+00  0.11368683772E-12  0.17120000000E+03  0.17120000000E+03 0.  0.
         13    1    1    2    0    0  0.45588452169E+02 -0.82986152481E+02  0.26510277412E+03  0.28150399728E+03  0.10566000000E+00 0. -1.
        994    1    1    2    0    0 -0.39975584933E+02  0.80757315298E+02  0.43570398721E+02  0.19831190335E+03  0.17120000000E+03 0.  0.
        998    1    1    2    0    0 -0.56128672367E+01  0.22288371830E+01  0.11913268234E+04  0.11913840994E+04  0.10000000000E+02 0. -1.
</event>
<event>
 5    1  0.1300052E-008  0.3733427E+03  0.7957747E-01  0.3480668E+00
         13   -1    0    0    0    0  0.00000000000E+00  0.00000000000E+00  0.14999999963E+04  0.15000000000E+04  0.10566000000E+00 0. -1.
        994   -1    0    0    0    0 -0.00000000000E+00 -0.00000000000E+00  0.11368683772E-12  0.17120000000E+03  0.17120000000E+03 0.  0.
         13    1    1    2    0    0  0.22674744136E+02  0.76128089321E+02  0.23525177942E+03  0.24830030384E+03  0.10566000000E+00 0. -1.
        994    1    1    2    0    0 -0.23032201776E+02 -0.50205959336E+02  0.23590089110E+02  0.18143057343E+03  0.17120000000E+03 0.  0.
        998    1    1    2    0    0  0.35745763954E+00 -0.25922129985E+02  0.12411581278E+04  0.12414691227E+04  0.10000000000E+02 0. -1.
</event>
<event>
 5    1  0.1300052E-008  0.3807099E+03  0.7957747E-01  0.3448073E+00
         13   -1    0    0    0    0  0.00000000000E+00  0.00000000000E+00  0.14999999963E+04  0.15000000000E+04  0.10566000000E+00 0. -1.
        994   -1    0    0    0    0 -0.00000000000E+00 -0.00000000000E+00  0.11368683772E-12  0.17120000000E+03  0.17120000000E+03 0.  0.
         13    1    1    2    0    0  0.83943874531E+01  0.69470309500E+01  0.14025334000E+02  0.17760859709E+02  0.10566000000E+00 0. -1.
        994    1    1    2    0    0 -0.40037183085E+01 -0.11184641455E+02  0.42460220287E+01  0.17166419157E+03  0.17120000000E+03 0.  0.
        998    1    1    2    0    0 -0.43906691445E+01  0.42376105055E+01  0.14817286402E+04  0.14817749487E+04  0.10000000000E+02 0. -1.
</event>
<event>
 5    1  0.1300052E-008  0.3685766E+03  0.7957747E-01  0.3502458E+00
         13   -1    0    0    0    0  0.00000000000E+00  0.00000000000E+00  0.14999999963E+04  0.15000000000E+04  0.10566000000E+00 0. -1.
        994   -1    0    0    0    0 -0.00000000000E+00 -0.00000000000E+00  0.11368683772E-12  0.17120000000E+03  0.17120000000E+03 0.  0.
         13    1    1    2    0    0 -0.61365257747E+02  0.42777807245E+02  0.32546052747E+03  0.33394640552E+03  0.10566000000E+00 0. -1.
        994    1    1    2    0    0  0.21512106442E+02  0.14262770798E+01  0.11806686412E+02  0.17295560943E+03  0.17120000000E+03 0.  0.
        998    1    1    2    0    0  0.39853151305E+02 -0.44204084325E+02  0.11627327824E+04  0.11642979851E+04  0.10000000000E+02 0. -1.
</event>
<event>
 5    1  0.1300052E-008  0.3851419E+03  0.7957747E-01  0.3429071E+00
         13   -1    0    0    0    0  0.00000000000E+00  0.00000000000E+00  0.14999999963E+04  0.15000000000E+04  0.10566000000E+00 0. -1.
        994   -1    0    0    0    0 -0.00000000000E+00 -0.00000000000E+00  0.11368683772E-12  0.17120000000E+03  0.17120000000E+03 0.  0.
         13    1    1    2    0    0 -0.44620562246E+01 -0.15324988620E+02  0.85790135392E+02  0.87262384317E+02  0.10566000000E+00 0. -1.
        994    1    1    2    0    0  0.20385090682E+01  0.36009082829E+01  0.16159937064E+01  0.17125762317E+03  0.17120000000E+03 0.  0.
        998    1    1    2    0    0  0.24235471564E+01  0.11724080337E+02  0.14125938672E+04  0.14126799925E+04  0.10000000000E+02 0. -1.
</event>
<event>
 5    1  0.1300052E-008  0.3803866E+03  0.7957747E-01  0.3449477E+00
         13   -1    0    0    0    0  0.00000000000E+00  0.00000000000E+00  0.14999999963E+04  0.15000000000E+04  0.10566000000E+00 0.  1.
        994   -1    0    0    0    0 -0.00000000000E+00 -0.00000000000E+00  0.11368683772E-12  0.17120000000E+03  0.17120000000E+03 0.  0.
         13    1    1    2    0    0 -0.30387443566E+02 -0.24948901909E+02  0.18785765555E+03  0.19192799260E+03  0.10566000000E+00 0.  1.
        994    1    1    2    0    0  0.22789439607E+02  0.16163842410E+02  0.65487551644E+01  0.17358846319E+03  0.17120000000E+03 0.  0.
        998    1    1    2    0    0  0.75980039591E+01  0.87850594995E+01  0.13055935856E+04  0.13056835442E+04  0.10000000000E+02 0.  1.
</event>
<event>
 5    1  0.1300052E-008  0.3850269E+03  0.7957747E-01  0.3429558E+00
         13   -1    0    0    0    0  0.00000000000E+00  0.00000000000E+00  0.14999999963E+04  0.15000000000E+04  0.10566000000E+00 0.  1.
        994   -1    0    0    0    0 -0.00000000000E+00 -0.00000000000E+00  0.11368683772E-12  0.17120000000E+03  0.17120000000E+03 0.  0.
         13    1    1    2    0    0 -0.83554170154E+01 -0.97368020188E+01  0.54794298050E+02  0.56276501046E+02  0.10566000000E+00 0.  1.
        994    1    1    2    0    0 -0.39120813256E+01 -0.18503617190E+01  0.16783741588E+01  0.17126291239E+03  0.17120000000E+03 0.  0.
        998    1    1    2    0    0  0.12267498341E+02  0.11587163738E+02  0.14435273241E+04  0.14436605866E+04  0.10000000000E+02 0.  1.
</event>
<event>
 5    1  0.1300052E-008  0.3798731E+03  0.7957747E-01  0.3451711E+00
         13   -1    0    0    0    0  0.00000000000E+00  0.00000000000E+00  0.14999999963E+04  0.15000000000E+04  0.10566000000E+00 0. -1.
        994   -1    0    0    0    0 -0.00000000000E+00 -0.00000000000E+00  0.11368683772E-12  0.17120000000E+03  0.17120000000E+03 0.  0.
         13    1    1    2    0    0  0.10035460018E+02  0.87319068302E+01  0.19337264365E+02  0.23471208146E+02  0.10566000000E+00 0. -1.
        994    1    1    2    0    0 -0.65566415968E+01 -0.62688023156E+01  0.44724491644E+01  0.17149848464E+03  0.17120000000E+03 0.  0.
        998    1    1    2    0    0 -0.34788184211E+01 -0.24631045146E+01  0.14761902827E+04  0.14762303072E+04  0.10000000000E+02 0. -1.
</event>
<event>
 5    1  0.1300052E-008  0.2544474E+03  0.7957747E-01  0.4286642E+00
         13   -1    0    0    0    0  0.00000000000E+00  0.00000000000E+00  0.14999999963E+04  0.15000000000E+04  0.10566000000E+00 0. -1.
        994   -1    0    0    0    0 -0.00000000000E+00 -0.00000000000E+00  0.11368683772E-12  0.17120000000E+03  0.17120000000E+03 0.  0.
         13    1    1    2    0    0 -0.16823419114E+03  0.33698474993E+01  0.46077761068E+03  0.49054063706E+03  0.10566000000E+00 0. -1.
        994    1    1    2    0    0  0.83375316213E+02  0.16117885688E+02  0.64042538357E+02  0.20154929003E+03  0.17120000000E+03 0.  0.
        998    1    1    2    0    0  0.84858874932E+02 -0.19487733188E+02  0.97517984724E+03  0.97911007291E+03  0.10000000000E+02 0. -1.
</event>
<event>
 5    1  0.1300052E-008  0.3762583E+03  0.7957747E-01  0.3467614E+00
         13   -1    0    0    0    0  0.00000000000E+00  0.00000000000E+00  0.14999999963E+04  0.15000000000E+04  0.10566000000E+00 0. -1.
        994   -1    0    0    0    0 -0.00000000000E+00 -0.00000000000E+00  0.11368683772E-12  0.17120000000E+03  0.17120000000E+03 0.  0.
         13    1    1    2    0    0  0.29861624774E+02  0.40972785566E+02  0.26909169110E+03  0.27382628649E+03  0.10566000000E+00 0. -1.
        994    1    1    2    0    0  0.63104995404E+01 -0.15845290988E+01  0.61772871413E+01  0.17143492064E+03  0.17120000000E+03 0.  0.
        998    1    1    2    0    0 -0.36172124315E+02 -0.39388256467E+02  0.12247310180E+04  0.12259387929E+04  0.10000000000E+02 0. -1.
</event>
<event>
 5    1  0.1300052E-008  0.3798910E+03  0.7957747E-01  0.3451633E+00
         13   -1    0    0    0    0  0.00000000000E+00  0.00000000000E+00  0.14999999963E+04  0.15000000000E+04  0.10566000000E+00 0. -1.
        994   -1    0    0    0    0 -0.00000000000E+00 -0.00000000000E+00  0.11368683772E-12  0.17120000000E+03  0.17120000000E+03 0.  0.
         13    1    1    2    0    0 -0.15366160871E+02 -0.70306957474E+01  0.31526695340E+02  0.35770005112E+02  0.10566000000E+00 0. -1.
        994    1    1    2    0    0  0.23028720202E+02 -0.91436853531E+00  0.59664682035E+01  0.17284732213E+03  0.17120000000E+03 0.  0.
        998    1    1    2    0    0 -0.76625593315E+01  0.79450642827E+01  0.14625068327E+04  0.14625826728E+04  0.10000000000E+02 0. -1.
</event>
<event>
 5    1  0.1300052E-008  0.3747520E+03  0.7957747E-01  0.3474333E+00
         13   -1    0    0    0    0  0.00000000000E+00  0.00000000000E+00  0.14999999963E+04  0.15000000000E+04  0.10566000000E+00 0. -1.
        994   -1    0    0    0    0 -0.00000000000E+00 -0.00000000000E+00  0.11368683772E-12  0.17120000000E+03  0.17120000000E+03 0.  0.
         13    1    1    2    0    0 -0.67711707640E+01  0.78825764778E+01 -0.22460982713E+01  0.10632021770E+02  0.10566000000E+00 0. -1.
        994    1    1    2    0    0 -0.19384335325E+02 -0.14219515391E+02  0.15531240133E+02  0.17357593870E+03  0.17120000000E+03 0.  0.
        998    1    1    2    0    0  0.26155506089E+02  0.63369389136E+01  0.14867148544E+04  0.14869920395E+04  0.10000000000E+02 0. -1.
</event>
<event>
 5    1  0.1300052E-008  0.3753694E+03  0.7957747E-01  0.3471572E+00
         13   -1    0    0    0    0  0.00000000000E+00  0.00000000000E+00  0.14999999963E+04  0.15000000000E+04  0.10566000000E+00 0. -1.
        994   -1    0    0    0    0 -0.00000000000E+00 -0.00000000000E+00  0.11368683772E-12  0.17120000000E+03  0.17120000000E+03 0.  0.
         13    1    1    2    0    0 -0.50059907040E+02 -0.46321222740E+02  0.36233478830E+03  0.36869792506E+03  0.10566000000E+00 0. -1.
        994    1    1    2    0    0  0.24364633905E+02  0.28073487541E+02  0.11194606672E+02  0.17554633379E+03  0.17120000000E+03 0.  0.
        998    1    1    2    0    0  0.25695273135E+02  0.18247735199E+02  0.11264706013E+04  0.11269557411E+04  0.10000000000E+02 0. -1.
</event>
<event>
 5    1  0.1300052E-008  0.2282675E+03  0.7957747E-01  0.4593992E+00
         13   -1    0    0    0    0  0.00000000000E+00  0.00000000000E+00  0.14999999963E+04  0.15000000000E+04  0.10566000000E+00 0.  1.
        994   -1    0    0    0    0 -0.00000000000E+00 -0.00000000000E+00  0.11368683772E-12  0.17120000000E+03  0.17120000000E+03 0.  0.
         13    1    1    2    0    0  0.82120243003E+02  0.10233345818E+02  0.55891339418E+01  0.82943988689E+02  0.10566000000E+00 0.  1.
        994    1    1    2    0    0 -0.84773233802E+02 -0.39500349190E+00  0.14772069470E+03  0.24149016717E+03  0.17120000000E+03 0.  0.
        998    1    1    2    0    0  0.26529907992E+01 -0.98383423260E+01  0.13466901676E+04  0.13467658441E+04  0.10000000000E+02 0.  1.
</event>
<event>
 5    1  0.1300052E-008  0.3785652E+03  0.7957747E-01  0.3457430E+00
         13   -1    0    0    0    0  0.00000000000E+00  0.00000000000E+00  0.14999999963E+04  0.15000000000E+04  0.10566000000E+00 0.  1.
        994   -1    0    0    0    0 -0.00000000000E+00 -0.00000000000E+00  0.11368683772E-12  0.17120000000E+03  0.17120000000E+03 0.  0.
         13    1    1    2    0    0  0.15604487879E+02 -0.36338539686E+01  0.24263392296E+02  0.29076249868E+02  0.10566000000E+00 0.  1.
        994    1    1    2    0    0 -0.12588183788E+02  0.38934160980E+01  0.54425328519E+01  0.17179255579E+03  0.17120000000E+03 0.  0.
        998    1    1    2    0    0 -0.30163040910E+01 -0.25956212938E+00  0.14702940711E+04  0.14703311943E+04  0.10000000000E+02 0.  1.
</event>
<event>
 5    1  0.1300052E-008  0.3840677E+03  0.7957747E-01  0.3433636E+00
         13   -1    0    0    0    0  0.00000000000E+00  0.00000000000E+00  0.14999999963E+04  0.15000000000E+04  0.10566000000E+00 0.  1.
        994   -1    0    0    0    0 -0.00000000000E+00 -0.00000000000E+00  0.11368683772E-12  0.17120000000E+03  0.17120000000E+03 0.  0.
         13    1    1    2    0    0  0.16793126216E+03  0.12982673074E+03  0.12288280307E+04  0.12470261542E+04  0.10566000000E+00 0.  1.
        994    1    1    2    0    0 -0.17362638836E+03 -0.12213435283E+03  0.16849188372E+03  0.32056493532E+03  0.17120000000E+03 0.  0.
        998    1    1    2    0    0  0.56951262061E+01 -0.76923779126E+01  0.10268008181E+03  0.10360891053E+03  0.10000000000E+02 0.  1.
</event>
<event>
 5    1  0.1300052E-008  0.3835300E+03  0.7957747E-01  0.3435931E+00
         13   -1    0    0    0    0  0.00000000000E+00  0.00000000000E+00  0.14999999963E+04  0.15000000000E+04  0.10566000000E+00 0. -1.
        994   -1    0    0    0    0 -0.00000000000E+00 -0.00000000000E+00  0.11368683772E-12  0.17120000000E+03  0.17120000000E+03 0.  0.
         13    1    1    2    0    0  0.76641191961E+01  0.13768671930E+02  0.51789593420E+02  0.54133983784E+02  0.10566000000E+00 0. -1.
        994    1    1    2    0    0 -0.13082837452E+02 -0.54092877162E+01  0.30242818054E+01  0.17181096388E+03  0.17120000000E+03 0.  0.
        998    1    1    2    0    0  0.54187182555E+01 -0.83593842134E+01  0.14451861211E+04  0.14452550523E+04  0.10000000000E+02 0. -1.
</event>
<event>
 5    1  0.1300052E-008  0.3812091E+03  0.7957747E-01  0.3445911E+00
         13   -1    0    0    0    0  0.00000000000E+00  0.00000000000E+00  0.14999999963E+04  0.15000000000E+04  0.10566000000E+00 0. -1.
        994   -1    0    0    0    0 -0.00000000000E+00 -0.00000000000E+00  0.11368683772E-12  0.17120000000E+03  0.17120000000E+03 0.  0.
         13    1    1    2    0    0  0.86695634659E+01 -0.12843335572E+02  0.32508024468E+02  0.36012434216E+02  0.10566000000E+00 0. -1.
        994    1    1    2    0    0 -0.10813206986E+02  0.78439813040E+01  0.41184565011E+01  0.17176977374E+03  0.17120000000E+03 0.  0.
        998    1    1    2    0    0  0.21436435197E+01  0.49993542684E+01  0.14633735153E+04  0.14634177920E+04  0.10000000000E+02 0. -1.
</event>
<event>
 5    1  0.1300052E-008  0.3743442E+03  0.7957747E-01  0.3476161E+00
         13   -1    0    0    0    0  0.00000000000E+00  0.00000000000E+00  0.14999999963E+04  0.15000000000E+04  0.10566000000E+00 0.  1.
        994   -1    0    0    0    0 -0.00000000000E+00 -0.00000000000E+00  0.11368683772E-12  0.17120000000E+03  0.17120000000E+03 0.  0.
         13    1    1    2    0    0  0.60367138086E+02 -0.35342274885E+02  0.39632122512E+03  0.40244725418E+03  0.10566000000E+00 0.  1.
        994    1    1    2    0    0 -0.18350922364E+02  0.18428077085E+02  0.93234301847E+01  0.17341486882E+03  0.17120000000E+03 0.  0.
        998    1    1    2    0    0 -0.42016215722E+02  0.16914197800E+02  0.10943553410E+04  0.10953378770E+04  0.10000000000E+02 0.  1.
</event>
<event>
 5    1  0.1300052E-008  0.3819708E+03  0.7957747E-01  0.3442622E+00
         13   -1    0    0    0    0  0.00000000000E+00  0.00000000000E+00  0.14999999963E+04  0.15000000000E+04  0.10566000000E+00 0.  1.
        994   -1    0    0    0    0 -0.00000000000E+00 -0.00000000000E+00  0.11368683772E-12  0.17120000000E+03  0.17120000000E+03 0.  0.
         13    1    1    2    0    0  0.15683537412E+02 -0.23870563332E+02  0.12558349241E+03  0.12879053486E+03  0.10566000000E+00 0.  1.
        994    1    1    2    0    0 -0.30360244969E+01  0.23376155425E+02  0.49892719302E+01  0.17288723181E+03  0.17120000000E+03 0.  0.
        998    1    1    2    0    0 -0.12647512915E+02  0.49440790764E+00  0.13694272319E+04  0.13695222333E+04  0.10000000000E+02 0.  1.
</event>
<event>
 5    1  0.1300052E-008  0.3818538E+03  0.7957747E-01  0.3443126E+00
         13   -1    0    0    0    0  0.00000000000E+00  0.00000000000E+00  0.14999999963E+04  0.15000000000E+04  0.10566000000E+00 0.  1.
        994   -1    0    0    0    0 -0.00000000000E+00 -0.00000000000E+00  0.11368683772E-12  0.17120000000E+03  0.17120000000E+03 0.  0.
         13    1    1    2    0    0 -0.25582864465E+02  0.18173276510E+02  0.15232650509E+03  0.15552532351E+03  0.10566000000E+00 0.  1.
        994    1    1    2    0    0  0.17814370816E+02 -0.77519332143E+01  0.44553430944E+01  0.17235641664E+03  0.17120000000E+03 0.  0.
        998    1    1    2    0    0  0.77684936484E+01 -0.10421343296E+02  0.13432181481E+04  0.13433182599E+04  0.10000000000E+02 0.  1.
</event>
<event>
 5    1  0.1300052E-008  0.3841677E+03  0.7957747E-01  0.3433210E+00
         13   -1    0    0    0    0  0.00000000000E+00  0.00000000000E+00  0.14999999963E+04  0.15000000000E+04  0.10566000000E+00 0. -1.
        994   -1    0    0    0    0 -0.00000000000E+00 -0.00000000000E+00  0.11368683772E-12  0.17120000000E+03  0.17120000000E+03 0.  0.
         13    1    1    2    0    0  0.12276556981E+02  0.72848036755E+01  0.44187897974E+02  0.46436663395E+02  0.10566000000E+00 0. -1.
        994    1    1    2    0    0 -0.24951564810E+02 -0.23443842715E+02  0.59188892454E+01  0.17469020464E+03  0.17120000000E+03 0.  0.
        998    1    1    2    0    0  0.12675007830E+02  0.16159039039E+02  0.14498932091E+04  0.14500731320E+04  0.10000000000E+02 0. -1.
</event>
<event>
 5    1  0.1300052E-008  0.3684772E+03  0.7957747E-01  0.3502919E+00
         13   -1    0    0    0    0  0.00000000000E+00  0.00000000000E+00  0.14999999963E+04  0.15000000000E+04  0.10566000000E+00 0. -1.
        994   -1    0    0    0    0 -0.00000000000E+00 -0.00000000000E+00  0.11368683772E-12  0.17120000000E+03  0.17120000000E+03 0.  0.
         13    1    1    2    0    0  0.84491324428E+02  0.36877863118E+02  0.37797356324E+03  0.38905370627E+03  0.10566000000E+00 0. -1.
        994    1    1    2    0    0 -0.51337642331E+02 -0.53509189366E+02  0.29432170918E+02  0.18887688994E+03  0.17120000000E+03 0.  0.
        998    1    1    2    0    0 -0.33153682097E+02  0.16631326248E+02  0.10925942621E+04  0.10932694038E+04  0.10000000000E+02 0. -1.
</event>
<event>
 5    1  0.1300052E-008  0.3843905E+03  0.7957747E-01  0.3432261E+00
         13   -1    0    0    0    0  0.00000000000E+00  0.00000000000E+00  0.14999999963E+04  0.15000000000E+04  0.10566000000E+00 0. -1.
        994   -1    0    0    0    0 -0.00000000000E+00 -0.00000000000E+00  0.11368683772E-12  0.17120000000E+03  0.17120000000E+03 0.  0.
         13    1    1    2    0    0 -0.16544383326E+02  0.49007439970E+01  0.75727282004E+02  0.77668309593E+02  0.10566000000E+00 0. -1.
        994    1    1    2    0    0  0.13110940561E+02 -0.25218415066E+01  0.25206458093E+01  0.17173831868E+03  0.17120000000E+03 0.  0.
        998    1    1    2    0    0  0.34334427646E+01 -0.23789024904E+01  0.14217520685E+04  0.14217933717E+04  0.10000000000E+02 0. -1.
</event>
<event>
 5    1  0.1300052E-008  0.3835214E+03  0.7957747E-01  0.3435968E+00
         13   -1    0    0    0    0  0.00000000000E+00  0.00000000000E+00  0.14999999963E+04  0.15000000000E+04  0.10566000000E+00 0. -1.
        994   -1    0    0    0    0 -0.00000000000E+00 -0.00000000000E+00  0.11368683772E-12  0.17120000000E+03  0.17120000000E+03 0.  0.
         13    1    1    2    0    0  0.20691503790E+02 -0.16775359459E+02  0.13494522382E+03  0.13754917524E+03  0.10566000000E+00 0. -1.
        994    1    1    2    0    0 -0.20657764947E+02  0.21296284764E+02  0.52803275638E+01  0.17383209386E+03  0.17120000000E+03 0.  0.
        998    1    1    2    0    0 -0.33738842197E-01 -0.45209253049E+01  0.13597744449E+04  0.13598187309E+04  0.10000000000E+02 0. -1.
</event>
<event>
 5    1  0.1300052E-008  0.3837211E+03  0.7957747E-01  0.3435115E+00
         13   -1    0    0    0    0  0.00000000000E+00  0.00000000000E+00  0.14999999963E+04  0.15000000000E+04  0.10566000000E+00 0. -1.
        994   -1    0    0    0    0 -0.00000000000E+00 -0.00000000000E+00  0.11368683772E-12  0.17120000000E+03  0.17120000000E+03 0.  0.
         13    1    1    2    0    0 -0.85329393738E+01  0.15807990288E+02  0.10652273556E+03  0.10802688539E+03  0.10566000000E+00 0. -1.
        994    1    1    2    0    0 -0.11186966793E+02  0.42502256670E+02  0.86714968827E+01  0.17696390848E+03  0.17120000000E+03 0.  0.
        998    1    1    2    0    0  0.19719906167E+02 -0.58310246958E+02  0.13848057638E+04  0.13862092061E+04  0.10000000000E+02 0. -1.
</event>
<event>
 5    1  0.1300052E-008  0.3818686E+03  0.7957747E-01  0.3443062E+00
         13   -1    0    0    0    0  0.00000000000E+00  0.00000000000E+00  0.14999999963E+04  0.15000000000E+04  0.10566000000E+00 0. -1.
        994   -1    0    0    0    0 -0.00000000000E+00 -0.00000000000E+00  0.11368683772E-12  0.17120000000E+03  0.17120000000E+03 0.  0.
         13    1    1    2    0    0  0.31284130801E+02 -0.77227715631E+01  0.16938157277E+03  0.17241944901E+03  0.10566000000E+00 0. -1.
        994    1    1    2    0    0 -0.11971703893E+02  0.47271069312E+01  0.37434348205E+01  0.17172396612E+03  0.17120000000E+03 0.  0.
        998    1    1    2    0    0 -0.19312426908E+02  0.29956646320E+01  0.13268749887E+04  0.13270565849E+04  0.10000000000E+02 0. -1.
</event>
<event>
 5    1  0.1300052E-008  0.3728549E+03  0.7957747E-01  0.3482872E+00
         13   -1    0    0    0    0  0.00000000000E+00  0.00000000000E+00  0.14999999963E+04  0.15000000000E+04  0.10566000000E+00 0.  1.
        994   -1    0    0    0    0 -0.00000000000E+00 -0.00000000000E+00  0.11368683772E-12  0.17120000000E+03  0.17120000000E+03 0.  0.
         13    1    1    2    0    0  0.40511539353E+02  0.41755812456E+02  0.19505086255E+03  0.20354258238E+03  0.10566000000E+00 0.  1.
        994    1    1    2    0    0 -0.42526190935E+02 -0.30734682231E+02  0.17270370495E+02  0.17989108734E+03  0.17120000000E+03 0.  0.
        998    1    1    2    0    0  0.20146515816E+01 -0.11021130225E+02  0.12876787632E+04  0.12877663303E+04  0.10000000000E+02 0.  1.
</event>
<event>
 5    1  0.1300052E-008  0.3734737E+03  0.7957747E-01  0.3480077E+00
         13   -1    0    0    0    0  0.00000000000E+00  0.00000000000E+00  0.14999999963E+04  0.15000000000E+04  0.10566000000E+00 0.  1.
        994   -1    0    0    0    0 -0.00000000000E+00 -0.00000000000E+00  0.11368683772E-12  0.17120000000E+03  0.17120000000E+03 0.  0.
         13    1    1    2    0    0  0.15063843980E+02  0.20067359432E+02  0.38559315643E+02  0.46004894271E+02  0.10566000000E+00 0.  1.
        994    1    1    2    0    0 -0.13985972522E+02 -0.17845755168E+02  0.92230872807E+01  0.17294098341E+03  0.17120000000E+03 0.  0.
        998    1    1    2    0    0 -0.10778714578E+01 -0.22216042649E+01  0.14522175934E+04  0.14522541223E+04  0.10000000000E+02 0.  1.
</event>
<event>
 5    1  0.1300052E-008  0.3775266E+03  0.7957747E-01  0.3461999E+00
         13   -1    0    0    0    0  0.00000000000E+00  0.00000000000E+00  0.14999999963E+04  0.15000000000E+04  0.10566000000E+00 0.  1.
        994   -1    0    0    0    0 -0.00000000000E+00 -0.00000000000E+00  0.11368683772E-12  0.17120000000E+03  0.17120000000E+03 0.  0.
         13    1    1    2    0    0  0.52882351016E+01 -0.41723123013E+02  0.16955894728E+03  0.17469697247E+03  0.10566000000E+00 0.  1.
        994    1    1    2    0    0  0.71122483595E+01  0.18486078696E+02  0.67103687314E+01  0.17247257240E+03  0.17120000000E+03 0.  0.
        998    1    1    2    0    0 -0.12400483461E+02  0.23237044317E+02  0.13237306803E+04  0.13240304551E+04  0.10000000000E+02 0.  1.
</event>
<event>
 5    1  0.1300052E-008  0.3861616E+03  0.7957747E-01  0.3424761E+00
         13   -1    0    0    0    0  0.00000000000E+00  0.00000000000E+00  0.14999999963E+04  0.15000000000E+04  0.10566000000E+00 0. -1.
        994   -1    0    0    0    0 -0.00000000000E+00 -0.00000000000E+00  0.11368683772E-12  0.17120000000E+03  0.17120000000E+03 0.  0.
         13    1    1    2    0    0  0.60674488955E+01 -0.93577544256E+01  0.58142414212E+02  0.59202474597E+02  0.10566000000E+00 0. -1.
        994    1    1    2    0    0 -0.49831231285E+01  0.10339705285E+02  0.14862756209E+01  0.17159076326E+03  0.17120000000E+03 0.  0.
        998    1    1    2    0    0 -0.10843257670E+01 -0.98195085988E+00  0.14403713064E+04  0.14404067621E+04  0.10000000000E+02 0. -1.
</event>
<event>
 5    1  0.1300052E-008  0.3854289E+03  0.7957747E-01  0.3427855E+00
         13   -1    0    0    0    0  0.00000000000E+00  0.00000000000E+00  0.14999999963E+04  0.15000000000E+04  0.10566000000E+00 0.  1.
        994   -1    0    0    0    0 -0.00000000000E+00 -0.00000000000E+00  0.11368683772E-12  0.17120000000E+03  0.17120000000E+03 0.  0.
         13    1    1    2    0    0 -0.11507694092E+02 -0.16173814248E+01  0.46988572993E+02  0.48404339701E+02  0.10566000000E+00 0.  1.
        994    1    1    2    0    0  0.10759105312E+02  0.78220426260E+00  0.17996190897E+01  0.17154896916E+03  0.17120000000E+03 0.  0.
        998    1    1    2    0    0  0.74858878002E+00  0.83517716222E+00  0.14512118042E+04  0.14512466911E+04  0.10000000000E+02 0.  1.
</event>
<event>
 5    1  0.3313785E-008  0.3862960E+03  0.7957747E-01  0.3424194E+00
         13   -1    0    0    0    0  0.00000000000E+00  0.00000000000E+00  0.14999999963E+04  0.15000000000E+04  0.10566000000E+00 0.  1.
        994   -1    0    0    0    0 -0.00000000000E+00 -0.00000000000E+00  0.11368683772E-12  0.17120000000E+03  0.17120000000E+03 0.  0.
         13    1    1    2    0    0 -0.60824992739E+01  0.93878238274E+01  0.61266674817E+02  0.62279568406E+02  0.10566000000E+00 0.  1.
        994    1    1    2    0    0  0.82329088635E+01 -0.11261007246E+02  0.16255779522E+01  0.17177506681E+03  0.17120000000E+03 0.  0.
        998    1    1    2    0    0 -0.21504095896E+01  0.18731834189E+01  0.14371077435E+04  0.14371453648E+04  0.10000000000E+02 0.  1.
</event>
<event>
 5    1  0.1300052E-008  0.3812402E+03  0.7957747E-01  0.3445776E+00
         13   -1    0    0    0    0  0.00000000000E+00  0.00000000000E+00  0.14999999963E+04  0.15000000000E+04  0.10566000000E+00 0.  1.
        994   -1    0    0    0    0 -0.00000000000E+00 -0.00000000000E+00  0.11368683772E-12  0.17120000000E+03  0.17120000000E+03 0.  0.
         13    1    1    2    0    0  0.16135309569E+02  0.21622663276E+02  0.10504396983E+03  0.10845337498E+03  0.10566000000E+00 0.  1.
        994    1    1    2    0    0 -0.12866558943E+01 -0.14371704205E+02  0.42018797029E+01  0.17185836366E+03  0.17120000000E+03 0.  0.
        998    1    1    2    0    0 -0.14848653674E+02 -0.72509590713E+01  0.13907541467E+04  0.13908882614E+04  0.10000000000E+02 0.  1.
</event>
<event>
 5    1  0.1300052E-008  0.3770393E+03  0.7957747E-01  0.3464152E+00
         13   -1    0    0    0    0  0.00000000000E+00  0.00000000000E+00  0.14999999963E+04  0.15000000000E+04  0.10566000000E+00 0. -1.
        994   -1    0    0    0    0 -0.00000000000E+00 -0.00000000000E+00  0.11368683772E-12  0.17120000000E+03  0.17120000000E+03 0.  0.
         13    1    1    2    0    0 -0.43688829068E+02 -0.37230081370E+01  0.13409641393E+03  0.14108307471E+03  0.10566000000E+00 0. -1.
        994    1    1    2    0    0  0.67765171936E+02  0.79240604065E+02  0.43264140177E+02  0.20506686150E+03  0.17120000000E+03 0.  0.
        998    1    1    2    0    0 -0.24076342868E+02 -0.75517595928E+02  0.13226394422E+04  0.13250500638E+04  0.10000000000E+02 0. -1.
</event>
<event>
 5    1  0.1300052E-008  0.3707268E+03  0.7957747E-01  0.3492557E+00
         13   -1    0    0    0    0  0.00000000000E+00  0.00000000000E+00  0.14999999963E+04  0.15000000000E+04  0.10566000000E+00 0.  1.
        994   -1    0    0    0    0 -0.00000000000E+00 -0.00000000000E+00  0.11368683772E-12  0.17120000000E+03  0.17120000000E+03 0.  0.
         13    1    1    2    0    0  0.24478593984E+02  0.43895261864E+02  0.99396199449E+02  0.11138047947E+03  0.10566000000E+00 0.  1.
        994    1    1    2    0    0 -0.34877167211E+02 -0.43056044395E+02  0.22163343749E+02  0.18130331921E+03  0.17120000000E+03 0.  0.
        998    1    1    2    0    0  0.10398573227E+02 -0.83921746895E+00  0.13784404531E+04  0.13785162013E+04  0.10000000000E+02 0.  1.
</event>
<event>
 5    1  0.1300052E-008  0.2697734E+03  0.7957747E-01  0.4138630E+00
         13   -1    0    0    0    0  0.00000000000E+00  0.00000000000E+00  0.14999999963E+04  0.15000000000E+04  0.10566000000E+00 0. -1.
        994   -1    0    0    0    0 -0.00000000000E+00 -0.00000000000E+00  0.11368683772E-12  0.17120000000E+03  0.17120000000E+03 0.  0.
         13    1    1    2    0    0  0.16333578022E+03 -0.10181852339E+03  0.37778343232E+03  0.42398811505E+03  0.10566000000E+00 0. -1.
        994    1    1    2    0    0 -0.16624900073E+03  0.99375481658E+02  0.20497165191E+03  0.32990458421E+03  0.17120000000E+03 0.  0.
        998    1    1    2    0    0  0.29132205046E+01  0.24430417268E+01  0.91724491205E+03  0.91730730074E+03  0.10000000000E+02 0.  0.
</event>
<event>
 5    1  0.1300052E-008  0.3792374E+03  0.7957747E-01  0.3454486E+00
         13   -1    0    0    0    0  0.00000000000E+00  0.00000000000E+00  0.14999999963E+04  0.15000000000E+04  0.10566000000E+00 0.  1.
        994   -1    0    0    0    0 -0.00000000000E+00 -0.00000000000E+00  0.11368683772E-12  0.17120000000E+03  0.17120000000E+03 0.  0.
         13    1    1    2    0    0  0.67441464783E+02 -0.40775310466E+02  0.26031483123E+03  0.27198308705E+03  0.10566000000E+00 0.  1.
        994    1    1    2    0    0  0.16026954677E+02 -0.10311900248E+01  0.16841599347E+02  0.17277443705E+03  0.17120000000E+03 0.  0.
        998    1    1    2    0    0 -0.83468419460E+02  0.41806500490E+02  0.12228435657E+04  0.12264424759E+04  0.10000000000E+02 0.  1.
</event>
<event>
 5    1  0.1300052E-008  0.3850237E+03  0.7957747E-01  0.3429572E+00
         13   -1    0    0    0    0  0.00000000000E+00  0.00000000000E+00  0.14999999963E+04  0.15000000000E+04  0.10566000000E+00 0. -1.
        994   -1    0    0    0    0 -0.00000000000E+00 -0.00000000000E+00  0.11368683772E-12  0.17120000000E+03  0.17120000000E+03 0.  0.
         13    1    1    2    0    0 -0.17973693969E+02 -0.20777622859E+01  0.94767249499E+02  0.96479083291E+02  0.10566000000E+00 0. -1.
        994    1    1    2    0    0  0.20321112644E+02  0.70578855367E+00  0.29791250519E+01  0.17242900261E+03  0.17120000000E+03 0.  0.
        998    1    1    2    0    0 -0.23474186753E+01  0.13719737323E+01  0.14022536217E+04  0.14022919141E+04  0.10000000000E+02 0. -1.
</event>
<event>
 5    1  0.1300052E-008  0.3812535E+03  0.7957747E-01  0.3445719E+00
         13   -1    0    0    0    0  0.00000000000E+00  0.00000000000E+00  0.14999999963E+04  0.15000000000E+04  0.10566000000E+00 0.  1.
        994   -1    0    0    0    0 -0.00000000000E+00 -0.00000000000E+00  0.11368683772E-12  0.17120000000E+03  0.17120000000E+03 0.  0.
         13    1    1    2    0    0 -0.28549325757E+02  0.21216867812E+02  0.17464863825E+03  0.17823405255E+03  0.10566000000E+00 0.  1.
        994    1    1    2    0    0  0.20758535556E+02 -0.13071786229E+02  0.55077241446E+01  0.17303630665E+03  0.17120000000E+03 0.  0.
        998    1    1    2    0    0  0.77907902012E+01 -0.81450815833E+01  0.13198436339E+04  0.13199296408E+04  0.10000000000E+02 0.  1.
</event>
<event>
 5    1  0.1300052E-008  0.3778345E+03  0.7957747E-01  0.3460642E+00
         13   -1    0    0    0    0  0.00000000000E+00  0.00000000000E+00  0.14999999963E+04  0.15000000000E+04  0.10566000000E+00 0. -1.
        994   -1    0    0    0    0 -0.00000000000E+00 -0.00000000000E+00  0.11368683772E-12  0.17120000000E+03  0.17120000000E+03 0.  0.
         13    1    1    2    0    0  0.36402097603E+02  0.15626401637E+01  0.36777857717E+02  0.51770421444E+02  0.10566000000E+00 0. -1.
        994    1    1    2    0    0 -0.38779385024E+02  0.35464911934E+00  0.20568921258E+02  0.17673847063E+03  0.17120000000E+03 0.  0.
        998    1    1    2    0    0  0.23772874215E+01 -0.19172892831E+01  0.14426532173E+04  0.14426911079E+04  0.10000000000E+02 0. -1.
</event>
<event>
 5    1  0.1300052E-008  0.3900818E+03  0.7957747E-01  0.3408402E+00
         13   -1    0    0    0    0  0.00000000000E+00  0.00000000000E+00  0.14999999963E+04  0.15000000000E+04  0.10566000000E+00 0.  1.
        994   -1    0    0    0    0 -0.00000000000E+00 -0.00000000000E+00  0.11368683772E-12  0.17120000000E+03  0.17120000000E+03 0.  0.
         13    1    1    2    0    0 -0.18116853691E+02 -0.22206313513E+02  0.99460148566E+01  0.30336036707E+02  0.10566000000E+00 0.  1.
        994    1    1    2    0    0 -0.10166394187E+02  0.15791426655E+02  0.23307861643E+02  0.17379706885E+03  0.17120000000E+03 0.  0.
        998    1    1    2    0    0  0.28283247879E+02  0.64148868573E+01  0.14667461198E+04  0.14670668944E+04  0.10000000000E+02 0.  1.
</event>
<event>
 5    1  0.1300052E-008  0.3715647E+03  0.7957747E-01  0.3488731E+00
         13   -1    0    0    0    0  0.00000000000E+00  0.00000000000E+00  0.14999999963E+04  0.15000000000E+04  0.10566000000E+00 0.  1.
        994   -1    0    0    0    0 -0.00000000000E+00 -0.00000000000E+00  0.11368683772E-12  0.17120000000E+03  0.17120000000E+03 0.  0.
         13    1    1    2    0    0  0.90825124812E+01  0.48120542140E+02  0.13128237135E+03  0.14011834569E+03  0.10566000000E+00 0.  1.
        994    1    1    2    0    0 -0.71156168717E+00 -0.43266959662E+02  0.14920943187E+02  0.17721346073E+03  0.17120000000E+03 0.  0.
        998    1    1    2    0    0 -0.83709507940E+01 -0.48535824783E+01  0.13537966817E+04  0.13538681936E+04  0.10000000000E+02 0.  1.
</event>
<event>
 5    1  0.1300052E-008  0.3968248E+03  0.7957747E-01  0.3381019E+00
         13   -1    0    0    0    0  0.00000000000E+00  0.00000000000E+00  0.14999999963E+04  0.15000000000E+04  0.10566000000E+00 0.  1.
        994   -1    0    0    0    0 -0.00000000000E+00 -0.00000000000E+00  0.11368683772E-12  0.17120000000E+03  0.17120000000E+03 0.  0.
         13    1    1    2    0    0 -0.50470991621E+02  0.28641118832E+02  0.57604890597E+02  0.81767776464E+02  0.10566000000E+00 0.  1.
        994    1    1    2    0    0  0.28505902909E+02 -0.18423247129E+02  0.30358845586E+02  0.17715276470E+03  0.17120000000E+03 0.  0.
        998    1    1    2    0    0  0.21965088712E+02 -0.10217871703E+02  0.14120362601E+04  0.14122794588E+04  0.10000000000E+02 0.  1.
</event>
<event>
 5    1  0.1300052E-008  0.3765662E+03  0.7957747E-01  0.3466248E+00
         13   -1    0    0    0    0  0.00000000000E+00  0.00000000000E+00  0.14999999963E+04  0.15000000000E+04  0.10566000000E+00 0. -1.
        994   -1    0    0    0    0 -0.00000000000E+00 -0.00000000000E+00  0.11368683772E-12  0.17120000000E+03  0.17120000000E+03 0.  0.
         13    1    1    2    0    0 -0.11809362264E+02 -0.27811888940E+01  0.98778832612E+01  0.15645439927E+02  0.10566000000E+00 0. -1.
        994    1    1    2    0    0  0.91189723350E+01  0.88307695109E+00  0.61605088833E+01  0.17155561008E+03  0.17120000000E+03 0.  0.
        998    1    1    2    0    0  0.26903899289E+01  0.18981119429E+01  0.14839616041E+04  0.14839989500E+04  0.10000000000E+02 0. -1.
</event>
<event>
 5    1  0.1300052E-008  0.3744576E+03  0.7957747E-01  0.3475652E+00
         13   -1    0    0    0    0  0.00000000000E+00  0.00000000000E+00  0.14999999963E+04  0.15000000000E+04  0.10566000000E+00 0. -1.
        994   -1    0    0    0    0 -0.00000000000E+00 -0.00000000000E+00  0.11368683772E-12  0.17120000000E+03  0.17120000000E+03 0.  0.
         13    1    1    2    0    0  0.13754887828E+02 -0.24478038902E+01  0.10862228863E+02  0.17697114538E+02  0.10566000000E+00 0. -1.
        994    1    1    2    0    0 -0.10905855798E+02  0.89169335394E+01  0.76336307444E+01  0.17194813669E+03  0.17120000000E+03 0.  0.
        998    1    1    2    0    0 -0.28490320302E+01 -0.64691296492E+01  0.14815041367E+04  0.14815547488E+04  0.10000000000E+02 0. -1.
</event>
<event>
 5    1  0.1300052E-008  0.3787295E+03  0.7957747E-01  0.3456709E+00
         13   -1    0    0    0    0  0.00000000000E+00  0.00000000000E+00  0.14999999963E+04  0.15000000000E+04  0.10566000000E+00 0.  1.
        994   -1    0    0    0    0 -0.00000000000E+00 -0.00000000000E+00  0.11368683772E-12  0.17120000000E+03  0.17120000000E+03 0.  0.
         13    1    1    2    0    0  0.41553052956E+02 -0.95327716195E+01  0.23636274134E+03  0.24017678198E+03  0.10566000000E+00 0.  1.
        994    1    1    2    0    0  0.55188354291E+01  0.69446656089E+01  0.50400641002E+01  0.17150372641E+03  0.17120000000E+03 0.  0.
        998    1    1    2    0    0 -0.47071888385E+02  0.25881060106E+01  0.12585971908E+04  0.12595194916E+04  0.10000000000E+02 0.  1.
</event>
<event>
 5    1  0.1300052E-008  0.3752690E+03  0.7957747E-01  0.3472021E+00
         13   -1    0    0    0    0  0.00000000000E+00  0.00000000000E+00  0.14999999963E+04  0.15000000000E+04  0.10566000000E+00 0.  1.
        994   -1    0    0    0    0 -0.00000000000E+00 -0.00000000000E+00  0.11368683772E-12  0.17120000000E+03  0.17120000000E+03 0.  0.
         13    1    1    2    0    0 -0.23834595983E+02 -0.13359382178E+02  0.21022590985E+02  0.34474940952E+02  0.10566000000E+00 0.  1.
        994    1    1    2    0    0  0.23593393439E+02  0.15074296684E+02  0.16549453001E+02  0.17426189207E+03  0.17120000000E+03 0.  0.
        998    1    1    2    0    0  0.24120254437E+00 -0.17149145064E+01  0.14624279523E+04  0.14624631670E+04  0.10000000000E+02 0.  1.
</event>
<event>
 5    1  0.1300052E-008  0.3729629E+03  0.7957747E-01  0.3482384E+00
         13   -1    0    0    0    0  0.00000000000E+00  0.00000000000E+00  0.14999999963E+04  0.15000000000E+04  0.10566000000E+00 0.  1.
        994   -1    0    0    0    0 -0.00000000000E+00 -0.00000000000E+00  0.11368683772E-12  0.17120000000E+03  0.17120000000E+03 0.  0.
         13    1    1    2    0    0  0.14786717741E+02 -0.59259351861E+01  0.13605644142E+02  0.20949664578E+02  0.10566000000E+00 0.  1.
        994    1    1    2    0    0  0.99122034539E+01  0.18200025617E+01  0.80762790916E+01  0.17168643065E+03  0.17120000000E+03 0.  0.
        998    1    1    2    0    0 -0.24698921195E+02  0.41059326244E+01  0.14783180730E+04  0.14785639048E+04  0.10000000000E+02 0.  1.
</event>
<event>
 5    1  0.1300052E-008  0.3920973E+03  0.7957747E-01  0.3400118E+00
         13   -1    0    0    0    0  0.00000000000E+00  0.00000000000E+00  0.14999999963E+04  0.15000000000E+04  0.10566000000E+00 0. -1.
        994   -1    0    0    0    0 -0.00000000000E+00 -0.00000000000E+00  0.11368683772E-12  0.17120000000E+03  0.17120000000E+03 0.  0.
         13    1    1    2    0    0  0.83716818838E+02  0.40940842750E+02  0.18953521746E+03  0.21120669540E+03  0.10566000000E+00 0. -1.
        994    1    1    2    0    0 -0.42970797436E+02 -0.22219782935E+02  0.32067180669E+02  0.18077044079E+03  0.17120000000E+03 0.  0.
        998    1    1    2    0    0 -0.40746021402E+02 -0.18721059814E+02  0.12783975982E+04  0.12792228638E+04  0.10000000000E+02 0. -1.
</event>
<event>
 5    1  0.1300052E-008  0.3820141E+03  0.7957747E-01  0.3442435E+00
         13   -1    0    0    0    0  0.00000000000E+00  0.00000000000E+00  0.14999999963E+04  0.15000000000E+04  0.10566000000E+00 0.  1.
        994   -1    0    0    0    0 -0.00000000000E+00 -0.00000000000E+00  0.11368683772E-12  0.17120000000E+03  0.17120000000E+03 0.  0.
         13    1    1    2    0    0 -0.20141284655E+02 -0.19679598115E+01  0.64311727688E+02  0.67420721559E+02  0.10566000000E+00 0.  1.
        994    1    1    2    0    0  0.13315719683E+02  0.74470973613E+01  0.38932175382E+01  0.17192255464E+03  0.17120000000E+03 0.  0.
        998    1    1    2    0    0  0.68255649720E+01 -0.54791375497E+01  0.14317950511E+04  0.14318567238E+04  0.10000000000E+02 0.  1.
</event>
<event>
 5    1  0.1300052E-008  0.3823154E+03  0.7957747E-01  0.3441138E+00
         13   -1    0    0    0    0  0.00000000000E+00  0.00000000000E+00  0.14999999963E+04  0.15000000000E+04  0.10566000000E+00 0.  1.
        994   -1    0    0    0    0 -0.00000000000E+00 -0.00000000000E+00  0.11368683772E-12  0.17120000000E+03  0.17120000000E+03 0.  0.
         13    1    1    2    0    0 -0.15844961118E+02 -0.18706373769E+02  0.96092442005E+02  0.99170357401E+02  0.10566000000E+00 0.  1.
        994    1    1    2    0    0  0.17915319261E+02  0.14316502850E+02  0.47155754508E+01  0.17279351137E+03  0.17120000000E+03 0.  0.
        998    1    1    2    0    0 -0.20703581435E+01  0.43898709192E+01  0.13991919788E+04  0.13992361312E+04  0.10000000000E+02 0.  1.
</event>
<event>
 5    1  0.1300052E-008  0.3814880E+03  0.7957747E-01  0.3444705E+00
         13   -1    0    0    0    0  0.00000000000E+00  0.00000000000E+00  0.14999999963E+04  0.15000000000E+04  0.10566000000E+00 0. -1.
        994   -1    0    0    0    0 -0.00000000000E+00 -0.00000000000E+00  0.11368683772E-12  0.17120000000E+03  0.17120000000E+03 0.  0.
         13    1    1    2    0    0 -0.28226598443E+02 -0.11311741868E+02  0.14552887251E+03  0.14867198882E+03  0.10566000000E+00 0. -1.
        994    1    1    2    0    0  0.66195964875E+01  0.42296374329E+01  0.35891789567E+01  0.17141770940E+03  0.17120000000E+03 0.  0.
        998    1    1    2    0    0  0.21607001955E+02  0.70821044347E+01  0.13508819448E+04  0.13511103018E+04  0.10000000000E+02 0. -1.
</event>
<event>
 5    1  0.1300052E-008  0.3854161E+03  0.7957747E-01  0.3427909E+00
         13   -1    0    0    0    0  0.00000000000E+00  0.00000000000E+00  0.14999999963E+04  0.15000000000E+04  0.10566000000E+00 0. -1.
        994   -1    0    0    0    0 -0.00000000000E+00 -0.00000000000E+00  0.11368683772E-12  0.17120000000E+03  0.17120000000E+03 0.  0.
         13    1    1    2    0    0  0.10892066265E+02  0.26948423289E+01  0.43646658255E+02  0.45065965246E+02  0.10566000000E+00 0. -1.
        994    1    1    2    0    0 -0.12499621463E+02  0.69710695866E+01  0.20966842593E+01  0.17180998933E+03  0.17120000000E+03 0.  0.
        998    1    1    2    0    0  0.16075551987E+01 -0.96659119155E+01  0.14542566538E+04  0.14543240454E+04  0.10000000000E+02 0. -1.
</event>
<event>
 5    1  0.1300052E-008  0.3848462E+03  0.7957747E-01  0.3430325E+00
         13   -1    0    0    0    0  0.00000000000E+00  0.00000000000E+00  0.14999999963E+04  0.15000000000E+04  0.10566000000E+00 0.  1.
        994   -1    0    0    0    0 -0.00000000000E+00 -0.00000000000E+00  0.11368683772E-12  0.17120000000E+03  0.17120000000E+03 0.  0.
         13    1    1    2    0    0 -0.96268222511E+01 -0.10084172295E+02  0.52031617219E+02  0.53867119767E+02  0.10566000000E+00 0.  1.
        994    1    1    2    0    0  0.37098518383E+02  0.55222885227E+00  0.62491443354E+01  0.17528575763E+03  0.17120000000E+03 0.  0.
        998    1    1    2    0    0 -0.27471696132E+02  0.95319434430E+01  0.14417192347E+04  0.14420471226E+04  0.10000000000E+02 0.  1.
</event>
<event>
 5    1  0.1300052E-008  0.3838947E+03  0.7957747E-01  0.3434373E+00
         13   -1    0    0    0    0  0.00000000000E+00  0.00000000000E+00  0.14999999963E+04  0.15000000000E+04  0.10566000000E+00 0.  1.
        994   -1    0    0    0    0 -0.00000000000E+00 -0.00000000000E+00  0.11368683772E-12  0.17120000000E+03  0.17120000000E+03 0.  0.
         13    1    1    2    0    0  0.24780263486E+01 -0.14280585067E+02  0.47455770912E+02  0.49619926253E+02  0.10566000000E+00 0.  1.
        994    1    1    2    0    0 -0.86711766561E+01  0.92710392523E+01  0.27119168121E+01  0.17169139747E+03  0.17120000000E+03 0.  0.
        998    1    1    2    0    0  0.61931503075E+01  0.50095458146E+01  0.14498323086E+04  0.14498886763E+04  0.10000000000E+02 0.  1.
</event>
<event>
 5    1  0.1300052E-008  0.3885428E+03  0.7957747E-01  0.3414784E+00
         13   -1    0    0    0    0  0.00000000000E+00  0.00000000000E+00  0.14999999963E+04  0.15000000000E+04  0.10566000000E+00 0. -1.
        994   -1    0    0    0    0 -0.00000000000E+00 -0.00000000000E+00  0.11368683772E-12  0.17120000000E+03  0.17120000000E+03 0.  0.
         13    1    1    2    0    0 -0.79720181491E+02 -0.12381146071E+02  0.12893897480E+03  0.15209822649E+03  0.10566000000E+00 0. -1.
        994    1    1    2    0    0  0.95666877488E+02 -0.55373239934E+01  0.56339562891E+02  0.20412349143E+03  0.17120000000E+03 0.  0.
        998    1    1    2    0    0 -0.15946695997E+02  0.17918470065E+02  0.13147214586E+04  0.13149782821E+04  0.10000000000E+02 0. -1.
</event>
<event>
 5    1  0.1300052E-008  0.4193332E+03  0.7957747E-01  0.3295951E+00
         13   -1    0    0    0    0  0.00000000000E+00  0.00000000000E+00  0.14999999963E+04  0.15000000000E+04  0.10566000000E+00 0. -1.
        994   -1    0    0    0    0 -0.00000000000E+00 -0.00000000000E+00  0.11368683772E-12  0.17120000000E+03  0.17120000000E+03 0.  0.
         13    1    1    2    0    0 -0.34154719181E+01 -0.10825915784E+03  0.14131372873E+03  0.17804856584E+03  0.10566000000E+00 0. -1.
        994    1    1    2    0    0  0.12766985653E+01  0.68531397422E+02  0.60158657765E+02  0.19397599464E+03  0.17120000000E+03 0.  0.
        998    1    1    2    0    0  0.21387733528E+01  0.39727760416E+02  0.12985276098E+04  0.12991754395E+04  0.10000000000E+02 0. -1.
</event>
<event>
 5    1  0.1300052E-008  0.3782735E+03  0.7957747E-01  0.3458711E+00
         13   -1    0    0    0    0  0.00000000000E+00  0.00000000000E+00  0.14999999963E+04  0.15000000000E+04  0.10566000000E+00 0. -1.
        994   -1    0    0    0    0 -0.00000000000E+00 -0.00000000000E+00  0.11368683772E-12  0.17120000000E+03  0.17120000000E+03 0.  0.
         13    1    1    2    0    0 -0.17537195293E+02 -0.10522362851E+02  0.38298981142E+02  0.43417697535E+02  0.10566000000E+00 0. -1.
        994    1    1    2    0    0  0.21692712212E+02  0.13897143146E+02  0.72418750204E+01  0.17327893439E+03  0.17120000000E+03 0.  0.
        998    1    1    2    0    0 -0.41555169189E+01 -0.33747802950E+01  0.14544591401E+04  0.14545033681E+04  0.10000000000E+02 0. -1.
</event>
<event>
 5    1  0.1300052E-008  0.3721705E+03  0.7957747E-01  0.3485975E+00
         13   -1    0    0    0    0  0.00000000000E+00  0.00000000000E+00  0.14999999963E+04  0.15000000000E+04  0.10566000000E+00 0. -1.
        994   -1    0    0    0    0 -0.00000000000E+00 -0.00000000000E+00  0.11368683772E-12  0.17120000000E+03  0.17120000000E+03 0.  0.
         13    1    1    2    0    0  0.12131009743E+02  0.28764009574E+02  0.34130919051E+02  0.46254301892E+02  0.10566000000E+00 0. -1.
        994    1    1    2    0    0 -0.15524678265E+02 -0.34038272160E+02  0.17037773000E+02  0.17606630943E+03  0.17120000000E+03 0.  0.
        998    1    1    2    0    0  0.33936685220E+01  0.52742625858E+01  0.14488313042E+04  0.14488793887E+04  0.10000000000E+02 0. -1.
</event>
<event>
 5    1  0.1300052E-008  0.3848150E+03  0.7957747E-01  0.3430457E+00
         13   -1    0    0    0    0  0.00000000000E+00  0.00000000000E+00  0.14999999963E+04  0.15000000000E+04  0.10566000000E+00 0. -1.
        994   -1    0    0    0    0 -0.00000000000E+00 -0.00000000000E+00  0.11368683772E-12  0.17120000000E+03  0.17120000000E+03 0.  0.
         13    1    1    2    0    0 -0.21941560878E+02 -0.33739548758E+02  0.34858842491E+02  0.53244148110E+02  0.10566000000E+00 0. -1.
        994    1    1    2    0    0  0.15790843826E+02  0.32171889533E+02  0.23749912547E+02  0.17651594707E+03  0.17120000000E+03 0.  0.
        998    1    1    2    0    0  0.61507170514E+01  0.15676592243E+01  0.14413912412E+04  0.14414399048E+04  0.10000000000E+02 0. -1.
</event>
<event>
 5    1  0.1300052E-008  0.3852458E+03  0.7957747E-01  0.3428631E+00
         13   -1    0    0    0    0  0.00000000000E+00  0.00000000000E+00  0.14999999963E+04  0.15000000000E+04  0.10566000000E+00 0. -1.
        994   -1    0    0    0    0 -0.00000000000E+00 -0.00000000000E+00  0.11368683772E-12  0.17120000000E+03  0.17120000000E+03 0.  0.
         13    1    1    2    0    0  0.11281019317E+02 -0.77144956218E+01  0.60839764529E+02  0.62355937580E+02  0.10566000000E+00 0. -1.
        994    1    1    2    0    0 -0.10778047219E+02  0.58655066006E+01  0.20031123340E+01  0.17165087512E+03  0.17120000000E+03 0.  0.
        998    1    1    2    0    0 -0.50297209740E+00  0.18489890212E+01  0.14371571194E+04  0.14371931873E+04  0.10000000000E+02 0.  0.
</event>
<event>
 5    1  0.1300052E-008  0.4178599E+03  0.7957747E-01  0.3301243E+00
         13   -1    0    0    0    0  0.00000000000E+00  0.00000000000E+00  0.14999999963E+04  0.15000000000E+04  0.10566000000E+00 0.  1.
        994   -1    0    0    0    0 -0.00000000000E+00 -0.00000000000E+00  0.11368683772E-12  0.17120000000E+03  0.17120000000E+03 0.  0.
         13    1    1    2    0    0  0.54515716501E+01  0.30021332548E+02 -0.50507762797E+01  0.30927682526E+02  0.10566000000E+00 0.  1.
        994    1    1    2    0    0 -0.11190105211E+02 -0.64456141326E+02  0.57237348975E+02  0.19200355915E+03  0.17120000000E+03 0.  0.
        998    1    1    2    0    0  0.57385335607E+01  0.34434808779E+02  0.14478134236E+04  0.14482687583E+04  0.10000000000E+02 0.  1.
</event>
<event>
 5    1  0.1300052E-008  0.3764190E+03  0.7957747E-01  0.3466901E+00
         13   -1    0    0    0    0  0.00000000000E+00  0.00000000000E+00  0.14999999963E+04  0.15000000000E+04  0.10566000000E+00 0. -1.
        994   -1    0    0    0    0 -0.00000000000E+00 -0.00000000000E+00  0.11368683772E-12  0.17120000000E+03  0.17120000000E+03 0.  0.
         13    1    1    2    0    0 -0.21862348242E+02 -0.82544720473E+02  0.47837019600E+03  0.48593173258E+03  0.10566000000E+00 0. -1.
        994    1    1    2    0    0  0.61624869162E+01  0.73813517940E+02  0.24743974202E+02  0.18817044384E+03  0.17120000000E+03 0.  0.
        998    1    1    2    0    0  0.15699861326E+02  0.87312025337E+01  0.99688582608E+03  0.99709782358E+03  0.10000000000E+02 0. -1.
</event>
<event>
 5    1  0.1300052E-008  0.3822923E+03  0.7957747E-01  0.3441238E+00
         13   -1    0    0    0    0  0.00000000000E+00  0.00000000000E+00  0.14999999963E+04  0.15000000000E+04  0.10566000000E+00 0. -1.
        994   -1    0    0    0    0 -0.00000000000E+00 -0.00000000000E+00  0.11368683772E-12  0.17120000000E+03  0.17120000000E+03 0.  0.
         13    1    1    2    0    0 -0.65233999532E+01  0.23886394694E+02  0.10002402617E+03  0.10304334803E+03  0.10566000000E+00 0. -1.
        994    1    1    2    0    0  0.62132326535E+01 -0.17376568719E+02  0.41111449389E+01  0.17224079341E+03  0.17120000000E+03 0.  0.
        998    1    1    2    0    0  0.31016729974E+00 -0.65098259750E+01  0.13958648252E+04  0.13959158586E+04  0.10000000000E+02 0. -1.
</event>
<event>
 5    1  0.1300052E-008  0.3852269E+03  0.7957747E-01  0.3428711E+00
         13   -1    0    0    0    0  0.00000000000E+00  0.00000000000E+00  0.14999999963E+04  0.15000000000E+04  0.10566000000E+00 0. -1.
        994   -1    0    0    0    0 -0.00000000000E+00 -0.00000000000E+00  0.11368683772E-12  0.17120000000E+03  0.17120000000E+03 0.  0.
         13    1    1    2    0    0 -0.10163488752E+02 -0.11119322070E+02  0.72310756521E+02  0.73863336640E+02  0.10566000000E+00 0. -1.
        994    1    1    2    0    0  0.27961012241E+02 -0.40778301847E+01  0.41458206371E+01  0.17356576487E+03  0.17120000000E+03 0.  0.
        998    1    1    2    0    0 -0.17797523489E+02  0.15197152255E+02  0.14235434191E+04  0.14237708985E+04  0.10000000000E+02 0. -1.
</event>
<event>
 5    1  0.1300052E-008  0.3788762E+03  0.7957747E-01  0.3456067E+00
         13   -1    0    0    0    0  0.00000000000E+00  0.00000000000E+00  0.14999999963E+04  0.15000000000E+04  0.10566000000E+00 0.  1.
        994   -1    0    0    0    0 -0.00000000000E+00 -0.00000000000E+00  0.11368683772E-12  0.17120000000E+03  0.17120000000E+03 0.  0.
         13    1    1    2    0    0  0.11965564114E+02  0.31285313716E+01  0.14082909523E+02  0.18743050386E+02  0.10566000000E+00 0.  1.
        994    1    1    2    0    0 -0.13008965413E+02 -0.11328428348E+01  0.52738775069E+01  0.17177825910E+03  0.17120000000E+03 0.  0.
        998    1    1    2    0    0  0.10434012984E+01 -0.19956885368E+01  0.14806432092E+04  0.14806786905E+04  0.10000000000E+02 0.  1.
</event>
<event>
 5    1  0.1300052E-008  0.3823289E+03  0.7957747E-01  0.3441080E+00
         13   -1    0    0    0    0  0.00000000000E+00  0.00000000000E+00  0.14999999963E+04  0.15000000000E+04  0.10566000000E+00 0.  1.
        994   -1    0    0    0    0 -0.00000000000E+00 -0.00000000000E+00  0.11368683772E-12  0.17120000000E+03  0.17120000000E+03 0.  0.
         13    1    1    2    0    0 -0.12171787197E+02 -0.16612591920E+02  0.76041220686E+02  0.78780765555E+02  0.10566000000E+00 0.  1.
        994    1    1    2    0    0  0.81453942169E+01 -0.69182080444E+01  0.33410681487E+01  0.17156576519E+03  0.17120000000E+03 0.  0.
        998    1    1    2    0    0  0.40263929803E+01  0.23530799964E+02  0.14206177074E+04  0.14208534693E+04  0.10000000000E+02 0.  1.
</event>
<event>
 5    1  0.1300052E-008  0.3704348E+03  0.7957747E-01  0.3493895E+00
         13   -1    0    0    0    0  0.00000000000E+00  0.00000000000E+00  0.14999999963E+04  0.15000000000E+04  0.10566000000E+00 0.  1.
        994   -1    0    0    0    0 -0.00000000000E+00 -0.00000000000E+00  0.11368683772E-12  0.17120000000E+03  0.17120000000E+03 0.  0.
         13    1    1    2    0    0 -0.77997746113E+01  0.83105936510E+01  0.30061093374E+01  0.11787718533E+02  0.10566000000E+00 0.  1.
        994    1    1    2    0    0  0.14279562441E+02  0.41684420485E+01  0.98063175740E+01  0.17212462252E+03  0.17120000000E+03 0.  0.
        998    1    1    2    0    0 -0.64797878302E+01 -0.12479035700E+02  0.14871875694E+04  0.14872876589E+04  0.10000000000E+02 0.  1.
</event>
<event>
 5    1  0.1300052E-008  0.3858412E+03  0.7957747E-01  0.3426112E+00
         13   -1    0    0    0    0  0.00000000000E+00  0.00000000000E+00  0.14999999963E+04  0.15000000000E+04  0.10566000000E+00 0. -1.
        994   -1    0    0    0    0 -0.00000000000E+00 -0.00000000000E+00  0.11368683772E-12  0.17120000000E+03  0.17120000000E+03 0.  0.
         13    1    1    2    0    0  0.10730638555E+02  0.33936027332E+02  0.24420704201E+02  0.43164597909E+02  0.10566000000E+00 0. -1.
        994    1    1    2    0    0 -0.74720080642E+01 -0.28641084904E+02  0.22824417767E+02  0.17523280713E+03  0.17120000000E+03 0.  0.
        998    1    1    2    0    0 -0.32586304906E+01 -0.52949424287E+01  0.14527548743E+04  0.14528025950E+04  0.10000000000E+02 0. -1.
</event>
<event>
 5    1  0.1300052E-008  0.3814992E+03  0.7957747E-01  0.3444657E+00
         13   -1    0    0    0    0  0.00000000000E+00  0.00000000000E+00  0.14999999963E+04  0.15000000000E+04  0.10566000000E+00 0.  1.
        994   -1    0    0    0    0 -0.00000000000E+00 -0.00000000000E+00  0.11368683772E-12  0.17120000000E+03  0.17120000000E+03 0.  0.
         13    1    1    2    0    0  0.12535954231E+02 -0.50739136690E+01  0.25818868950E+02  0.29146524772E+02  0.10566000000E+00 0.  1.
        994    1    1    2    0    0 -0.58647172580E+01  0.83478483448E+01  0.37245778645E+01  0.17154414581E+03  0.17120000000E+03 0.  0.
        998    1    1    2    0    0 -0.66712369726E+01 -0.32739346759E+01  0.14704565495E+04  0.14705093294E+04  0.10000000000E+02 0.  1.
</event>
<event>
 5    1  0.1300052E-008  0.3771412E+03  0.7957747E-01  0.3463701E+00
         13   -1    0    0    0    0  0.00000000000E+00  0.00000000000E+00  0.14999999963E+04  0.15000000000E+04  0.10566000000E+00 0. -1.
        994   -1    0    0    0    0 -0.00000000000E+00 -0.00000000000E+00  0.11368683772E-12  0.17120000000E+03  0.17120000000E+03 0.  0.
         13    1    1    2    0    0  0.33695419151E+01  0.95228373394E+01  0.64226501054E+01  0.11970791207E+02  0.10566000000E+00 0. -1.
        994    1    1    2    0    0  0.31939607966E+01 -0.19854259904E+02  0.69491823439E+01  0.17251702570E+03  0.17120000000E+03 0.  0.
        998    1    1    2    0    0 -0.65635027117E+01  0.10331422564E+02  0.14866281638E+04  0.14867121831E+04  0.10000000000E+02 0. -1.
</event>
<event>
 5    1  0.1300052E-008  0.3834594E+03  0.7957747E-01  0.3436232E+00
         13   -1    0    0    0    0  0.00000000000E+00  0.00000000000E+00  0.14999999963E+04  0.15000000000E+04  0.10566000000E+00 0. -1.
        994   -1    0    0    0    0 -0.00000000000E+00 -0.00000000000E+00  0.11368683772E-12  0.17120000000E+03  0.17120000000E+03 0.  0.
         13    1    1    2    0    0  0.16566600973E+02 -0.42199076185E+01  0.59995843419E+02  0.62384070721E+02  0.10566000000E+00 0. -1.
        994    1    1    2    0    0 -0.12239402223E+02  0.16474893658E+01  0.29012068154E+01  0.17166937464E+03  0.17120000000E+03 0.  0.
        998    1    1    2    0    0 -0.43271987509E+01  0.25724182528E+01  0.14371029460E+04  0.14371465546E+04  0.10000000000E+02 0. -1.
</event>
<event>
 5    1  0.1300052E-008  0.3740967E+03  0.7957747E-01  0.3477273E+00
         13   -1    0    0    0    0  0.00000000000E+00  0.00000000000E+00  0.14999999963E+04  0.15000000000E+04  0.10566000000E+00 0.  1.
        994   -1    0    0    0    0 -0.00000000000E+00 -0.00000000000E+00  0.11368683772E-12  0.17120000000E+03  0.17120000000E+03 0.  0.
         13    1    1    2    0    0  0.38799459770E+02  0.36235954461E+02  0.26333969883E+03  0.26863776841E+03  0.10566000000E+00 0.  1.
        994    1    1    2    0    0  0.57405713902E+01  0.10864688482E+02  0.76583295927E+01  0.17181119180E+03  0.17120000000E+03 0.  0.
        998    1    1    2    0    0 -0.44540031160E+02 -0.47100642943E+02  0.12290019679E+04  0.12307510398E+04  0.10000000000E+02 0.  1.
</event>
<event>
 5    1  0.1300052E-008  0.3846950E+03  0.7957747E-01  0.3430967E+00
         13   -1    0    0    0    0  0.00000000000E+00  0.00000000000E+00  0.14999999963E+04  0.15000000000E+04  0.10566000000E+00 0. -1.
        994   -1    0    0    0    0 -0.00000000000E+00 -0.00000000000E+00  0.11368683772E-12  0.17120000000E+03  0.17120000000E+03 0.  0.
         13    1    1    2    0    0 -0.15381075669E+02  0.47715658108E+01  0.69968630952E+02  0.71798090576E+02  0.10566000000E+00 0. -1.
        994    1    1    2    0    0  0.14341084051E+02 -0.96503755757E+01  0.27658730889E+01  0.17209266833E+03  0.17120000000E+03 0.  0.
        998    1    1    2    0    0  0.10399916178E+01  0.48788097650E+01  0.14272654922E+04  0.14273092411E+04  0.10000000000E+02 0. -1.
</event>
<event>
 5    1  0.2137355E-008  0.3862343E+03  0.7957747E-01  0.3424454E+00
         13   -1    0    0    0    0  0.00000000000E+00  0.00000000000E+00  0.14999999963E+04  0.15000000000E+04  0.10566000000E+00 0. -1.
        994   -1    0    0    0    0 -0.00000000000E+00 -0.00000000000E+00  0.11368683772E-12  0.17120000000E+03  0.17120000000E+03 0.  0.
         13    1    1    2    0    0  0.10562196143E+02 -0.85630294268E+01  0.81034250007E+02  0.82167185047E+02  0.10566000000E+00 0. -1.
        994    1    1    2    0    0 -0.17765592914E+02  0.15728915036E+02  0.28649304253E+01  0.17286024091E+03  0.17120000000E+03 0.  0.
        998    1    1    2    0    0  0.72033967714E+01 -0.71658856089E+01  0.14161008158E+04  0.14161725740E+04  0.10000000000E+02 0. -1.
</event>
<event>
 5    1  0.1438179E-008  0.3859075E+03  0.7957747E-01  0.3425833E+00
         13   -1    0    0    0    0  0.00000000000E+00  0.00000000000E+00  0.14999999963E+04  0.15000000000E+04  0.10566000000E+00 0. -1.
        994   -1    0    0    0    0 -0.00000000000E+00 -0.00000000000E+00  0.11368683772E-12  0.17120000000E+03  0.17120000000E+03 0.  0.
         13    1    1    2    0    0  0.10084440664E+02 -0.51472404322E+01  0.55672183926E+02  0.56811911204E+02  0.10566000000E+00 0. -1.
        994    1    1    2    0    0 -0.72915815887E+01 -0.21706628437E+01  0.13700647694E+01  0.17137443221E+03  0.17120000000E+03 0.  0.
        998    1    1    2    0    0 -0.27928590750E+01  0.73179032758E+01  0.14429577476E+04  0.14430136566E+04  0.10000000000E+02 0. -1.
</event>
<event>
 5    1  0.1300052E-008  0.3774165E+03  0.7957747E-01  0.3462485E+00
         13   -1    0    0    0    0  0.00000000000E+00  0.00000000000E+00  0.14999999963E+04  0.15000000000E+04  0.10566000000E+00 0. -1.
        994   -1    0    0    0    0 -0.00000000000E+00 -0.00000000000E+00  0.11368683772E-12  0.17120000000E+03  0.17120000000E+03 0.  0.
         13    1    1    2    0    0 -0.20314786569E+01 -0.11089839363E+02  0.91550808176E+01  0.14523708598E+02  0.10566000000E+00 0. -1.
        994    1    1    2    0    0  0.35040717274E+01  0.11061157412E+02  0.58970645094E+01  0.17169403919E+03  0.17120000000E+03 0.  0.
        998    1    1    2    0    0 -0.14725930706E+01  0.28681950790E-01  0.14849478510E+04  0.14849822522E+04  0.10000000000E+02 0. -1.
</event>
<event>
 5    1  0.1300052E-008  0.3829756E+03  0.7957747E-01  0.3438303E+00
         13   -1    0    0    0    0  0.00000000000E+00  0.00000000000E+00  0.14999999963E+04  0.15000000000E+04  0.10566000000E+00 0. -1.
        994   -1    0    0    0    0 -0.00000000000E+00 -0.00000000000E+00  0.11368683772E-12  0.17120000000E+03  0.17120000000E+03 0.  0.
         13    1    1    2    0    0 -0.61259344206E+01  0.22361668093E+02  0.11153287815E+03  0.11391736191E+03  0.10566000000E+00 0. -1.
        994    1    1    2    0    0 -0.44588046139E+01 -0.10190368894E+01  0.27078085428E+01  0.17128249065E+03  0.17120000000E+03 0.  0.
        998    1    1    2    0    0  0.10584739035E+02 -0.21342631203E+02  0.13857593096E+04  0.13860001474E+04  0.10000000000E+02 0. -1.
</event>
<event>
 5    1  0.1300052E-008  0.3847653E+03  0.7957747E-01  0.3430668E+00
         13   -1    0    0    0    0  0.00000000000E+00  0.00000000000E+00  0.14999999963E+04  0.15000000000E+04  0.10566000000E+00 0.  1.
        994   -1    0    0    0    0 -0.00000000000E+00 -0.00000000000E+00  0.11368683772E-12  0.17120000000E+03  0.17120000000E+03 0.  0.
         13    1    1    2    0    0 -0.13917235139E+02 -0.12540077974E+01  0.50879888005E+02  0.52763966273E+02  0.10566000000E+00 0.  1.
        994    1    1    2    0    0  0.25567868148E+02  0.96914719831E+01  0.42111985405E+01  0.17342091772E+03  0.17120000000E+03 0.  0.
        998    1    1    2    0    0 -0.11650633009E+02 -0.84374641857E+01  0.14449089097E+04  0.14450151160E+04  0.10000000000E+02 0. -1.
</event>
<event>
 5    1  0.1300052E-008  0.3778058E+03  0.7957747E-01  0.3460768E+00
         13   -1    0    0    0    0  0.00000000000E+00  0.00000000000E+00  0.14999999963E+04  0.15000000000E+04  0.10566000000E+00 0.  1.
        994   -1    0    0    0    0 -0.00000000000E+00 -0.00000000000E+00  0.11368683772E-12  0.17120000000E+03  0.17120000000E+03 0.  0.
         13    1    1    2    0    0 -0.59999307672E+02 -0.35936735814E+02  0.37510296250E+03  0.38156730670E+03  0.10566000000E+00 0.  1.
        994    1    1    2    0    0  0.55686977068E+02  0.29124772724E+02  0.18660932520E+02  0.18332201778E+03  0.17120000000E+03 0.  0.
        998    1    1    2    0    0  0.43123306047E+01  0.68119630904E+01  0.11062361013E+04  0.11063106755E+04  0.10000000000E+02 0.  1.
</event>
<event>
 5    1  0.1300052E-008  0.3852247E+03  0.7957747E-01  0.3428720E+00
         13   -1    0    0    0    0  0.00000000000E+00  0.00000000000E+00  0.14999999963E+04  0.15000000000E+04  0.10566000000E+00 0. -1.
        994   -1    0    0    0    0 -0.00000000000E+00 -0.00000000000E+00  0.11368683772E-12  0.17120000000E+03  0.17120000000E+03 0.  0.
         13    1    1    2    0    0 -0.14279867062E+02 -0.95645572067E+01  0.88658151079E+02  0.90308771859E+02  0.10566000000E+00 0. -1.
        994    1    1    2    0    0  0.13851926014E+02  0.22227976237E+02  0.37761242141E+01  0.17323295846E+03  0.17120000000E+03 0.  0.
        998    1    1    2    0    0  0.42794104721E+00 -0.12663419030E+02  0.14075657210E+04  0.14076582697E+04  0.10000000000E+02 0. -1.
</event>
<event>
 5    1  0.1300052E-008  0.3811238E+03  0.7957747E-01  0.3446280E+00
         13   -1    0    0    0    0  0.00000000000E+00  0.00000000000E+00  0.14999999963E+04  0.15000000000E+04  0.10566000000E+00 0.  1.
        994   -1    0    0    0    0 -0.00000000000E+00 -0.00000000000E+00  0.11368683772E-12  0.17120000000E+03  0.17120000000E+03 0.  0.
         13    1    1    2    0    0  0.97629689158E+01  0.60104435536E+01  0.16628504414E+02  0.20198002794E+02  0.10566000000E+00 0.  1.
        994    1    1    2    0    0 -0.11635400608E+02 -0.99318293522E+01  0.43467598599E+01  0.17193707600E+03  0.17120000000E+03 0.  0.
        998    1    1    2    0    0  0.18724316923E+01  0.39213857986E+01  0.14790247320E+04  0.14790649212E+04  0.10000000000E+02 0.  1.
</event>
<event>
 5    1  0.1300052E-008  0.3852699E+03  0.7957747E-01  0.3428528E+00
         13   -1    0    0    0    0  0.00000000000E+00  0.00000000000E+00  0.14999999963E+04  0.15000000000E+04  0.10566000000E+00 0. -1.
        994   -1    0    0    0    0 -0.00000000000E+00 -0.00000000000E+00  0.11368683772E-12  0.17120000000E+03  0.17120000000E+03 0.  0.
         13    1    1    2    0    0  0.11259473326E+02  0.12549476401E+02  0.90284556127E+02  0.91845399105E+02  0.10566000000E+00 0. -1.
        994    1    1    2    0    0 -0.20004687360E+02 -0.62547282683E+01  0.29409738661E+01  0.17250332886E+03  0.17120000000E+03 0.  0.
        998    1    1    2    0    0  0.87452140341E+01 -0.62947481329E+01  0.14067744663E+04  0.14068512720E+04  0.10000000000E+02 0. -1.
</event>
<event>
 5    1  0.1300052E-008  0.3801450E+03  0.7957747E-01  0.3450528E+00
         13   -1    0    0    0    0  0.00000000000E+00  0.00000000000E+00  0.14999999963E+04  0.15000000000E+04  0.10566000000E+00 0. -1.
        994   -1    0    0    0    0 -0.00000000000E+00 -0.00000000000E+00  0.11368683772E-12  0.17120000000E+03  0.17120000000E+03 0.  0.
         13    1    1    2    0    0 -0.13199780252E+02  0.80284911540E+01  0.27051735712E+02  0.31152823916E+02  0.10566000000E+00 0. -1.
        994    1    1    2    0    0  0.15318438991E+02 -0.12086893413E+02  0.53332176842E+01  0.17239092429E+03  0.17120000000E+03 0.  0.
        998    1    1    2    0    0 -0.21186587388E+01  0.40584022594E+01  0.14676150429E+04  0.14676562518E+04  0.10000000000E+02 0. -1.
</event>
<event>
 5    1  0.1300052E-008  0.3725473E+03  0.7957747E-01  0.3484265E+00
         13   -1    0    0    0    0  0.00000000000E+00  0.00000000000E+00  0.14999999963E+04  0.15000000000E+04  0.10566000000E+00 0. -1.
        994   -1    0    0    0    0 -0.00000000000E+00 -0.00000000000E+00  0.11368683772E-12  0.17120000000E+03  0.17120000000E+03 0.  0.
         13    1    1    2    0    0 -0.76687160550E+01 -0.11754982687E+02  0.88009343764E+01  0.16566726709E+02  0.10566000000E+00 0. -1.
        994    1    1    2    0    0  0.65707279678E+01  0.89242451732E+01  0.83647344615E+01  0.17176211864E+03  0.17120000000E+03 0.  0.
        998    1    1    2    0    0  0.10979880872E+01  0.28307375141E+01  0.14828343274E+04  0.14828711546E+04  0.10000000000E+02 0. -1.
</event>
<event>
 5    1  0.1300052E-008  0.3791586E+03  0.7957747E-01  0.3454830E+00
         13   -1    0    0    0    0  0.00000000000E+00  0.00000000000E+00  0.14999999963E+04  0.15000000000E+04  0.10566000000E+00 0. -1.
        994   -1    0    0    0    0 -0.00000000000E+00 -0.00000000000E+00  0.11368683772E-12  0.17120000000E+03  0.17120000000E+03 0.  0.
         13    1    1    2    0    0  0.23322652698E+02  0.68887669780E+01  0.66630378190E+02  0.70929681384E+02  0.10566000000E+00 0. -1.
        994    1    1    2    0    0 -0.28495922676E+01  0.62938198633E+00  0.45870415502E+01  0.17128630199E+03  0.17120000000E+03 0.  0.
        998    1    1    2    0    0 -0.20473060430E+02 -0.75181489644E+01  0.14287825765E+04  0.14289840166E+04  0.10000000000E+02 0. -1.
</event>
<event>
 5    1  0.1300052E-008  0.3757207E+03  0.7957747E-01  0.3470006E+00
         13   -1    0    0    0    0  0.00000000000E+00  0.00000000000E+00  0.14999999963E+04  0.15000000000E+04  0.10566000000E+00 0. -1.
        994   -1    0    0    0    0 -0.00000000000E+00 -0.00000000000E+00  0.11368683772E-12  0.17120000000E+03  0.17120000000E+03 0.  0.
         13    1    1    2    0    0  0.56851634938E+02  0.15858725901E+02  0.22795680799E+03  0.23547383094E+03  0.10566000000E+00 0. -1.
        994    1    1    2    0    0 -0.47890395642E+02 -0.76271278789E+02  0.34328778339E+02  0.19646552620E+03  0.17120000000E+03 0.  0.
        998    1    1    2    0    0 -0.89612392961E+01  0.60412552888E+02  0.12377144099E+04  0.12392606429E+04  0.10000000000E+02 0. -1.
</event>
<event>
 5    1  0.1300052E-008  0.3779721E+03  0.7957747E-01  0.3460036E+00
         13   -1    0    0    0    0  0.00000000000E+00  0.00000000000E+00  0.14999999963E+04  0.15000000000E+04  0.10566000000E+00 0. -1.
        994   -1    0    0    0    0 -0.00000000000E+00 -0.00000000000E+00  0.11368683772E-12  0.17120000000E+03  0.17120000000E+03 0.  0.
         13    1    1    2    0    0  0.49259070928E+02  0.14178099773E+02  0.21626041931E+03  0.22225223217E+03  0.10566000000E+00 0. -1.
        994    1    1    2    0    0 -0.48636553043E+02 -0.20302595458E+02  0.14566265243E+02  0.17972013175E+03  0.17120000000E+03 0.  0.
        998    1    1    2    0    0 -0.62251788565E+00  0.61244956852E+01  0.12691733117E+04  0.12692276361E+04  0.10000000000E+02 0. -1.
</event>
<event>
 5    1  0.1300052E-008  0.3827969E+03  0.7957747E-01  0.3439070E+00
         13   -1    0    0    0    0  0.00000000000E+00  0.00000000000E+00  0.14999999963E+04  0.15000000000E+04  0.10566000000E+00 0.  1.
        994   -1    0    0    0    0 -0.00000000000E+00 -0.00000000000E+00  0.11368683772E-12  0.17120000000E+03  0.17120000000E+03 0.  0.
         13    1    1    2    0    0  0.13294640006E+02 -0.23669795644E+02  0.14037190431E+03  0.14297303718E+03  0.10566000000E+00 0.  1.
        994    1    1    2    0    0  0.20845200562E+02  0.25171953004E+02  0.62740006237E+01  0.17440456613E+03  0.17120000000E+03 0.  0.
        998    1    1    2    0    0 -0.34139840568E+02 -0.15021573593E+01  0.13533540913E+04  0.13538223967E+04  0.10000000000E+02 0.  1.
</event>
<event>
 5    1  0.1300052E-008  0.3783533E+03  0.7957747E-01  0.3458360E+00
         13   -1    0    0    0    0  0.00000000000E+00  0.00000000000E+00  0.14999999963E+04  0.15000000000E+04  0.10566000000E+00 0. -1.
        994   -1    0    0    0    0 -0.00000000000E+00 -0.00000000000E+00  0.11368683772E-12  0.17120000000E+03  0.17120000000E+03 0.  0.
         13    1    1    2    0    0  0.79770432661E+01  0.13845794834E+02  0.23030426391E+02  0.28031249663E+02  0.10566000000E+00 0. -1.
        994    1    1    2    0    0 -0.76691720881E+01 -0.19472256976E+02  0.64402326320E+01  0.17259461634E+03  0.17120000000E+03 0.  0.
        998    1    1    2    0    0 -0.30787117798E+00  0.56264621421E+01  0.14705293373E+04  0.14705741340E+04  0.10000000000E+02 0. -1.
</event>
<event>
 5    1  0.1300052E-008  0.3685917E+03  0.7957747E-01  0.3502388E+00
         13   -1    0    0    0    0  0.00000000000E+00  0.00000000000E+00  0.14999999963E+04  0.15000000000E+04  0.10566000000E+00 0. -1.
        994   -1    0    0    0    0 -0.00000000000E+00 -0.00000000000E+00  0.11368683772E-12  0.17120000000E+03  0.17120000000E+03 0.  0.
         13    1    1    2    0    0  0.34849441416E+02  0.12370683255E+02  0.67220155052E+02  0.76720778023E+02  0.10566000000E+00 0. -1.
        994    1    1    2    0    0 -0.20086301010E+02  0.22330104735E+02  0.13147816546E+02  0.17431121061E+03  0.17120000000E+03 0.  0.
        998    1    1    2    0    0 -0.14763140405E+02 -0.34700787989E+02  0.14196320247E+04  0.14201680114E+04  0.10000000000E+02 0. -1.
</event>
<event>
 5    1  0.1300052E-008  0.3840442E+03  0.7957747E-01  0.3433736E+00
         13   -1    0    0    0    0  0.00000000000E+00  0.00000000000E+00  0.14999999963E+04  0.15000000000E+04  0.10566000000E+00 0.  1.
        994   -1    0    0    0    0 -0.00000000000E+00 -0.00000000000E+00  0.11368683772E-12  0.17120000000E+03  0.17120000000E+03 0.  0.
         13    1    1    2    0    0  0.87739671988E+01  0.12221632624E+02  0.50946238142E+02  0.53121381282E+02  0.10566000000E+00 0.  1.
        994    1    1    2    0    0 -0.53109733382E+01 -0.19695057665E+02  0.34792626604E+01  0.17244606984E+03  0.17120000000E+03 0.  0.
        998    1    1    2    0    0 -0.34629938606E+01  0.74734250405E+01  0.14455744955E+04  0.14456325489E+04  0.10000000000E+02 0.  1.
</event>
<event>
 5    1  0.1300052E-008  0.3730900E+03  0.7957747E-01  0.3481809E+00
         13   -1    0    0    0    0  0.00000000000E+00  0.00000000000E+00  0.14999999963E+04  0.15000000000E+04  0.10566000000E+00 0. -1.
        994   -1    0    0    0    0 -0.00000000000E+00 -0.00000000000E+00  0.11368683772E-12  0.17120000000E+03  0.17120000000E+03 0.  0.
         13    1    1    2    0    0  0.60650058677E+02  0.84557115346E+02  0.56791368974E+03  0.57736843136E+03  0.10566000000E+00 0. -1.
        994    1    1    2    0    0 -0.73692987210E+02 -0.49302643431E+02  0.35056330078E+02  0.19595865200E+03  0.17120000000E+03 0.  0.
        998    1    1    2    0    0  0.13042928533E+02 -0.35254471915E+02  0.89702997646E+03  0.89787291664E+03  0.10000000000E+02 0. -1.
</event>
<event>
 5    1  0.1300052E-008  0.3721486E+03  0.7957747E-01  0.3486074E+00
         13   -1    0    0    0    0  0.00000000000E+00  0.00000000000E+00  0.14999999963E+04  0.15000000000E+04  0.10566000000E+00 0.  1.
        994   -1    0    0    0    0 -0.00000000000E+00 -0.00000000000E+00  0.11368683772E-12  0.17120000000E+03  0.17120000000E+03 0.  0.
         13    1    1    2    0    0 -0.26353410672E+01  0.27774645481E+02  0.26977965000E+02  0.38809763124E+02  0.10566000000E+00 0.  1.
        994    1    1    2    0    0 -0.46483750977E+01 -0.24967786242E+02  0.14354732062E+02  0.17366777500E+03  0.17120000000E+03 0.  0.
        998    1    1    2    0    0  0.72837161649E+01 -0.28068592394E+01  0.14586672992E+04  0.14587224619E+04  0.10000000000E+02 0.  1.
</event>
<event>
 5    1  0.1300052E-008  0.3721443E+03  0.7957747E-01  0.3486094E+00
         13   -1    0    0    0    0  0.00000000000E+00  0.00000000000E+00  0.14999999963E+04  0.15000000000E+04  0.10566000000E+00 0.  1.
        994   -1    0    0    0    0 -0.00000000000E+00 -0.00000000000E+00  0.11368683772E-12  0.17120000000E+03  0.17120000000E+03 0.  0.
         13    1    1    2    0    0  0.49731831291E+02  0.79854761707E+01  0.16897136549E+03  0.17631890538E+03  0.10566000000E+00 0.  1.
        994    1    1    2    0    0 -0.93547290969E+01 -0.61847725371E+01  0.85843364876E+01  0.17178152753E+03  0.17120000000E+03 0.  0.
        998    1    1    2    0    0 -0.40377102194E+02 -0.18007036336E+01  0.13224442943E+04  0.13230995671E+04  0.10000000000E+02 0.  1.
</event>
<event>
 5    1  0.1300052E-008  0.3833062E+03  0.7957747E-01  0.3436888E+00
         13   -1    0    0    0    0  0.00000000000E+00  0.00000000000E+00  0.14999999963E+04  0.15000000000E+04  0.10566000000E+00 0. -1.
        994   -1    0    0    0    0 -0.00000000000E+00 -0.00000000000E+00  0.11368683772E-12  0.17120000000E+03  0.17120000000E+03 0.  0.
         13    1    1    2    0    0  0.15106560552E+02  0.12463172165E+02  0.75764445462E+02  0.78254719936E+02  0.10566000000E+00 0. -1.
        994    1    1    2    0    0 -0.10725501108E+02 -0.10697197774E+02  0.32325683733E+01  0.17189926094E+03  0.17120000000E+03 0.  0.
        998    1    1    2    0    0 -0.43810594435E+01 -0.17659743915E+01  0.14210029824E+04  0.14210460191E+04  0.10000000000E+02 0. -1.
</event>
<event>
 5    1  0.1300052E-008  0.3820100E+03  0.7957747E-01  0.3442453E+00
         13   -1    0    0    0    0  0.00000000000E+00  0.00000000000E+00  0.14999999963E+04  0.15000000000E+04  0.10566000000E+00 0.  1.
        994   -1    0    0    0    0 -0.00000000000E+00 -0.00000000000E+00  0.11368683772E-12  0.17120000000E+03  0.17120000000E+03 0.  0.
         13    1    1    2    0    0 -0.14306814086E+02 -0.13980436192E+02  0.61602074396E+02  0.64768543749E+02  0.10566000000E+00 0.  1.
        994    1    1    2    0    0  0.14595373063E+02  0.10711926894E+02  0.42111918830E+01  0.17220611031E+03  0.17120000000E+03 0.  0.
        998    1    1    2    0    0 -0.28855897747E+00  0.32685092983E+01  0.14341867300E+04  0.14342253459E+04  0.10000000000E+02 0.  1.
</event>
<event>
 5    1  0.1300052E-008  0.3852181E+03  0.7957747E-01  0.3428748E+00
         13   -1    0    0    0    0  0.00000000000E+00  0.00000000000E+00  0.14999999963E+04  0.15000000000E+04  0.10566000000E+00 0. -1.
        994   -1    0    0    0    0 -0.00000000000E+00 -0.00000000000E+00  0.11368683772E-12  0.17120000000E+03  0.17120000000E+03 0.  0.
         13    1    1    2    0    0  0.90148356322E+01  0.84769633403E+01  0.49582604890E+02  0.51103542350E+02  0.10566000000E+00 0. -1.
        994    1    1    2    0    0 -0.94045623115E+01 -0.60980428872E+01  0.19348917192E+01  0.17157743361E+03  0.17120000000E+03 0.  0.
        998    1    1    2    0    0  0.38972667928E+00 -0.23789204531E+01  0.14484824997E+04  0.14485190240E+04  0.10000000000E+02 0. -1.
</event>
<event>
 5    1  0.1300052E-008  0.3822838E+03  0.7957747E-01  0.3441274E+00
         13   -1    0    0    0    0  0.00000000000E+00  0.00000000000E+00  0.14999999963E+04  0.15000000000E+04  0.10566000000E+00 0. -1.
        994   -1    0    0    0    0 -0.00000000000E+00 -0.00000000000E+00  0.11368683772E-12  0.17120000000E+03  0.17120000000E+03 0.  0.
         13    1    1    2    0    0  0.16464969372E+02 -0.22483408274E+02  0.14920307234E+03  0.15178328901E+03  0.10566000000E+00 0. -1.
        994    1    1    2    0    0 -0.65719876111E+00 -0.36534550961E+01  0.30304454040E+01  0.17126705242E+03  0.17120000000E+03 0.  0.
        998    1    1    2    0    0 -0.15807770610E+02  0.26136863370E+02  0.13477664785E+04  0.13481496586E+04  0.10000000000E+02 0. -1.
</event>
<event>
 5    1  0.1300052E-008  0.3706820E+03  0.7957747E-01  0.3492763E+00
         13   -1    0    0    0    0  0.00000000000E+00  0.00000000000E+00  0.14999999963E+04  0.15000000000E+04  0.10566000000E+00 0. -1.
        994   -1    0    0    0    0 -0.00000000000E+00 -0.00000000000E+00  0.11368683772E-12  0.17120000000E+03  0.17120000000E+03 0.  0.
         13    1    1    2    0    0 -0.23200284541E+02  0.16300651956E-01  0.26107188811E+02  0.34926350227E+02  0.10566000000E+00 0. -1.
        994    1    1    2    0    0  0.22083719155E+02 -0.12497785598E+01  0.10602550157E+02  0.17294827744E+03  0.17120000000E+03 0.  0.
        998    1    1    2    0    0  0.11165653862E+01  0.12334779078E+01  0.14632902573E+04  0.14633253723E+04  0.10000000000E+02 0. -1.
</event>
<event>
 5    1  0.1300052E-008  0.3770512E+03  0.7957747E-01  0.3464099E+00
         13   -1    0    0    0    0  0.00000000000E+00  0.00000000000E+00  0.14999999963E+04  0.15000000000E+04  0.10566000000E+00 0. -1.
        994   -1    0    0    0    0 -0.00000000000E+00 -0.00000000000E+00  0.11368683772E-12  0.17120000000E+03  0.17120000000E+03 0.  0.
         13    1    1    2    0    0  0.66420390179E+02  0.14005278217E+03  0.53924266429E+03  0.56107852586E+03  0.10566000000E+00 0. -1.
        994    1    1    2    0    0 -0.59269060855E+02 -0.12978247993E+03  0.91813551127E+02  0.24103004344E+03  0.17120000000E+03 0.  0.
        998    1    1    2    0    0 -0.71513293240E+01 -0.10270302244E+02  0.86894378086E+03  0.86909143070E+03  0.10000000000E+02 0.  0.
</event>
<event>
 5    1  0.1300052E-008  0.3776100E+03  0.7957747E-01  0.3461631E+00
         13   -1    0    0    0    0  0.00000000000E+00  0.00000000000E+00  0.14999999963E+04  0.15000000000E+04  0.10566000000E+00 0. -1.
        994   -1    0    0    0    0 -0.00000000000E+00 -0.00000000000E+00  0.11368683772E-12  0.17120000000E+03  0.17120000000E+03 0.  0.
         13    1    1    2    0    0  0.48805457243E+01  0.23257077778E+02  0.51340352180E+02  0.56573441820E+02  0.10566000000E+00 0. -1.
        994    1    1    2    0    0  0.21140444412E+00 -0.12610326103E+02  0.58806336399E+01  0.17176462636E+03  0.17120000000E+03 0.  0.
        998    1    1    2    0    0 -0.50919501684E+01 -0.10646751676E+02  0.14427790105E+04  0.14428619318E+04  0.10000000000E+02 0. -1.
</event>
<event>
 5    1  0.1300052E-008  0.3852697E+03  0.7957747E-01  0.3428529E+00
         13   -1    0    0    0    0  0.00000000000E+00  0.00000000000E+00  0.14999999963E+04  0.15000000000E+04  0.10566000000E+00 0.  1.
        994   -1    0    0    0    0 -0.00000000000E+00 -0.00000000000E+00  0.11368683772E-12  0.17120000000E+03  0.17120000000E+03 0.  0.
         13    1    1    2    0    0 -0.82840496530E+01  0.14583752214E+02  0.99358864867E+02  0.10076460936E+03  0.10566000000E+00 0.  1.
        994    1    1    2    0    0 -0.16783866192E+01 -0.60462879405E+01  0.16256684382E+01  0.17132267035E+03  0.17120000000E+03 0.  0.
        998    1    1    2    0    0  0.99624362722E+01 -0.85374642738E+01  0.13990154630E+04  0.13991127203E+04  0.10000000000E+02 0.  1.
</event>
<event>
 5    1  0.1300052E-008  0.3857329E+03  0.7957747E-01  0.3426570E+00
         13   -1    0    0    0    0  0.00000000000E+00  0.00000000000E+00  0.14999999963E+04  0.15000000000E+04  0.10566000000E+00 0.  1.
        994   -1    0    0    0    0 -0.00000000000E+00 -0.00000000000E+00  0.11368683772E-12  0.17120000000E+03  0.17120000000E+03 0.  0.
         13    1    1    2    0    0  0.12068131925E+02 -0.18708097456E+01  0.56932358924E+02  0.58227522650E+02  0.10566000000E+00 0.  1.
        994    1    1    2    0    0 -0.14509163276E+02  0.24381688879E+00  0.19578931376E+01  0.17182505234E+03  0.17120000000E+03 0.  0.
        998    1    1    2    0    0  0.24410313515E+01  0.16269928568E+01  0.14411097442E+04  0.14411474250E+04  0.10000000000E+02 0.  1.
</event>
<event>
 5    1  0.1300052E-008  0.3858801E+03  0.7957747E-01  0.3425948E+00
         13   -1    0    0    0    0  0.00000000000E+00  0.00000000000E+00  0.14999999963E+04  0.15000000000E+04  0.10566000000E+00 0.  1.
        994   -1    0    0    0    0 -0.00000000000E+00 -0.00000000000E+00  0.11368683772E-12  0.17120000000E+03  0.17120000000E+03 0.  0.
         13    1    1    2    0    0  0.11779131513E+01 -0.10212977043E+02  0.45331402024E+02  0.46482680139E+02  0.10566000000E+00 0.  1.
        994    1    1    2    0    0  0.11677135758E+02  0.61542452997E+01  0.17653949039E+01  0.17171717111E+03  0.17120000000E+03 0.  0.
        998    1    1    2    0    0 -0.12855048910E+02  0.40587317432E+01  0.14529031994E+04  0.14530001488E+04  0.10000000000E+02 0.  1.
</event>
<event>
 5    1  0.1300052E-008  0.3824645E+03  0.7957747E-01  0.3440497E+00
         13   -1    0    0    0    0  0.00000000000E+00  0.00000000000E+00  0.14999999963E+04  0.15000000000E+04  0.10566000000E+00 0.  1.
        994   -1    0    0    0    0 -0.00000000000E+00 -0.00000000000E+00  0.11368683772E-12  0.17120000000E+03  0.17120000000E+03 0.  0.
         13    1    1    2    0    0 -0.52961646991E+00  0.17397441659E+02  0.51179680701E+02  0.54058508586E+02  0.10566000000E+00 0.  1.
        994    1    1    2    0    0  0.13451788217E+01 -0.12371157845E+02  0.34078785386E+01  0.17168549353E+03  0.17120000000E+03 0.  0.
        998    1    1    2    0    0 -0.81556235177E+00 -0.50262838144E+01  0.14454124370E+04  0.14454559979E+04  0.10000000000E+02 0.  1.
</event>
<event>
 5    1  0.1300052E-008  0.3856997E+03  0.7957747E-01  0.3426710E+00
         13   -1    0    0    0    0  0.00000000000E+00  0.00000000000E+00  0.14999999963E+04  0.15000000000E+04  0.10566000000E+00 0. -1.
        994   -1    0    0    0    0 -0.00000000000E+00 -0.00000000000E+00  0.11368683772E-12  0.17120000000E+03  0.17120000000E+03 0.  0.
         13    1    1    2    0    0  0.18073433445E+01  0.14198878938E+02  0.83012020322E+02  0.84237054406E+02  0.10566000000E+00 0. -1.
        994    1    1    2    0    0 -0.50499477953E+01 -0.48633530831E+01  0.14444344886E+01  0.17134958584E+03  0.17120000000E+03 0.  0.
        998    1    1    2    0    0  0.32426044508E+01 -0.93355258545E+01  0.14155435415E+04  0.14156133598E+04  0.10000000000E+02 0. -1.
</event>
<event>
 5    1  0.1300052E-008  0.3748540E+03  0.7957747E-01  0.3473876E+00
         13   -1    0    0    0    0  0.00000000000E+00  0.00000000000E+00  0.14999999963E+04  0.15000000000E+04  0.10566000000E+00 0. -1.
        994   -1    0    0    0    0 -0.00000000000E+00 -0.00000000000E+00  0.11368683772E-12  0.17120000000E+03  0.17120000000E+03 0.  0.
         13    1    1    2    0    0  0.30821539094E+02 -0.82348527792E+01  0.71074978252E+02  0.77906634955E+02  0.10566000000E+00 0. -1.
        994    1    1    2    0    0 -0.26610148221E+02  0.50717094999E+01  0.92533900169E+01  0.17357674802E+03  0.17120000000E+03 0.  0.
        998    1    1    2    0    0 -0.42113908728E+01  0.31631432792E+01  0.14196716280E+04  0.14197166170E+04  0.10000000000E+02 0. -1.
</event>
<event>
 5    1  0.1300052E-008  0.3735192E+03  0.7957747E-01  0.3479872E+00
         13   -1    0    0    0    0  0.00000000000E+00  0.00000000000E+00  0.14999999963E+04  0.15000000000E+04  0.10566000000E+00 0. -1.
        994   -1    0    0    0    0 -0.00000000000E+00 -0.00000000000E+00  0.11368683772E-12  0.17120000000E+03  0.17120000000E+03 0.  0.
         13    1    1    2    0    0  0.18861252816E+02  0.15642067533E+02  0.40399508195E+02  0.47249894825E+02  0.10566000000E+00 0. -1.
        994    1    1    2    0    0  0.10012620689E+02  0.54375267867E+01  0.78847314894E+01  0.17175979815E+03  0.17120000000E+03 0.  0.
        998    1    1    2    0    0 -0.28873873505E+02 -0.21079594319E+02  0.14517157566E+04  0.14521903070E+04  0.10000000000E+02 0. -1.
</event>
<event>
 5    1  0.1300052E-008  0.3812222E+03  0.7957747E-01  0.3445854E+00
         13   -1    0    0    0    0  0.00000000000E+00  0.00000000000E+00  0.14999999963E+04  0.15000000000E+04  0.10566000000E+00 0.  1.
        994   -1    0    0    0    0 -0.00000000000E+00 -0.00000000000E+00  0.11368683772E-12  0.17120000000E+03  0.17120000000E+03 0.  0.
         13    1    1    2    0    0  0.24619885295E+02 -0.11584549980E+02  0.10676798113E+03  0.11018054959E+03  0.10566000000E+00 0.  1.
        994    1    1    2    0    0 -0.19060796103E+02 -0.11372557493E+02  0.51594372375E+01  0.17270989782E+03  0.17120000000E+03 0.  0.
        998    1    1    2    0    0 -0.55590891915E+01  0.22957107472E+02  0.13880725779E+04  0.13883095526E+04  0.10000000000E+02 0.  1.
</event>
<event>
 5    1  0.1300052E-008  0.3710006E+03  0.7957747E-01  0.3491305E+00
         13   -1    0    0    0    0  0.00000000000E+00  0.00000000000E+00  0.14999999963E+04  0.15000000000E+04  0.10566000000E+00 0. -1.
        994   -1    0    0    0    0 -0.00000000000E+00 -0.00000000000E+00  0.11368683772E-12  0.17120000000E+03  0.17120000000E+03 0.  0.
         13    1    1    2    0    0 -0.60382162137E+01 -0.14567663394E+02  0.62058217771E+01  0.16946983796E+02  0.10566000000E+00 0. -1.
        994    1    1    2    0    0  0.72323282396E+01 -0.27841209623E+02  0.14377243591E+02  0.17419410053E+03  0.17120000000E+03 0.  0.
        998    1    1    2    0    0 -0.11941120259E+01  0.42408873016E+02  0.14794169309E+04  0.14800589157E+04  0.10000000000E+02 0. -1.
</event>
<event>
 5    1  0.1300052E-008  0.3831205E+03  0.7957747E-01  0.3437683E+00
         13   -1    0    0    0    0  0.00000000000E+00  0.00000000000E+00  0.14999999963E+04  0.15000000000E+04  0.10566000000E+00 0.  1.
        994   -1    0    0    0    0 -0.00000000000E+00 -0.00000000000E+00  0.11368683772E-12  0.17120000000E+03  0.17120000000E+03 0.  0.
         13    1    1    2    0    0  0.16640241581E+00  0.12157928509E+02  0.28071654510E+02  0.30592022920E+02  0.10566000000E+00 0.  1.
        994    1    1    2    0    0 -0.50896809335E+00 -0.69817137362E+01  0.27283325135E+01  0.17136477810E+03  0.17120000000E+03 0.  0.
        998    1    1    2    0    0  0.34256567755E+00 -0.51762147726E+01  0.14692000093E+04  0.14692431990E+04  0.10000000000E+02 0.  1.
</event>
<event>
 5    1  0.1300052E-008  0.3849455E+03  0.7957747E-01  0.3429903E+00
         13   -1    0    0    0    0  0.00000000000E+00  0.00000000000E+00  0.14999999963E+04  0.15000000000E+04  0.10566000000E+00 0.  1.
        994   -1    0    0    0    0 -0.00000000000E+00 -0.00000000000E+00  0.11368683772E-12  0.17120000000E+03  0.17120000000E+03 0.  0.
         13    1    1    2    0    0 -0.12295799589E+03 -0.51281011452E+02  0.78798448034E+03  0.79916704343E+03  0.10566000000E+00 0.  1.
        994    1    1    2    0    0  0.16674733175E+03  0.56530145488E+02  0.11131198872E+03  0.26962961415E+03  0.17120000000E+03 0.  0.
        998    1    1    2    0    0 -0.43789335860E+02 -0.52491340357E+01  0.60070352722E+03  0.60240334242E+03  0.10000000000E+02 0.  1.
</event>
<event>
 5    1  0.1300052E-008  0.3851936E+03  0.7957747E-01  0.3428852E+00
         13   -1    0    0    0    0  0.00000000000E+00  0.00000000000E+00  0.14999999963E+04  0.15000000000E+04  0.10566000000E+00 0. -1.
        994   -1    0    0    0    0 -0.00000000000E+00 -0.00000000000E+00  0.11368683772E-12  0.17120000000E+03  0.17120000000E+03 0.  0.
         13    1    1    2    0    0 -0.12344627746E+02  0.45712821908E+01  0.56732347142E+02  0.58239649993E+02  0.10566000000E+00 0. -1.
        994    1    1    2    0    0  0.49435801059E+01 -0.10716017005E+02  0.19919207616E+01  0.17161783052E+03  0.17120000000E+03 0.  0.
        998    1    1    2    0    0  0.74010476400E+01  0.61447348142E+01  0.14412757284E+04  0.14413425195E+04  0.10000000000E+02 0. -1.
</event>
<event>
 5    1  0.1300052E-008  0.3856964E+03  0.7957747E-01  0.3426724E+00
         13   -1    0    0    0    0  0.00000000000E+00  0.00000000000E+00  0.14999999963E+04  0.15000000000E+04  0.10566000000E+00 0. -1.
        994   -1    0    0    0    0 -0.00000000000E+00 -0.00000000000E+00  0.11368683772E-12  0.17120000000E+03  0.17120000000E+03 0.  0.
         13    1    1    2    0    0  0.13451242086E+01 -0.11132294578E+02  0.49299710106E+02  0.50558974696E+02  0.10566000000E+00 0. -1.
        994    1    1    2    0    0  0.88851693990E+00  0.76169277129E+01  0.14777815024E+01  0.17137803502E+03  0.17120000000E+03 0.  0.
        998    1    1    2    0    0 -0.22336411485E+01  0.35153668646E+01  0.14492225047E+04  0.14492629903E+04  0.10000000000E+02 0. -1.
</event>
<event>
 5    1  0.3190415E-008  0.3866030E+03  0.7957747E-01  0.3422902E+00
         13   -1    0    0    0    0  0.00000000000E+00  0.00000000000E+00  0.14999999963E+04  0.15000000000E+04  0.10566000000E+00 0.  1.
        994   -1    0    0    0    0 -0.00000000000E+00 -0.00000000000E+00  0.11368683772E-12  0.17120000000E+03  0.17120000000E+03 0.  0.
         13    1    1    2    0    0 -0.97224122666E+01 -0.63950473265E+01  0.67860334078E+02  0.68850984276E+02  0.10566000000E+00 0.  1.
        994    1    1    2    0    0  0.41684805268E+02 -0.45086010181E+01  0.66089771600E+01  0.17638330151E+03  0.17120000000E+03 0.  0.
        998    1    1    2    0    0 -0.31962393001E+02  0.10903648345E+02  0.14255306850E+04  0.14259657142E+04  0.10000000000E+02 0.  1.
</event>
<event>
 5    1  0.1300052E-008  0.3830147E+03  0.7957747E-01  0.3438136E+00
         13   -1    0    0    0    0  0.00000000000E+00  0.00000000000E+00  0.14999999963E+04  0.15000000000E+04  0.10566000000E+00 0. -1.
        994   -1    0    0    0    0 -0.00000000000E+00 -0.00000000000E+00  0.11368683772E-12  0.17120000000E+03  0.17120000000E+03 0.  0.
         13    1    1    2    0    0 -0.99480892321E+01  0.10458771752E+02  0.39614260892E+02  0.42162201271E+02  0.10566000000E+00 0. -1.
        994    1    1    2    0    0  0.69620405617E+01 -0.10314530637E+01  0.27829879979E+01  0.17136720493E+03  0.17120000000E+03 0.  0.
        998    1    1    2    0    0  0.29860486703E+01 -0.94273186888E+01  0.14576027474E+04  0.14576705938E+04  0.10000000000E+02 0. -1.
</event>
<event>
 5    1  0.1300052E-008  0.3837498E+03  0.7957747E-01  0.3434992E+00
         13   -1    0    0    0    0  0.00000000000E+00  0.00000000000E+00  0.14999999963E+04  0.15000000000E+04  0.10566000000E+00 0. -1.
        994   -1    0    0    0    0 -0.00000000000E+00 -0.00000000000E+00  0.11368683772E-12  0.17120000000E+03  0.17120000000E+03 0.  0.
         13    1    1    2    0    0 -0.11240555513E+02 -0.88324655666E+01  0.42510150908E+02  0.44849600115E+02  0.10566000000E+00 0. -1.
        994    1    1    2    0    0  0.16029160769E+02  0.14038439755E+02  0.37527310330E+01  0.17256168397E+03  0.17120000000E+03 0.  0.
        998    1    1    2    0    0 -0.47886052565E+01 -0.52059741886E+01  0.14537371143E+04  0.14537887159E+04  0.10000000000E+02 0. -1.
</event>
<event>
 5    1  0.1300052E-008  0.3777256E+03  0.7957747E-01  0.3461122E+00
         13   -1    0    0    0    0  0.00000000000E+00  0.00000000000E+00  0.14999999963E+04  0.15000000000E+04  0.10566000000E+00 0.  1.
        994   -1    0    0    0    0 -0.00000000000E+00 -0.00000000000E+00  0.11368683772E-12  0.17120000000E+03  0.17120000000E+03 0.  0.
         13    1    1    2    0    0 -0.37916962881E+01 -0.23606111166E+02  0.51131072902E+02  0.56444868901E+02  0.10566000000E+00 0.  1.
        994    1    1    2    0    0  0.79728132529E+01  0.19681508595E+02  0.68060046664E+01  0.17264613877E+03  0.17120000000E+03 0.  0.
        998    1    1    2    0    0 -0.41811169649E+01  0.39246025709E+01  0.14420629187E+04  0.14421089923E+04  0.10000000000E+02 0.  1.
</event>
<event>
 5    1  0.1300052E-008  0.3794944E+03  0.7957747E-01  0.3453363E+00
         13   -1    0    0    0    0  0.00000000000E+00  0.00000000000E+00  0.14999999963E+04  0.15000000000E+04  0.10566000000E+00 0.  1.
        994   -1    0    0    0    0 -0.00000000000E+00 -0.00000000000E+00  0.11368683772E-12  0.17120000000E+03  0.17120000000E+03 0.  0.
         13    1    1    2    0    0 -0.63910513230E+01 -0.18595382965E+02  0.39442637726E+02  0.44072288793E+02  0.10566000000E+00 0.  1.
        994    1    1    2    0    0  0.29102177931E+02  0.26328057698E+02  0.95629523573E+01  0.17590052143E+03  0.17120000000E+03 0.  0.
        998    1    1    2    0    0 -0.22711126608E+02 -0.77326747331E+01  0.14509944062E+04  0.14512271898E+04  0.10000000000E+02 0.  1.
</event>
<event>
 5    1  0.1300052E-008  0.3791823E+03  0.7957747E-01  0.3454726E+00
         13   -1    0    0    0    0  0.00000000000E+00  0.00000000000E+00  0.14999999963E+04  0.15000000000E+04  0.10566000000E+00 0. -1.
        994   -1    0    0    0    0 -0.00000000000E+00 -0.00000000000E+00  0.11368683772E-12  0.17120000000E+03  0.17120000000E+03 0.  0.
         13    1    1    2    0    0  0.12366092681E+02 -0.10796287019E+02  0.28211974134E+02  0.32640568472E+02  0.10566000000E+00 0. -1.
        994    1    1    2    0    0 -0.81246018806E+01 -0.33524352887E-01  0.47677563759E+01  0.17145897988E+03  0.17120000000E+03 0.  0.
        998    1    1    2    0    0 -0.42414908008E+01  0.10829811372E+02  0.14670202658E+04  0.14671004517E+04  0.10000000000E+02 0. -1.
</event>
<event>
 5    1  0.1300052E-008  0.3764271E+03  0.7957747E-01  0.3466865E+00
         13   -1    0    0    0    0  0.00000000000E+00  0.00000000000E+00  0.14999999963E+04  0.15000000000E+04  0.10566000000E+00 0.  1.
        994   -1    0    0    0    0 -0.00000000000E+00 -0.00000000000E+00  0.11368683772E-12  0.17120000000E+03  0.17120000000E+03 0.  0.
         13    1    1    2    0    0  0.11662186854E+02 -0.70808347303E+02  0.32182404673E+03  0.32972800437E+03  0.10566000000E+00 0.  1.
        994    1    1    2    0    0 -0.14442440464E+02  0.76317576134E+02  0.26637413648E+02  0.18987350610E+03  0.17120000000E+03 0.  0.
        998    1    1    2    0    0  0.27802536105E+01 -0.55092288311E+01  0.11515385359E+04  0.11515984895E+04  0.10000000000E+02 0.  1.
</event>
<event>
 5    1  0.1300052E-008  0.3792710E+03  0.7957747E-01  0.3454339E+00
         13   -1    0    0    0    0  0.00000000000E+00  0.00000000000E+00  0.14999999963E+04  0.15000000000E+04  0.10566000000E+00 0.  1.
        994   -1    0    0    0    0 -0.00000000000E+00 -0.00000000000E+00  0.11368683772E-12  0.17120000000E+03  0.17120000000E+03 0.  0.
         13    1    1    2    0    0  0.75090503006E+02  0.65291150235E+01  0.19299924791E+03  0.20719540015E+03  0.10566000000E+00 0.  1.
        994    1    1    2    0    0 -0.22672013468E+02  0.11750902801E+02  0.18287457045E+02  0.17405738995E+03  0.17120000000E+03 0.  0.
        998    1    1    2    0    0 -0.52418489539E+02 -0.18280017825E+02  0.12887132913E+04  0.12899472099E+04  0.10000000000E+02 0.  1.
</event>
<event>
 5    1  0.1300052E-008  0.3747059E+03  0.7957747E-01  0.3474539E+00
         13   -1    0    0    0    0  0.00000000000E+00  0.00000000000E+00  0.14999999963E+04  0.15000000000E+04  0.10566000000E+00 0. -1.
        994   -1    0    0    0    0 -0.00000000000E+00 -0.00000000000E+00  0.11368683772E-12  0.17120000000E+03  0.17120000000E+03 0.  0.
         13    1    1    2    0    0  0.30643791568E+02 -0.33071648208E+02  0.17944038324E+03  0.18501794015E+03  0.10566000000E+00 0. -1.
        994    1    1    2    0    0  0.14280180798E+02  0.14059679132E+01  0.75307065792E+01  0.17196526350E+03  0.17120000000E+03 0.  0.
        998    1    1    2    0    0 -0.44923972366E+02  0.31665680294E+02  0.13130289065E+04  0.13142167963E+04  0.10000000000E+02 0. -1.
</event>
<event>
 5    1  0.1300052E-008  0.3809967E+03  0.7957747E-01  0.3446830E+00
         13   -1    0    0    0    0  0.00000000000E+00  0.00000000000E+00  0.14999999963E+04  0.15000000000E+04  0.10566000000E+00 0.  1.
        994   -1    0    0    0    0 -0.00000000000E+00 -0.00000000000E+00  0.11368683772E-12  0.17120000000E+03  0.17120000000E+03 0.  0.
         13    1    1    2    0    0  0.33652835442E+02 -0.45583704702E+01  0.15094728404E+03  0.15472034707E+03  0.10566000000E+00 0.  1.
        994    1    1    2    0    0 -0.28633411410E+02 -0.12053568694E+02  0.68533871079E+01  0.17413089813E+03  0.17120000000E+03 0.  0.
        998    1    1    2    0    0 -0.50194240323E+01  0.16611939164E+02  0.13421993251E+04  0.13423487548E+04  0.10000000000E+02 0.  1.
</event>
<event>
 5    1  0.1300052E-008  0.3848411E+03  0.7957747E-01  0.3430346E+00
         13   -1    0    0    0    0  0.00000000000E+00  0.00000000000E+00  0.14999999963E+04  0.15000000000E+04  0.10566000000E+00 0.  1.
        994   -1    0    0    0    0 -0.00000000000E+00 -0.00000000000E+00  0.11368683772E-12  0.17120000000E+03  0.17120000000E+03 0.  0.
         13    1    1    2    0    0 -0.44053644548E+01 -0.96984802766E+01  0.35324943126E+02  0.36896212903E+02  0.10566000000E+00 0.  1.
        994    1    1    2    0    0  0.63644223595E+01 -0.11257703004E+02  0.22595184548E+01  0.17170261260E+03  0.17120000000E+03 0.  0.
        998    1    1    2    0    0 -0.19590579046E+01  0.20956183280E+02  0.14624155347E+04  0.14626011745E+04  0.10000000000E+02 0.  1.
</event>
<event>
 5    1  0.1300052E-008  0.3801242E+03  0.7957747E-01  0.3450618E+00
         13   -1    0    0    0    0  0.00000000000E+00  0.00000000000E+00  0.14999999963E+04  0.15000000000E+04  0.10566000000E+00 0. -1.
        994   -1    0    0    0    0 -0.00000000000E+00 -0.00000000000E+00  0.11368683772E-12  0.17120000000E+03  0.17120000000E+03 0.  0.
         13    1    1    2    0    0  0.32024312652E+02 -0.57176891130E+01  0.13857038717E+03  0.14233766871E+03  0.10566000000E+00 0. -1.
        994    1    1    2    0    0 -0.67787279422E+01  0.31727367344E+01  0.42576910911E+01  0.17141640920E+03  0.17120000000E+03 0.  0.
        998    1    1    2    0    0 -0.25245584710E+02  0.25449523786E+01  0.13571719180E+04  0.13574459221E+04  0.10000000000E+02 0. -1.
</event>
<event>
 5    1  0.1300052E-008  0.3788729E+03  0.7957747E-01  0.3456081E+00
         13   -1    0    0    0    0  0.00000000000E+00  0.00000000000E+00  0.14999999963E+04  0.15000000000E+04  0.10566000000E+00 0.  1.
        994   -1    0    0    0    0 -0.00000000000E+00 -0.00000000000E+00  0.11368683772E-12  0.17120000000E+03  0.17120000000E+03 0.  0.
         13    1    1    2    0    0 -0.27214743098E+01 -0.20400651887E+02  0.46985653488E+02  0.51295768028E+02  0.10566000000E+00 0.  1.
        994    1    1    2    0    0  0.19305206417E+02 -0.12979986917E+02  0.65211277953E+01  0.17289631622E+03  0.17120000000E+03 0.  0.
        998    1    1    2    0    0 -0.16583732107E+02  0.33380638804E+02  0.14464932150E+04  0.14470079158E+04  0.10000000000E+02 0.  1.
</event>
<event>
 5    1  0.1300052E-008  0.3768816E+03  0.7957747E-01  0.3464850E+00
         13   -1    0    0    0    0  0.00000000000E+00  0.00000000000E+00  0.14999999963E+04  0.15000000000E+04  0.10566000000E+00 0. -1.
        994   -1    0    0    0    0 -0.00000000000E+00 -0.00000000000E+00  0.11368683772E-12  0.17120000000E+03  0.17120000000E+03 0.  0.
         13    1    1    2    0    0  0.11146002416E+02  0.35538487360E+02  0.97105811010E+02  0.10400368815E+03  0.10566000000E+00 0. -1.
        994    1    1    2    0    0 -0.62119435993E+02 -0.54108066103E+02  0.28993846512E+02  0.19218894422E+03  0.17120000000E+03 0.  0.
        998    1    1    2    0    0  0.50973433577E+02  0.18569578743E+02  0.13739003388E+04  0.13750073676E+04  0.10000000000E+02 0. -1.
</event>
<event>
 5    1  0.1300052E-008  0.3840811E+03  0.7957747E-01  0.3433579E+00
         13   -1    0    0    0    0  0.00000000000E+00  0.00000000000E+00  0.14999999963E+04  0.15000000000E+04  0.10566000000E+00 0. -1.
        994   -1    0    0    0    0 -0.00000000000E+00 -0.00000000000E+00  0.11368683772E-12  0.17120000000E+03  0.17120000000E+03 0.  0.
         13    1    1    2    0    0 -0.24298734278E+02 -0.47544229242E+01  0.13992611238E+03  0.14209982799E+03  0.10566000000E+00 0. -1.
        994    1    1    2    0    0  0.23112557504E+02 -0.93922424900E+01  0.41427113603E+01  0.17305781286E+03  0.17120000000E+03 0.  0.
        998    1    1    2    0    0  0.11861767732E+01  0.14146665414E+02  0.13559311725E+04  0.13560423592E+04  0.10000000000E+02 0. -1.
</event>
<event>
 5    1  0.1300052E-008  0.3751634E+03  0.7957747E-01  0.3472492E+00
         13   -1    0    0    0    0  0.00000000000E+00  0.00000000000E+00  0.14999999963E+04  0.15000000000E+04  0.10566000000E+00 0. -1.
        994   -1    0    0    0    0 -0.00000000000E+00 -0.00000000000E+00  0.11368683772E-12  0.17120000000E+03  0.17120000000E+03 0.  0.
         13    1    1    2    0    0 -0.21311453553E+01  0.25720017263E+02  0.48490005071E+02  0.54930436229E+02  0.10566000000E+00 0. -1.
        994    1    1    2    0    0  0.14449514097E+02 -0.12114249973E+02  0.78036679860E+01  0.17241195070E+03  0.17120000000E+03 0.  0.
        998    1    1    2    0    0 -0.12318368741E+02 -0.13605767291E+02  0.14437063232E+04  0.14438576131E+04  0.10000000000E+02 0. -1.
</event>
<event>
 5    1  0.1300052E-008  0.3838981E+03  0.7957747E-01  0.3434359E+00
         13   -1    0    0    0    0  0.00000000000E+00  0.00000000000E+00  0.14999999963E+04  0.15000000000E+04  0.10566000000E+00 0.  1.
        994   -1    0    0    0    0 -0.00000000000E+00 -0.00000000000E+00  0.11368683772E-12  0.17120000000E+03  0.17120000000E+03 0.  0.
         13    1    1    2    0    0  0.98962386299E+01  0.19107875147E+02  0.11450513069E+03  0.11650958137E+03  0.10566000000E+00 0.  1.
        994    1    1    2    0    0  0.44276646782E+01 -0.55358503583E+01  0.23440690782E+01  0.17136272790E+03  0.17120000000E+03 0.  0.
        998    1    1    2    0    0 -0.14323903308E+02 -0.13572024789E+02  0.13831507965E+04  0.13833276907E+04  0.10000000000E+02 0.  1.
</event>
<event>
 5    1  0.1300052E-008  0.3818499E+03  0.7957747E-01  0.3443143E+00
         13   -1    0    0    0    0  0.00000000000E+00  0.00000000000E+00  0.14999999963E+04  0.15000000000E+04  0.10566000000E+00 0.  1.
        994   -1    0    0    0    0 -0.00000000000E+00 -0.00000000000E+00  0.11368683772E-12  0.17120000000E+03  0.17120000000E+03 0.  0.
         13    1    1    2    0    0  0.23069407997E+01  0.27908212304E+02  0.11703651700E+03  0.12034013364E+03  0.10566000000E+00 0.  1.
        994    1    1    2    0    0 -0.16845552087E+02 -0.21756352329E+02  0.57218612078E+01  0.17349147295E+03  0.17120000000E+03 0.  0.
        998    1    1    2    0    0  0.14538611287E+02 -0.61518599759E+01  0.13772416181E+04  0.13773683934E+04  0.10000000000E+02 0.  1.
</event>
<event>
 5    1  0.1300052E-008  0.3755584E+03  0.7957747E-01  0.3470729E+00
         13   -1    0    0    0    0  0.00000000000E+00  0.00000000000E+00  0.14999999963E+04  0.15000000000E+04  0.10566000000E+00 0.  1.
        994   -1    0    0    0    0 -0.00000000000E+00 -0.00000000000E+00  0.11368683772E-12  0.17120000000E+03  0.17120000000E+03 0.  0.
         13    1    1    2    0    0  0.37837188503E+02  0.17910875264E+02  0.48590354114E+02  0.64136463603E+02  0.10566000000E+00 0.  1.
        994    1    1    2    0    0 -0.75985316249E+02 -0.52223266789E+02  0.44877966225E+02  0.19956079207E+03  0.17120000000E+03 0.  0.
        998    1    1    2    0    0  0.38148127746E+02  0.34312391526E+02  0.14065316759E+04  0.14075027443E+04  0.10000000000E+02 0.  1.
</event>
<event>
 5    1  0.1300052E-008  0.3800097E+03  0.7957747E-01  0.3451116E+00
         13   -1    0    0    0    0  0.00000000000E+00  0.00000000000E+00  0.14999999963E+04  0.15000000000E+04  0.10566000000E+00 0. -1.
        994   -1    0    0    0    0 -0.00000000000E+00 -0.00000000000E+00  0.11368683772E-12  0.17120000000E+03  0.17120000000E+03 0.  0.
         13    1    1    2    0    0  0.29216529644E+02 -0.20820551942E+01  0.10277342472E+03  0.10686593728E+03  0.10566000000E+00 0. -1.
        994    1    1    2    0    0 -0.16651383841E+02  0.99133785070E+01  0.53846046295E+01  0.17237742783E+03  0.17120000000E+03 0.  0.
        998    1    1    2    0    0 -0.12565145803E+02 -0.78313233128E+01  0.13918419669E+04  0.13919566349E+04  0.10000000000E+02 0. -1.
</event>
<event>
 5    1  0.1300052E-008  0.3803171E+03  0.7957747E-01  0.3449779E+00
         13   -1    0    0    0    0  0.00000000000E+00  0.00000000000E+00  0.14999999963E+04  0.15000000000E+04  0.10566000000E+00 0.  1.
        994   -1    0    0    0    0 -0.00000000000E+00 -0.00000000000E+00  0.11368683772E-12  0.17120000000E+03  0.17120000000E+03 0.  0.
         13    1    1    2    0    0 -0.12777279432E+02 -0.24060803352E+02  0.95141917249E+02  0.98965532937E+02  0.10566000000E+00 0.  1.
        994    1    1    2    0    0  0.42689107131E+01  0.93018759043E+01  0.43230425108E+01  0.17156012704E+03  0.17120000000E+03 0.  0.
        998    1    1    2    0    0  0.85083687188E+01  0.14758927448E+02  0.14005350365E+04  0.14006743400E+04  0.10000000000E+02 0.  1.
</event>
<event>
 5    1  0.1300052E-008  0.3813406E+03  0.7957747E-01  0.3445342E+00
         13   -1    0    0    0    0  0.00000000000E+00  0.00000000000E+00  0.14999999963E+04  0.15000000000E+04  0.10566000000E+00 0. -1.
        994   -1    0    0    0    0 -0.00000000000E+00 -0.00000000000E+00  0.11368683772E-12  0.17120000000E+03  0.17120000000E+03 0.  0.
         13    1    1    2    0    0 -0.15148860138E+02 -0.21711555781E+02  0.96160958730E+02  0.99738762605E+02  0.10566000000E+00 0. -1.
        994    1    1    2    0    0  0.12108269431E+02  0.20556008478E+02  0.53545222294E+01  0.17293718681E+03  0.17120000000E+03 0.  0.
        998    1    1    2    0    0  0.30405907071E+01  0.11555473026E+01  0.13984845153E+04  0.13985240506E+04  0.10000000000E+02 0. -1.
</event>
<event>
 5    1  0.1300052E-008  0.3795192E+03  0.7957747E-01  0.3453255E+00
         13   -1    0    0    0    0  0.00000000000E+00  0.00000000000E+00  0.14999999963E+04  0.15000000000E+04  0.10566000000E+00 0.  1.
        994   -1    0    0    0    0 -0.00000000000E+00 -0.00000000000E+00  0.11368683772E-12  0.17120000000E+03  0.17120000000E+03 0.  0.
         13    1    1    2    0    0 -0.17051062835E+02  0.25317030220E+02  0.11026466446E+03  0.11441152982E+03  0.10566000000E+00 0.  1.
        994    1    1    2    0    0  0.75022055930E+01 -0.59327936181E+01  0.46823955363E+01  0.17153088922E+03  0.17120000000E+03 0.  0.
        998    1    1    2    0    0  0.95488572424E+01 -0.19384236602E+02  0.13850529363E+04  0.13852575810E+04  0.10000000000E+02 0.  1.
</event>
<event>
 5    1  0.1300052E-008  0.3844859E+03  0.7957747E-01  0.3431856E+00
         13   -1    0    0    0    0  0.00000000000E+00  0.00000000000E+00  0.14999999963E+04  0.15000000000E+04  0.10566000000E+00 0.  1.
        994   -1    0    0    0    0 -0.00000000000E+00 -0.00000000000E+00  0.11368683772E-12  0.17120000000E+03  0.17120000000E+03 0.  0.
         13    1    1    2    0    0  0.26503149914E+01  0.14099248223E+02  0.49913404526E+02  0.51934305478E+02  0.10566000000E+00 0.  1.
        994    1    1    2    0    0 -0.18485017906E+02 -0.23005428710E+02  0.47598895422E+01  0.17379022465E+03  0.17120000000E+03 0.  0.
        998    1    1    2    0    0  0.15834702914E+02  0.89061804872E+01  0.14453267022E+04  0.14454754699E+04  0.10000000000E+02 0.  1.
</event>
<event>
 5    1  0.1300052E-008  0.3776165E+03  0.7957747E-01  0.3461603E+00
         13   -1    0    0    0    0  0.00000000000E+00  0.00000000000E+00  0.14999999963E+04  0.15000000000E+04  0.10566000000E+00 0. -1.
        994   -1    0    0    0    0 -0.00000000000E+00 -0.00000000000E+00  0.11368683772E-12  0.17120000000E+03  0.17120000000E+03 0.  0.
         13    1    1    2    0    0  0.10049017756E+02  0.14021630395E+02  0.26220330810E+02  0.31386394961E+02  0.10566000000E+00 0. -1.
        994    1    1    2    0    0 -0.99707769550E+01  0.26376922238E+01  0.56997087157E+01  0.17160507129E+03  0.17120000000E+03 0.  0.
        998    1    1    2    0    0 -0.78240801102E-01 -0.16659322619E+02  0.14680799568E+04  0.14682085337E+04  0.10000000000E+02 0. -1.
</event>
<event>
 5    1  0.1300052E-008  0.3780974E+03  0.7957747E-01  0.3459485E+00
         13   -1    0    0    0    0  0.00000000000E+00  0.00000000000E+00  0.14999999963E+04  0.15000000000E+04  0.10566000000E+00 0.  1.
        994   -1    0    0    0    0 -0.00000000000E+00 -0.00000000000E+00  0.11368683772E-12  0.17120000000E+03  0.17120000000E+03 0.  0.
         13    1    1    2    0    0  0.46827996690E+02  0.58273459665E+02  0.37046094688E+03  0.37792854047E+03  0.10566000000E+00 0.  1.
        994    1    1    2    0    0 -0.58375018423E+02 -0.62467003784E+02  0.30095226765E+02  0.19371353079E+03  0.17120000000E+03 0.  0.
        998    1    1    2    0    0  0.11547021733E+02  0.41935441184E+01  0.10994438226E+04  0.10995579287E+04  0.10000000000E+02 0.  1.
</event>
<event>
 5    1  0.1300052E-008  0.3852718E+03  0.7957747E-01  0.3428520E+00
         13   -1    0    0    0    0  0.00000000000E+00  0.00000000000E+00  0.14999999963E+04  0.15000000000E+04  0.10566000000E+00 0.  1.
        994   -1    0    0    0    0 -0.00000000000E+00 -0.00000000000E+00  0.11368683772E-12  0.17120000000E+03  0.17120000000E+03 0.  0.
         13    1    1    2    0    0  0.78983558008E+01  0.72274102470E+01  0.40326724484E+02  0.41723798423E+02  0.10566000000E+00 0.  1.
        994    1    1    2    0    0  0.11535914067E+02 -0.92481972230E+01  0.22138676950E+01  0.17185152800E+03  0.17120000000E+03 0.  0.
        998    1    1    2    0    0 -0.19434269867E+02  0.20207869760E+01  0.14574594041E+04  0.14576246736E+04  0.10000000000E+02 0.  1.
</event>
<event>
 5    1  0.1300052E-008  0.3806189E+03  0.7957747E-01  0.3448468E+00
         13   -1    0    0    0    0  0.00000000000E+00  0.00000000000E+00  0.14999999963E+04  0.15000000000E+04  0.10566000000E+00 0.  1.
        994   -1    0    0    0    0 -0.00000000000E+00 -0.00000000000E+00  0.11368683772E-12  0.17120000000E+03  0.17120000000E+03 0.  0.
         13    1    1    2    0    0  0.18519798408E+02  0.10676454526E+02  0.54111592417E+02  0.58181141380E+02  0.10566000000E+00 0.  1.
        994    1    1    2    0    0 -0.36155872457E+02 -0.34681154817E+01  0.82348028898E+01  0.17520424343E+03  0.17120000000E+03 0.  0.
        998    1    1    2    0    0  0.17636074049E+02 -0.72083390442E+01  0.14376536010E+04  0.14378146152E+04  0.10000000000E+02 0.  1.
</event>
<event>
 5    1  0.1300052E-008  0.3834344E+03  0.7957747E-01  0.3436339E+00
         13   -1    0    0    0    0  0.00000000000E+00  0.00000000000E+00  0.14999999963E+04  0.15000000000E+04  0.10566000000E+00 0. -1.
        994   -1    0    0    0    0 -0.00000000000E+00 -0.00000000000E+00  0.11368683772E-12  0.17120000000E+03  0.17120000000E+03 0.  0.
         13    1    1    2    0    0 -0.12267866926E+02 -0.65383232068E+01  0.40412431778E+02  0.42736705951E+02  0.10566000000E+00 0. -1.
        994    1    1    2    0    0  0.99835133685E+00  0.53824354893E+01  0.25084893905E+01  0.17130586632E+03  0.17120000000E+03 0.  0.
        998    1    1    2    0    0  0.11269515589E+02  0.11558877175E+01  0.14570790751E+04  0.14571574277E+04  0.10000000000E+02 0. -1.
</event>
<event>
 5    1  0.1300052E-008  0.3715954E+03  0.7957747E-01  0.3488591E+00
         13   -1    0    0    0    0  0.00000000000E+00  0.00000000000E+00  0.14999999963E+04  0.15000000000E+04  0.10566000000E+00 0. -1.
        994   -1    0    0    0    0 -0.00000000000E+00 -0.00000000000E+00  0.11368683772E-12  0.17120000000E+03  0.17120000000E+03 0.  0.
         13    1    1    2    0    0 -0.27238604300E+02 -0.12602435639E+02  0.53306862973E+02  0.61175123640E+02  0.10566000000E+00 0. -1.
        994    1    1    2    0    0 -0.38639586120E+01  0.67683137134E+01  0.86464413429E+01  0.17159528314E+03  0.17120000000E+03 0.  0.
        998    1    1    2    0    0  0.31102562912E+02  0.58341219260E+01  0.14380466920E+04  0.14384295932E+04  0.10000000000E+02 0. -1.
</event>
<event>
 5    1  0.1300052E-008  0.3840893E+03  0.7957747E-01  0.3433544E+00
         13   -1    0    0    0    0  0.00000000000E+00  0.00000000000E+00  0.14999999963E+04  0.15000000000E+04  0.10566000000E+00 0. -1.
        994   -1    0    0    0    0 -0.00000000000E+00 -0.00000000000E+00  0.11368683772E-12  0.17120000000E+03  0.17120000000E+03 0.  0.
         13    1    1    2    0    0  0.51592669064E+01  0.12209973656E+02  0.43379908182E+02  0.45359994374E+02  0.10566000000E+00 0. -1.
        994    1    1    2    0    0  0.85258069139E+01 -0.42101474508E+01  0.23812475421E+01  0.17148039265E+03  0.17120000000E+03 0.  0.
        998    1    1    2    0    0 -0.13685073820E+02 -0.79998262057E+01  0.14542388406E+04  0.14543596130E+04  0.10000000000E+02 0. -1.
</event>
<event>
 5    1  0.1300052E-008  0.3829168E+03  0.7957747E-01  0.3438556E+00
         13   -1    0    0    0    0  0.00000000000E+00  0.00000000000E+00  0.14999999963E+04  0.15000000000E+04  0.10566000000E+00 0. -1.
        994   -1    0    0    0    0 -0.00000000000E+00 -0.00000000000E+00  0.11368683772E-12  0.17120000000E+03  0.17120000000E+03 0.  0.
         13    1    1    2    0    0 -0.69928558703E+01 -0.11711346648E+02  0.34035355377E+02  0.36667045875E+02  0.10566000000E+00 0. -1.
        994    1    1    2    0    0  0.26051932424E+02 -0.50534760986E+01  0.50031955845E+01  0.17331679887E+03  0.17120000000E+03 0.  0.
        998    1    1    2    0    0 -0.19059076554E+02  0.16764822747E+02  0.14609614453E+04  0.14612161553E+04  0.10000000000E+02 0. -1.
</event>
<event>
 5    1  0.1300052E-008  0.3859786E+03  0.7957747E-01  0.3425533E+00
         13   -1    0    0    0    0  0.00000000000E+00  0.00000000000E+00  0.14999999963E+04  0.15000000000E+04  0.10566000000E+00 0.  1.
        994   -1    0    0    0    0 -0.00000000000E+00 -0.00000000000E+00  0.11368683772E-12  0.17120000000E+03  0.17120000000E+03 0.  0.
         13    1    1    2    0    0 -0.52593212223E+00 -0.12506820025E+02  0.70655602146E+02  0.71755992296E+02  0.10566000000E+00 0.  1.
        994    1    1    2    0    0  0.40615533239E+01  0.55022037414E+01  0.12984152088E+01  0.17134146125E+03  0.17120000000E+03 0.  0.
        998    1    1    2    0    0 -0.35356212016E+01  0.70046162832E+01  0.14280459789E+04  0.14281025465E+04  0.10000000000E+02 0.  1.
</event>
<event>
 5    1  0.1300052E-008  0.3847209E+03  0.7957747E-01  0.3430857E+00
         13   -1    0    0    0    0  0.00000000000E+00  0.00000000000E+00  0.14999999963E+04  0.15000000000E+04  0.10566000000E+00 0.  1.
        994   -1    0    0    0    0 -0.00000000000E+00 -0.00000000000E+00  0.11368683772E-12  0.17120000000E+03  0.17120000000E+03 0.  0.
         13    1    1    2    0    0  0.10164934833E+02 -0.12500332411E+02  0.80748295806E+02  0.82340042812E+02  0.10566000000E+00 0.  1.
        994    1    1    2    0    0  0.75098585161E+01  0.15553527842E+01  0.19624088117E+01  0.17138292840E+03  0.17120000000E+03 0.  0.
        998    1    1    2    0    0 -0.17674793349E+02  0.10944979627E+02  0.14172892917E+04  0.14174770288E+04  0.10000000000E+02 0.  1.
</event>
<event>
 5    1  0.1300052E-008  0.3829812E+03  0.7957747E-01  0.3438279E+00
         13   -1    0    0    0    0  0.00000000000E+00  0.00000000000E+00  0.14999999963E+04  0.15000000000E+04  0.10566000000E+00 0.  1.
        994   -1    0    0    0    0 -0.00000000000E+00 -0.00000000000E+00  0.11368683772E-12  0.17120000000E+03  0.17120000000E+03 0.  0.
         13    1    1    2    0    0  0.15387066731E+02 -0.75350970397E+01  0.57184556277E+02  0.59696098287E+02  0.10566000000E+00 0.  1.
        994    1    1    2    0    0 -0.35067256036E+01 -0.88984022254E+00  0.26790787014E+01  0.17125917903E+03  0.17120000000E+03 0.  0.
        998    1    1    2    0    0 -0.11880341127E+02  0.84249372623E+01  0.14401363613E+04  0.14402447227E+04  0.10000000000E+02 0.  1.
</event>
<event>
 5    1  0.1300052E-008  0.3830355E+03  0.7957747E-01  0.3438047E+00
         13   -1    0    0    0    0  0.00000000000E+00  0.00000000000E+00  0.14999999963E+04  0.15000000000E+04  0.10566000000E+00 0.  1.
        994   -1    0    0    0    0 -0.00000000000E+00 -0.00000000000E+00  0.11368683772E-12  0.17120000000E+03  0.17120000000E+03 0.  0.
         13    1    1    2    0    0 -0.22042626661E+02 -0.17658632198E+02  0.14784077289E+03  0.15051448427E+03  0.10566000000E+00 0.  1.
        994    1    1    2    0    0  0.62688397488E+01  0.25767104491E+02  0.49396510996E+01  0.17331209473E+03  0.17120000000E+03 0.  0.
        998    1    1    2    0    0  0.15773786913E+02 -0.81084722930E+01  0.13472195723E+04  0.13473734210E+04  0.10000000000E+02 0.  1.
</event>
<event>
 5    1  0.1300052E-008  0.2356734E+03  0.7957747E-01  0.4498783E+00
         13   -1    0    0    0    0  0.00000000000E+00  0.00000000000E+00  0.14999999963E+04  0.15000000000E+04  0.10566000000E+00 0.  1.
        994   -1    0    0    0    0 -0.00000000000E+00 -0.00000000000E+00  0.11368683772E-12  0.17120000000E+03  0.17120000000E+03 0.  0.
         13    1    1    2    0    0  0.13237209865E+03  0.10031101379E+03  0.18101656617E+03  0.24566579000E+03  0.10566000000E+00 0.  1.
        994    1    1    2    0    0 -0.13739925035E+03 -0.72650762845E+02  0.19875743014E+03  0.30491087776E+03  0.17120000000E+03 0.  0.
        998    1    1    2    0    0  0.50271517069E+01 -0.27660250945E+02  0.11202260000E+04  0.11206233322E+04  0.10000000000E+02 0.  1.
</event>
<event>
 5    1  0.1300052E-008  0.3842546E+03  0.7957747E-01  0.3432840E+00
         13   -1    0    0    0    0  0.00000000000E+00  0.00000000000E+00  0.14999999963E+04  0.15000000000E+04  0.10566000000E+00 0. -1.
        994   -1    0    0    0    0 -0.00000000000E+00 -0.00000000000E+00  0.11368683772E-12  0.17120000000E+03  0.17120000000E+03 0.  0.
         13    1    1    2    0    0  0.18718087078E+02  0.22134014083E+01  0.91653228094E+02  0.93571316726E+02  0.10566000000E+00 0. -1.
        994    1    1    2    0    0 -0.75725396146E+01  0.52701134302E+01  0.22813180209E+01  0.17146358757E+03  0.17120000000E+03 0.  0.
        998    1    1    2    0    0 -0.11145547464E+02 -0.74835148386E+01  0.14060654502E+04  0.14061650957E+04  0.10000000000E+02 0. -1.
</event>
<event>
 5    1  0.1300052E-008  0.3772607E+03  0.7957747E-01  0.3463173E+00
         13   -1    0    0    0    0  0.00000000000E+00  0.00000000000E+00  0.14999999963E+04  0.15000000000E+04  0.10566000000E+00 0. -1.
        994   -1    0    0    0    0 -0.00000000000E+00 -0.00000000000E+00  0.11368683772E-12  0.17120000000E+03  0.17120000000E+03 0.  0.
         13    1    1    2    0    0 -0.13081482189E+02  0.71342886869E+02  0.27758791521E+03  0.28690764109E+03  0.10566000000E+00 0. -1.
        994    1    1    2    0    0 -0.45069661561E+02  0.33549978281E+02  0.26244184403E+02  0.18208534442E+03  0.17120000000E+03 0.  0.
        998    1    1    2    0    0  0.58151143749E+02 -0.10489286515E+03  0.11961678967E+04  0.12022070145E+04  0.10000000000E+02 0. -1.
</event>
<event>
 5    1  0.1300052E-008  0.3730807E+03  0.7957747E-01  0.3481851E+00
         13   -1    0    0    0    0  0.00000000000E+00  0.00000000000E+00  0.14999999963E+04  0.15000000000E+04  0.10566000000E+00 0. -1.
        994   -1    0    0    0    0 -0.00000000000E+00 -0.00000000000E+00  0.11368683772E-12  0.17120000000E+03  0.17120000000E+03 0.  0.
         13    1    1    2    0    0  0.21390308402E+00  0.58303470837E+02  0.12155145839E+03  0.13481138181E+03  0.10566000000E+00 0. -1.
        994    1    1    2    0    0 -0.32504219832E+01 -0.56897996474E+02  0.24146076941E+02  0.18204510506E+03  0.17120000000E+03 0.  0.
        998    1    1    2    0    0  0.30365188992E+01 -0.14054743635E+01  0.13543024609E+04  0.13543435131E+04  0.10000000000E+02 0. -1.
</event>
<event>
 5    1  0.1300052E-008  0.3848624E+03  0.7957747E-01  0.3430256E+00
         13   -1    0    0    0    0  0.00000000000E+00  0.00000000000E+00  0.14999999963E+04  0.15000000000E+04  0.10566000000E+00 0. -1.
        994   -1    0    0    0    0 -0.00000000000E+00 -0.00000000000E+00  0.11368683772E-12  0.17120000000E+03  0.17120000000E+03 0.  0.
         13    1    1    2    0    0 -0.22417494191E+00  0.17391971159E+02  0.85020032894E+02  0.86781035212E+02  0.10566000000E+00 0. -1.
        994    1    1    2    0    0 -0.76303517983E+00 -0.17774728535E+02  0.27405591103E+01  0.17214375929E+03  0.17120000000E+03 0.  0.
        998    1    1    2    0    0  0.98721012174E+00  0.38275737607E+00  0.14122394043E+04  0.14122752055E+04  0.10000000000E+02 0.  0.
</event>
<event>
 5    1  0.1300052E-008  0.3820241E+03  0.7957747E-01  0.3442392E+00
         13   -1    0    0    0    0  0.00000000000E+00  0.00000000000E+00  0.14999999963E+04  0.15000000000E+04  0.10566000000E+00 0. -1.
        994   -1    0    0    0    0 -0.00000000000E+00 -0.00000000000E+00  0.11368683772E-12  0.17120000000E+03  0.17120000000E+03 0.  0.
         13    1    1    2    0    0  0.29216721279E+02 -0.13380586743E+02  0.15598243861E+03  0.15925824695E+03  0.10566000000E+00 0. -1.
        994    1    1    2    0    0 -0.21791272365E+02  0.16087907769E+02  0.55550012635E+01  0.17341850641E+03  0.17120000000E+03 0.  0.
        998    1    1    2    0    0 -0.74254489134E+01 -0.27073210259E+01  0.13384625564E+04  0.13385232466E+04  0.10000000000E+02 0. -1.
</event>
<event>
 5    1  0.1582763E-008  0.3858836E+03  0.7957747E-01  0.3425933E+00
         13   -1    0    0    0    0  0.00000000000E+00  0.00000000000E+00  0.14999999963E+04  0.15000000000E+04  0.10566000000E+00 0.  1.
        994   -1    0    0    0    0 -0.00000000000E+00 -0.00000000000E+00  0.11368683772E-12  0.17120000000E+03  0.17120000000E+03 0.  0.
         13    1    1    2    0    0  0.10248561580E+02  0.64747422856E+01  0.59730828633E+02  0.60948653433E+02  0.10566000000E+00 0.  1.
        994    1    1    2    0    0 -0.10865057802E+02 -0.90214226571E+01  0.18463659614E+01  0.17179139855E+03  0.17120000000E+03 0.  0.
        998    1    1    2    0    0  0.61649622142E+00  0.25466803715E+01  0.14384228017E+04  0.14384599480E+04  0.10000000000E+02 0.  1.
</event>
<event>
 5    1  0.1300052E-008  0.3831093E+03  0.7957747E-01  0.3437731E+00
         13   -1    0    0    0    0  0.00000000000E+00  0.00000000000E+00  0.14999999963E+04  0.15000000000E+04  0.10566000000E+00 0. -1.
        994   -1    0    0    0    0 -0.00000000000E+00 -0.00000000000E+00  0.11368683772E-12  0.17120000000E+03  0.17120000000E+03 0.  0.
         13    1    1    2    0    0 -0.14547804925E+02  0.67130183574E+01  0.51435852461E+02  0.53873567972E+02  0.10566000000E+00 0. -1.
        994    1    1    2    0    0 -0.28281857638E+01 -0.80959591503E+01  0.28151365039E+01  0.17143776767E+03  0.17120000000E+03 0.  0.
        998    1    1    2    0    0  0.17375990689E+02  0.13829407929E+01  0.14457490073E+04  0.14458886644E+04  0.10000000000E+02 0. -1.
</event>
<event>
 5    1  0.1835761E-008  0.3862881E+03  0.7957747E-01  0.3424227E+00
         13   -1    0    0    0    0  0.00000000000E+00  0.00000000000E+00  0.14999999963E+04  0.15000000000E+04  0.10566000000E+00 0. -1.
        994   -1    0    0    0    0 -0.00000000000E+00 -0.00000000000E+00  0.11368683772E-12  0.17120000000E+03  0.17120000000E+03 0.  0.
         13    1    1    2    0    0 -0.87710010924E+00  0.11365571430E+02  0.63984223797E+02  0.64991827005E+02  0.10566000000E+00 0. -1.
        994    1    1    2    0    0 -0.50554425938E+00 -0.12759278597E+02  0.15261321180E+01  0.17168233411E+03  0.17120000000E+03 0.  0.
        998    1    1    2    0    0  0.13826443686E+01  0.13937071669E+01  0.14344896404E+04  0.14345258389E+04  0.10000000000E+02 0. -1.
</event>
<event>
 5    1  0.1300052E-008  0.3811455E+03  0.7957747E-01  0.3446186E+00
         13   -1    0    0    0    0  0.00000000000E+00  0.00000000000E+00  0.14999999963E+04  0.15000000000E+04  0.10566000000E+00 0.  1.
        994   -1    0    0    0    0 -0.00000000000E+00 -0.00000000000E+00  0.11368683772E-12  0.17120000000E+03  0.17120000000E+03 0.  0.
         13    1    1    2    0    0  0.88541382102E+01 -0.13421372129E+02  0.31000541646E+02  0.34922395961E+02  0.10566000000E+00 0.  1.
        994    1    1    2    0    0 -0.32122048557E+02  0.35937419247E+02  0.11332389499E+02  0.17821668597E+03  0.17120000000E+03 0.  0.
        998    1    1    2    0    0  0.23267910347E+02 -0.22516047118E+02  0.14576670651E+04  0.14580609181E+04  0.10000000000E+02 0.  1.
</event>
<event>
 5    1  0.1300052E-008  0.3859975E+03  0.7957747E-01  0.3425453E+00
         13   -1    0    0    0    0  0.00000000000E+00  0.00000000000E+00  0.14999999963E+04  0.15000000000E+04  0.10566000000E+00 0. -1.
        994   -1    0    0    0    0 -0.00000000000E+00 -0.00000000000E+00  0.11368683772E-12  0.17120000000E+03  0.17120000000E+03 0.  0.
         13    1    1    2    0    0 -0.79566949021E+01  0.71195845382E+01  0.51316666599E+02  0.52415731538E+02  0.10566000000E+00 0. -1.
        994    1    1    2    0    0  0.10188429350E+02  0.28199180240E+01  0.15021203234E+01  0.17153265694E+03  0.17120000000E+03 0.  0.
        998    1    1    2    0    0 -0.22317344478E+01 -0.99395025622E+01  0.14471812094E+04  0.14472516115E+04  0.10000000000E+02 0. -1.
</event>
<event>
 5    1  0.1300052E-008  0.3714179E+03  0.7957747E-01  0.3489400E+00
         13   -1    0    0    0    0  0.00000000000E+00  0.00000000000E+00  0.14999999963E+04  0.15000000000E+04  0.10566000000E+00 0. -1.
        994   -1    0    0    0    0 -0.00000000000E+00 -0.00000000000E+00  0.11368683772E-12  0.17120000000E+03  0.17120000000E+03 0.  0.
         13    1    1    2    0    0 -0.94376261437E+01  0.10086976481E+03  0.40065808351E+03  0.41326830181E+03  0.10566000000E+00 0. -1.
        994    1    1    2    0    0  0.95607052454E+01 -0.10939419967E+03  0.51238420546E+02  0.20974583129E+03  0.17120000000E+03 0.  0.
        998    1    1    2    0    0 -0.12307910168E+00  0.85244348604E+01  0.10481034922E+04  0.10481858669E+04  0.10000000000E+02 0. -1.
</event>
<event>
 5    1  0.1300052E-008  0.3855513E+03  0.7957747E-01  0.3427338E+00
         13   -1    0    0    0    0  0.00000000000E+00  0.00000000000E+00  0.14999999963E+04  0.15000000000E+04  0.10566000000E+00 0.  1.
        994   -1    0    0    0    0 -0.00000000000E+00 -0.00000000000E+00  0.11368683772E-12  0.17120000000E+03  0.17120000000E+03 0.  0.
         13    1    1    2    0    0  0.69178739233E+01  0.12219436412E+02  0.70108945049E+02  0.71501377230E+02  0.10566000000E+00 0.  1.
        994    1    1    2    0    0 -0.38554071391E+01 -0.15173605622E+02  0.21617263113E+01  0.17192793703E+03  0.17120000000E+03 0.  0.
        998    1    1    2    0    0 -0.30624667842E+01  0.29541692101E+01  0.14277293249E+04  0.14277706857E+04  0.10000000000E+02 0.  1.
</event>
<event>
 5    1  0.1300052E-008  0.3818968E+03  0.7957747E-01  0.3442941E+00
         13   -1    0    0    0    0  0.00000000000E+00  0.00000000000E+00  0.14999999963E+04  0.15000000000E+04  0.10566000000E+00 0. -1.
        994   -1    0    0    0    0 -0.00000000000E+00 -0.00000000000E+00  0.11368683772E-12  0.17120000000E+03  0.17120000000E+03 0.  0.
         13    1    1    2    0    0 -0.42884896823E+01 -0.18903544716E+02  0.59933349359E+02  0.62990099826E+02  0.10566000000E+00 0. -1.
        994    1    1    2    0    0  0.19617727835E+00  0.55298576620E+01  0.32804195649E+01  0.17132080715E+03  0.17120000000E+03 0.  0.
        998    1    1    2    0    0  0.40923124040E+01  0.13373687054E+02  0.14367862274E+04  0.14368890930E+04  0.10000000000E+02 0. -1.
</event>
<event>
 5    1  0.1300052E-008  0.3709565E+03  0.7957747E-01  0.3491506E+00
         13   -1    0    0    0    0  0.00000000000E+00  0.00000000000E+00  0.14999999963E+04  0.15000000000E+04  0.10566000000E+00 0.  1.
        994   -1    0    0    0    0 -0.00000000000E+00 -0.00000000000E+00  0.11368683772E-12  0.17120000000E+03  0.17120000000E+03 0.  0.
         13    1    1    2    0    0  0.15028580450E+02 -0.68254113885E+02  0.31096091164E+03  0.31871802902E+03  0.10566000000E+00 0.  1.
        994    1    1    2    0    0  0.26432055614E+02 -0.13654215544E+02  0.14556404314E+02  0.17437436759E+03  0.17120000000E+03 0.  0.
        998    1    1    2    0    0 -0.41460636063E+02  0.81908329428E+02  0.11744826803E+04  0.11781076034E+04  0.10000000000E+02 0.  1.
</event>
<event>
 5    1  0.1300052E-008  0.3839437E+03  0.7957747E-01  0.3434164E+00
         13   -1    0    0    0    0  0.00000000000E+00  0.00000000000E+00  0.14999999963E+04  0.15000000000E+04  0.10566000000E+00 0. -1.
        994   -1    0    0    0    0 -0.00000000000E+00 -0.00000000000E+00  0.11368683772E-12  0.17120000000E+03  0.17120000000E+03 0.  0.
         13    1    1    2    0    0  0.94578913660E+01 -0.86839218631E+01  0.38579873064E+02  0.40660545713E+02  0.10566000000E+00 0. -1.
        994    1    1    2    0    0 -0.73085187415E+01 -0.29501818868E+01  0.23604802419E+01  0.17139757841E+03  0.17120000000E+03 0.  0.
        998    1    1    2    0    0 -0.21493726245E+01  0.11634103750E+02  0.14590596430E+04  0.14591418759E+04  0.10000000000E+02 0. -1.
</event>
<event>
 5    1  0.1300052E-008  0.3829483E+03  0.7957747E-01  0.3438420E+00
         13   -1    0    0    0    0  0.00000000000E+00  0.00000000000E+00  0.14999999963E+04  0.15000000000E+04  0.10566000000E+00 0. -1.
        994   -1    0    0    0    0 -0.00000000000E+00 -0.00000000000E+00  0.11368683772E-12  0.17120000000E+03  0.17120000000E+03 0.  0.
         13    1    1    2    0    0 -0.64926040339E+01  0.15962161898E+02  0.57490852926E+02  0.60017946098E+02  0.10566000000E+00 0. -1.
        994    1    1    2    0    0  0.14508440054E+02  0.27356691862E+01  0.33741755280E+01  0.17186856542E+03  0.17120000000E+03 0.  0.
        998    1    1    2    0    0 -0.80158360202E+01 -0.18697831084E+02  0.14391349678E+04  0.14393134885E+04  0.10000000000E+02 0. -1.
</event>
<event>
 5    1  0.1300052E-008  0.3783040E+03  0.7957747E-01  0.3458577E+00
         13   -1    0    0    0    0  0.00000000000E+00  0.00000000000E+00  0.14999999963E+04  0.15000000000E+04  0.10566000000E+00 0. -1.
        994   -1    0    0    0    0 -0.00000000000E+00 -0.00000000000E+00  0.11368683772E-12  0.17120000000E+03  0.17120000000E+03 0.  0.
         13    1    1    2    0    0 -0.42532082247E+02  0.61331251391E+02  0.43529158620E+03  0.44164383456E+03  0.10566000000E+00 0. -1.
        994    1    1    2    0    0  0.36229198851E+02 -0.55247533118E+02  0.19808359693E+02  0.18457154677E+03  0.17120000000E+03 0.  0.
        998    1    1    2    0    0  0.63028833955E+01 -0.60837182721E+01  0.10449000504E+04  0.10449846187E+04  0.10000000000E+02 0. -1.
</event>
<event>
 5    1  0.1300052E-008  0.3843617E+03  0.7957747E-01  0.3432384E+00
         13   -1    0    0    0    0  0.00000000000E+00  0.00000000000E+00  0.14999999963E+04  0.15000000000E+04  0.10566000000E+00 0.  1.
        994   -1    0    0    0    0 -0.00000000000E+00 -0.00000000000E+00  0.11368683772E-12  0.17120000000E+03  0.17120000000E+03 0.  0.
         13    1    1    2    0    0 -0.10536024692E+02  0.88783405458E+01  0.51232581825E+02  0.53053005114E+02  0.10566000000E+00 0.  1.
        994    1    1    2    0    0 -0.38729177629E+01 -0.20631555671E+01  0.20108132721E+01  0.17126803401E+03  0.17120000000E+03 0.  0.
        998    1    1    2    0    0  0.14408942455E+02 -0.68151849788E+01  0.14467566012E+04  0.14468789609E+04  0.10000000000E+02 0.  1.
</event>
<event>
 5    1  0.1300052E-008  0.3809532E+03  0.7957747E-01  0.3447019E+00
         13   -1    0    0    0    0  0.00000000000E+00  0.00000000000E+00  0.14999999963E+04  0.15000000000E+04  0.10566000000E+00 0.  1.
        994   -1    0    0    0    0 -0.00000000000E+00 -0.00000000000E+00  0.11368683772E-12  0.17120000000E+03  0.17120000000E+03 0.  0.
         13    1    1    2    0    0  0.30770688145E+02  0.33593127313E+01  0.14598315321E+03  0.14922872518E+03  0.10566000000E+00 0.  1.
        994    1    1    2    0    0 -0.25522845723E+01  0.12102647120E+02  0.41627481100E+01  0.17169669972E+03  0.17120000000E+03 0.  0.
        998    1    1    2    0    0 -0.28218403572E+02 -0.15461959851E+02  0.13498540950E+04  0.13502745751E+04  0.10000000000E+02 0.  1.
</event>
<event>
 5    1  0.1300052E-008  0.3846181E+03  0.7957747E-01  0.3431294E+00
         13   -1    0    0    0    0  0.00000000000E+00  0.00000000000E+00  0.14999999963E+04  0.15000000000E+04  0.10566000000E+00 0.  1.
        994   -1    0    0    0    0 -0.00000000000E+00 -0.00000000000E+00  0.11368683772E-12  0.17120000000E+03  0.17120000000E+03 0.  0.
         13    1    1    2    0    0 -0.23740354209E+01 -0.14471350058E+02  0.56717121420E+02  0.58582412403E+02  0.10566000000E+00 0.  1.
        994    1    1    2    0    0  0.20374450220E+01  0.16292173958E+02  0.27080444455E+01  0.17200685922E+03  0.17120000000E+03 0.  0.
        998    1    1    2    0    0  0.33659039896E+00 -0.18208239001E+01  0.14405748304E+04  0.14406107284E+04  0.10000000000E+02 0.  1.
</event>
<event>
 5    1  0.1300052E-008  0.3768746E+03  0.7957747E-01  0.3464881E+00
         13   -1    0    0    0    0  0.00000000000E+00  0.00000000000E+00  0.14999999963E+04  0.15000000000E+04  0.10566000000E+00 0.  1.
        994   -1    0    0    0    0 -0.00000000000E+00 -0.00000000000E+00  0.11368683772E-12  0.17120000000E+03  0.17120000000E+03 0.  0.
         13    1    1    2    0    0 -0.81755509513E+02 -0.82952148290E+02  0.61054517946E+03  0.62155486449E+03  0.10566000000E+00 0.  1.
        994    1    1    2    0    0  0.80035087507E+02  0.94995912453E+02  0.59754102375E+02  0.21979497575E+03  0.17120000000E+03 0.  0.
        998    1    1    2    0    0  0.17204220067E+01 -0.12043764163E+02  0.82970071444E+03  0.82985015976E+03  0.10000000000E+02 0.  1.
</event>
<event>
 5    1  0.1300052E-008  0.3789878E+03  0.7957747E-01  0.3455578E+00
         13   -1    0    0    0    0  0.00000000000E+00  0.00000000000E+00  0.14999999963E+04  0.15000000000E+04  0.10566000000E+00 0.  1.
        994   -1    0    0    0    0 -0.00000000000E+00 -0.00000000000E+00  0.11368683772E-12  0.17120000000E+03  0.17120000000E+03 0.  0.
         13    1    1    2    0    0  0.65534796940E+00 -0.17467650275E+02  0.30838608509E+02  0.35448261253E+02  0.10566000000E+00 0.  1.
        994    1    1    2    0    0 -0.93611012859E+01  0.13526729540E+02  0.55531283202E+01  0.17207812140E+03  0.17120000000E+03 0.  0.
        998    1    1    2    0    0  0.87057533165E+01  0.39409207350E+01  0.14636082594E+04  0.14636736173E+04  0.10000000000E+02 0.  1.
</event>
<event>
 5    1  0.1300052E-008  0.3853012E+03  0.7957747E-01  0.3428396E+00
         13   -1    0    0    0    0  0.00000000000E+00  0.00000000000E+00  0.14999999963E+04  0.15000000000E+04  0.10566000000E+00 0.  1.
        994   -1    0    0    0    0 -0.00000000000E+00 -0.00000000000E+00  0.11368683772E-12  0.17120000000E+03  0.17120000000E+03 0.  0.
         13    1    1    2    0    0  0.13408804698E+02  0.66627551769E+01  0.81379054422E+02  0.82745090565E+02  0.10566000000E+00 0.  1.
        994    1    1    2    0    0  0.24855157949E+01 -0.64743786110E+01  0.16387132839E+01  0.17134824408E+03  0.17120000000E+03 0.  0.
        998    1    1    2    0    0 -0.15894320493E+02 -0.18837656584E+00  0.14169822286E+04  0.14171066654E+04  0.10000000000E+02 0.  1.
</event>
<event>
 5    1  0.1300052E-008  0.3848832E+03  0.7957747E-01  0.3430168E+00
         13   -1    0    0    0    0  0.00000000000E+00  0.00000000000E+00  0.14999999963E+04  0.15000000000E+04  0.10566000000E+00 0.  1.
        994   -1    0    0    0    0 -0.00000000000E+00 -0.00000000000E+00  0.11368683772E-12  0.17120000000E+03  0.17120000000E+03 0.  0.
         13    1    1    2    0    0 -0.48836679758E+01  0.11483025458E+02  0.42723932585E+02  0.44509051508E+02  0.10566000000E+00 0.  1.
        994    1    1    2    0    0  0.21515743971E+02 -0.15900853879E+02  0.40464718131E+01  0.17332506549E+03  0.17120000000E+03 0.  0.
        998    1    1    2    0    0 -0.16632075995E+02  0.44178284215E+01  0.14532295919E+04  0.14533658830E+04  0.10000000000E+02 0.  1.
</event>
<event>
 5    1  0.1300052E-008  0.3721765E+03  0.7957747E-01  0.3485948E+00
         13   -1    0    0    0    0  0.00000000000E+00  0.00000000000E+00  0.14999999963E+04  0.15000000000E+04  0.10566000000E+00 0.  1.
        994   -1    0    0    0    0 -0.00000000000E+00 -0.00000000000E+00  0.11368683772E-12  0.17120000000E+03  0.17120000000E+03 0.  0.
         13    1    1    2    0    0 -0.18597393910E+02 -0.17143013656E+02  0.36081963240E+02  0.44064330390E+02  0.10566000000E+00 0.  1.
        994    1    1    2    0    0  0.60818594901E+01  0.18096036039E+02  0.93876260728E+01  0.17251673269E+03  0.17120000000E+03 0.  0.
        998    1    1    2    0    0  0.12515534420E+02 -0.95302238265E+00  0.14545304070E+04  0.14546189369E+04  0.10000000000E+02 0.  1.
</event>
<event>
 5    1  0.1300052E-008  0.3686360E+03  0.7957747E-01  0.3502183E+00
         13   -1    0    0    0    0  0.00000000000E+00  0.00000000000E+00  0.14999999963E+04  0.15000000000E+04  0.10566000000E+00 0. -1.
        994   -1    0    0    0    0 -0.00000000000E+00 -0.00000000000E+00  0.11368683772E-12  0.17120000000E+03  0.17120000000E+03 0.  0.
         13    1    1    2    0    0 -0.32647607705E+01 -0.24634748797E+02  0.27520337893E+02  0.37079774446E+02  0.10566000000E+00 0. -1.
        994    1    1    2    0    0  0.17409715233E+02  0.40701286585E+01  0.11095046987E+02  0.17248827264E+03  0.17120000000E+03 0.  0.
        998    1    1    2    0    0 -0.14144954463E+02  0.20564620138E+02  0.14613846114E+04  0.14616319529E+04  0.10000000000E+02 0. -1.
</event>
<event>
 5    1  0.1300052E-008  0.3848583E+03  0.7957747E-01  0.3430274E+00
         13   -1    0    0    0    0  0.00000000000E+00  0.00000000000E+00  0.14999999963E+04  0.15000000000E+04  0.10566000000E+00 0.  1.
        994   -1    0    0    0    0 -0.00000000000E+00 -0.00000000000E+00  0.11368683772E-12  0.17120000000E+03  0.17120000000E+03 0.  0.
         13    1    1    2    0    0 -0.70013349394E+01 -0.10112785970E+02  0.47782067148E+02  0.49339884840E+02  0.10566000000E+00 0.  1.
        994    1    1    2    0    0 -0.61607928450E+01 -0.25200149954E+01  0.18463166216E+01  0.17133929710E+03  0.17120000000E+03 0.  0.
        998    1    1    2    0    0  0.13162127784E+02  0.12632800966E+02  0.14503716125E+04  0.14505208181E+04  0.10000000000E+02 0.  1.
</event>
<event>
 5    1  0.1300052E-008  0.3769578E+03  0.7957747E-01  0.3464513E+00
         13   -1    0    0    0    0  0.00000000000E+00  0.00000000000E+00  0.14999999963E+04  0.15000000000E+04  0.10566000000E+00 0. -1.
        994   -1    0    0    0    0 -0.00000000000E+00 -0.00000000000E+00  0.11368683772E-12  0.17120000000E+03  0.17120000000E+03 0.  0.
         13    1    1    2    0    0 -0.36399679845E+02 -0.10016018852E+03  0.30754797960E+03  0.32548851128E+03  0.10566000000E+00 0. -1.
        994    1    1    2    0    0  0.31524463006E+02  0.97479326348E+02  0.53310663537E+02  0.20651265743E+03  0.17120000000E+03 0.  0.
        998    1    1    2    0    0  0.48752168397E+01  0.26808621718E+01  0.11391413531E+04  0.11391988313E+04  0.10000000000E+02 0. -1.
</event>
<event>
 5    1  0.1300052E-008  0.3845963E+03  0.7957747E-01  0.3431386E+00
         13   -1    0    0    0    0  0.00000000000E+00  0.00000000000E+00  0.14999999963E+04  0.15000000000E+04  0.10566000000E+00 0.  1.
        994   -1    0    0    0    0 -0.00000000000E+00 -0.00000000000E+00  0.11368683772E-12  0.17120000000E+03  0.17120000000E+03 0.  0.
         13    1    1    2    0    0  0.14941480201E+02  0.26104971353E+01  0.68803247171E+02  0.70455379576E+02  0.10566000000E+00 0.  1.
        994    1    1    2    0    0  0.48329529268E+01  0.13590082921E+01  0.19136899440E+01  0.17128428576E+03  0.17120000000E+03 0.  0.
        998    1    1    2    0    0 -0.19774433128E+02 -0.39695054274E+01  0.14292830592E+04  0.14294603347E+04  0.10000000000E+02 0.  1.
</event>
<event>
 5    1  0.1300052E-008  0.4088154E+03  0.7957747E-01  0.3334549E+00
         13   -1    0    0    0    0  0.00000000000E+00  0.00000000000E+00  0.14999999963E+04  0.15000000000E+04  0.10566000000E+00 0. -1.
        994   -1    0    0    0    0 -0.00000000000E+00 -0.00000000000E+00  0.11368683772E-12  0.17120000000E+03  0.17120000000E+03 0.  0.
         13    1    1    2    0    0  0.44472468454E+02 -0.10372722119E+02  0.18672153676E+02  0.49336135859E+02  0.10566000000E+00 0. -1.
        994    1    1    2    0    0 -0.38596562239E+02  0.17338359777E+02  0.40460691036E+02  0.18093319445E+03  0.17120000000E+03 0.  0.
        998    1    1    2    0    0 -0.58759062144E+01 -0.69656376575E+01  0.14408671516E+04  0.14409306697E+04  0.10000000000E+02 0. -1.
</event>
<event>
 5    1  0.1300052E-008  0.3768802E+03  0.7957747E-01  0.3464856E+00
         13   -1    0    0    0    0  0.00000000000E+00  0.00000000000E+00  0.14999999963E+04  0.15000000000E+04  0.10566000000E+00 0. -1.
        994   -1    0    0    0    0 -0.00000000000E+00 -0.00000000000E+00  0.11368683772E-12  0.17120000000E+03  0.17120000000E+03 0.  0.
         13    1    1    2    0    0 -0.47180740188E+01  0.54712514213E+02  0.24937616536E+03  0.25535113559E+03  0.10566000000E+00 0. -1.
        994    1    1    2    0    0 -0.73648096629E+01 -0.39147153199E+02  0.11094808225E+02  0.17612289685E+03  0.17120000000E+03 0.  0.
        998    1    1    2    0    0  0.12082883682E+02 -0.15565361014E+02  0.12395290227E+04  0.12397259676E+04  0.10000000000E+02 0. -1.
</event>
<event>
 5    1  0.1300052E-008  0.3839160E+03  0.7957747E-01  0.3434283E+00
         13   -1    0    0    0    0  0.00000000000E+00  0.00000000000E+00  0.14999999963E+04  0.15000000000E+04  0.10566000000E+00 0. -1.
        994   -1    0    0    0    0 -0.00000000000E+00 -0.00000000000E+00  0.11368683772E-12  0.17120000000E+03  0.17120000000E+03 0.  0.
         13    1    1    2    0    0  0.19592203096E+02  0.41511684153E+00  0.10117432908E+03  0.10305475619E+03  0.10566000000E+00 0. -1.
        994    1    1    2    0    0  0.67703720646E+01 -0.25759292605E+02  0.45139375196E+01  0.17331818925E+03  0.17120000000E+03 0.  0.
        998    1    1    2    0    0 -0.26362575160E+02  0.25344175763E+02  0.13943117297E+04  0.13948270546E+04  0.10000000000E+02 0. -1.
</event>
<event>
 5    1  0.1300052E-008  0.3803240E+03  0.7957747E-01  0.3449749E+00
         13   -1    0    0    0    0  0.00000000000E+00  0.00000000000E+00  0.14999999963E+04  0.15000000000E+04  0.10566000000E+00 0. -1.
        994   -1    0    0    0    0 -0.00000000000E+00 -0.00000000000E+00  0.11368683772E-12  0.17120000000E+03  0.17120000000E+03 0.  0.
         13    1    1    2    0    0  0.12192137211E+02  0.22143144137E+01  0.19044879929E+02  0.22721575950E+02  0.10566000000E+00 0. -1.
        994    1    1    2    0    0  0.23819741226E+02 -0.21549978820E+02  0.74228168310E+01  0.17434540392E+03  0.17120000000E+03 0.  0.
        998    1    1    2    0    0 -0.36011878437E+02  0.19335664406E+02  0.14735322995E+04  0.14741330201E+04  0.10000000000E+02 0. -1.
</event>
<event>
 5    1  0.1300052E-008  0.3807180E+03  0.7957747E-01  0.3448038E+00
         13   -1    0    0    0    0  0.00000000000E+00  0.00000000000E+00  0.14999999963E+04  0.15000000000E+04  0.10566000000E+00 0.  1.
        994   -1    0    0    0    0 -0.00000000000E+00 -0.00000000000E+00  0.11368683772E-12  0.17120000000E+03  0.17120000000E+03 0.  0.
         13    1    1    2    0    0 -0.17733821199E+02 -0.39820536892E+01  0.43511561057E+02  0.47155193516E+02  0.10566000000E+00 0.  1.
        994    1    1    2    0    0  0.44265530055E+01  0.29776184421E+01  0.38660725288E+01  0.17132672617E+03  0.17120000000E+03 0.  0.
        998    1    1    2    0    0  0.13307268194E+02  0.10044352471E+01  0.14526223627E+04  0.14527180803E+04  0.10000000000E+02 0.  1.
</event>
<event>
 5    1  0.1300052E-008  0.3822271E+03  0.7957747E-01  0.3441518E+00
         13   -1    0    0    0    0  0.00000000000E+00  0.00000000000E+00  0.14999999963E+04  0.15000000000E+04  0.10566000000E+00 0.  1.
        994   -1    0    0    0    0 -0.00000000000E+00 -0.00000000000E+00  0.11368683772E-12  0.17120000000E+03  0.17120000000E+03 0.  0.
         13    1    1    2    0    0 -0.13642821689E+02 -0.39793322502E+02  0.25367707131E+03  0.25714140618E+03  0.10566000000E+00 0.  1.
        994    1    1    2    0    0  0.13437471713E+02  0.36736743316E+02  0.81076114120E+01  0.17579911069E+03  0.17120000000E+03 0.  0.
        998    1    1    2    0    0  0.20534997625E+00  0.30565791866E+01  0.12382153136E+04  0.12382594831E+04  0.10000000000E+02 0. -1.
</event>
<event>
 5    1  0.1300052E-008  0.3879082E+03  0.7957747E-01  0.3417431E+00
         13   -1    0    0    0    0  0.00000000000E+00  0.00000000000E+00  0.14999999963E+04  0.15000000000E+04  0.10566000000E+00 0.  1.
        994   -1    0    0    0    0 -0.00000000000E+00 -0.00000000000E+00  0.11368683772E-12  0.17120000000E+03  0.17120000000E+03 0.  0.
         13    1    1    2    0    0  0.13688220627E+02 -0.51900699715E+02  0.59586114986E+02  0.80197046567E+02  0.10566000000E+00 0.  1.
        994    1    1    2    0    0 -0.13061624191E+02  0.53235943522E+02  0.32041804434E+02  0.18259460271E+03  0.17120000000E+03 0.  0.
        998    1    1    2    0    0 -0.62659643673E+00 -0.13352438067E+01  0.14083720769E+04  0.14084083507E+04  0.10000000000E+02 0.  1.
</event>
<event>
 5    1  0.1300052E-008  0.3834431E+03  0.7957747E-01  0.3436302E+00
         13   -1    0    0    0    0  0.00000000000E+00  0.00000000000E+00  0.14999999963E+04  0.15000000000E+04  0.10566000000E+00 0.  1.
        994   -1    0    0    0    0 -0.00000000000E+00 -0.00000000000E+00  0.11368683772E-12  0.17120000000E+03  0.17120000000E+03 0.  0.
         13    1    1    2    0    0 -0.22002905641E+01 -0.10365531867E+02  0.22692418080E+02  0.25044810477E+02  0.10566000000E+00 0.  1.
        994    1    1    2    0    0  0.14351180344E+01  0.48409229941E+01  0.24893670885E+01  0.17129253062E+03  0.17120000000E+03 0.  0.
        998    1    1    2    0    0  0.76517252967E+00  0.55246088733E+01  0.14748182111E+04  0.14748626589E+04  0.10000000000E+02 0.  1.
</event>
<event>
 5    1  0.1300052E-008  0.3836515E+03  0.7957747E-01  0.3435412E+00
         13   -1    0    0    0    0  0.00000000000E+00  0.00000000000E+00  0.14999999963E+04  0.15000000000E+04  0.10566000000E+00 0. -1.
        994   -1    0    0    0    0 -0.00000000000E+00 -0.00000000000E+00  0.11368683772E-12  0.17120000000E+03  0.17120000000E+03 0.  0.
         13    1    1    2    0    0  0.12023725722E+02 -0.21944585967E+02  0.12360033013E+03  0.12610784118E+03  0.10566000000E+00 0. -1.
        994    1    1    2    0    0 -0.18300348402E+02  0.21670529290E+02  0.49630390388E+01  0.17360468412E+03  0.17120000000E+03 0.  0.
        998    1    1    2    0    0  0.62766226801E+01  0.27405667697E+00  0.13714366271E+04  0.13714874747E+04  0.10000000000E+02 0. -1.
</event>
<event>
 5    1  0.1300052E-008  0.3833112E+03  0.7957747E-01  0.3436866E+00
         13   -1    0    0    0    0  0.00000000000E+00  0.00000000000E+00  0.14999999963E+04  0.15000000000E+04  0.10566000000E+00 0. -1.
        994   -1    0    0    0    0 -0.00000000000E+00 -0.00000000000E+00  0.11368683772E-12  0.17120000000E+03  0.17120000000E+03 0.  0.
         13    1    1    2    0    0  0.12981476073E+02 -0.10012923996E+02  0.50723831777E+02  0.53307557083E+02  0.10566000000E+00 0. -1.
        994    1    1    2    0    0 -0.17322038081E+02  0.15338361320E+02  0.42431095935E+01  0.17280845555E+03  0.17120000000E+03 0.  0.
        998    1    1    2    0    0  0.43405620073E+01 -0.53254373231E+01  0.14450330549E+04  0.14450839874E+04  0.10000000000E+02 0. -1.
</event>
<event>
 5    1  0.1300052E-008  0.3825720E+03  0.7957747E-01  0.3440035E+00
         13   -1    0    0    0    0  0.00000000000E+00  0.00000000000E+00  0.14999999963E+04  0.15000000000E+04  0.10566000000E+00 0. -1.
        994   -1    0    0    0    0 -0.00000000000E+00 -0.00000000000E+00  0.11368683772E-12  0.17120000000E+03  0.17120000000E+03 0.  0.
         13    1    1    2    0    0  0.14947584995E+01 -0.37830249986E+02  0.21386105015E+03  0.21718637631E+03  0.10566000000E+00 0. -1.
        994    1    1    2    0    0  0.29398670754E+01  0.40350959643E+02  0.82851841332E+01  0.17611055346E+03  0.17120000000E+03 0.  0.
        998    1    1    2    0    0 -0.44346255749E+01 -0.25207096571E+01  0.12778537620E+04  0.12779030702E+04  0.10000000000E+02 0. -1.
</event>
<event>
 5    1  0.1300052E-008  0.3856111E+03  0.7957747E-01  0.3427085E+00
         13   -1    0    0    0    0  0.00000000000E+00  0.00000000000E+00  0.14999999963E+04  0.15000000000E+04  0.10566000000E+00 0.  1.
        994   -1    0    0    0    0 -0.00000000000E+00 -0.00000000000E+00  0.11368683772E-12  0.17120000000E+03  0.17120000000E+03 0.  0.
         13    1    1    2    0    0 -0.13636750838E+02 -0.23656091291E+01  0.72536239488E+02  0.73844934038E+02  0.10566000000E+00 0.  1.
        994    1    1    2    0    0  0.89470626513E+01  0.28557459896E+01  0.16165896374E+01  0.17146503602E+03  0.17120000000E+03 0.  0.
        998    1    1    2    0    0  0.46896881871E+01 -0.49013686055E+00  0.14258471672E+04  0.14258900299E+04  0.10000000000E+02 0.  1.
</event>
<event>
 5    1  0.1300052E-008  0.3847200E+03  0.7957747E-01  0.3430860E+00
         13   -1    0    0    0    0  0.00000000000E+00  0.00000000000E+00  0.14999999963E+04  0.15000000000E+04  0.10566000000E+00 0.  1.
        994   -1    0    0    0    0 -0.00000000000E+00 -0.00000000000E+00  0.11368683772E-12  0.17120000000E+03  0.17120000000E+03 0.  0.
         13    1    1    2    0    0 -0.12466388218E+02  0.15351528060E+02  0.10970226463E+03  0.11147052650E+03  0.10566000000E+00 0.  1.
        994    1    1    2    0    0  0.96819454397E+01 -0.92439640954E+01  0.23592593736E+01  0.17173874649E+03  0.17120000000E+03 0.  0.
        998    1    1    2    0    0  0.27844427785E+01 -0.61075639647E+01  0.13879384723E+04  0.13879907270E+04  0.10000000000E+02 0.  0.
</event>
<event>
 5    1  0.1300052E-008  0.3814505E+03  0.7957747E-01  0.3444867E+00
         13   -1    0    0    0    0  0.00000000000E+00  0.00000000000E+00  0.14999999963E+04  0.15000000000E+04  0.10566000000E+00 0. -1.
        994   -1    0    0    0    0 -0.00000000000E+00 -0.00000000000E+00  0.11368683772E-12  0.17120000000E+03  0.17120000000E+03 0.  0.
         13    1    1    2    0    0 -0.37642746643E+00  0.10769281303E+02  0.16148975894E+02  0.19414419999E+02  0.10566000000E+00 0. -1.
        994    1    1    2    0    0 -0.27876679972E+02  0.35306186250E+01  0.60340632696E+01  0.17359557734E+03  0.17120000000E+03 0.  0.
        998    1    1    2    0    0  0.28253107439E+02 -0.14299899928E+02  0.14778169571E+04  0.14781900027E+04  0.10000000000E+02 0. -1.
</event>
<event>
 5    1  0.1300052E-008  0.3855244E+03  0.7957747E-01  0.3427451E+00
         13   -1    0    0    0    0  0.00000000000E+00  0.00000000000E+00  0.14999999963E+04  0.15000000000E+04  0.10566000000E+00 0. -1.
        994   -1    0    0    0    0 -0.00000000000E+00 -0.00000000000E+00  0.11368683772E-12  0.17120000000E+03  0.17120000000E+03 0.  0.
         13    1    1    2    0    0  0.92675634358E+01  0.49063848031E+01  0.40387827476E+02  0.41727066949E+02  0.10566000000E+00 0. -1.
        994    1    1    2    0    0 -0.49895835280E+01 -0.45391242756E+01  0.15194184464E+01  0.17133956993E+03  0.17120000000E+03 0.  0.
        998    1    1    2    0    0 -0.42779799079E+01 -0.36726052754E+00  0.14580927504E+04  0.14581333631E+04  0.10000000000E+02 0. -1.
</event>
<event>
 5    1  0.1300052E-008  0.3810823E+03  0.7957747E-01  0.3446459E+00
         13   -1    0    0    0    0  0.00000000000E+00  0.00000000000E+00  0.14999999963E+04  0.15000000000E+04  0.10566000000E+00 0.  1.
        994   -1    0    0    0    0 -0.00000000000E+00 -0.00000000000E+00  0.11368683772E-12  0.17120000000E+03  0.17120000000E+03 0.  0.
         13    1    1    2    0    0  0.71691387206E+01 -0.11728747501E+02  0.26709375256E+02  0.30039340181E+02  0.10566000000E+00 0.  1.
        994    1    1    2    0    0  0.16657525529E+02 -0.51240331223E+01  0.46001779343E+01  0.17214624744E+03  0.17120000000E+03 0.  0.
        998    1    1    2    0    0 -0.23826664250E+02  0.16852780623E+02  0.14686904431E+04  0.14690144124E+04  0.10000000000E+02 0.  1.
</event>
<event>
 5    1  0.1300052E-008  0.2732717E+03  0.7957747E-01  0.4107483E+00
         13   -1    0    0    0    0  0.00000000000E+00  0.00000000000E+00  0.14999999963E+04  0.15000000000E+04  0.10566000000E+00 0. -1.
        994   -1    0    0    0    0 -0.00000000000E+00 -0.00000000000E+00  0.11368683772E-12  0.17120000000E+03  0.17120000000E+03 0.  0.
         13    1    1    2    0    0 -0.90882450253E+02  0.14278500262E+03  0.48502157926E+03  0.51370528540E+03  0.10566000000E+00 0. -1.
        994    1    1    2    0    0  0.10846779628E+03 -0.12040263203E+03  0.12466439110E+03  0.26666965901E+03  0.17120000000E+03 0.  0.
        998    1    1    2    0    0 -0.17585346031E+02 -0.22382370596E+02  0.89031402592E+03  0.89082505559E+03  0.10000000000E+02 0. -1.
</event>
<event>
 5    1  0.1300052E-008  0.3752341E+03  0.7957747E-01  0.3472176E+00
         13   -1    0    0    0    0  0.00000000000E+00  0.00000000000E+00  0.14999999963E+04  0.15000000000E+04  0.10566000000E+00 0. -1.
        994   -1    0    0    0    0 -0.00000000000E+00 -0.00000000000E+00  0.11368683772E-12  0.17120000000E+03  0.17120000000E+03 0.  0.
         13    1    1    2    0    0  0.12645542778E+03 -0.12306996507E+02  0.64591451677E+03  0.65829173739E+03  0.10566000000E+00 0. -1.
        994    1    1    2    0    0 -0.13160756253E+03 -0.88868854351E+01  0.68158961535E+02  0.22661555835E+03  0.17120000000E+03 0.  0.
        998    1    1    2    0    0  0.51521347515E+01  0.21193881942E+02  0.78592651798E+03  0.78629270427E+03  0.10000000000E+02 0.  0.
</event>
<event>
 5    1  0.1300052E-008  0.3835068E+03  0.7957747E-01  0.3436030E+00
         13   -1    0    0    0    0  0.00000000000E+00  0.00000000000E+00  0.14999999963E+04  0.15000000000E+04  0.10566000000E+00 0. -1.
        994   -1    0    0    0    0 -0.00000000000E+00 -0.00000000000E+00  0.11368683772E-12  0.17120000000E+03  0.17120000000E+03 0.  0.
         13    1    1    2    0    0  0.85514900233E+01  0.74885224095E+01  0.26563557332E+02  0.28893592571E+02  0.10566000000E+00 0. -1.
        994    1    1    2    0    0 -0.56803447488E+01 -0.35571322636E+01  0.25217769398E+01  0.17134969759E+03  0.17120000000E+03 0.  0.
        998    1    1    2    0    0 -0.28711452744E+01 -0.39313901459E+01  0.14709146620E+04  0.14709567098E+04  0.10000000000E+02 0. -1.
</event>
<event>
 5    1  0.1300052E-008  0.2976264E+03  0.7957747E-01  0.3913111E+00
         13   -1    0    0    0    0  0.00000000000E+00  0.00000000000E+00  0.14999999963E+04  0.15000000000E+04  0.10566000000E+00 0. -1.
        994   -1    0    0    0    0 -0.00000000000E+00 -0.00000000000E+00  0.11368683772E-12  0.17120000000E+03  0.17120000000E+03 0.  0.
         13    1    1    2    0    0 -0.11679171277E+02 -0.19571811297E+03  0.92983583158E+03  0.95028241468E+03  0.10566000000E+00 0. -1.
        994    1    1    2    0    0 -0.21452463595E+02  0.46036962786E+02  0.60410584345E+02  0.18851654791E+03  0.17120000000E+03 0.  0.
        998    1    1    2    0    0  0.33131634872E+02  0.14968115019E+03  0.50975358035E+03  0.53240103741E+03  0.10000000000E+02 0. -1.
</event>
<event>
 5    1  0.1300052E-008  0.3830503E+03  0.7957747E-01  0.3437983E+00
         13   -1    0    0    0    0  0.00000000000E+00  0.00000000000E+00  0.14999999963E+04  0.15000000000E+04  0.10566000000E+00 0.  1.
        994   -1    0    0    0    0 -0.00000000000E+00 -0.00000000000E+00  0.11368683772E-12  0.17120000000E+03  0.17120000000E+03 0.  0.
         13    1    1    2    0    0 -0.10844158335E+02  0.17579806162E+02  0.85247712564E+02  0.87714474382E+02  0.10566000000E+00 0.  1.
        994    1    1    2    0    0  0.10769095106E+02  0.73449780253E+00  0.29869086461E+01  0.17156594802E+03  0.17120000000E+03 0.  0.
        998    1    1    2    0    0  0.75063228634E-01 -0.18314303965E+02  0.14117653751E+04  0.14119195776E+04  0.10000000000E+02 0.  1.
</event>
<event>
 5    1  0.1300052E-008  0.3803545E+03  0.7957747E-01  0.3449617E+00
         13   -1    0    0    0    0  0.00000000000E+00  0.00000000000E+00  0.14999999963E+04  0.15000000000E+04  0.10566000000E+00 0. -1.
        994   -1    0    0    0    0 -0.00000000000E+00 -0.00000000000E+00  0.11368683772E-12  0.17120000000E+03  0.17120000000E+03 0.  0.
         13    1    1    2    0    0  0.20099883555E+01 -0.11430599459E+02  0.15443985847E+02  0.19319071407E+02  0.10566000000E+00 0. -1.
        994    1    1    2    0    0  0.21806528107E+02  0.94367389135E+01  0.58417266406E+01  0.17293970764E+03  0.17120000000E+03 0.  0.
        998    1    1    2    0    0 -0.23816516463E+02  0.19938605451E+01  0.14787142838E+04  0.14789412210E+04  0.10000000000E+02 0. -1.
</event>
<event>
 5    1  0.1300052E-008  0.3736356E+03  0.7957747E-01  0.3479347E+00
         13   -1    0    0    0    0  0.00000000000E+00  0.00000000000E+00  0.14999999963E+04  0.15000000000E+04  0.10566000000E+00 0. -1.
        994   -1    0    0    0    0 -0.00000000000E+00 -0.00000000000E+00  0.11368683772E-12  0.17120000000E+03  0.17120000000E+03 0.  0.
         13    1    1    2    0    0 -0.42710338111E+02  0.16536504464E+02  0.15204736006E+03  0.15879559133E+03  0.10566000000E+00 0. -1.
        994    1    1    2    0    0  0.95506325969E+01 -0.35705720788E+01  0.77361311417E+01  0.17167775422E+03  0.17120000000E+03 0.  0.
        998    1    1    2    0    0  0.33159705514E+02 -0.12965932385E+02  0.13402165051E+04  0.13407266545E+04  0.10000000000E+02 0. -1.
</event>
<event>
 5    1  0.1300052E-008  0.3843681E+03  0.7957747E-01  0.3432357E+00
         13   -1    0    0    0    0  0.00000000000E+00  0.00000000000E+00  0.14999999963E+04  0.15000000000E+04  0.10566000000E+00 0. -1.
        994   -1    0    0    0    0 -0.00000000000E+00 -0.00000000000E+00  0.11368683772E-12  0.17120000000E+03  0.17120000000E+03 0.  0.
         13    1    1    2    0    0  0.16775749305E+02 -0.11926212055E+02  0.11260995615E+03  0.11447564670E+03  0.10566000000E+00 0. -1.
        994    1    1    2    0    0 -0.58624947460E+01  0.60619794631E+01  0.21786004309E+01  0.17142141856E+03  0.17120000000E+03 0.  0.
        998    1    1    2    0    0 -0.10913254559E+02  0.58642325917E+01  0.13852114397E+04  0.13853029347E+04  0.10000000000E+02 0. -1.
</event>
<event>
 5    1  0.1300052E-008  0.3854491E+03  0.7957747E-01  0.3427770E+00
         13   -1    0    0    0    0  0.00000000000E+00  0.00000000000E+00  0.14999999963E+04  0.15000000000E+04  0.10566000000E+00 0.  1.
        994   -1    0    0    0    0 -0.00000000000E+00 -0.00000000000E+00  0.11368683772E-12  0.17120000000E+03  0.17120000000E+03 0.  0.
         13    1    1    2    0    0 -0.67045152584E+01  0.92516482861E+01  0.45569498822E+02  0.46980143760E+02  0.10566000000E+00 0.  1.
        994    1    1    2    0    0 -0.96308716715E-01 -0.14201384322E+02  0.20699280733E+01  0.17180050406E+03  0.17120000000E+03 0.  0.
        998    1    1    2    0    0  0.68008239751E+01  0.49497360358E+01  0.14523605694E+04  0.14524193522E+04  0.10000000000E+02 0.  1.
</event>
<event>
 5    1  0.1300052E-008  0.3710090E+03  0.7957747E-01  0.3491266E+00
         13   -1    0    0    0    0  0.00000000000E+00  0.00000000000E+00  0.14999999963E+04  0.15000000000E+04  0.10566000000E+00 0.  1.
        994   -1    0    0    0    0 -0.00000000000E+00 -0.00000000000E+00  0.11368683772E-12  0.17120000000E+03  0.17120000000E+03 0.  0.
         13    1    1    2    0    0 -0.39461781698E+01 -0.70421132065E+02  0.23882188400E+03  0.24901929966E+03  0.10566000000E+00 0.  1.
        994    1    1    2    0    0 -0.22087903652E+02  0.22183737320E+02  0.14919262107E+02  0.17467689621E+03  0.17120000000E+03 0.  0.
        998    1    1    2    0    0  0.26034081822E+02  0.48237394746E+02  0.12462588502E+04  0.12475038041E+04  0.10000000000E+02 0.  1.
</event>
<event>
 5    1  0.1300052E-008  0.3716921E+03  0.7957747E-01  0.3488150E+00
         13   -1    0    0    0    0  0.00000000000E+00  0.00000000000E+00  0.14999999963E+04  0.15000000000E+04  0.10566000000E+00 0.  1.
        994   -1    0    0    0    0 -0.00000000000E+00 -0.00000000000E+00  0.11368683772E-12  0.17120000000E+03  0.17120000000E+03 0.  0.
         13    1    1    2    0    0 -0.41328251212E+01 -0.11292914782E+02  0.57077333137E+00  0.12039398406E+02  0.10566000000E+00 0.  1.
        994    1    1    2    0    0  0.13459875472E+02  0.10372792429E+02  0.12852492216E+02  0.17252069333E+03  0.17120000000E+03 0.  0.
        998    1    1    2    0    0 -0.93270503512E+01  0.92012235302E+00  0.14865767307E+04  0.14866399083E+04  0.10000000000E+02 0.  1.
</event>
<event>
 5    1  0.1300052E-008  0.3876334E+03  0.7957747E-01  0.3418580E+00
         13   -1    0    0    0    0  0.00000000000E+00  0.00000000000E+00  0.14999999963E+04  0.15000000000E+04  0.10566000000E+00 0. -1.
        994   -1    0    0    0    0 -0.00000000000E+00 -0.00000000000E+00  0.11368683772E-12  0.17120000000E+03  0.17120000000E+03 0.  0.
         13    1    1    2    0    0 -0.27398697461E+02  0.19898515059E+02  0.19703620117E+02  0.39177587137E+02  0.10566000000E+00 0. -1.
        994    1    1    2    0    0  0.20367930349E+02 -0.10663319928E+02  0.22557974653E+02  0.17420350513E+03  0.17120000000E+03 0.  0.
        998    1    1    2    0    0  0.70307671124E+01 -0.92351951311E+01  0.14577384015E+04  0.14578189077E+04  0.10000000000E+02 0. -1.
</event>
<event>
 5    1  0.1300052E-008  0.3813202E+03  0.7957747E-01  0.3445430E+00
         13   -1    0    0    0    0  0.00000000000E+00  0.00000000000E+00  0.14999999963E+04  0.15000000000E+04  0.10566000000E+00 0.  1.
        994   -1    0    0    0    0 -0.00000000000E+00 -0.00000000000E+00  0.11368683772E-12  0.17120000000E+03  0.17120000000E+03 0.  0.
         13    1    1    2    0    0 -0.41712163852E+01  0.12442018901E+02  0.23765949547E+02  0.27148377528E+02  0.10566000000E+00 0.  1.
        994    1    1    2    0    0  0.23292939336E+01 -0.41555609642E+01  0.35437656818E+01  0.17130292634E+03  0.17120000000E+03 0.  0.
        998    1    1    2    0    0  0.18419224516E+01 -0.82864579373E+01  0.14726902810E+04  0.14727486961E+04  0.10000000000E+02 0.  1.
</event>
<event>
 5    1  0.1300052E-008  0.3829900E+03  0.7957747E-01  0.3438242E+00
         13   -1    0    0    0    0  0.00000000000E+00  0.00000000000E+00  0.14999999963E+04  0.15000000000E+04  0.10566000000E+00 0. -1.
        994   -1    0    0    0    0 -0.00000000000E+00 -0.00000000000E+00  0.11368683772E-12  0.17120000000E+03  0.17120000000E+03 0.  0.
         13    1    1    2    0    0  0.64230705722E+01  0.16867091504E+02  0.57163502508E+02  0.59945239965E+02  0.10566000000E+00 0. -1.
        994    1    1    2    0    0  0.12202176550E+01 -0.28177166986E+02  0.52688866397E+01  0.17358756533E+03  0.17120000000E+03 0.  0.
        998    1    1    2    0    0 -0.76432882273E+01  0.11310075482E+02  0.14375676071E+04  0.14376671947E+04  0.10000000000E+02 0. -1.
</event>
<event>
 5    1  0.1300052E-008  0.3754094E+03  0.7957747E-01  0.3471394E+00
         13   -1    0    0    0    0  0.00000000000E+00  0.00000000000E+00  0.14999999963E+04  0.15000000000E+04  0.10566000000E+00 0.  1.
        994   -1    0    0    0    0 -0.00000000000E+00 -0.00000000000E+00  0.11368683772E-12  0.17120000000E+03  0.17120000000E+03 0.  0.
         13    1    1    2    0    0 -0.18986011259E+02  0.12010359527E+02  0.35242759160E+02  0.41794504384E+02  0.10566000000E+00 0.  1.
        994    1    1    2    0    0  0.23211443903E+02 -0.12948597571E+02  0.88703570988E+01  0.17347783876E+03  0.17120000000E+03 0.  0.
        998    1    1    2    0    0 -0.42254326445E+01  0.93823804422E+00  0.14558868800E+04  0.14559276569E+04  0.10000000000E+02 0.  1.
</event>
<event>
 5    1  0.1300052E-008  0.3830885E+03  0.7957747E-01  0.3437820E+00
         13   -1    0    0    0    0  0.00000000000E+00  0.00000000000E+00  0.14999999963E+04  0.15000000000E+04  0.10566000000E+00 0. -1.
        994   -1    0    0    0    0 -0.00000000000E+00 -0.00000000000E+00  0.11368683772E-12  0.17120000000E+03  0.17120000000E+03 0.  0.
         13    1    1    2    0    0  0.35723704023E+01 -0.23011841814E+02  0.11454898076E+03  0.11689220185E+03  0.10566000000E+00 0. -1.
        994    1    1    2    0    0  0.77394050981E+01  0.20568481875E+01  0.27943927570E+01  0.17140996951E+03  0.17120000000E+03 0.  0.
        998    1    1    2    0    0 -0.11311775500E+02  0.20954993627E+02  0.13826566228E+04  0.13828978286E+04  0.10000000000E+02 0. -1.
</event>
<event>
 5    1  0.1300052E-008  0.3838768E+03  0.7957747E-01  0.3434450E+00
         13   -1    0    0    0    0  0.00000000000E+00  0.00000000000E+00  0.14999999963E+04  0.15000000000E+04  0.10566000000E+00 0. -1.
        994   -1    0    0    0    0 -0.00000000000E+00 -0.00000000000E+00  0.11368683772E-12  0.17120000000E+03  0.17120000000E+03 0.  0.
         13    1    1    2    0    0  0.18728994904E+02  0.71204868795E+01  0.95996458093E+02  0.98065323708E+02  0.10566000000E+00 0. -1.
        994    1    1    2    0    0  0.12445522297E+01 -0.18966325877E+02  0.33821328049E+01  0.17228508133E+03  0.17120000000E+03 0.  0.
        998    1    1    2    0    0 -0.19973547133E+02  0.11845838998E+02  0.14006214054E+04  0.14008495950E+04  0.10000000000E+02 0. -1.
</event>
<event>
 5    1  0.1300052E-008  0.3769570E+03  0.7957747E-01  0.3464516E+00
         13   -1    0    0    0    0  0.00000000000E+00  0.00000000000E+00  0.14999999963E+04  0.15000000000E+04  0.10566000000E+00 0.  1.
        994   -1    0    0    0    0 -0.00000000000E+00 -0.00000000000E+00  0.11368683772E-12  0.17120000000E+03  0.17120000000E+03 0.  0.
         13    1    1    2    0    0 -0.64894159825E+01  0.24697959304E+02  0.54502485483E+02  0.60188319477E+02  0.10566000000E+00 0.  1.
        994    1    1    2    0    0  0.68437767643E+01 -0.19446491783E+02  0.71136721737E+01  0.17258345128E+03  0.17120000000E+03 0.  0.
        998    1    1    2    0    0 -0.35436078180E+00 -0.52514675206E+01  0.14383838386E+04  0.14384282292E+04  0.10000000000E+02 0.  1.
</event>
<event>
 5    1  0.1300052E-008  0.3788307E+03  0.7957747E-01  0.3456266E+00
         13   -1    0    0    0    0  0.00000000000E+00  0.00000000000E+00  0.14999999963E+04  0.15000000000E+04  0.10566000000E+00 0. -1.
        994   -1    0    0    0    0 -0.00000000000E+00 -0.00000000000E+00  0.11368683772E-12  0.17120000000E+03  0.17120000000E+03 0.  0.
         13    1    1    2    0    0 -0.40896640536E+02  0.19930444710E+02  0.24264683716E+03  0.24687498168E+03  0.10566000000E+00 0. -1.
        994    1    1    2    0    0  0.18366861041E+01 -0.25961249672E+02  0.70010344219E+01  0.17330843714E+03  0.17120000000E+03 0.  0.
        998    1    1    2    0    0  0.39059954432E+02  0.60308049621E+01  0.12503521247E+04  0.12510165812E+04  0.10000000000E+02 0. -1.
</event>
<event>
 5    1  0.1300052E-008  0.3850644E+03  0.7957747E-01  0.3429399E+00
         13   -1    0    0    0    0  0.00000000000E+00  0.00000000000E+00  0.14999999963E+04  0.15000000000E+04  0.10566000000E+00 0.  1.
        994   -1    0    0    0    0 -0.00000000000E+00 -0.00000000000E+00  0.11368683772E-12  0.17120000000E+03  0.17120000000E+03 0.  0.
         13    1    1    2    0    0  0.95054770144E+01 -0.54832984555E+01  0.37923909688E+02  0.39479801739E+02  0.10566000000E+00 0.  1.
        994    1    1    2    0    0 -0.56668322090E+01  0.10560775159E+01  0.17074081419E+01  0.17130552685E+03  0.17120000000E+03 0.  0.
        998    1    1    2    0    0 -0.38386448054E+01  0.44272209397E+01  0.14603686784E+04  0.14604146714E+04  0.10000000000E+02 0.  1.
</event>
<event>
 5    1  0.1883527E-008  0.3859628E+03  0.7957747E-01  0.3425599E+00
         13   -1    0    0    0    0  0.00000000000E+00  0.00000000000E+00  0.14999999963E+04  0.15000000000E+04  0.10566000000E+00 0. -1.
        994   -1    0    0    0    0 -0.00000000000E+00 -0.00000000000E+00  0.11368683772E-12  0.17120000000E+03  0.17120000000E+03 0.  0.
         13    1    1    2    0    0 -0.84011491220E+01 -0.58422862122E+01  0.45467261054E+02  0.46604662927E+02  0.10566000000E+00 0. -1.
        994    1    1    2    0    0  0.72358807610E+01  0.43770345770E+01  0.13873670358E+01  0.17141435526E+03  0.17120000000E+03 0.  0.
        998    1    1    2    0    0  0.11652683610E+01  0.14652516352E+01  0.14531453682E+04  0.14531809818E+04  0.10000000000E+02 0. -1.
</event>
<event>
 5    1  0.1300052E-008  0.3711031E+03  0.7957747E-01  0.3490837E+00
         13   -1    0    0    0    0  0.00000000000E+00  0.00000000000E+00  0.14999999963E+04  0.15000000000E+04  0.10566000000E+00 0.  1.
        994   -1    0    0    0    0 -0.00000000000E+00 -0.00000000000E+00  0.11368683772E-12  0.17120000000E+03  0.17120000000E+03 0.  0.
         13    1    1    2    0    0  0.20564635432E+01 -0.72061529046E+02  0.21074032239E+03  0.22272985353E+03  0.10566000000E+00 0.  1.
        994    1    1    2    0    0  0.22465475558E+02  0.54364832406E+02  0.23767912847E+02  0.18257761713E+03  0.17120000000E+03 0.  0.
        998    1    1    2    0    0 -0.24521939101E+02  0.17696696639E+02  0.12654917610E+04  0.12658925293E+04  0.10000000000E+02 0.  1.
</event>
<event>
 5    1  0.1300052E-008  0.3838513E+03  0.7957747E-01  0.3434559E+00
         13   -1    0    0    0    0  0.00000000000E+00  0.00000000000E+00  0.14999999963E+04  0.15000000000E+04  0.10566000000E+00 0. -1.
        994   -1    0    0    0    0 -0.00000000000E+00 -0.00000000000E+00  0.11368683772E-12  0.17120000000E+03  0.17120000000E+03 0.  0.
         13    1    1    2    0    0  0.22340934964E+02  0.32217996379E+01  0.11004301120E+03  0.11233420159E+03  0.10566000000E+00 0. -1.
        994    1    1    2    0    0 -0.24163049106E+02  0.19222394225E+02  0.53548296184E+01  0.17404444140E+03  0.17120000000E+03 0.  0.
        998    1    1    2    0    0  0.18221141426E+01 -0.22444193863E+02  0.13846021555E+04  0.13848213570E+04  0.10000000000E+02 0. -1.
</event>
<event>
 5    1  0.1300052E-008  0.3829948E+03  0.7957747E-01  0.3438221E+00
         13   -1    0    0    0    0  0.00000000000E+00  0.00000000000E+00  0.14999999963E+04  0.15000000000E+04  0.10566000000E+00 0.  1.
        994   -1    0    0    0    0 -0.00000000000E+00 -0.00000000000E+00  0.11368683772E-12  0.17120000000E+03  0.17120000000E+03 0.  0.
         13    1    1    2    0    0 -0.92152844968E+01  0.25172756101E+02  0.15152129946E+03  0.15387431388E+03  0.10566000000E+00 0.  1.
        994    1    1    2    0    0  0.28986041826E+01 -0.15415237472E+01  0.26646402885E+01  0.17125220731E+03  0.17120000000E+03 0.  0.
        998    1    1    2    0    0  0.63166803142E+01 -0.23631232354E+02  0.13458140565E+04  0.13460734788E+04  0.10000000000E+02 0.  1.
</event>
<event>
 5    1  0.1300052E-008  0.3822166E+03  0.7957747E-01  0.3441563E+00
         13   -1    0    0    0    0  0.00000000000E+00  0.00000000000E+00  0.14999999963E+04  0.15000000000E+04  0.10566000000E+00 0.  1.
        994   -1    0    0    0    0 -0.00000000000E+00 -0.00000000000E+00  0.11368683772E-12  0.17120000000E+03  0.17120000000E+03 0.  0.
         13    1    1    2    0    0  0.90873498989E+01 -0.23403605403E+02  0.99212798411E+02  0.10234011533E+03  0.10566000000E+00 0.  1.
        994    1    1    2    0    0 -0.58889438334E+00  0.24073832943E+02  0.49452029681E+01  0.17295603852E+03  0.17120000000E+03 0.  0.
        998    1    1    2    0    0 -0.84984555155E+01 -0.67022753930E+00  0.13958419949E+04  0.13959038461E+04  0.10000000000E+02 0.  1.
</event>
<event>
 5    1  0.1300052E-008  0.3852724E+03  0.7957747E-01  0.3428518E+00
         13   -1    0    0    0    0  0.00000000000E+00  0.00000000000E+00  0.14999999963E+04  0.15000000000E+04  0.10566000000E+00 0.  1.
        994   -1    0    0    0    0 -0.00000000000E+00 -0.00000000000E+00  0.11368683772E-12  0.17120000000E+03  0.17120000000E+03 0.  0.
         13    1    1    2    0    0  0.15375292683E+02 -0.19924441172E+01  0.82749210938E+02  0.84189147362E+02  0.10566000000E+00 0.  1.
        994    1    1    2    0    0 -0.64579954755E+01  0.16539880330E+01  0.16409814055E+01  0.17133760300E+03  0.17120000000E+03 0.  0.
        998    1    1    2    0    0 -0.89172972074E+01  0.33845608421E+00  0.14156098039E+04  0.14156732496E+04  0.10000000000E+02 0.  1.
</event>
<event>
 5    1  0.1300052E-008  0.3769790E+03  0.7957747E-01  0.3464419E+00
         13   -1    0    0    0    0  0.00000000000E+00  0.00000000000E+00  0.14999999963E+04  0.15000000000E+04  0.10566000000E+00 0. -1.
        994   -1    0    0    0    0 -0.00000000000E+00 -0.00000000000E+00  0.11368683772E-12  0.17120000000E+03  0.17120000000E+03 0.  0.
         13    1    1    2    0    0  0.11323819726E+03  0.16220055284E+02  0.62603803729E+03  0.63640365713E+03  0.10566000000E+00 0. -1.
        994    1    1    2    0    0 -0.11493985357E+03 -0.20539549332E+02  0.53180393347E+02  0.21394073306E+03  0.17120000000E+03 0.  0.
        998    1    1    2    0    0  0.17016563046E+01  0.43194940481E+01  0.82078156564E+03  0.82085560981E+03  0.10000000000E+02 0. -1.
</event>
<event>
 5    1  0.1300052E-008  0.3852026E+03  0.7957747E-01  0.3428813E+00
         13   -1    0    0    0    0  0.00000000000E+00  0.00000000000E+00  0.14999999963E+04  0.15000000000E+04  0.10566000000E+00 0.  1.
        994   -1    0    0    0    0 -0.00000000000E+00 -0.00000000000E+00  0.11368683772E-12  0.17120000000E+03  0.17120000000E+03 0.  0.
         13    1    1    2    0    0  0.17869963888E+01 -0.15479852175E+02  0.80518830489E+02  0.82012879518E+02  0.10566000000E+00 0.  1.
        994    1    1    2    0    0  0.37518704006E+00  0.85972381790E+01  0.17729774021E+01  0.17142530945E+03  0.17120000000E+03 0.  0.
        998    1    1    2    0    0 -0.21621834289E+01  0.68826139964E+01  0.14177081884E+04  0.14177618110E+04  0.10000000000E+02 0.  1.
</event>
<event>
 5    1  0.1300052E-008  0.3707084E+03  0.7957747E-01  0.3492642E+00
         13   -1    0    0    0    0  0.00000000000E+00  0.00000000000E+00  0.14999999963E+04  0.15000000000E+04  0.10566000000E+00 0.  1.
        994   -1    0    0    0    0 -0.00000000000E+00 -0.00000000000E+00  0.11368683772E-12  0.17120000000E+03  0.17120000000E+03 0.  0.
         13    1    1    2    0    0  0.29675681489E+02 -0.13178875370E+02  0.40890412164E+02  0.52214612886E+02  0.10566000000E+00 0.  1.
        994    1    1    2    0    0 -0.32861050362E+02  0.10067763497E+02  0.15464903809E+02  0.17529920634E+03  0.17120000000E+03 0.  0.
        998    1    1    2    0    0  0.31853688738E+01  0.31111118732E+01  0.14436446803E+04  0.14436861808E+04  0.10000000000E+02 0.  1.
</event>
<event>
 5    1  0.1300052E-008  0.3755436E+03  0.7957747E-01  0.3470795E+00
         13   -1    0    0    0    0  0.00000000000E+00  0.00000000000E+00  0.14999999963E+04  0.15000000000E+04  0.10566000000E+00 0.  1.
        994   -1    0    0    0    0 -0.00000000000E+00 -0.00000000000E+00  0.11368683772E-12  0.17120000000E+03  0.17120000000E+03 0.  0.
         13    1    1    2    0    0  0.15311111624E+02 -0.22317827240E+02  0.53359852156E+02  0.59831434364E+02  0.10566000000E+00 0.  1.
        994    1    1    2    0    0  0.21010444811E+01  0.32383597791E+02  0.99813259800E+01  0.17453417620E+03  0.17120000000E+03 0.  0.
        998    1    1    2    0    0 -0.17412156105E+02 -0.10065770551E+02  0.14366588181E+04  0.14368343894E+04  0.10000000000E+02 0.  1.
</event>
<event>
 5    1  0.1300052E-008  0.3772529E+03  0.7957747E-01  0.3463208E+00
         13   -1    0    0    0    0  0.00000000000E+00  0.00000000000E+00  0.14999999963E+04  0.15000000000E+04  0.10566000000E+00 0.  1.
        994   -1    0    0    0    0 -0.00000000000E+00 -0.00000000000E+00  0.11368683772E-12  0.17120000000E+03  0.17120000000E+03 0.  0.
         13    1    1    2    0    0  0.58720558102E+01  0.44610950545E+02  0.64727781744E+02  0.78830925667E+02  0.10566000000E+00 0.  1.
        994    1    1    2    0    0 -0.13730301740E+01 -0.20789711512E+02  0.16385208809E+02  0.17323975405E+03  0.17120000000E+03 0.  0.
        998    1    1    2    0    0 -0.44990256362E+01 -0.23821239033E+02  0.14188870057E+04  0.14191293203E+04  0.10000000000E+02 0.  1.
</event>
<event>
 5    1  0.1300052E-008  0.3741411E+03  0.7957747E-01  0.3477073E+00
         13   -1    0    0    0    0  0.00000000000E+00  0.00000000000E+00  0.14999999963E+04  0.15000000000E+04  0.10566000000E+00 0.  1.
        994   -1    0    0    0    0 -0.00000000000E+00 -0.00000000000E+00  0.11368683772E-12  0.17120000000E+03  0.17120000000E+03 0.  0.
         13    1    1    2    0    0 -0.44903936903E+02 -0.48569123715E+02  0.14430261220E+03  0.15874060091E+03  0.10566000000E+00 0.  1.
        994    1    1    2    0    0  0.53774059857E+02  0.46662809847E+02  0.31353479078E+02  0.18804666439E+03  0.17120000000E+03 0.  0.
        998    1    1    2    0    0 -0.88701229546E+01  0.19063138676E+01  0.13243439050E+04  0.13244127347E+04  0.10000000000E+02 0.  1.
</event>
<event>
 5    1  0.1300052E-008  0.3714165E+03  0.7957747E-01  0.3489406E+00
         13   -1    0    0    0    0  0.00000000000E+00  0.00000000000E+00  0.14999999963E+04  0.15000000000E+04  0.10566000000E+00 0.  1.
        994   -1    0    0    0    0 -0.00000000000E+00 -0.00000000000E+00  0.11368683772E-12  0.17120000000E+03  0.17120000000E+03 0.  0.
         13    1    1    2    0    0 -0.20137059918E+02 -0.23614111804E+02  0.35658183897E+02  0.47272028741E+02  0.10566000000E+00 0.  1.
        994    1    1    2    0    0  0.21525484129E+02  0.22997564412E+02  0.15183864963E+02  0.17473472520E+03  0.17120000000E+03 0.  0.
        998    1    1    2    0    0 -0.13884242114E+01  0.61654739233E+00  0.14491579474E+04  0.14491932461E+04  0.10000000000E+02 0.  1.
</event>
<event>
 5    1  0.1300052E-008  0.3848598E+03  0.7957747E-01  0.3430267E+00
         13   -1    0    0    0    0  0.00000000000E+00  0.00000000000E+00  0.14999999963E+04  0.15000000000E+04  0.10566000000E+00 0. -1.
        994   -1    0    0    0    0 -0.00000000000E+00 -0.00000000000E+00  0.11368683772E-12  0.17120000000E+03  0.17120000000E+03 0.  0.
         13    1    1    2    0    0 -0.66973584495E+01 -0.89582278492E+01  0.36313388515E+02  0.37997076280E+02  0.10566000000E+00 0. -1.
        994    1    1    2    0    0  0.88522841173E+01  0.47821510543E+01  0.20328930274E+01  0.17150744753E+03  0.17120000000E+03 0.  0.
        998    1    1    2    0    0 -0.21549256678E+01  0.41760767948E+01  0.14616537147E+04  0.14616954762E+04  0.10000000000E+02 0. -1.
</event>
<event>
 5    1  0.1300052E-008  0.3847732E+03  0.7957747E-01  0.3430635E+00
         13   -1    0    0    0    0  0.00000000000E+00  0.00000000000E+00  0.14999999963E+04  0.15000000000E+04  0.10566000000E+00 0. -1.
        994   -1    0    0    0    0 -0.00000000000E+00 -0.00000000000E+00  0.11368683772E-12  0.17120000000E+03  0.17120000000E+03 0.  0.
         13    1    1    2    0    0  0.99231861634E+01  0.11215301073E+02  0.64754176810E+02  0.66463276929E+02  0.10566000000E+00 0. -1.
        994    1    1    2    0    0 -0.38073202781E+01 -0.80321473405E+01  0.20028657999E+01  0.17144230094E+03  0.17120000000E+03 0.  0.
        998    1    1    2    0    0 -0.61158658853E+01 -0.31831537330E+01  0.14332429537E+04  0.14332944221E+04  0.10000000000E+02 0. -1.
</event>
<event>
 5    1  0.1300052E-008  0.3808786E+03  0.7957747E-01  0.3447342E+00
         13   -1    0    0    0    0  0.00000000000E+00  0.00000000000E+00  0.14999999963E+04  0.15000000000E+04  0.10566000000E+00 0. -1.
        994   -1    0    0    0    0 -0.00000000000E+00 -0.00000000000E+00  0.11368683772E-12  0.17120000000E+03  0.17120000000E+03 0.  0.
         13    1    1    2    0    0  0.23935167341E+02 -0.11018984025E+02  0.88864788107E+02  0.92689114646E+02  0.10566000000E+00 0. -1.
        994    1    1    2    0    0 -0.23823928665E+02  0.75660067223E+01  0.57757384609E+01  0.17311159172E+03  0.17120000000E+03 0.  0.
        998    1    1    2    0    0 -0.11123867577E+00  0.34529773030E+01  0.14053594697E+04  0.14053992936E+04  0.10000000000E+02 0. -1.
</event>
<event>
 5    1  0.1300052E-008  0.3728259E+03  0.7957747E-01  0.3483003E+00
         13   -1    0    0    0    0  0.00000000000E+00  0.00000000000E+00  0.14999999963E+04  0.15000000000E+04  0.10566000000E+00 0.  1.
        994   -1    0    0    0    0 -0.00000000000E+00 -0.00000000000E+00  0.11368683772E-12  0.17120000000E+03  0.17120000000E+03 0.  0.
         13    1    1    2    0    0  0.20812522428E+03  0.74559568202E+02  0.98774326339E+03  0.10121818037E+04  0.10566000000E+00 0.  1.
        994    1    1    2    0    0 -0.19233254691E+03 -0.85068497999E+02  0.17867996259E+03  0.32475287063E+03  0.17120000000E+03 0.  0.
        998    1    1    2    0    0 -0.15792677375E+02  0.10508929797E+02  0.33357677030E+03  0.33426532567E+03  0.10000000000E+02 0. -1.
</event>
<event>
 5    1  0.1300052E-008  0.3824384E+03  0.7957747E-01  0.3440609E+00
         13   -1    0    0    0    0  0.00000000000E+00  0.00000000000E+00  0.14999999963E+04  0.15000000000E+04  0.10566000000E+00 0. -1.
        994   -1    0    0    0    0 -0.00000000000E+00 -0.00000000000E+00  0.11368683772E-12  0.17120000000E+03  0.17120000000E+03 0.  0.
         13    1    1    2    0    0 -0.14131299795E+02 -0.33466595313E+00  0.33658057210E+02  0.36505912047E+02  0.10566000000E+00 0. -1.
        994    1    1    2    0    0  0.72213397678E+01 -0.79566778808E+01  0.32902549178E+01  0.17156841856E+03  0.17120000000E+03 0.  0.
        998    1    1    2    0    0  0.69099600269E+01  0.82913438339E+01  0.14630516842E+04  0.14631256694E+04  0.10000000000E+02 0. -1.
</event>
<event>
 5    1  0.1300052E-008  0.3799785E+03  0.7957747E-01  0.3451252E+00
         13   -1    0    0    0    0  0.00000000000E+00  0.00000000000E+00  0.14999999963E+04  0.15000000000E+04  0.10566000000E+00 0. -1.
        994   -1    0    0    0    0 -0.00000000000E+00 -0.00000000000E+00  0.11368683772E-12  0.17120000000E+03  0.17120000000E+03 0.  0.
         13    1    1    2    0    0  0.64805902080E+02 -0.83844715966E+02  0.28573962909E+03  0.30475709694E+03  0.10566000000E+00 0. -1.
        994    1    1    2    0    0 -0.65788473090E+02  0.71422502552E+02  0.51332673195E+02  0.20340545814E+03  0.17120000000E+03 0.  0.
        998    1    1    2    0    0  0.98257100954E+00  0.12422213414E+02  0.11629276940E+04  0.11630374449E+04  0.10000000000E+02 0. -1.
</event>
<event>
 5    1  0.1300052E-008  0.3820009E+03  0.7957747E-01  0.3442492E+00
         13   -1    0    0    0    0  0.00000000000E+00  0.00000000000E+00  0.14999999963E+04  0.15000000000E+04  0.10566000000E+00 0.  1.
        994   -1    0    0    0    0 -0.00000000000E+00 -0.00000000000E+00  0.11368683772E-12  0.17120000000E+03  0.17120000000E+03 0.  0.
         13    1    1    2    0    0 -0.53733601058E+01 -0.10896222132E+02  0.22678238655E+02  0.25727695740E+02  0.10566000000E+00 0.  1.
        994    1    1    2    0    0 -0.38143364052E+00  0.49874879210E+01  0.32095748449E+01  0.17130312869E+03  0.17120000000E+03 0.  0.
        998    1    1    2    0    0  0.57547937463E+01  0.59087342108E+01  0.14741121828E+04  0.14741691756E+04  0.10000000000E+02 0.  1.
</event>
<event>
 5    1  0.1300052E-008  0.3839478E+03  0.7957747E-01  0.3434147E+00
         13   -1    0    0    0    0  0.00000000000E+00  0.00000000000E+00  0.14999999963E+04  0.15000000000E+04  0.10566000000E+00 0. -1.
        994   -1    0    0    0    0 -0.00000000000E+00 -0.00000000000E+00  0.11368683772E-12  0.17120000000E+03  0.17120000000E+03 0.  0.
         13    1    1    2    0    0  0.16219480552E+02  0.95860348080E+01  0.85779241900E+02  0.87823989420E+02  0.10566000000E+00 0. -1.
        994    1    1    2    0    0 -0.37543266400E+01 -0.34203702530E+01  0.22385795262E+01  0.17128994465E+03  0.17120000000E+03 0.  0.
        998    1    1    2    0    0 -0.12465153912E+02 -0.61656645549E+01  0.14119821749E+04  0.14120860659E+04  0.10000000000E+02 0. -1.
</event>
<event>
 5    1  0.1300052E-008  0.3743973E+03  0.7957747E-01  0.3475923E+00
         13   -1    0    0    0    0  0.00000000000E+00  0.00000000000E+00  0.14999999963E+04  0.15000000000E+04  0.10566000000E+00 0. -1.
        994   -1    0    0    0    0 -0.00000000000E+00 -0.00000000000E+00  0.11368683772E-12  0.17120000000E+03  0.17120000000E+03 0.  0.
         13    1    1    2    0    0 -0.11270781206E+02  0.36494367059E+02  0.49806931751E+02  0.62766320193E+02  0.10566000000E+00 0. -1.
        994    1    1    2    0    0  0.47965747498E+01 -0.26910745532E+02  0.15940675073E+02  0.17409980033E+03  0.17120000000E+03 0.  0.
        998    1    1    2    0    0  0.64742064558E+01 -0.95836215269E+01  0.14342523895E+04  0.14343338795E+04  0.10000000000E+02 0. -1.
</event>
<event>
 5    1  0.1300052E-008  0.3842729E+03  0.7957747E-01  0.3432762E+00
         13   -1    0    0    0    0  0.00000000000E+00  0.00000000000E+00  0.14999999963E+04  0.15000000000E+04  0.10566000000E+00 0.  1.
        994   -1    0    0    0    0 -0.00000000000E+00 -0.00000000000E+00  0.11368683772E-12  0.17120000000E+03  0.17120000000E+03 0.  0.
         13    1    1    2    0    0  0.78518155847E+00 -0.10611180613E+02  0.28339440882E+02  0.30271252660E+02  0.10566000000E+00 0.  1.
        994    1    1    2    0    0  0.31447237386E+01  0.36132020725E+01  0.20672193498E+01  0.17127947312E+03  0.17120000000E+03 0.  0.
        998    1    1    2    0    0 -0.39299052970E+01  0.69979785409E+01  0.14695933360E+04  0.14696492742E+04  0.10000000000E+02 0.  0.
</event>
<event>
 5    1  0.1300052E-008  0.2409995E+03  0.7957747E-01  0.4434629E+00
         13   -1    0    0    0    0  0.00000000000E+00  0.00000000000E+00  0.14999999963E+04  0.15000000000E+04  0.10566000000E+00 0. -1.
        994   -1    0    0    0    0 -0.00000000000E+00 -0.00000000000E+00  0.11368683772E-12  0.17120000000E+03  0.17120000000E+03 0.  0.
         13    1    1    2    0    0 -0.44518684443E+02  0.16044036529E+03  0.18001868574E+03  0.24521370773E+03  0.10566000000E+00 0. -1.
        994    1    1    2    0    0 -0.19192593357E+01 -0.17770930718E+03  0.23804164480E+03  0.34286665932E+03  0.17120000000E+03 0.  0.
        998    1    1    2    0    0  0.46437943778E+02  0.17268941885E+02  0.10819396657E+04  0.10831196330E+04  0.10000000000E+02 0. -1.
</event>
<event>
 5    1  0.1300052E-008  0.3684461E+03  0.7957747E-01  0.3503063E+00
         13   -1    0    0    0    0  0.00000000000E+00  0.00000000000E+00  0.14999999963E+04  0.15000000000E+04  0.10566000000E+00 0. -1.
        994   -1    0    0    0    0 -0.00000000000E+00 -0.00000000000E+00  0.11368683772E-12  0.17120000000E+03  0.17120000000E+03 0.  0.
         13    1    1    2    0    0  0.65397664292E+01 -0.39160861208E+02  0.69579905656E+02  0.80110648672E+02  0.10566000000E+00 0. -1.
        994    1    1    2    0    0 -0.58070197487E+01  0.45738977830E+02  0.17547665988E+02  0.17816603535E+03  0.17120000000E+03 0.  0.
        998    1    1    2    0    0 -0.73274668050E+00 -0.65781166218E+01  0.14128724246E+04  0.14129233160E+04  0.10000000000E+02 0. -1.
</event>
<event>
 5    1  0.1300052E-008  0.3803255E+03  0.7957747E-01  0.3449742E+00
         13   -1    0    0    0    0  0.00000000000E+00  0.00000000000E+00  0.14999999963E+04  0.15000000000E+04  0.10566000000E+00 0.  1.
        994   -1    0    0    0    0 -0.00000000000E+00 -0.00000000000E+00  0.11368683772E-12  0.17120000000E+03  0.17120000000E+03 0.  0.
         13    1    1    2    0    0 -0.10517899604E+02  0.18422297521E+02  0.55431091346E+02  0.59351700143E+02  0.10566000000E+00 0.  1.
        994    1    1    2    0    0  0.97348217872E+01 -0.92594847081E+01  0.45719054012E+01  0.17178721469E+03  0.17120000000E+03 0.  0.
        998    1    1    2    0    0  0.78307781631E+00 -0.91628128134E+01  0.14399969995E+04  0.14400610852E+04  0.10000000000E+02 0.  1.
</event>
<event>
 5    1  0.1300052E-008  0.3745291E+03  0.7957747E-01  0.3475331E+00
         13   -1    0    0    0    0  0.00000000000E+00  0.00000000000E+00  0.14999999963E+04  0.15000000000E+04  0.10566000000E+00 0.  1.
        994   -1    0    0    0    0 -0.00000000000E+00 -0.00000000000E+00  0.11368683772E-12  0.17120000000E+03  0.17120000000E+03 0.  0.
         13    1    1    2    0    0 -0.57697235039E+01 -0.15003933928E+02  0.15499098234E+02  0.22330269876E+02  0.10566000000E+00 0.  1.
        994    1    1    2    0    0  0.39729941843E+00  0.16458902060E+02  0.78441072191E+01  0.17216858982E+03  0.17120000000E+03 0.  0.
        998    1    1    2    0    0  0.53724240855E+01 -0.14549681318E+01  0.14766567908E+04  0.14767011403E+04  0.10000000000E+02 0.  1.
</event>
<event>
 5    1  0.1300052E-008  0.3691258E+03  0.7957747E-01  0.3499918E+00
         13   -1    0    0    0    0  0.00000000000E+00  0.00000000000E+00  0.14999999963E+04  0.15000000000E+04  0.10566000000E+00 0.  1.
        994   -1    0    0    0    0 -0.00000000000E+00 -0.00000000000E+00  0.11368683772E-12  0.17120000000E+03  0.17120000000E+03 0.  0.
         13    1    1    2    0    0 -0.23290561254E+02  0.11991334482E+02  0.31419886291E+02  0.40907979230E+02  0.10566000000E+00 0.  1.
        994    1    1    2    0    0  0.13130800632E+02 -0.11368430616E+02  0.10773610516E+02  0.17241568903E+03  0.17120000000E+03 0.  0.
        998    1    1    2    0    0  0.10159760621E+02 -0.62290386572E+00  0.14578064995E+04  0.14578763317E+04  0.10000000000E+02 0.  1.
</event>
<event>
 5    1  0.1300052E-008  0.3770111E+03  0.7957747E-01  0.3464277E+00
         13   -1    0    0    0    0  0.00000000000E+00  0.00000000000E+00  0.14999999963E+04  0.15000000000E+04  0.10566000000E+00 0. -1.
        994   -1    0    0    0    0 -0.00000000000E+00 -0.00000000000E+00  0.11368683772E-12  0.17120000000E+03  0.17120000000E+03 0.  0.
         13    1    1    2    0    0  0.27319995060E+02 -0.36528442159E+02  0.24299705328E+03  0.24724135634E+03  0.10566000000E+00 0. -1.
        994    1    1    2    0    0  0.20640004437E+02  0.11469744170E+01  0.70937134448E+01  0.17258935687E+03  0.17120000000E+03 0.  0.
        998    1    1    2    0    0 -0.47959999497E+02  0.35381467741E+02  0.12499092296E+04  0.12513692868E+04  0.10000000000E+02 0. -1.
</event>
<event>
 5    1  0.1300052E-008  0.3790192E+03  0.7957747E-01  0.3455440E+00
         13   -1    0    0    0    0  0.00000000000E+00  0.00000000000E+00  0.14999999963E+04  0.15000000000E+04  0.10566000000E+00 0.  1.
        994   -1    0    0    0    0 -0.00000000000E+00 -0.00000000000E+00  0.11368683772E-12  0.17120000000E+03  0.17120000000E+03 0.  0.
         13    1    1    2    0    0 -0.11226248082E+02 -0.10813302141E+02  0.24700308781E+02  0.29207406032E+02  0.10566000000E+00 0.  1.
        994    1    1    2    0    0  0.55440619095E+01  0.20074579940E+01  0.47456667090E+01  0.17136723101E+03  0.17120000000E+03 0.  0.
        998    1    1    2    0    0  0.56821861726E+01  0.88058441473E+01  0.14705540208E+04  0.14706253630E+04  0.10000000000E+02 0.  1.
</event>
<event>
 5    1  0.1300052E-008  0.3859945E+03  0.7957747E-01  0.3425465E+00
         13   -1    0    0    0    0  0.00000000000E+00  0.00000000000E+00  0.14999999963E+04  0.15000000000E+04  0.10566000000E+00 0. -1.
        994   -1    0    0    0    0 -0.00000000000E+00 -0.00000000000E+00  0.11368683772E-12  0.17120000000E+03  0.17120000000E+03 0.  0.
         13    1    1    2    0    0 -0.34207156725E+01  0.11208501853E+02  0.62350496313E+02  0.63442315247E+02  0.10566000000E+00 0. -1.
        994    1    1    2    0    0  0.45986578347E+01 -0.39116979598E+01  0.12566681321E+01  0.17131102781E+03  0.17120000000E+03 0.  0.
        998    1    1    2    0    0 -0.11779421622E+01 -0.72968038935E+01  0.14363928318E+04  0.14364466569E+04  0.10000000000E+02 0. -1.
</event>
<event>
 5    1  0.1300052E-008  0.3765980E+03  0.7957747E-01  0.3466107E+00
         13   -1    0    0    0    0  0.00000000000E+00  0.00000000000E+00  0.14999999963E+04  0.15000000000E+04  0.10566000000E+00 0.  1.
        994   -1    0    0    0    0 -0.00000000000E+00 -0.00000000000E+00  0.11368683772E-12  0.17120000000E+03  0.17120000000E+03 0.  0.
         13    1    1    2    0    0  0.59644388479E+02 -0.99753109596E+01  0.23460593850E+03  0.24227446719E+03  0.10566000000E+00 0.  1.
        994    1    1    2    0    0 -0.75067355260E+02  0.14717838519E+02  0.25908380446E+02  0.18929449747E+03  0.17120000000E+03 0.  0.
        998    1    1    2    0    0  0.15422966781E+02 -0.47425275589E+01  0.12394856773E+04  0.12396310353E+04  0.10000000000E+02 0.  1.
</event>
<event>
 5    1  0.1300052E-008  0.3694780E+03  0.7957747E-01  0.3498293E+00
         13   -1    0    0    0    0  0.00000000000E+00  0.00000000000E+00  0.14999999963E+04  0.15000000000E+04  0.10566000000E+00 0.  1.
        994   -1    0    0    0    0 -0.00000000000E+00 -0.00000000000E+00  0.11368683772E-12  0.17120000000E+03  0.17120000000E+03 0.  0.
         13    1    1    2    0    0 -0.36282601604E+02  0.28657297049E+02  0.99411005051E+02  0.10963679557E+03  0.10566000000E+00 0.  1.
        994    1    1    2    0    0  0.35725766175E+02 -0.40228767444E+02  0.19636841505E+02  0.18052625749E+03  0.17120000000E+03 0.  0.
        998    1    1    2    0    0  0.55683542874E+00  0.11571470395E+02  0.13809521497E+04  0.13810369469E+04  0.10000000000E+02 0.  1.
</event>
<event>
 5    1  0.1300052E-008  0.3782238E+03  0.7957747E-01  0.3458929E+00
         13   -1    0    0    0    0  0.00000000000E+00  0.00000000000E+00  0.14999999963E+04  0.15000000000E+04  0.10566000000E+00 0. -1.
        994   -1    0    0    0    0 -0.00000000000E+00 -0.00000000000E+00  0.11368683772E-12  0.17120000000E+03  0.17120000000E+03 0.  0.
         13    1    1    2    0    0 -0.14409383510E+02 -0.52657967320E+01  0.21150666434E+02  0.26128926557E+02  0.10566000000E+00 0. -1.
        994    1    1    2    0    0  0.14782502648E+02 -0.34211722037E+01  0.58070094974E+01  0.17196914887E+03  0.17120000000E+03 0.  0.
        998    1    1    2    0    0 -0.37311913720E+00  0.86869689357E+01  0.14730423203E+04  0.14731019246E+04  0.10000000000E+02 0. -1.
</event>
<event>
 5    1  0.1300052E-008  0.3856424E+03  0.7957747E-01  0.3426952E+00
         13   -1    0    0    0    0  0.00000000000E+00  0.00000000000E+00  0.14999999963E+04  0.15000000000E+04  0.10566000000E+00 0. -1.
        994   -1    0    0    0    0 -0.00000000000E+00 -0.00000000000E+00  0.11368683772E-12  0.17120000000E+03  0.17120000000E+03 0.  0.
         13    1    1    2    0    0  0.11396325239E+01 -0.11157920691E+02  0.46970113511E+02  0.48290792950E+02  0.10566000000E+00 0. -1.
        994    1    1    2    0    0  0.14612717541E+01  0.12274868711E+02  0.18131700649E+01  0.17165528044E+03  0.17120000000E+03 0.  0.
        998    1    1    2    0    0 -0.26009042780E+01 -0.11169480193E+01  0.14512167127E+04  0.14512539266E+04  0.10000000000E+02 0. -1.
</event>
<event>
 5    1  0.1300052E-008  0.3855426E+03  0.7957747E-01  0.3427374E+00
         13   -1    0    0    0    0  0.00000000000E+00  0.00000000000E+00  0.14999999963E+04  0.15000000000E+04  0.10566000000E+00 0. -1.
        994   -1    0    0    0    0 -0.00000000000E+00 -0.00000000000E+00  0.11368683772E-12  0.17120000000E+03  0.17120000000E+03 0.  0.
         13    1    1    2    0    0 -0.10133064142E+02 -0.18945030630E+01  0.39061604484E+02  0.40399111867E+02  0.10566000000E+00 0. -1.
        994    1    1    2    0    0  0.87503127510E+01 -0.57528245410E+01  0.17210743613E+01  0.17152861295E+03  0.17120000000E+03 0.  0.
        998    1    1    2    0    0  0.13827513911E+01  0.76473276039E+01  0.14592173174E+04  0.14592722752E+04  0.10000000000E+02 0. -1.
</event>
<event>
 5    1  0.1300052E-008  0.3883578E+03  0.7957747E-01  0.3415555E+00
         13   -1    0    0    0    0  0.00000000000E+00  0.00000000000E+00  0.14999999963E+04  0.15000000000E+04  0.10566000000E+00 0.  1.
        994   -1    0    0    0    0 -0.00000000000E+00 -0.00000000000E+00  0.11368683772E-12  0.17120000000E+03  0.17120000000E+03 0.  0.
         13    1    1    2    0    0  0.36558310149E+02 -0.30585067974E+02  0.45063227365E+02  0.65594680032E+02  0.10566000000E+00 0.  1.
        994    1    1    2    0    0 -0.37913679051E+02  0.28003547787E+02  0.29348436813E+02  0.17997893346E+03  0.17120000000E+03 0.  0.
        998    1    1    2    0    0  0.13553689017E+01  0.25815201867E+01  0.14255883321E+04  0.14256263865E+04  0.10000000000E+02 0.  1.
</event>
<event>
 5    1  0.1300052E-008  0.3858093E+03  0.7957747E-01  0.3426247E+00
         13   -1    0    0    0    0  0.00000000000E+00  0.00000000000E+00  0.14999999963E+04  0.15000000000E+04  0.10566000000E+00 0.  1.
        994   -1    0    0    0    0 -0.00000000000E+00 -0.00000000000E+00  0.11368683772E-12  0.17120000000E+03  0.17120000000E+03 0.  0.
         13    1    1    2    0    0 -0.29789658192E+01 -0.11431516243E+02  0.53368863514E+02  0.54660777142E+02  0.10566000000E+00 0.  1.
        994    1    1    2    0    0  0.37878981786E+01  0.18459985056E+02  0.23945271582E+01  0.17225066903E+03  0.17120000000E+03 0.  0.
        998    1    1    2    0    0 -0.80893235934E+00 -0.70284688135E+01  0.14442366056E+04  0.14442885538E+04  0.10000000000E+02 0.  1.
</event>
<event>
 5    1  0.1300052E-008  0.3837621E+03  0.7957747E-01  0.3434939E+00
         13   -1    0    0    0    0  0.00000000000E+00  0.00000000000E+00  0.14999999963E+04  0.15000000000E+04  0.10566000000E+00 0.  1.
        994   -1    0    0    0    0 -0.00000000000E+00 -0.00000000000E+00  0.11368683772E-12  0.17120000000E+03  0.17120000000E+03 0.  0.
         13    1    1    2    0    0  0.13298001531E+02  0.61271565950E+01  0.45569583535E+02  0.47864151515E+02  0.10566000000E+00 0.  1.
        994    1    1    2    0    0 -0.16408501514E+02 -0.54713668632E+01  0.32344357402E+01  0.17210193593E+03  0.17120000000E+03 0.  0.
        998    1    1    2    0    0  0.31104999822E+01 -0.65578973174E+00  0.14511959770E+04  0.14512339126E+04  0.10000000000E+02 0.  1.
</event>
<event>
 5    1  0.1300052E-008  0.3768015E+03  0.7957747E-01  0.3465205E+00
         13   -1    0    0    0    0  0.00000000000E+00  0.00000000000E+00  0.14999999963E+04  0.15000000000E+04  0.10566000000E+00 0. -1.
        994   -1    0    0    0    0 -0.00000000000E+00 -0.00000000000E+00  0.11368683772E-12  0.17120000000E+03  0.17120000000E+03 0.  0.
         13    1    1    2    0    0 -0.19919980367E+02  0.13902692134E+02  0.50158308777E+02  0.55731118504E+02  0.10566000000E+00 0. -1.
        994    1    1    2    0    0  0.86982629595E+01 -0.33266952797E+01  0.60495747312E+01  0.17155979726E+03  0.17120000000E+03 0.  0.
        998    1    1    2    0    0  0.11221717407E+02 -0.10575996854E+02  0.14437921128E+04  0.14439090842E+04  0.10000000000E+02 0. -1.
</event>
<event>
 5    1  0.1300052E-008  0.3816255E+03  0.7957747E-01  0.3444111E+00
         13   -1    0    0    0    0  0.00000000000E+00  0.00000000000E+00  0.14999999963E+04  0.15000000000E+04  0.10566000000E+00 0.  1.
        994   -1    0    0    0    0 -0.00000000000E+00 -0.00000000000E+00  0.11368683772E-12  0.17120000000E+03  0.17120000000E+03 0.  0.
         13    1    1    2    0    0  0.35395346072E+02  0.12165085648E+02  0.20874822998E+03  0.21207700138E+03  0.10566000000E+00 0.  1.
        994    1    1    2    0    0 -0.22291386584E+02 -0.42890676270E+01  0.50301539454E+01  0.17277165412E+03  0.17120000000E+03 0.  0.
        998    1    1    2    0    0 -0.13103959488E+02 -0.78760180206E+01  0.12862216124E+04  0.12863513445E+04  0.10000000000E+02 0.  1.
</event>
<event>
 5    1  0.1300052E-008  0.3864570E+03  0.7957747E-01  0.3423516E+00
         13   -1    0    0    0    0  0.00000000000E+00  0.00000000000E+00  0.14999999963E+04  0.15000000000E+04  0.10566000000E+00 0. -1.
        994   -1    0    0    0    0 -0.00000000000E+00 -0.00000000000E+00  0.11368683772E-12  0.17120000000E+03  0.17120000000E+03 0.  0.
         13    1    1    2    0    0 -0.10639779786E+02 -0.51594924911E+00  0.62232922664E+02  0.63138094245E+02  0.10566000000E+00 0. -1.
        994    1    1    2    0    0  0.10335428387E+02 -0.43053601546E+01  0.13188907171E+01  0.17157079203E+03  0.17120000000E+03 0.  0.
        998    1    1    2    0    0  0.30435139862E+00  0.48213094037E+01  0.14364481829E+04  0.14364911137E+04  0.10000000000E+02 0. -1.
</event>
<event>
 5    1  0.1300052E-008  0.4018057E+03  0.7957747E-01  0.3361381E+00
         13   -1    0    0    0    0  0.00000000000E+00  0.00000000000E+00  0.14999999963E+04  0.15000000000E+04  0.10566000000E+00 0. -1.
        994   -1    0    0    0    0 -0.00000000000E+00 -0.00000000000E+00  0.11368683772E-12  0.17120000000E+03  0.17120000000E+03 0.  0.
         13    1    1    2    0    0 -0.72999945361E+01 -0.52381038900E+02  0.35601352422E+02  0.63753671383E+02  0.10566000000E+00 0. -1.
        994    1    1    2    0    0  0.10789507593E+02  0.65530996764E+02  0.46472684088E+02  0.18941983892E+03  0.17120000000E+03 0.  0.
        998    1    1    2    0    0 -0.34895130565E+01 -0.13149957864E+02  0.14179259598E+04  0.14180264897E+04  0.10000000000E+02 0. -1.
</event>
<event>
 5    1  0.1300052E-008  0.3854338E+03  0.7957747E-01  0.3427834E+00
         13   -1    0    0    0    0  0.00000000000E+00  0.00000000000E+00  0.14999999963E+04  0.15000000000E+04  0.10566000000E+00 0.  1.
        994   -1    0    0    0    0 -0.00000000000E+00 -0.00000000000E+00  0.11368683772E-12  0.17120000000E+03  0.17120000000E+03 0.  0.
         13    1    1    2    0    0 -0.23235103038E+00  0.12837379412E+02  0.63549670294E+02  0.64833818765E+02  0.10566000000E+00 0.  1.
        994    1    1    2    0    0 -0.57991602075E+01  0.34815232331E+01  0.15651739438E+01  0.17134071621E+03  0.17120000000E+03 0.  0.
        998    1    1    2    0    0  0.60315112379E+01 -0.16318902646E+02  0.14348851520E+04  0.14350254650E+04  0.10000000000E+02 0.  1.
</event>
<event>
 5    1  0.1300052E-008  0.3774380E+03  0.7957747E-01  0.3462391E+00
         13   -1    0    0    0    0  0.00000000000E+00  0.00000000000E+00  0.14999999963E+04  0.15000000000E+04  0.10566000000E+00 0.  1.
        994   -1    0    0    0    0 -0.00000000000E+00 -0.00000000000E+00  0.11368683772E-12  0.17120000000E+03  0.17120000000E+03 0.  0.
         13    1    1    2    0    0 -0.15163668634E+02 -0.10223325394E+01  0.19311441998E+02  0.24574884869E+02  0.10566000000E+00 0.  1.
        994    1    1    2    0    0  0.35273861598E+01 -0.10603858853E+02  0.58532273378E+01  0.17166416209E+03  0.17120000000E+03 0.  0.
        998    1    1    2    0    0  0.11636282474E+02  0.11626191393E+02  0.14748353269E+04  0.14749609530E+04  0.10000000000E+02 0.  1.
</event>
<event>
 5    1  0.1300052E-008  0.3694458E+03  0.7957747E-01  0.3498442E+00
         13   -1    0    0    0    0  0.00000000000E+00  0.00000000000E+00  0.14999999963E+04  0.15000000000E+04  0.10566000000E+00 0. -1.
        994   -1    0    0    0    0 -0.00000000000E+00 -0.00000000000E+00  0.11368683772E-12  0.17120000000E+03  0.17120000000E+03 0.  0.
         13    1    1    2    0    0  0.80807540330E+00  0.48443620257E+02  0.13611114474E+03  0.14447730692E+03  0.10566000000E+00 0. -1.
        994    1    1    2    0    0  0.73893401880E+01  0.49436654701E+00  0.97490699227E+01  0.17163720783E+03  0.17120000000E+03 0.  0.
        998    1    1    2    0    0 -0.81974155913E+01 -0.48937986804E+02  0.13541397816E+04  0.13550854852E+04  0.10000000000E+02 0. -1.
</event>
<event>
 5    1  0.1300052E-008  0.3853689E+03  0.7957747E-01  0.3428109E+00
         13   -1    0    0    0    0  0.00000000000E+00  0.00000000000E+00  0.14999999963E+04  0.15000000000E+04  0.10566000000E+00 0. -1.
        994   -1    0    0    0    0 -0.00000000000E+00 -0.00000000000E+00  0.11368683772E-12  0.17120000000E+03  0.17120000000E+03 0.  0.
         13    1    1    2    0    0  0.10843445431E+02 -0.32911628992E+00  0.37742619449E+02  0.39270919435E+02  0.10566000000E+00 0. -1.
        994    1    1    2    0    0 -0.22065145445E+02  0.37889914204E+01  0.30952126371E+01  0.17268540020E+03  0.17120000000E+03 0.  0.
        998    1    1    2    0    0  0.11221700013E+02 -0.34598751305E+01  0.14591621642E+04  0.14592436804E+04  0.10000000000E+02 0. -1.
</event>
<event>
 5    1  0.1300052E-008  0.3685052E+03  0.7957747E-01  0.3502789E+00
         13   -1    0    0    0    0  0.00000000000E+00  0.00000000000E+00  0.14999999963E+04  0.15000000000E+04  0.10566000000E+00 0. -1.
        994   -1    0    0    0    0 -0.00000000000E+00 -0.00000000000E+00  0.11368683772E-12  0.17120000000E+03  0.17120000000E+03 0.  0.
         13    1    1    2    0    0 -0.32156401534E+02 -0.44375556193E+02  0.20313253776E+03  0.21039501707E+03  0.10566000000E+00 0. -1.
        994    1    1    2    0    0 -0.34942851404E+02 -0.10641235608E+02  0.14703961574E+02  0.17566981882E+03  0.17120000000E+03 0.  0.
        998    1    1    2    0    0  0.67099252938E+02  0.55016791801E+02  0.12821634969E+04  0.12851351641E+04  0.10000000000E+02 0. -1.
</event>
<event>
 5    1  0.1300052E-008  0.3714440E+03  0.7957747E-01  0.3489281E+00
         13   -1    0    0    0    0  0.00000000000E+00  0.00000000000E+00  0.14999999963E+04  0.15000000000E+04  0.10566000000E+00 0.  1.
        994   -1    0    0    0    0 -0.00000000000E+00 -0.00000000000E+00  0.11368683772E-12  0.17120000000E+03  0.17120000000E+03 0.  0.
         13    1    1    2    0    0  0.94246820968E-01  0.26966189524E+02  0.38093303221E+02  0.46672209871E+02  0.10566000000E+00 0.  1.
        994    1    1    2    0    0 -0.34590482041E+01 -0.29675701996E+02  0.11593462857E+02  0.17417365095E+03  0.17120000000E+03 0.  0.
        998    1    1    2    0    0  0.33648013832E+01  0.27095124723E+01  0.14503132302E+04  0.14503541392E+04  0.10000000000E+02 0.  1.
</event>
<event>
 5    1  0.1300052E-008  0.3838114E+03  0.7957747E-01  0.3434729E+00
         13   -1    0    0    0    0  0.00000000000E+00  0.00000000000E+00  0.14999999963E+04  0.15000000000E+04  0.10566000000E+00 0.  1.
        994   -1    0    0    0    0 -0.00000000000E+00 -0.00000000000E+00  0.11368683772E-12  0.17120000000E+03  0.17120000000E+03 0.  0.
         13    1    1    2    0    0  0.11842321570E+02  0.21145424856E+02  0.11695122949E+03  0.11943605325E+03  0.10566000000E+00 0.  1.
        994    1    1    2    0    0 -0.11164877579E+02 -0.29672792198E+02  0.55468047396E+01  0.17419912781E+03  0.17120000000E+03 0.  0.
        998    1    1    2    0    0 -0.67744399110E+00  0.85273673419E+01  0.13775019620E+04  0.13775648189E+04  0.10000000000E+02 0.  1.
</event>
<event>
 5    1  0.1300052E-008  0.3846821E+03  0.7957747E-01  0.3431022E+00
         13   -1    0    0    0    0  0.00000000000E+00  0.00000000000E+00  0.14999999963E+04  0.15000000000E+04  0.10566000000E+00 0.  1.
        994   -1    0    0    0    0 -0.00000000000E+00 -0.00000000000E+00  0.11368683772E-12  0.17120000000E+03  0.17120000000E+03 0.  0.
         13    1    1    2    0    0 -0.10536073880E+02  0.61370309000E+01  0.42336478455E+02  0.44057468982E+02  0.10566000000E+00 0.  1.
        994    1    1    2    0    0  0.18795175887E+01 -0.33555206094E+01  0.18367701417E+01  0.17125304619E+03  0.17120000000E+03 0.  0.
        998    1    1    2    0    0  0.86565562910E+01 -0.27815102906E+01  0.14558267477E+04  0.14558894848E+04  0.10000000000E+02 0.  1.
</event>
<event>
 5    1  0.1300052E-008  0.3825045E+03  0.7957747E-01  0.3440325E+00
         13   -1    0    0    0    0  0.00000000000E+00  0.00000000000E+00  0.14999999963E+04  0.15000000000E+04  0.10566000000E+00 0. -1.
        994   -1    0    0    0    0 -0.00000000000E+00 -0.00000000000E+00  0.11368683772E-12  0.17120000000E+03  0.17120000000E+03 0.  0.
         13    1    1    2    0    0 -0.22154867892E+02 -0.10585711647E+02  0.11550725170E+03  0.11808823744E+03  0.10566000000E+00 0. -1.
        994    1    1    2    0    0  0.31926077591E+01 -0.83691582026E+01  0.31402776758E+01  0.17146293155E+03  0.17120000000E+03 0.  0.
        998    1    1    2    0    0  0.18962260133E+02  0.18954869850E+02  0.13813524669E+04  0.13816488310E+04  0.10000000000E+02 0. -1.
</event>
<event>
 5    1  0.1300052E-008  0.3841158E+03  0.7957747E-01  0.3433431E+00
         13   -1    0    0    0    0  0.00000000000E+00  0.00000000000E+00  0.14999999963E+04  0.15000000000E+04  0.10566000000E+00 0.  1.
        994   -1    0    0    0    0 -0.00000000000E+00 -0.00000000000E+00  0.11368683772E-12  0.17120000000E+03  0.17120000000E+03 0.  0.
         13    1    1    2    0    0  0.15700000193E+02 -0.65412182011E+01  0.69260400290E+02  0.71318242785E+02  0.10566000000E+00 0.  1.
        994    1    1    2    0    0 -0.81289706095E+01  0.10856222941E+02  0.26766571538E+01  0.17175721887E+03  0.17120000000E+03 0.  0.
        998    1    1    2    0    0 -0.75710295830E+01 -0.43150047397E+01  0.14280629388E+04  0.14281245383E+04  0.10000000000E+02 0.  1.
</event>
<event>
 5    1  0.1300052E-008  0.3815525E+03  0.7957747E-01  0.3444426E+00
         13   -1    0    0    0    0  0.00000000000E+00  0.00000000000E+00  0.14999999963E+04  0.15000000000E+04  0.10566000000E+00 0.  1.
        994   -1    0    0    0    0 -0.00000000000E+00 -0.00000000000E+00  0.11368683772E-12  0.17120000000E+03  0.17120000000E+03 0.  0.
         13    1    1    2    0    0  0.13976652151E+01 -0.13110227929E+02  0.23334591104E+02  0.26801974748E+02  0.10566000000E+00 0.  1.
        994    1    1    2    0    0  0.14385821968E+02  0.28496030677E+02  0.67478802507E+01  0.17428123687E+03  0.17120000000E+03 0.  0.
        998    1    1    2    0    0 -0.15783487183E+02 -0.15385802748E+02  0.14699175249E+04  0.14701167884E+04  0.10000000000E+02 0.  1.
</event>
<event>
 5    1  0.1300052E-008  0.3856992E+03  0.7957747E-01  0.3426712E+00
         13   -1    0    0    0    0  0.00000000000E+00  0.00000000000E+00  0.14999999963E+04  0.15000000000E+04  0.10566000000E+00 0. -1.
        994   -1    0    0    0    0 -0.00000000000E+00 -0.00000000000E+00  0.11368683772E-12  0.17120000000E+03  0.17120000000E+03 0.  0.
         13    1    1    2    0    0 -0.54254889707E+01  0.10363765649E+02  0.58173591003E+02  0.59338195314E+02  0.10566000000E+00 0. -1.
        994    1    1    2    0    0 -0.52189190884E+01  0.16405129811E+01  0.13816136806E+01  0.17129295740E+03  0.17120000000E+03 0.  0.
        998    1    1    2    0    0  0.10644408059E+02 -0.12004278630E+02  0.14404447916E+04  0.14405688473E+04  0.10000000000E+02 0. -1.
</event>
<event>
 5    1  0.1300052E-008  0.3729285E+03  0.7957747E-01  0.3482539E+00
         13   -1    0    0    0    0  0.00000000000E+00  0.00000000000E+00  0.14999999963E+04  0.15000000000E+04  0.10566000000E+00 0.  1.
        994   -1    0    0    0    0 -0.00000000000E+00 -0.00000000000E+00  0.11368683772E-12  0.17120000000E+03  0.17120000000E+03 0.  0.
         13    1    1    2    0    0 -0.48515278987E+01  0.15385674204E+02  0.13610098269E+02  0.21106923806E+02  0.10566000000E+00 0.  1.
        994    1    1    2    0    0 -0.58100058337E+01 -0.63041667957E+01  0.79979847037E+01  0.17160100946E+03  0.17120000000E+03 0.  0.
        998    1    1    2    0    0  0.10661533732E+02 -0.90815074079E+01  0.14783919133E+04  0.14784920667E+04  0.10000000000E+02 0.  1.
</event>
<event>
 5    1  0.1300052E-008  0.3801000E+03  0.7957747E-01  0.3450723E+00
         13   -1    0    0    0    0  0.00000000000E+00  0.00000000000E+00  0.14999999963E+04  0.15000000000E+04  0.10566000000E+00 0.  1.
        994   -1    0    0    0    0 -0.00000000000E+00 -0.00000000000E+00  0.11368683772E-12  0.17120000000E+03  0.17120000000E+03 0.  0.
         13    1    1    2    0    0  0.15264822467E+01 -0.17816012356E+02  0.24041744927E+01  0.18042496040E+02  0.10566000000E+00 0.  1.
        994    1    1    2    0    0  0.40237001456E+01  0.14628294138E+02  0.17217061720E+02  0.17273113317E+03  0.17120000000E+03 0.  0.
        998    1    1    2    0    0 -0.55501823923E+01  0.31877182181E+01  0.14803787601E+04  0.14804263708E+04  0.10000000000E+02 0.  1.
</event>
<event>
 5    1  0.1300052E-008  0.3801502E+03  0.7957747E-01  0.3450505E+00
         13   -1    0    0    0    0  0.00000000000E+00  0.00000000000E+00  0.14999999963E+04  0.15000000000E+04  0.10566000000E+00 0.  1.
        994   -1    0    0    0    0 -0.00000000000E+00 -0.00000000000E+00  0.11368683772E-12  0.17120000000E+03  0.17120000000E+03 0.  0.
         13    1    1    2    0    0  0.35096936339E+01 -0.30280818835E+02  0.11950530449E+03  0.12333197033E+03  0.10566000000E+00 0.  1.
        994    1    1    2    0    0 -0.15963891163E+02  0.71410036894E+01  0.50798858400E+01  0.17216586478E+03  0.17120000000E+03 0.  0.
        998    1    1    2    0    0  0.12454197529E+02  0.23139815146E+02  0.13754148059E+04  0.13757021649E+04  0.10000000000E+02 0.  1.
</event>
<event>
 5    1  0.1300052E-008  0.3820125E+03  0.7957747E-01  0.3442442E+00
         13   -1    0    0    0    0  0.00000000000E+00  0.00000000000E+00  0.14999999963E+04  0.15000000000E+04  0.10566000000E+00 0. -1.
        994   -1    0    0    0    0 -0.00000000000E+00 -0.00000000000E+00  0.11368683772E-12  0.17120000000E+03  0.17120000000E+03 0.  0.
         13    1    1    2    0    0  0.30017280055E+01  0.19057721662E+02  0.58222513778E+02  0.61335792166E+02  0.10566000000E+00 0. -1.
        994    1    1    2    0    0 -0.54032526016E+01 -0.13239828018E+02  0.38000235623E+01  0.17183820403E+03  0.17120000000E+03 0.  0.
        998    1    1    2    0    0  0.24015245961E+01 -0.58178936439E+01  0.14379774589E+04  0.14380260038E+04  0.10000000000E+02 0. -1.
</event>
<event>
 5    1  0.1300052E-008  0.3817607E+03  0.7957747E-01  0.3443528E+00
         13   -1    0    0    0    0  0.00000000000E+00  0.00000000000E+00  0.14999999963E+04  0.15000000000E+04  0.10566000000E+00 0. -1.
        994   -1    0    0    0    0 -0.00000000000E+00 -0.00000000000E+00  0.11368683772E-12  0.17120000000E+03  0.17120000000E+03 0.  0.
         13    1    1    2    0    0  0.43755771905E+02  0.38171488282E+02  0.34640641935E+03  0.35123930393E+03  0.10566000000E+00 0. -1.
        994    1    1    2    0    0 -0.55047635585E+02 -0.44895938029E+02  0.20202868386E+02  0.18644968041E+03  0.17120000000E+03 0.  0.
        998    1    1    2    0    0  0.11291863680E+02  0.67244497470E+01  0.11333907085E+04  0.11335110157E+04  0.10000000000E+02 0. -1.
</event>
<event>
 5    1  0.1300052E-008  0.3852674E+03  0.7957747E-01  0.3428539E+00
         13   -1    0    0    0    0  0.00000000000E+00  0.00000000000E+00  0.14999999963E+04  0.15000000000E+04  0.10566000000E+00 0.  1.
        994   -1    0    0    0    0 -0.00000000000E+00 -0.00000000000E+00  0.11368683772E-12  0.17120000000E+03  0.17120000000E+03 0.  0.
         13    1    1    2    0    0 -0.16178439652E+02 -0.10222174725E+02  0.11049451015E+03  0.11213956796E+03  0.10566000000E+00 0.  1.
        994    1    1    2    0    0  0.21023449302E+02  0.12346759224E+02  0.34530439168E+01  0.17296182063E+03  0.17120000000E+03 0.  0.
        998    1    1    2    0    0 -0.48450096499E+01 -0.21245844991E+01  0.13860524422E+04  0.13860986114E+04  0.10000000000E+02 0.  1.
</event>
<event>
 5    1  0.1300052E-008  0.3823770E+03  0.7957747E-01  0.3440873E+00
         13   -1    0    0    0    0  0.00000000000E+00  0.00000000000E+00  0.14999999963E+04  0.15000000000E+04  0.10566000000E+00 0.  1.
        994   -1    0    0    0    0 -0.00000000000E+00 -0.00000000000E+00  0.11368683772E-12  0.17120000000E+03  0.17120000000E+03 0.  0.
         13    1    1    2    0    0 -0.18141224335E+02 -0.36568143574E+02  0.23741748831E+03  0.24090124130E+03  0.10566000000E+00 0.  1.
        994    1    1    2    0    0  0.26217046636E+02  0.34421192897E+02  0.91726748771E+01  0.17682118091E+03  0.17120000000E+03 0.  0.
        998    1    1    2    0    0 -0.80758223012E+01  0.21469506773E+01  0.12534098331E+04  0.12534775778E+04  0.10000000000E+02 0.  1.
</event>
<event>
 5    1  0.1300052E-008  0.3844879E+03  0.7957747E-01  0.3431847E+00
         13   -1    0    0    0    0  0.00000000000E+00  0.00000000000E+00  0.14999999963E+04  0.15000000000E+04  0.10566000000E+00 0.  1.
        994   -1    0    0    0    0 -0.00000000000E+00 -0.00000000000E+00  0.11368683772E-12  0.17120000000E+03  0.17120000000E+03 0.  0.
         13    1    1    2    0    0  0.14194477503E+02  0.14663175077E+01  0.52294518331E+02  0.54206651714E+02  0.10566000000E+00 0.  1.
        994    1    1    2    0    0 -0.15286828463E+02  0.49621599862E+01  0.27359646157E+01  0.17197452038E+03  0.17120000000E+03 0.  0.
        998    1    1    2    0    0  0.10923509605E+01 -0.64284774939E+01  0.14449695133E+04  0.14450188279E+04  0.10000000000E+02 0.  1.
</event>
<event>
 5    1  0.1300052E-008  0.3847224E+03  0.7957747E-01  0.3430850E+00
         13   -1    0    0    0    0  0.00000000000E+00  0.00000000000E+00  0.14999999963E+04  0.15000000000E+04  0.10566000000E+00 0. -1.
        994   -1    0    0    0    0 -0.00000000000E+00 -0.00000000000E+00  0.11368683772E-12  0.17120000000E+03  0.17120000000E+03 0.  0.
         13    1    1    2    0    0  0.12065059029E+02  0.52658186351E+01  0.43070878323E+02  0.45037830974E+02  0.10566000000E+00 0. -1.
        994    1    1    2    0    0 -0.13081075067E+02 -0.59701582559E+02  0.14161680150E+02  0.18233317490E+03  0.17120000000E+03 0.  0.
        998    1    1    2    0    0  0.10160160377E+01  0.54435763924E+02  0.14427674378E+04  0.14438289941E+04  0.10000000000E+02 0. -1.
</event>
<event>
 5    1  0.1300052E-008  0.3834469E+03  0.7957747E-01  0.3436286E+00
         13   -1    0    0    0    0  0.00000000000E+00  0.00000000000E+00  0.14999999963E+04  0.15000000000E+04  0.10566000000E+00 0. -1.
        994   -1    0    0    0    0 -0.00000000000E+00 -0.00000000000E+00  0.11368683772E-12  0.17120000000E+03  0.17120000000E+03 0.  0.
         13    1    1    2    0    0  0.22487171281E+02 -0.27373493644E+01  0.12085604559E+03  0.12296081032E+03  0.10566000000E+00 0. -1.
        994    1    1    2    0    0  0.39354358386E+01  0.30254048208E+01  0.24846193672E+01  0.17128997070E+03  0.17120000000E+03 0.  0.
        998    1    1    2    0    0 -0.26422607120E+02 -0.28805545645E+00  0.13766593313E+04  0.13769492190E+04  0.10000000000E+02 0. -1.
</event>
<event>
 5    1  0.1300052E-008  0.3738945E+03  0.7957747E-01  0.3478182E+00
         13   -1    0    0    0    0  0.00000000000E+00  0.00000000000E+00  0.14999999963E+04  0.15000000000E+04  0.10566000000E+00 0. -1.
        994   -1    0    0    0    0 -0.00000000000E+00 -0.00000000000E+00  0.11368683772E-12  0.17120000000E+03  0.17120000000E+03 0.  0.
         13    1    1    2    0    0 -0.10622970062E+02  0.57499926840E+01  0.69402222133E+01  0.13931538221E+02  0.10566000000E+00 0. -1.
        994    1    1    2    0    0 -0.57983456400E+01 -0.53013555032E+01  0.74581729789E+01  0.17154238405E+03  0.17120000000E+03 0.  0.
        998    1    1    2    0    0  0.16421315702E+02 -0.44863718080E+00  0.14856016011E+04  0.14857260777E+04  0.10000000000E+02 0. -1.
</event>
<event>
 5    1  0.1300052E-008  0.3708170E+03  0.7957747E-01  0.3492144E+00
         13   -1    0    0    0    0  0.00000000000E+00  0.00000000000E+00  0.14999999963E+04  0.15000000000E+04  0.10566000000E+00 0. -1.
        994   -1    0    0    0    0 -0.00000000000E+00 -0.00000000000E+00  0.11368683772E-12  0.17120000000E+03  0.17120000000E+03 0.  0.
         13    1    1    2    0    0  0.16255382578E+02  0.42752274329E+02  0.93595355635E+02  0.10417339480E+03  0.10566000000E+00 0. -1.
        994    1    1    2    0    0  0.11993859752E+02 -0.16615169363E+02  0.12845065615E+02  0.17289983295E+03  0.17120000000E+03 0.  0.
        998    1    1    2    0    0 -0.28249242329E+02 -0.26137104966E+02  0.13935595750E+04  0.13941267722E+04  0.10000000000E+02 0. -1.
</event>
<event>
 5    1  0.1300052E-008  0.3951481E+03  0.7957747E-01  0.3387741E+00
         13   -1    0    0    0    0  0.00000000000E+00  0.00000000000E+00  0.14999999963E+04  0.15000000000E+04  0.10566000000E+00 0.  1.
        994   -1    0    0    0    0 -0.00000000000E+00 -0.00000000000E+00  0.11368683772E-12  0.17120000000E+03  0.17120000000E+03 0.  0.
         13    1    1    2    0    0  0.11405096298E+03  0.31848639482E+02  0.28195653202E+03  0.30581277787E+03  0.10566000000E+00 0.  1.
        994    1    1    2    0    0 -0.69157752379E+02 -0.64417585620E+01  0.43676870080E+02  0.18984572670E+03  0.17120000000E+03 0.  0.
        998    1    1    2    0    0 -0.44893210600E+02 -0.25406880920E+02  0.11743665942E+04  0.11755414954E+04  0.10000000000E+02 0.  1.
</event>
<event>
 5    1  0.1300052E-008  0.3840716E+03  0.7957747E-01  0.3433619E+00
         13   -1    0    0    0    0  0.00000000000E+00  0.00000000000E+00  0.14999999963E+04  0.15000000000E+04  0.10566000000E+00 0.  1.
        994   -1    0    0    0    0 -0.00000000000E+00 -0.00000000000E+00  0.11368683772E-12  0.17120000000E+03  0.17120000000E+03 0.  0.
         13    1    1    2    0    0  0.10303739162E+02  0.17510940835E+02  0.10845300692E+03  0.11033977507E+03  0.10566000000E+00 0.  1.
        994    1    1    2    0    0 -0.65201906650E+01  0.43404161022E+01  0.22941830606E+01  0.17139444383E+03  0.17120000000E+03 0.  0.
        998    1    1    2    0    0 -0.37835484968E+01 -0.21851356937E+02  0.13892528063E+04  0.13894657811E+04  0.10000000000E+02 0.  1.
</event>
<event>
 5    1  0.1300052E-008  0.3887908E+03  0.7957747E-01  0.3413752E+00
         13   -1    0    0    0    0  0.00000000000E+00  0.00000000000E+00  0.14999999963E+04  0.15000000000E+04  0.10566000000E+00 0.  1.
        994   -1    0    0    0    0 -0.00000000000E+00 -0.00000000000E+00  0.11368683772E-12  0.17120000000E+03  0.17120000000E+03 0.  0.
         13    1    1    2    0    0  0.14093480715E+03 -0.14066499684E+02  0.34381419251E+03  0.37184498977E+03  0.10566000000E+00 0.  1.
        994    1    1    2    0    0 -0.14234326818E+03 -0.66486956642E+00  0.10179615844E+03  0.24481410482E+03  0.17120000000E+03 0.  0.
        998    1    1    2    0    0  0.14084610286E+01  0.14731369250E+02  0.10543896453E+04  0.10545409054E+04  0.10000000000E+02 0.  1.
</event>
<event>
 5    1  0.1300052E-008  0.3726847E+03  0.7957747E-01  0.3483643E+00
         13   -1    0    0    0    0  0.00000000000E+00  0.00000000000E+00  0.14999999963E+04  0.15000000000E+04  0.10566000000E+00 0.  1.
        994   -1    0    0    0    0 -0.00000000000E+00 -0.00000000000E+00  0.11368683772E-12  0.17120000000E+03  0.17120000000E+03 0.  0.
         13    1    1    2    0    0 -0.53555370515E+02 -0.12953310604E+02  0.21703912939E+03  0.22392400679E+03  0.10566000000E+00 0.  1.
        994    1    1    2    0    0  0.11357033364E+02 -0.47049568407E+01  0.83904218585E+01  0.17184573898E+03  0.17120000000E+03 0.  0.
        998    1    1    2    0    0  0.42198337151E+02  0.17658267445E+02  0.12745704450E+04  0.12754302542E+04  0.10000000000E+02 0.  1.
</event>
<event>
 5    1  0.1300052E-008  0.3831677E+03  0.7957747E-01  0.3437481E+00
         13   -1    0    0    0    0  0.00000000000E+00  0.00000000000E+00  0.14999999963E+04  0.15000000000E+04  0.10566000000E+00 0. -1.
        994   -1    0    0    0    0 -0.00000000000E+00 -0.00000000000E+00  0.11368683772E-12  0.17120000000E+03  0.17120000000E+03 0.  0.
         13    1    1    2    0    0  0.12862563716E+02 -0.66330006720E+01  0.41270813424E+02  0.43734808196E+02  0.10566000000E+00 0. -1.
        994    1    1    2    0    0 -0.30336757452E+01  0.43573453224E+01  0.26358698211E+01  0.17130259034E+03  0.17120000000E+03 0.  0.
        998    1    1    2    0    0 -0.98288879708E+01  0.22756553496E+01  0.14560933130E+04  0.14561626015E+04  0.10000000000E+02 0. -1.
</event>
<event>
 5    1  0.1300052E-008  0.3833380E+03  0.7957747E-01  0.3436752E+00
         13   -1    0    0    0    0  0.00000000000E+00  0.00000000000E+00  0.14999999963E+04  0.15000000000E+04  0.10566000000E+00 0. -1.
        994   -1    0    0    0    0 -0.00000000000E+00 -0.00000000000E+00  0.11368683772E-12  0.17120000000E+03  0.17120000000E+03 0.  0.
         13    1    1    2    0    0  0.93353635787E+01  0.97179917612E+01  0.35349506706E+02  0.37831034422E+02  0.10566000000E+00 0. -1.
        994    1    1    2    0    0 -0.10828966938E+02 -0.10455651163E+02  0.32070944769E+01  0.17189040875E+03  0.17120000000E+03 0.  0.
        998    1    1    2    0    0  0.14936033592E+01  0.73765940185E+00  0.14614433951E+04  0.14614785568E+04  0.10000000000E+02 0. -1.
</event>
<event>
 5    1  0.1300052E-008  0.3748961E+03  0.7957747E-01  0.3473688E+00
         13   -1    0    0    0    0  0.00000000000E+00  0.00000000000E+00  0.14999999963E+04  0.15000000000E+04  0.10566000000E+00 0.  1.
        994   -1    0    0    0    0 -0.00000000000E+00 -0.00000000000E+00  0.11368683772E-12  0.17120000000E+03  0.17120000000E+03 0.  0.
         13    1    1    2    0    0 -0.17272870988E+02 -0.10711259237E+02  0.27755266562E+02  0.34401295507E+02  0.10566000000E+00 0.  1.
        994    1    1    2    0    0  0.15466809988E+02  0.50709080629E+01  0.76334938587E+01  0.17214135630E+03  0.17120000000E+03 0.  0.
        998    1    1    2    0    0  0.18060610008E+01  0.56403511742E+01  0.14646112359E+04  0.14646573482E+04  0.10000000000E+02 0.  1.
</event>
<event>
 5    1  0.1300052E-008  0.3846055E+03  0.7957747E-01  0.3431347E+00
         13   -1    0    0    0    0  0.00000000000E+00  0.00000000000E+00  0.14999999963E+04  0.15000000000E+04  0.10566000000E+00 0. -1.
        994   -1    0    0    0    0 -0.00000000000E+00 -0.00000000000E+00  0.11368683772E-12  0.17120000000E+03  0.17120000000E+03 0.  0.
         13    1    1    2    0    0  0.46532284798E+01  0.23020539627E+02  0.14110259125E+03  0.14304387510E+03  0.10566000000E+00 0. -1.
        994    1    1    2    0    0 -0.10443565920E+02 -0.20355540935E+02  0.35515734872E+01  0.17275841453E+03  0.17120000000E+03 0.  0.
        998    1    1    2    0    0  0.57903374399E+01 -0.26649986919E+01  0.13553458315E+04  0.13553977104E+04  0.10000000000E+02 0. -1.
</event>
<event>
 5    1  0.1300052E-008  0.3795563E+03  0.7957747E-01  0.3453093E+00
         13   -1    0    0    0    0  0.00000000000E+00  0.00000000000E+00  0.14999999963E+04  0.15000000000E+04  0.10566000000E+00 0. -1.
        994   -1    0    0    0    0 -0.00000000000E+00 -0.00000000000E+00  0.11368683772E-12  0.17120000000E+03  0.17120000000E+03 0.  0.
         13    1    1    2    0    0  0.14343296150E+02  0.51943559290E+01  0.24181833329E+02  0.28591671955E+02  0.10566000000E+00 0. -1.
        994    1    1    2    0    0 -0.18192215774E+02 -0.11933859200E+02  0.59436400406E+01  0.17267929976E+03  0.17120000000E+03 0.  0.
        998    1    1    2    0    0  0.38489196237E+01  0.67395032708E+01  0.14698745229E+04  0.14699290283E+04  0.10000000000E+02 0. -1.
</event>
<event>
 5    1  0.1300052E-008  0.3687669E+03  0.7957747E-01  0.3501577E+00
         13   -1    0    0    0    0  0.00000000000E+00  0.00000000000E+00  0.14999999963E+04  0.15000000000E+04  0.10566000000E+00 0. -1.
        994   -1    0    0    0    0 -0.00000000000E+00 -0.00000000000E+00  0.11368683772E-12  0.17120000000E+03  0.17120000000E+03 0.  0.
         13    1    1    2    0    0 -0.11408859982E+02  0.31068069922E+02  0.47742470503E+02  0.58092527132E+02  0.10566000000E+00 0. -1.
        994    1    1    2    0    0  0.79076640941E+01 -0.32966049041E+02  0.14299465588E+02  0.17510912671E+03  0.17120000000E+03 0.  0.
        998    1    1    2    0    0  0.35011958876E+01  0.18979791191E+01  0.14379580602E+04  0.14379983462E+04  0.10000000000E+02 0. -1.
</event>
<event>
 5    1  0.1729785E-008  0.3862354E+03  0.7957747E-01  0.3424450E+00
         13   -1    0    0    0    0  0.00000000000E+00  0.00000000000E+00  0.14999999963E+04  0.15000000000E+04  0.10566000000E+00 0.  1.
        994   -1    0    0    0    0 -0.00000000000E+00 -0.00000000000E+00  0.11368683772E-12  0.17120000000E+03  0.17120000000E+03 0.  0.
         13    1    1    2    0    0  0.10149998407E+02  0.97969448048E-01  0.52739087824E+02  0.53707118841E+02  0.10566000000E+00 0.  1.
        994    1    1    2    0    0 -0.33161281816E+01 -0.52711067580E+01  0.11450539187E+01  0.17131705234E+03  0.17120000000E+03 0.  0.
        998    1    1    2    0    0 -0.68338702250E+01  0.51731373100E+01  0.14461158545E+04  0.14461758288E+04  0.10000000000E+02 0.  1.
</event>
<event>
 5    1  0.1300052E-008  0.3842898E+03  0.7957747E-01  0.3432690E+00
         13   -1    0    0    0    0  0.00000000000E+00  0.00000000000E+00  0.14999999963E+04  0.15000000000E+04  0.10566000000E+00 0. -1.
        994   -1    0    0    0    0 -0.00000000000E+00 -0.00000000000E+00  0.11368683772E-12  0.17120000000E+03  0.17120000000E+03 0.  0.
         13    1    1    2    0    0  0.25122845617E+01 -0.16751105185E+02  0.70586695403E+02  0.72590659389E+02  0.10566000000E+00 0. -1.
        994    1    1    2    0    0 -0.22285136227E+01  0.14188552311E+02  0.26633781500E+01  0.17182204420E+03  0.17120000000E+03 0.  0.
        998    1    1    2    0    0 -0.28377093904E+00  0.25625528734E+01  0.14267499227E+04  0.14267872964E+04  0.10000000000E+02 0. -1.
</event>
<event>
 5    1  0.1300052E-008  0.3820142E+03  0.7957747E-01  0.3442435E+00
         13   -1    0    0    0    0  0.00000000000E+00  0.00000000000E+00  0.14999999963E+04  0.15000000000E+04  0.10566000000E+00 0.  1.
        994   -1    0    0    0    0 -0.00000000000E+00 -0.00000000000E+00  0.11368683772E-12  0.17120000000E+03  0.17120000000E+03 0.  0.
         13    1    1    2    0    0  0.22684600548E+02  0.29676925612E+02  0.16862572710E+03  0.17271351429E+03  0.10566000000E+00 0.  1.
        994    1    1    2    0    0 -0.71668476538E+02 -0.23779001479E+02  0.22291447822E+02  0.18843609019E+03  0.17120000000E+03 0.  0.
        998    1    1    2    0    0  0.48983875990E+02 -0.58979241337E+01  0.13090828214E+04  0.13100503955E+04  0.10000000000E+02 0.  1.
</event>
<event>
 5    1  0.1300052E-008  0.3777817E+03  0.7957747E-01  0.3460875E+00
         13   -1    0    0    0    0  0.00000000000E+00  0.00000000000E+00  0.14999999963E+04  0.15000000000E+04  0.10566000000E+00 0. -1.
        994   -1    0    0    0    0 -0.00000000000E+00 -0.00000000000E+00  0.11368683772E-12  0.17120000000E+03  0.17120000000E+03 0.  0.
         13    1    1    2    0    0  0.30488029189E+02  0.10505795541E+01  0.90681743878E+02  0.95675563641E+02  0.10566000000E+00 0. -1.
        994    1    1    2    0    0 -0.84236580441E+01 -0.31894242866E+01  0.55304113027E+01  0.17152596273E+03  0.17120000000E+03 0.  0.
        998    1    1    2    0    0 -0.22064371145E+02  0.21388447325E+01  0.14037878411E+04  0.14039984736E+04  0.10000000000E+02 0.  1.
</event>
<event>
 5    1  0.1300052E-008  0.3855577E+03  0.7957747E-01  0.3427310E+00
         13   -1    0    0    0    0  0.00000000000E+00  0.00000000000E+00  0.14999999963E+04  0.15000000000E+04  0.10566000000E+00 0.  1.
        994   -1    0    0    0    0 -0.00000000000E+00 -0.00000000000E+00  0.11368683772E-12  0.17120000000E+03  0.17120000000E+03 0.  0.
         13    1    1    2    0    0  0.48986430688E+01 -0.99125460521E+01  0.49244751838E+02  0.50470902714E+02  0.10566000000E+00 0.  1.
        994    1    1    2    0    0  0.71585227318E+01 -0.30138116311E+01  0.15515710600E+01  0.17138312309E+03  0.17120000000E+03 0.  0.
        998    1    1    2    0    0 -0.12057165801E+02  0.12926357683E+02  0.14492036734E+04  0.14493459742E+04  0.10000000000E+02 0.  1.
</event>
<event>
 5    1  0.1300052E-008  0.3813642E+03  0.7957747E-01  0.3445240E+00
         13   -1    0    0    0    0  0.00000000000E+00  0.00000000000E+00  0.14999999963E+04  0.15000000000E+04  0.10566000000E+00 0. -1.
        994   -1    0    0    0    0 -0.00000000000E+00 -0.00000000000E+00  0.11368683772E-12  0.17120000000E+03  0.17120000000E+03 0.  0.
         13    1    1    2    0    0  0.26601243941E+01 -0.13366222514E+02  0.25419350850E+02  0.28842446633E+02  0.10566000000E+00 0. -1.
        994    1    1    2    0    0 -0.23313540506E+01  0.11495653457E+02  0.39040763706E+01  0.17164576043E+03  0.17120000000E+03 0.  0.
        998    1    1    2    0    0 -0.32877034349E+00  0.18705690576E+01  0.14706765691E+04  0.14707117929E+04  0.10000000000E+02 0. -1.
</event>
<event>
 5    1  0.1300052E-008  0.3740705E+03  0.7957747E-01  0.3477390E+00
         13   -1    0    0    0    0  0.00000000000E+00  0.00000000000E+00  0.14999999963E+04  0.15000000000E+04  0.10566000000E+00 0.  1.
        994   -1    0    0    0    0 -0.00000000000E+00 -0.00000000000E+00  0.11368683772E-12  0.17120000000E+03  0.17120000000E+03 0.  0.
         13    1    1    2    0    0 -0.88540265975E+01  0.12171351063E+02  0.12309617169E+02  0.19444109971E+02  0.10566000000E+00 0.  1.
        994    1    1    2    0    0  0.24484912710E+02 -0.10063155187E+02  0.95500736835E+01  0.17349761367E+03  0.17120000000E+03 0.  0.
        998    1    1    2    0    0 -0.15630886113E+02 -0.21081958756E+01  0.14781403054E+04  0.14782582764E+04  0.10000000000E+02 0.  1.
</event>
<event>
 5    1  0.1300052E-008  0.3840609E+03  0.7957747E-01  0.3433665E+00
         13   -1    0    0    0    0  0.00000000000E+00  0.00000000000E+00  0.14999999963E+04  0.15000000000E+04  0.10566000000E+00 0. -1.
        994   -1    0    0    0    0 -0.00000000000E+00 -0.00000000000E+00  0.11368683772E-12  0.17120000000E+03  0.17120000000E+03 0.  0.
         13    1    1    2    0    0 -0.92031183311E+01 -0.42414859902E+01  0.23449542090E+02  0.25545641090E+02  0.10566000000E+00 0. -1.
        994    1    1    2    0    0  0.12226429725E+02  0.15437334181E+01  0.25982192520E+01  0.17166263263E+03  0.17120000000E+03 0.  0.
        998    1    1    2    0    0 -0.30233113940E+01  0.26977525721E+01  0.14739522349E+04  0.14739917263E+04  0.10000000000E+02 0. -1.
</event>
<event>
 5    1  0.2576643E-008  0.3859232E+03  0.7957747E-01  0.3425766E+00
         13   -1    0    0    0    0  0.00000000000E+00  0.00000000000E+00  0.14999999963E+04  0.15000000000E+04  0.10566000000E+00 0. -1.
        994   -1    0    0    0    0 -0.00000000000E+00 -0.00000000000E+00  0.11368683772E-12  0.17120000000E+03  0.17120000000E+03 0.  0.
         13    1    1    2    0    0  0.75003729403E+01  0.75687410943E+01  0.46966311048E+02  0.48160014260E+02  0.10566000000E+00 0. -1.
        994    1    1    2    0    0 -0.93172901201E+01 -0.10015766494E+02  0.17862892781E+01  0.17175493676E+03  0.17120000000E+03 0.  0.
        998    1    1    2    0    0  0.18169171797E+01  0.24470253996E+01  0.14512473960E+04  0.14512850490E+04  0.10000000000E+02 0.  0.
</event>
<event>
 5    1  0.2531934E-008  0.3863428E+03  0.7957747E-01  0.3423997E+00
         13   -1    0    0    0    0  0.00000000000E+00  0.00000000000E+00  0.14999999963E+04  0.15000000000E+04  0.10566000000E+00 0.  1.
        994   -1    0    0    0    0 -0.00000000000E+00 -0.00000000000E+00  0.11368683772E-12  0.17120000000E+03  0.17120000000E+03 0.  0.
         13    1    1    2    0    0  0.84467440902E+01  0.58889547056E+01  0.54548350331E+02  0.55511809205E+02  0.10566000000E+00 0.  1.
        994    1    1    2    0    0 -0.79975863632E+01 -0.66164978614E+01  0.13177637795E+01  0.17151943311E+03  0.17120000000E+03 0.  0.
        998    1    1    2    0    0 -0.44915772704E+00  0.72754315589E+00  0.14441338822E+04  0.14441687577E+04  0.10000000000E+02 0.  1.
</event>
<event>
 5    1  0.1300052E-008  0.2677915E+03  0.7957747E-01  0.4156684E+00
         13   -1    0    0    0    0  0.00000000000E+00  0.00000000000E+00  0.14999999963E+04  0.15000000000E+04  0.10566000000E+00 0. -1.
        994   -1    0    0    0    0 -0.00000000000E+00 -0.00000000000E+00  0.11368683772E-12  0.17120000000E+03  0.17120000000E+03 0.  0.
         13    1    1    2    0    0  0.19566705839E+03 -0.12799091051E+03  0.53819698718E+03  0.58679066036E+03  0.10566000000E+00 0. -1.
        994    1    1    2    0    0 -0.10702355999E+03  0.33408137822E+02  0.12986322044E+03  0.24237170233E+03  0.17120000000E+03 0.  0.
        998    1    1    2    0    0 -0.88643498399E+02  0.94582772688E+02  0.83193978865E+03  0.84203763731E+03  0.10000000000E+02 0. -1.
</event>
<event>
 5    1  0.1300052E-008  0.3688975E+03  0.7957747E-01  0.3500973E+00
         13   -1    0    0    0    0  0.00000000000E+00  0.00000000000E+00  0.14999999963E+04  0.15000000000E+04  0.10566000000E+00 0.  1.
        994   -1    0    0    0    0 -0.00000000000E+00 -0.00000000000E+00  0.11368683772E-12  0.17120000000E+03  0.17120000000E+03 0.  0.
         13    1    1    2    0    0 -0.14516873687E+03  0.50870070395E+02  0.52074603560E+03  0.54299002844E+03  0.10566000000E+00 0.  1.
        994    1    1    2    0    0  0.17670124176E+03 -0.42753875759E+02  0.13616263586E+03  0.28443088112E+03  0.17120000000E+03 0.  0.
        998    1    1    2    0    0 -0.31532504882E+02 -0.81161946355E+01  0.84309132481E+03  0.84377909043E+03  0.10000000000E+02 0.  1.
</event>
<event>
 5    1  0.1300052E-008  0.3859592E+03  0.7957747E-01  0.3425614E+00
         13   -1    0    0    0    0  0.00000000000E+00  0.00000000000E+00  0.14999999963E+04  0.15000000000E+04  0.10566000000E+00 0. -1.
        994   -1    0    0    0    0 -0.00000000000E+00 -0.00000000000E+00  0.11368683772E-12  0.17120000000E+03  0.17120000000E+03 0.  0.
         13    1    1    2    0    0 -0.12082271716E+02  0.34739492081E+02  0.27590402989E+02  0.45978854933E+02  0.10566000000E+00 0. -1.
        994    1    1    2    0    0  0.20509289307E+02 -0.76823940336E+01  0.21418710468E+02  0.17391909408E+03  0.17120000000E+03 0.  0.
        998    1    1    2    0    0 -0.84270175916E+01 -0.27057098047E+02  0.14509908828E+04  0.14513020510E+04  0.10000000000E+02 0. -1.
</event>
<event>
 5    1  0.1300052E-008  0.3836916E+03  0.7957747E-01  0.3435240E+00
         13   -1    0    0    0    0  0.00000000000E+00  0.00000000000E+00  0.14999999963E+04  0.15000000000E+04  0.10566000000E+00 0. -1.
        994   -1    0    0    0    0 -0.00000000000E+00 -0.00000000000E+00  0.11368683772E-12  0.17120000000E+03  0.17120000000E+03 0.  0.
         13    1    1    2    0    0  0.24632642573E+02  0.64471312176E+01  0.12709476774E+03  0.12962030602E+03  0.10566000000E+00 0. -1.
        994    1    1    2    0    0 -0.26370355626E+02 -0.18120334928E+02  0.56695322577E+01  0.17425649425E+03  0.17120000000E+03 0.  0.
        998    1    1    2    0    0  0.17377130523E+01  0.11673203710E+02  0.13672356963E+04  0.13673231997E+04  0.10000000000E+02 0. -1.
</event>
<event>
 5    1  0.1300052E-008  0.3858323E+03  0.7957747E-01  0.3426150E+00
         13   -1    0    0    0    0  0.00000000000E+00  0.00000000000E+00  0.14999999963E+04  0.15000000000E+04  0.10566000000E+00 0.  1.
        994   -1    0    0    0    0 -0.00000000000E+00 -0.00000000000E+00  0.11368683772E-12  0.17120000000E+03  0.17120000000E+03 0.  0.
         13    1    1    2    0    0 -0.32530113458E+01  0.12786115618E+02  0.68261659713E+02  0.69525047186E+02  0.10566000000E+00 0.  1.
        994    1    1    2    0    0  0.65076955036E+01 -0.15089657575E+02  0.21036656486E+01  0.17199974789E+03  0.17120000000E+03 0.  0.
        998    1    1    2    0    0 -0.32546841577E+01  0.23035419573E+01  0.14296346709E+04  0.14296752049E+04  0.10000000000E+02 0.  1.
</event>
<event>
 5    1  0.1300052E-008  0.3831271E+03  0.7957747E-01  0.3437654E+00
         13   -1    0    0    0    0  0.00000000000E+00  0.00000000000E+00  0.14999999963E+04  0.15000000000E+04  0.10566000000E+00 0. -1.
        994   -1    0    0    0    0 -0.00000000000E+00 -0.00000000000E+00  0.11368683772E-12  0.17120000000E+03  0.17120000000E+03 0.  0.
         13    1    1    2    0    0 -0.51899194193E+01 -0.10395013989E+02  0.25938931591E+02  0.28422366466E+02  0.10566000000E+00 0. -1.
        994    1    1    2    0    0  0.84806155298E+01 -0.14484840976E+01  0.28077979773E+01  0.17143903486E+03  0.17120000000E+03 0.  0.
        998    1    1    2    0    0 -0.32906961105E+01  0.11843498086E+02  0.14712532667E+04  0.14713385987E+04  0.10000000000E+02 0. -1.
</event>
<event>
 5    1  0.1300052E-008  0.3843018E+03  0.7957747E-01  0.3432639E+00
         13   -1    0    0    0    0  0.00000000000E+00  0.00000000000E+00  0.14999999963E+04  0.15000000000E+04  0.10566000000E+00 0. -1.
        994   -1    0    0    0    0 -0.00000000000E+00 -0.00000000000E+00  0.11368683772E-12  0.17120000000E+03  0.17120000000E+03 0.  0.
         13    1    1    2    0    0  0.14581559774E+02  0.51946821100E+01  0.58645152547E+02  0.60653703011E+02  0.10566000000E+00 0. -1.
        994    1    1    2    0    0 -0.16397899241E+02  0.77267570119E+00  0.28659617836E+01  0.17200913308E+03  0.17120000000E+03 0.  0.
        998    1    1    2    0    0  0.18163394671E+01 -0.59673578112E+01  0.14384888819E+04  0.14385371639E+04  0.10000000000E+02 0. -1.
</event>
<event>
 5    1  0.1300052E-008  0.4034045E+03  0.7957747E-01  0.3355180E+00
         13   -1    0    0    0    0  0.00000000000E+00  0.00000000000E+00  0.14999999963E+04  0.15000000000E+04  0.10566000000E+00 0. -1.
        994   -1    0    0    0    0 -0.00000000000E+00 -0.00000000000E+00  0.11368683772E-12  0.17120000000E+03  0.17120000000E+03 0.  0.
         13    1    1    2    0    0  0.24953652290E+02 -0.11570957035E+03  0.16400324307E+03  0.20225840980E+03  0.10566000000E+00 0. -1.
        994    1    1    2    0    0  0.28603374771E+02  0.17076487347E+03  0.16214979847E+03  0.29254194948E+03  0.17120000000E+03 0.  0.
        998    1    1    2    0    0 -0.53557027061E+02 -0.55055303119E+02  0.11738469547E+04  0.11763996407E+04  0.10000000000E+02 0. -1.
</event>
<event>
 5    1  0.1300052E-008  0.3741917E+03  0.7957747E-01  0.3476846E+00
         13   -1    0    0    0    0  0.00000000000E+00  0.00000000000E+00  0.14999999963E+04  0.15000000000E+04  0.10566000000E+00 0.  1.
        994   -1    0    0    0    0 -0.00000000000E+00 -0.00000000000E+00  0.11368683772E-12  0.17120000000E+03  0.17120000000E+03 0.  0.
         13    1    1    2    0    0 -0.19353065405E+02 -0.10929371605E+02  0.34840882089E+02  0.41326632248E+02  0.10566000000E+00 0.  1.
        994    1    1    2    0    0 -0.15020812496E+02 -0.80421913602E+01  0.80845156879E+01  0.17223559749E+03  0.17120000000E+03 0.  0.
        998    1    1    2    0    0  0.34373877901E+02  0.18971562966E+02  0.14570745985E+04  0.14576377703E+04  0.10000000000E+02 0.  1.
</event>
<event>
 5    1  0.1300052E-008  0.3848815E+03  0.7957747E-01  0.3430175E+00
         13   -1    0    0    0    0  0.00000000000E+00  0.00000000000E+00  0.14999999963E+04  0.15000000000E+04  0.10566000000E+00 0.  1.
        994   -1    0    0    0    0 -0.00000000000E+00 -0.00000000000E+00  0.11368683772E-12  0.17120000000E+03  0.17120000000E+03 0.  0.
         13    1    1    2    0    0  0.11451411171E+02 -0.16596854646E+01  0.40204387597E+02  0.41836507021E+02  0.10566000000E+00 0.  1.
        994    1    1    2    0    0 -0.37751511966E+01  0.18733721973E+01  0.17474094517E+01  0.17126077989E+03  0.17120000000E+03 0.  0.
        998    1    1    2    0    0 -0.76762599742E+01 -0.21368673266E+00  0.14580481992E+04  0.14581027131E+04  0.10000000000E+02 0.  1.
</event>
<event>
 5    1  0.1300052E-008  0.3790362E+03  0.7957747E-01  0.3455366E+00
         13   -1    0    0    0    0  0.00000000000E+00  0.00000000000E+00  0.14999999963E+04  0.15000000000E+04  0.10566000000E+00 0. -1.
        994   -1    0    0    0    0 -0.00000000000E+00 -0.00000000000E+00  0.11368683772E-12  0.17120000000E+03  0.17120000000E+03 0.  0.
         13    1    1    2    0    0 -0.88022964537E+01 -0.16000255154E+02  0.34533343240E+02  0.39064709742E+02  0.10566000000E+00 0. -1.
        994    1    1    2    0    0  0.25789979984E+01  0.96716018570E+01  0.49565442854E+01  0.17156397770E+03  0.17120000000E+03 0.  0.
        998    1    1    2    0    0  0.62232984554E+01  0.63286532968E+01  0.14605101088E+04  0.14605713126E+04  0.10000000000E+02 0. -1.
</event>
<event>
 5    1  0.1300052E-008  0.3762324E+03  0.7957747E-01  0.3467729E+00
         13   -1    0    0    0    0  0.00000000000E+00  0.00000000000E+00  0.14999999963E+04  0.15000000000E+04  0.10566000000E+00 0. -1.
        994   -1    0    0    0    0 -0.00000000000E+00 -0.00000000000E+00  0.11368683772E-12  0.17120000000E+03  0.17120000000E+03 0.  0.
         13    1    1    2    0    0 -0.26486348397E+02 -0.37250149615E+02  0.15806690099E+03  0.16454256790E+03  0.10566000000E+00 0. -1.
        994    1    1    2    0    0  0.26854198017E+02  0.31075722833E+02  0.11778843572E+02  0.17645121041E+03  0.17120000000E+03 0.  0.
        998    1    1    2    0    0 -0.36784961979E+00  0.61744267814E+01  0.13301542517E+04  0.13302062217E+04  0.10000000000E+02 0. -1.
</event>
<event>
 5    1  0.1300052E-008  0.3782337E+03  0.7957747E-01  0.3458886E+00
         13   -1    0    0    0    0  0.00000000000E+00  0.00000000000E+00  0.14999999963E+04  0.15000000000E+04  0.10566000000E+00 0.  1.
        994   -1    0    0    0    0 -0.00000000000E+00 -0.00000000000E+00  0.11368683772E-12  0.17120000000E+03  0.17120000000E+03 0.  0.
         13    1    1    2    0    0 -0.46315993766E+02 -0.59461586090E+01  0.19824151289E+03  0.20366697493E+03  0.10566000000E+00 0.  1.
        994    1    1    2    0    0  0.40152843482E+02 -0.38631885522E+01  0.10518452929E+02  0.17620230679E+03  0.17120000000E+03 0.  0.
        998    1    1    2    0    0  0.61631502842E+01  0.98093471612E+01  0.12912400305E+04  0.12913307183E+04  0.10000000000E+02 0.  1.
</event>
<event>
 5    1  0.1300052E-008  0.3813628E+03  0.7957747E-01  0.3445246E+00
         13   -1    0    0    0    0  0.00000000000E+00  0.00000000000E+00  0.14999999963E+04  0.15000000000E+04  0.10566000000E+00 0.  1.
        994   -1    0    0    0    0 -0.00000000000E+00 -0.00000000000E+00  0.11368683772E-12  0.17120000000E+03  0.17120000000E+03 0.  0.
         13    1    1    2    0    0 -0.54422459364E+01 -0.17465054248E+02  0.45260353225E+02  0.48817588007E+02  0.10566000000E+00 0.  1.
        994    1    1    2    0    0 -0.18935514113E+01  0.25271004001E+02  0.55869262910E+01  0.17315560322E+03  0.17120000000E+03 0.  0.
        998    1    1    2    0    0  0.73357973476E+01 -0.78059497534E+01  0.14491527168E+04  0.14492268088E+04  0.10000000000E+02 0.  1.
</event>
<event>
 5    1  0.1300052E-008  0.3835863E+03  0.7957747E-01  0.3435690E+00
         13   -1    0    0    0    0  0.00000000000E+00  0.00000000000E+00  0.14999999963E+04  0.15000000000E+04  0.10566000000E+00 0. -1.
        994   -1    0    0    0    0 -0.00000000000E+00 -0.00000000000E+00  0.11368683772E-12  0.17120000000E+03  0.17120000000E+03 0.  0.
         13    1    1    2    0    0  0.21377597941E+02  0.83213143565E+01  0.11404092850E+03  0.11632536483E+03  0.10566000000E+00 0. -1.
        994    1    1    2    0    0 -0.11604332931E+02 -0.28269646409E+01  0.28050624879E+01  0.17163904173E+03  0.17120000000E+03 0.  0.
        998    1    1    2    0    0 -0.97732650093E+01 -0.54943497156E+01  0.13831540053E+04  0.13832355934E+04  0.10000000000E+02 0. -1.
</event>
<event>
 5    1  0.1300052E-008  0.3891922E+03  0.7957747E-01  0.3412085E+00
         13   -1    0    0    0    0  0.00000000000E+00  0.00000000000E+00  0.14999999963E+04  0.15000000000E+04  0.10566000000E+00 0.  1.
        994   -1    0    0    0    0 -0.00000000000E+00 -0.00000000000E+00  0.11368683772E-12  0.17120000000E+03  0.17120000000E+03 0.  0.
         13    1    1    2    0    0 -0.10970064865E+03 -0.20110092419E+02  0.27987808613E+03  0.30128126790E+03  0.10566000000E+00 0.  1.
        994    1    1    2    0    0  0.67831430254E+02  0.27096154091E+02  0.41770196741E+02  0.19076030466E+03  0.17120000000E+03 0.  0.
        998    1    1    2    0    0  0.41869218394E+02 -0.69860616717E+01  0.11783517134E+04  0.11791584274E+04  0.10000000000E+02 0.  1.
</event>
<event>
 5    1  0.1300052E-008  0.3831775E+03  0.7957747E-01  0.3437439E+00
         13   -1    0    0    0    0  0.00000000000E+00  0.00000000000E+00  0.14999999963E+04  0.15000000000E+04  0.10566000000E+00 0.  1.
        994   -1    0    0    0    0 -0.00000000000E+00 -0.00000000000E+00  0.11368683772E-12  0.17120000000E+03  0.17120000000E+03 0.  0.
         13    1    1    2    0    0  0.11966061865E+01  0.27011807817E+02  0.12982542427E+03  0.13261116687E+03  0.10566000000E+00 0.  1.
        994    1    1    2    0    0 -0.72635777024E+01 -0.29818880516E+02  0.56600219703E+01  0.17402126607E+03  0.17120000000E+03 0.  0.
        998    1    1    2    0    0  0.60669715159E+01  0.28070726986E+01  0.13645145500E+04  0.13645675671E+04  0.10000000000E+02 0.  1.
</event>
<event>
 5    1  0.1300052E-008  0.3712208E+03  0.7957747E-01  0.3490299E+00
         13   -1    0    0    0    0  0.00000000000E+00  0.00000000000E+00  0.14999999963E+04  0.15000000000E+04  0.10566000000E+00 0.  1.
        994   -1    0    0    0    0 -0.00000000000E+00 -0.00000000000E+00  0.11368683772E-12  0.17120000000E+03  0.17120000000E+03 0.  0.
         13    1    1    2    0    0  0.27978123917E+02  0.21411442789E+02  0.70573412551E+02  0.78878660127E+02  0.10566000000E+00 0.  1.
        994    1    1    2    0    0 -0.54400924677E+02  0.47230154258E+02  0.26720700606E+02  0.18765282816E+03  0.17120000000E+03 0.  0.
        998    1    1    2    0    0  0.26422800760E+02 -0.68641597047E+02  0.14027058831E+04  0.14046685117E+04  0.10000000000E+02 0.  1.
</event>
<event>
 5    1  0.1300052E-008  0.3779355E+03  0.7957747E-01  0.3460197E+00
         13   -1    0    0    0    0  0.00000000000E+00  0.00000000000E+00  0.14999999963E+04  0.15000000000E+04  0.10566000000E+00 0.  1.
        994   -1    0    0    0    0 -0.00000000000E+00 -0.00000000000E+00  0.11368683772E-12  0.17120000000E+03  0.17120000000E+03 0.  0.
         13    1    1    2    0    0 -0.11666921551E+02  0.93232363527E+01  0.19367024298E+02  0.24456749350E+02  0.10566000000E+00 0.  1.
        994    1    1    2    0    0  0.64018669598E+01 -0.74991880255E+01  0.55062245266E+01  0.17157208465E+03  0.17120000000E+03 0.  0.
        998    1    1    2    0    0  0.52650545915E+01 -0.18240483272E+01  0.14751267475E+04  0.14751711660E+04  0.10000000000E+02 0.  1.
</event>
<event>
 5    1  0.1300052E-008  0.3816610E+03  0.7957747E-01  0.3443958E+00
         13   -1    0    0    0    0  0.00000000000E+00  0.00000000000E+00  0.14999999963E+04  0.15000000000E+04  0.10566000000E+00 0.  1.
        994   -1    0    0    0    0 -0.00000000000E+00 -0.00000000000E+00  0.11368683772E-12  0.17120000000E+03  0.17120000000E+03 0.  0.
         13    1    1    2    0    0 -0.11828810328E+02  0.14709619944E+02  0.51934226776E+02  0.55258200727E+02  0.10566000000E+00 0.  1.
        994    1    1    2    0    0  0.14021300085E+02 -0.10159314022E+02  0.42943963901E+01  0.17212696000E+03  0.17120000000E+03 0.  0.
        998    1    1    2    0    0 -0.21924897574E+01 -0.45503059224E+01  0.14437713731E+04  0.14438148393E+04  0.10000000000E+02 0.  1.
</event>
<event>
 5    1  0.1300052E-008  0.3898574E+03  0.7957747E-01  0.3409329E+00
         13   -1    0    0    0    0  0.00000000000E+00  0.00000000000E+00  0.14999999963E+04  0.15000000000E+04  0.10566000000E+00 0.  1.
        994   -1    0    0    0    0 -0.00000000000E+00 -0.00000000000E+00  0.11368683772E-12  0.17120000000E+03  0.17120000000E+03 0.  0.
         13    1    1    2    0    0 -0.49754263365E+02 -0.33199457149E+01  0.47584697430E+02  0.68926216754E+02  0.10566000000E+00 0.  1.
        994    1    1    2    0    0  0.47861661249E+02  0.11432205542E+02  0.31012122024E+02  0.18081102194E+03  0.17120000000E+03 0.  0.
        998    1    1    2    0    0  0.18926021160E+01 -0.81122598268E+01  0.14214031768E+04  0.14214627613E+04  0.10000000000E+02 0.  1.
</event>
<event>
 5    1  0.1300052E-008  0.3848027E+03  0.7957747E-01  0.3430509E+00
         13   -1    0    0    0    0  0.00000000000E+00  0.00000000000E+00  0.14999999963E+04  0.15000000000E+04  0.10566000000E+00 0. -1.
        994   -1    0    0    0    0 -0.00000000000E+00 -0.00000000000E+00  0.11368683772E-12  0.17120000000E+03  0.17120000000E+03 0.  0.
         13    1    1    2    0    0  0.74966338764E+01 -0.10315212626E+02  0.47261062489E+02  0.48951223913E+02  0.10566000000E+00 0. -1.
        994    1    1    2    0    0 -0.54702110206E+01  0.46927965197E+01  0.18990956661E+01  0.17136216651E+03  0.17120000000E+03 0.  0.
        998    1    1    2    0    0 -0.20264228558E+01  0.56224161066E+01  0.14508398381E+04  0.14508866096E+04  0.10000000000E+02 0. -1.
</event>
<event>
 5    1  0.1300052E-008  0.3788245E+03  0.7957747E-01  0.3456293E+00
         13   -1    0    0    0    0  0.00000000000E+00  0.00000000000E+00  0.14999999963E+04  0.15000000000E+04  0.10566000000E+00 0. -1.
        994   -1    0    0    0    0 -0.00000000000E+00 -0.00000000000E+00  0.11368683772E-12  0.17120000000E+03  0.17120000000E+03 0.  0.
         13    1    1    2    0    0 -0.54727624072E+02 -0.43702875878E+02  0.35716996466E+03  0.36397176953E+03  0.10566000000E+00 0. -1.
        994    1    1    2    0    0  0.66945771875E+02  0.44417024061E+02  0.26703562679E+02  0.19098986533E+03  0.17120000000E+03 0.  0.
        998    1    1    2    0    0 -0.12218147803E+02 -0.71414818390E+00  0.11161264689E+04  0.11162383651E+04  0.10000000000E+02 0. -1.
</event>
<event>
 5    1  0.1300052E-008  0.3828917E+03  0.7957747E-01  0.3438663E+00
         13   -1    0    0    0    0  0.00000000000E+00  0.00000000000E+00  0.14999999963E+04  0.15000000000E+04  0.10566000000E+00 0. -1.
        994   -1    0    0    0    0 -0.00000000000E+00 -0.00000000000E+00  0.11368683772E-12  0.17120000000E+03  0.17120000000E+03 0.  0.
         13    1    1    2    0    0 -0.10361403007E+02 -0.12673264632E+01  0.19179239515E+02  0.21836189710E+02  0.10566000000E+00 0. -1.
        994    1    1    2    0    0  0.94254322279E+01  0.23023848955E+01  0.29922645905E+01  0.17150082623E+03  0.17120000000E+03 0.  0.
        998    1    1    2    0    0  0.93597077922E+00 -0.10350584323E+01  0.14778284922E+04  0.14778629841E+04  0.10000000000E+02 0. -1.
</event>
<event>
 5    1  0.1300052E-008  0.3856390E+03  0.7957747E-01  0.3426967E+00
         13   -1    0    0    0    0  0.00000000000E+00  0.00000000000E+00  0.14999999963E+04  0.15000000000E+04  0.10566000000E+00 0. -1.
        994   -1    0    0    0    0 -0.00000000000E+00 -0.00000000000E+00  0.11368683772E-12  0.17120000000E+03  0.17120000000E+03 0.  0.
         13    1    1    2    0    0 -0.20204725673E+01 -0.12078126023E+02  0.60292992180E+02  0.61524137602E+02  0.10566000000E+00 0. -1.
        994    1    1    2    0    0 -0.75610165441E+01  0.25240907171E+01  0.15217836371E+01  0.17139222803E+03  0.17120000000E+03 0.  0.
        998    1    1    2    0    0  0.95814891114E+01  0.95540353059E+01  0.14381852205E+04  0.14382836344E+04  0.10000000000E+02 0. -1.
</event>
<event>
 5    1  0.1300052E-008  0.3827994E+03  0.7957747E-01  0.3439059E+00
         13   -1    0    0    0    0  0.00000000000E+00  0.00000000000E+00  0.14999999963E+04  0.15000000000E+04  0.10566000000E+00 0. -1.
        994   -1    0    0    0    0 -0.00000000000E+00 -0.00000000000E+00  0.11368683772E-12  0.17120000000E+03  0.17120000000E+03 0.  0.
         13    1    1    2    0    0 -0.16055434332E+02  0.13710643314E+02  0.84468211782E+02  0.87066920684E+02  0.10566000000E+00 0. -1.
        994    1    1    2    0    0 -0.88931188764E+01 -0.20106127902E+02  0.43292816632E+01  0.17266014775E+03  0.17120000000E+03 0.  0.
        998    1    1    2    0    0  0.24948553209E+02  0.63954845885E+01  0.14112025028E+04  0.14114729316E+04  0.10000000000E+02 0. -1.
</event>
<event>
 5    1  0.1300052E-008  0.3812295E+03  0.7957747E-01  0.3445823E+00
         13   -1    0    0    0    0  0.00000000000E+00  0.00000000000E+00  0.14999999963E+04  0.15000000000E+04  0.10566000000E+00 0. -1.
        994   -1    0    0    0    0 -0.00000000000E+00 -0.00000000000E+00  0.11368683772E-12  0.17120000000E+03  0.17120000000E+03 0.  0.
         13    1    1    2    0    0  0.34534228740E+02  0.41341360527E+02  0.32463262930E+03  0.32907153662E+03  0.10566000000E+00 0. -1.
        994    1    1    2    0    0 -0.38493987433E+02 -0.38394672506E+02  0.13418584976E+02  0.18012616792E+03  0.17120000000E+03 0.  0.
        998    1    1    2    0    0  0.39597586934E+01 -0.29466880211E+01  0.11619487820E+04  0.11620022955E+04  0.10000000000E+02 0.  0.
</event>
<event>
 5    1  0.1300052E-008  0.3804836E+03  0.7957747E-01  0.3449056E+00
         13   -1    0    0    0    0  0.00000000000E+00  0.00000000000E+00  0.14999999963E+04  0.15000000000E+04  0.10566000000E+00 0. -1.
        994   -1    0    0    0    0 -0.00000000000E+00 -0.00000000000E+00  0.11368683772E-12  0.17120000000E+03  0.17120000000E+03 0.  0.
         13    1    1    2    0    0 -0.23830369822E+02 -0.28551562727E+02  0.17172419434E+03  0.17570511758E+03  0.10566000000E+00 0. -1.
        994    1    1    2    0    0  0.99329715247E+01  0.25185305893E+02  0.63394135216E+01  0.17344333864E+03  0.17120000000E+03 0.  0.
        998    1    1    2    0    0  0.13897398297E+02  0.33662568343E+01  0.13219363884E+04  0.13220515438E+04  0.10000000000E+02 0. -1.
</event>
<event>
 5    1  0.1300052E-008  0.3746593E+03  0.7957747E-01  0.3474748E+00
         13   -1    0    0    0    0  0.00000000000E+00  0.00000000000E+00  0.14999999963E+04  0.15000000000E+04  0.10566000000E+00 0.  1.
        994   -1    0    0    0    0 -0.00000000000E+00 -0.00000000000E+00  0.11368683772E-12  0.17120000000E+03  0.17120000000E+03 0.  0.
         13    1    1    2    0    0 -0.61045395660E+02 -0.10207664562E+03  0.58236611015E+03  0.59438748248E+03  0.10566000000E+00 0.  1.
        994    1    1    2    0    0  0.41800132501E+02  0.43214266318E+02  0.26384750460E+02  0.18335844389E+03  0.17120000000E+03 0.  0.
        998    1    1    2    0    0  0.19245263158E+02  0.58862379298E+02  0.89124913567E+03  0.89345407363E+03  0.10000000000E+02 0.  1.
</event>
<event>
 5    1  0.1300052E-008  0.3794430E+03  0.7957747E-01  0.3453587E+00
         13   -1    0    0    0    0  0.00000000000E+00  0.00000000000E+00  0.14999999963E+04  0.15000000000E+04  0.10566000000E+00 0. -1.
        994   -1    0    0    0    0 -0.00000000000E+00 -0.00000000000E+00  0.11368683772E-12  0.17120000000E+03  0.17120000000E+03 0.  0.
         13    1    1    2    0    0  0.14610039136E+02 -0.31830642015E+02  0.12332421959E+03  0.12820108157E+03  0.10566000000E+00 0. -1.
        994    1    1    2    0    0 -0.15713482325E+02  0.37442595082E+02  0.99566075179E+01  0.17623119896E+03  0.17120000000E+03 0.  0.
        998    1    1    2    0    0  0.11034431886E+01 -0.56119530665E+01  0.13667191692E+04  0.13667677195E+04  0.10000000000E+02 0. -1.
</event>
<event>
 5    1  0.1300052E-008  0.3803825E+03  0.7957747E-01  0.3449495E+00
         13   -1    0    0    0    0  0.00000000000E+00  0.00000000000E+00  0.14999999963E+04  0.15000000000E+04  0.10566000000E+00 0. -1.
        994   -1    0    0    0    0 -0.00000000000E+00 -0.00000000000E+00  0.11368683772E-12  0.17120000000E+03  0.17120000000E+03 0.  0.
         13    1    1    2    0    0  0.31894869252E+02 -0.41867031873E+02  0.30322129673E+03  0.30775525503E+03  0.10566000000E+00 0. -1.
        994    1    1    2    0    0 -0.29268880103E+02  0.34627722695E+02  0.10834401194E+02  0.17743328541E+03  0.17120000000E+03 0.  0.
        998    1    1    2    0    0 -0.26259891487E+01  0.72393091782E+01  0.11859442984E+04  0.11860114596E+04  0.10000000000E+02 0. -1.
</event>
<event>
 5    1  0.1300052E-008  0.3827146E+03  0.7957747E-01  0.3439423E+00
         13   -1    0    0    0    0  0.00000000000E+00  0.00000000000E+00  0.14999999963E+04  0.15000000000E+04  0.10566000000E+00 0. -1.
        994   -1    0    0    0    0 -0.00000000000E+00 -0.00000000000E+00  0.11368683772E-12  0.17120000000E+03  0.17120000000E+03 0.  0.
         13    1    1    2    0    0  0.82643136995E+01 -0.80170742425E+01  0.22705876437E+02  0.25458600691E+02  0.10566000000E+00 0. -1.
        994    1    1    2    0    0 -0.96185455568E+01  0.56942645739E+01  0.31831274674E+01  0.17159403652E+03  0.17120000000E+03 0.  0.
        998    1    1    2    0    0  0.13542318573E+01  0.23228096686E+01  0.14741109924E+04  0.14741473628E+04  0.10000000000E+02 0. -1.
</event>
<event>
 5    1  0.1300052E-008  0.3821016E+03  0.7957747E-01  0.3442058E+00
         13   -1    0    0    0    0  0.00000000000E+00  0.00000000000E+00  0.14999999963E+04  0.15000000000E+04  0.10566000000E+00 0. -1.
        994   -1    0    0    0    0 -0.00000000000E+00 -0.00000000000E+00  0.11368683772E-12  0.17120000000E+03  0.17120000000E+03 0.  0.
         13    1    1    2    0    0 -0.31659517912E+01 -0.16254798134E+02  0.43398818627E+02  0.46451160753E+02  0.10566000000E+00 0. -1.
        994    1    1    2    0    0  0.34479327091E+01  0.11240719658E+02  0.35351038855E+01  0.17163967775E+03  0.17120000000E+03 0.  0.
        998    1    1    2    0    0 -0.28198091785E+00  0.50140784759E+01  0.14530660738E+04  0.14531091615E+04  0.10000000000E+02 0. -1.
</event>
<event>
 5    1  0.1300052E-008  0.3856220E+03  0.7957747E-01  0.3427038E+00
         13   -1    0    0    0    0  0.00000000000E+00  0.00000000000E+00  0.14999999963E+04  0.15000000000E+04  0.10566000000E+00 0.  1.
        994   -1    0    0    0    0 -0.00000000000E+00 -0.00000000000E+00  0.11368683772E-12  0.17120000000E+03  0.17120000000E+03 0.  0.
         13    1    1    2    0    0 -0.10649433629E+02  0.77048285312E+01  0.62376435790E+02  0.63746417352E+02  0.10566000000E+00 0.  1.
        994    1    1    2    0    0  0.12354676457E+02 -0.11200648310E+02  0.22348674595E+01  0.17202478654E+03  0.17120000000E+03 0.  0.
        998    1    1    2    0    0 -0.17052428275E+01  0.34958197786E+01  0.14353886930E+04  0.14354287961E+04  0.10000000000E+02 0.  1.
</event>
<event>
 5    1  0.1300052E-008  0.3783873E+03  0.7957747E-01  0.3458211E+00
         13   -1    0    0    0    0  0.00000000000E+00  0.00000000000E+00  0.14999999963E+04  0.15000000000E+04  0.10566000000E+00 0. -1.
        994   -1    0    0    0    0 -0.00000000000E+00 -0.00000000000E+00  0.11368683772E-12  0.17120000000E+03  0.17120000000E+03 0.  0.
         13    1    1    2    0    0  0.16154394302E+02  0.13430254846E+01  0.24884846701E+02  0.29699072916E+02  0.10566000000E+00 0. -1.
        994    1    1    2    0    0 -0.42368088262E+01 -0.13484974508E+02  0.56211987008E+01  0.17187446861E+03  0.17120000000E+03 0.  0.
        998    1    1    2    0    0 -0.11917585476E+02  0.12141949024E+02  0.14694939509E+04  0.14696264585E+04  0.10000000000E+02 0. -1.
</event>
<event>
 5    1  0.1496080E-008  0.3859238E+03  0.7957747E-01  0.3425764E+00
         13   -1    0    0    0    0  0.00000000000E+00  0.00000000000E+00  0.14999999963E+04  0.15000000000E+04  0.10566000000E+00 0. -1.
        994   -1    0    0    0    0 -0.00000000000E+00 -0.00000000000E+00  0.11368683772E-12  0.17120000000E+03  0.17120000000E+03 0.  0.
         13    1    1    2    0    0 -0.12456518653E+02  0.38964448925E+01  0.67240978605E+02  0.68496040086E+02  0.10566000000E+00 0. -1.
        994    1    1    2    0    0  0.18414663426E+02 -0.98704268565E+01  0.26047605581E+01  0.17248985458E+03  0.17120000000E+03 0.  0.
        998    1    1    2    0    0 -0.59581447731E+01  0.59739819640E+01  0.14301542571E+04  0.14302141053E+04  0.10000000000E+02 0. -1.
</event>
<event>
 5    1  0.1300052E-008  0.3734679E+03  0.7957747E-01  0.3480103E+00
         13   -1    0    0    0    0  0.00000000000E+00  0.00000000000E+00  0.14999999963E+04  0.15000000000E+04  0.10566000000E+00 0. -1.
        994   -1    0    0    0    0 -0.00000000000E+00 -0.00000000000E+00  0.11368683772E-12  0.17120000000E+03  0.17120000000E+03 0.  0.
         13    1    1    2    0    0 -0.10004217930E+02 -0.18791783652E+01  0.34239804927E+01  0.10740134737E+02  0.10566000000E+00 0. -1.
        994    1    1    2    0    0  0.11239476672E+02  0.18361919653E+01  0.79108970075E+01  0.17176064662E+03  0.17120000000E+03 0.  0.
        998    1    1    2    0    0 -0.12352587422E+01  0.42986399955E-01  0.14886651188E+04  0.14886992186E+04  0.10000000000E+02 0. -1.
</event>
<event>
 5    1  0.1300052E-008  0.3807428E+03  0.7957747E-01  0.3447931E+00
         13   -1    0    0    0    0  0.00000000000E+00  0.00000000000E+00  0.14999999963E+04  0.15000000000E+04  0.10566000000E+00 0.  1.
        994   -1    0    0    0    0 -0.00000000000E+00 -0.00000000000E+00  0.11368683772E-12  0.17120000000E+03  0.17120000000E+03 0.  0.
         13    1    1    2    0    0 -0.69389303266E+01 -0.30579765078E+02  0.11868631094E+03  0.12275879747E+03  0.10566000000E+00 0.  1.
        994    1    1    2    0    0  0.78690780917E+01  0.32989029306E+02  0.76037681129E+01  0.17469246044E+03  0.17120000000E+03 0.  0.
        998    1    1    2    0    0 -0.93014776510E+00 -0.24092642286E+01  0.13737099172E+04  0.13737487421E+04  0.10000000000E+02 0.  1.
</event>
<event>
 5    1  0.1300052E-008  0.3691869E+03  0.7957747E-01  0.3499636E+00
         13   -1    0    0    0    0  0.00000000000E+00  0.00000000000E+00  0.14999999963E+04  0.15000000000E+04  0.10566000000E+00 0.  1.
        994   -1    0    0    0    0 -0.00000000000E+00 -0.00000000000E+00  0.11368683772E-12  0.17120000000E+03  0.17120000000E+03 0.  0.
         13    1    1    2    0    0  0.79970060073E+01  0.11334492040E+03  0.47013850014E+03  0.48367472910E+03  0.10566000000E+00 0.  1.
        994    1    1    2    0    0 -0.22192187682E+02 -0.10612519132E+03  0.51635975353E+02  0.20911901725E+03  0.17120000000E+03 0.  0.
        998    1    1    2    0    0  0.14195181675E+02 -0.72197290749E+01  0.97822552078E+03  0.97840625365E+03  0.10000000000E+02 0.  1.
</event>
<event>
 5    1  0.1300052E-008  0.3715342E+03  0.7957747E-01  0.3488869E+00
         13   -1    0    0    0    0  0.00000000000E+00  0.00000000000E+00  0.14999999963E+04  0.15000000000E+04  0.10566000000E+00 0.  1.
        994   -1    0    0    0    0 -0.00000000000E+00 -0.00000000000E+00  0.11368683772E-12  0.17120000000E+03  0.17120000000E+03 0.  0.
         13    1    1    2    0    0  0.37989276650E+00  0.18178609281E+02  0.16527992820E+02  0.24572176635E+02  0.10566000000E+00 0.  1.
        994    1    1    2    0    0  0.27612345216E+02  0.59259333289E+01  0.11217393438E+02  0.17387589888E+03  0.17120000000E+03 0.  0.
        998    1    1    2    0    0 -0.27992237982E+02 -0.24104542609E+02  0.14722546100E+04  0.14727519245E+04  0.10000000000E+02 0.  1.
</event>
<event>
 5    1  0.1300052E-008  0.3858989E+03  0.7957747E-01  0.3425869E+00
         13   -1    0    0    0    0  0.00000000000E+00  0.00000000000E+00  0.14999999963E+04  0.15000000000E+04  0.10566000000E+00 0.  1.
        994   -1    0    0    0    0 -0.00000000000E+00 -0.00000000000E+00  0.11368683772E-12  0.17120000000E+03  0.17120000000E+03 0.  0.
         13    1    1    2    0    0  0.13158975073E+02 -0.24269572628E+01  0.67645141230E+02  0.68955964518E+02  0.10566000000E+00 0.  1.
        994    1    1    2    0    0 -0.23301620365E+02  0.13738664591E+02  0.35875619612E+01  0.17336097317E+03  0.17120000000E+03 0.  0.
        998    1    1    2    0    0  0.10142645292E+02 -0.11311707328E+02  0.14287672931E+04  0.14288830623E+04  0.10000000000E+02 0.  1.
</event>
<event>
 5    1  0.1300052E-008  0.3810156E+03  0.7957747E-01  0.3446748E+00
         13   -1    0    0    0    0  0.00000000000E+00  0.00000000000E+00  0.14999999963E+04  0.15000000000E+04  0.10566000000E+00 0. -1.
        994   -1    0    0    0    0 -0.00000000000E+00 -0.00000000000E+00  0.11368683772E-12  0.17120000000E+03  0.17120000000E+03 0.  0.
         13    1    1    2    0    0 -0.23810533409E+02  0.19387965794E+02  0.13175676815E+03  0.13528744153E+03  0.10566000000E+00 0. -1.
        994    1    1    2    0    0  0.11866875058E+02 -0.90255591563E+01  0.43623102429E+01  0.17190332513E+03  0.17120000000E+03 0.  0.
        998    1    1    2    0    0  0.11943658350E+02 -0.10362406638E+02  0.13638809179E+04  0.13640092333E+04  0.10000000000E+02 0. -1.
</event>
<event>
 5    1  0.1300052E-008  0.3743631E+03  0.7957747E-01  0.3476076E+00
         13   -1    0    0    0    0  0.00000000000E+00  0.00000000000E+00  0.14999999963E+04  0.15000000000E+04  0.10566000000E+00 0.  1.
        994   -1    0    0    0    0 -0.00000000000E+00 -0.00000000000E+00  0.11368683772E-12  0.17120000000E+03  0.17120000000E+03 0.  0.
         13    1    1    2    0    0  0.35938759754E+02 -0.61689402710E+02  0.32343419764E+03  0.33122027146E+03  0.10566000000E+00 0.  1.
        994    1    1    2    0    0 -0.51563930089E+02  0.35263607595E+02  0.20418117257E+02  0.18338129790E+03  0.17120000000E+03 0.  0.
        998    1    1    2    0    0  0.15625170335E+02  0.26425795115E+02  0.11561476814E+04  0.11565984306E+04  0.10000000000E+02 0.  1.
</event>
<event>
 5    1  0.1300052E-008  0.3849555E+03  0.7957747E-01  0.3429861E+00
         13   -1    0    0    0    0  0.00000000000E+00  0.00000000000E+00  0.14999999963E+04  0.15000000000E+04  0.10566000000E+00 0. -1.
        994   -1    0    0    0    0 -0.00000000000E+00 -0.00000000000E+00  0.11368683772E-12  0.17120000000E+03  0.17120000000E+03 0.  0.
         13    1    1    2    0    0  0.10928933902E+02  0.10085039825E+01  0.36984399044E+02  0.38578693773E+02  0.10566000000E+00 0. -1.
        994    1    1    2    0    0 -0.37283662138E+01  0.33024333527E+01  0.17338158887E+01  0.17128121000E+03  0.17120000000E+03 0.  0.
        998    1    1    2    0    0 -0.72005676882E+01 -0.43109373352E+01  0.14612817813E+04  0.14613400962E+04  0.10000000000E+02 0. -1.
</event>
<event>
 5    1  0.1300052E-008  0.3856825E+03  0.7957747E-01  0.3426783E+00
         13   -1    0    0    0    0  0.00000000000E+00  0.00000000000E+00  0.14999999963E+04  0.15000000000E+04  0.10566000000E+00 0.  1.
        994   -1    0    0    0    0 -0.00000000000E+00 -0.00000000000E+00  0.11368683772E-12  0.17120000000E+03  0.17120000000E+03 0.  0.
         13    1    1    2    0    0 -0.12799907603E+02  0.81050468994E+01  0.84776126200E+02  0.86119290275E+02  0.10566000000E+00 0.  1.
        994    1    1    2    0    0  0.16873866401E+02 -0.44329640211E+01  0.22911027550E+01  0.17210191077E+03  0.17120000000E+03 0.  0.
        998    1    1    2    0    0 -0.40739587984E+01 -0.36720828783E+01  0.14129327673E+04  0.14129787990E+04  0.10000000000E+02 0.  1.
</event>
<event>
 5    1  0.1300052E-008  0.3814167E+03  0.7957747E-01  0.3445013E+00
         13   -1    0    0    0    0  0.00000000000E+00  0.00000000000E+00  0.14999999963E+04  0.15000000000E+04  0.10566000000E+00 0. -1.
        994   -1    0    0    0    0 -0.00000000000E+00 -0.00000000000E+00  0.11368683772E-12  0.17120000000E+03  0.17120000000E+03 0.  0.
         13    1    1    2    0    0  0.66866376316E+01 -0.27309167193E+02  0.11431451813E+03  0.11772137425E+03  0.10566000000E+00 0. -1.
        994    1    1    2    0    0 -0.28253115305E+02  0.11445505726E+02  0.65177546987E+01  0.17401482481E+03  0.17120000000E+03 0.  0.
        998    1    1    2    0    0  0.21566477674E+02  0.15863661467E+02  0.13791677235E+04  0.13794638009E+04  0.10000000000E+02 0. -1.
</event>
<event>
 5    1  0.1300052E-008  0.3796888E+03  0.7957747E-01  0.3452515E+00
         13   -1    0    0    0    0  0.00000000000E+00  0.00000000000E+00  0.14999999963E+04  0.15000000000E+04  0.10566000000E+00 0. -1.
        994   -1    0    0    0    0 -0.00000000000E+00 -0.00000000000E+00  0.11368683772E-12  0.17120000000E+03  0.17120000000E+03 0.  0.
         13    1    1    2    0    0 -0.20257365230E+02 -0.11427894181E+02  0.59288538741E+02  0.63687515272E+02  0.10566000000E+00 0. -1.
        994    1    1    2    0    0  0.68630438946E+01  0.37179521840E+02  0.90885421900E+01  0.17556041642E+03  0.17120000000E+03 0.  0.
        998    1    1    2    0    0  0.13394321336E+02 -0.25751627659E+02  0.14316229153E+04  0.14319520683E+04  0.10000000000E+02 0. -1.
</event>
<event>
 5    1  0.1300052E-008  0.3709133E+03  0.7957747E-01  0.3491704E+00
         13   -1    0    0    0    0  0.00000000000E+00  0.00000000000E+00  0.14999999963E+04  0.15000000000E+04  0.10566000000E+00 0.  1.
        994   -1    0    0    0    0 -0.00000000000E+00 -0.00000000000E+00  0.11368683772E-12  0.17120000000E+03  0.17120000000E+03 0.  0.
         13    1    1    2    0    0 -0.46082403950E+02  0.25445362916E+02  0.18251618483E+03  0.18995584575E+03  0.10566000000E+00 0.  1.
        994    1    1    2    0    0  0.15809664417E+02  0.28482022844E+02  0.12458883421E+02  0.17471644139E+03  0.17120000000E+03 0.  0.
        998    1    1    2    0    0  0.30272739533E+02 -0.53927385760E+02  0.13050249280E+04  0.13065277129E+04  0.10000000000E+02 0.  1.
</event>
<event>
 5    1  0.1300052E-008  0.3751685E+03  0.7957747E-01  0.3472470E+00
         13   -1    0    0    0    0  0.00000000000E+00  0.00000000000E+00  0.14999999963E+04  0.15000000000E+04  0.10566000000E+00 0. -1.
        994   -1    0    0    0    0 -0.00000000000E+00 -0.00000000000E+00  0.11368683772E-12  0.17120000000E+03  0.17120000000E+03 0.  0.
         13    1    1    2    0    0 -0.36773920462E+02  0.27690285506E+02  0.14192500136E+03  0.14920385488E+03  0.10566000000E+00 0. -1.
        994    1    1    2    0    0  0.33498584383E+02 -0.37793335062E+02  0.15306702111E+02  0.17914861557E+03  0.17120000000E+03 0.  0.
        998    1    1    2    0    0  0.32753360791E+01  0.10103049556E+02  0.13427682928E+04  0.13428475295E+04  0.10000000000E+02 0.  1.
</event>
<event>
 5    1  0.1300052E-008  0.3779322E+03  0.7957747E-01  0.3460212E+00
         13   -1    0    0    0    0  0.00000000000E+00  0.00000000000E+00  0.14999999963E+04  0.15000000000E+04  0.10566000000E+00 0.  1.
        994   -1    0    0    0    0 -0.00000000000E+00 -0.00000000000E+00  0.11368683772E-12  0.17120000000E+03  0.17120000000E+03 0.  0.
         13    1    1    2    0    0 -0.12147418852E+02  0.23207328796E+02  0.63149869791E+02  0.68367076237E+02  0.10566000000E+00 0.  1.
        994    1    1    2    0    0  0.11744353357E+02 -0.18001057534E+02  0.67371056404E+01  0.17267540792E+03  0.17120000000E+03 0.  0.
        998    1    1    2    0    0  0.40306549508E+00 -0.52062712615E+01  0.14301130208E+04  0.14301575158E+04  0.10000000000E+02 0.  1.
</event>
<event>
 5    1  0.1300052E-008  0.3850754E+03  0.7957747E-01  0.3429353E+00
         13   -1    0    0    0    0  0.00000000000E+00  0.00000000000E+00  0.14999999963E+04  0.15000000000E+04  0.10566000000E+00 0. -1.
        994   -1    0    0    0    0 -0.00000000000E+00 -0.00000000000E+00  0.11368683772E-12  0.17120000000E+03  0.17120000000E+03 0.  0.
         13    1    1    2    0    0 -0.12873617934E+02  0.70813865990E+01  0.68648014985E+02  0.70202829005E+02  0.10566000000E+00 0. -1.
        994    1    1    2    0    0  0.91093956791E+01  0.19960594531E+00  0.18657333398E+01  0.17145244791E+03  0.17120000000E+03 0.  0.
        998    1    1    2    0    0  0.37642222554E+01 -0.72809925443E+01  0.14294862480E+04  0.14295447231E+04  0.10000000000E+02 0. -1.
</event>
<event>
 5    1  0.1300052E-008  0.3820750E+03  0.7957747E-01  0.3442173E+00
         13   -1    0    0    0    0  0.00000000000E+00  0.00000000000E+00  0.14999999963E+04  0.15000000000E+04  0.10566000000E+00 0.  1.
        994   -1    0    0    0    0 -0.00000000000E+00 -0.00000000000E+00  0.11368683772E-12  0.17120000000E+03  0.17120000000E+03 0.  0.
         13    1    1    2    0    0  0.30017476685E+02  0.34492136938E+01  0.17523580050E+03  0.17782166044E+03  0.10566000000E+00 0.  1.
        994    1    1    2    0    0  0.47549874212E+01 -0.70162997832E+01  0.33278997915E+01  0.17144198227E+03  0.17120000000E+03 0.  0.
        998    1    1    2    0    0 -0.34772464106E+02  0.35670860895E+01  0.13214362960E+04  0.13219363573E+04  0.10000000000E+02 0.  1.
</event>
<event>
 5    1  0.1300052E-008  0.3819632E+03  0.7957747E-01  0.3442655E+00
         13   -1    0    0    0    0  0.00000000000E+00  0.00000000000E+00  0.14999999963E+04  0.15000000000E+04  0.10566000000E+00 0.  1.
        994   -1    0    0    0    0 -0.00000000000E+00 -0.00000000000E+00  0.11368683772E-12  0.17120000000E+03  0.17120000000E+03 0.  0.
         13    1    1    2    0    0 -0.19624069390E+02 -0.16969281542E+02  0.11139093589E+03  0.11437225354E+03  0.10566000000E+00 0.  1.
        994    1    1    2    0    0  0.86249930550E+01  0.18979218517E+01  0.34044922741E+01  0.17146143351E+03  0.17120000000E+03 0.  0.
        998    1    1    2    0    0  0.10999076335E+02  0.15071359690E+02  0.13852045681E+04  0.13853663130E+04  0.10000000000E+02 0.  1.
</event>
<event>
 5    1  0.1300052E-008  0.3844259E+03  0.7957747E-01  0.3432111E+00
         13   -1    0    0    0    0  0.00000000000E+00  0.00000000000E+00  0.14999999963E+04  0.15000000000E+04  0.10566000000E+00 0. -1.
        994   -1    0    0    0    0 -0.00000000000E+00 -0.00000000000E+00  0.11368683772E-12  0.17120000000E+03  0.17120000000E+03 0.  0.
         13    1    1    2    0    0  0.66274306415E+01 -0.14075943688E+02  0.64791296778E+02  0.66633162388E+02  0.10566000000E+00 0. -1.
        994    1    1    2    0    0 -0.30603430139E+01  0.43390191385E+01  0.20083545313E+01  0.17129409293E+03  0.17120000000E+03 0.  0.
        998    1    1    2    0    0 -0.35670876276E+01  0.97369245498E+01  0.14332003450E+04  0.14332727447E+04  0.10000000000E+02 0. -1.
</event>
<event>
 5    1  0.1300052E-008  0.3730538E+03  0.7957747E-01  0.3481973E+00
         13   -1    0    0    0    0  0.00000000000E+00  0.00000000000E+00  0.14999999963E+04  0.15000000000E+04  0.10566000000E+00 0. -1.
        994   -1    0    0    0    0 -0.00000000000E+00 -0.00000000000E+00  0.11368683772E-12  0.17120000000E+03  0.17120000000E+03 0.  0.
         13    1    1    2    0    0 -0.21800437267E+02  0.29081699984E+02  0.79736831307E+02  0.87629776730E+02  0.10566000000E+00 0. -1.
        994    1    1    2    0    0  0.18335590759E+02 -0.29471770225E+02  0.11815066029E+02  0.17508230897E+03  0.17120000000E+03 0.  0.
        998    1    1    2    0    0  0.34648465075E+01  0.39007024102E+00  0.14084480989E+04  0.14084879143E+04  0.10000000000E+02 0. -1.
</event>
<event>
 5    1  0.1300052E-008  0.3859026E+03  0.7957747E-01  0.3425853E+00
         13   -1    0    0    0    0  0.00000000000E+00  0.00000000000E+00  0.14999999963E+04  0.15000000000E+04  0.10566000000E+00 0. -1.
        994   -1    0    0    0    0 -0.00000000000E+00 -0.00000000000E+00  0.11368683772E-12  0.17120000000E+03  0.17120000000E+03 0.  0.
         13    1    1    2    0    0  0.82668135581E+01  0.67842523029E+01  0.46733147812E+02  0.47941261500E+02  0.10566000000E+00 0. -1.
        994    1    1    2    0    0 -0.85474535716E+01 -0.12089606273E+02  0.19018530586E+01  0.17184956965E+03  0.17120000000E+03 0.  0.
        998    1    1    2    0    0  0.28064001351E+00  0.53053539704E+01  0.14513649954E+04  0.14514091689E+04  0.10000000000E+02 0. -1.
</event>
<event>
 5    1  0.1300052E-008  0.3828129E+03  0.7957747E-01  0.3439001E+00
         13   -1    0    0    0    0  0.00000000000E+00  0.00000000000E+00  0.14999999963E+04  0.15000000000E+04  0.10566000000E+00 0. -1.
        994   -1    0    0    0    0 -0.00000000000E+00 -0.00000000000E+00  0.11368683772E-12  0.17120000000E+03  0.17120000000E+03 0.  0.
         13    1    1    2    0    0  0.20082012224E+02 -0.15138714291E+02  0.12703452410E+03  0.12949999754E+03  0.10566000000E+00 0. -1.
        994    1    1    2    0    0  0.69821898301E+01  0.12886511683E+02  0.34317075398E+01  0.17186049510E+03  0.17120000000E+03 0.  0.
        998    1    1    2    0    0 -0.27064202054E+02  0.22522026083E+01  0.13695337646E+04  0.13698395074E+04  0.10000000000E+02 0. -1.
</event>
<event>
 5    1  0.1300052E-008  0.3812959E+03  0.7957747E-01  0.3445535E+00
         13   -1    0    0    0    0  0.00000000000E+00  0.00000000000E+00  0.14999999963E+04  0.15000000000E+04  0.10566000000E+00 0.  1.
        994   -1    0    0    0    0 -0.00000000000E+00 -0.00000000000E+00  0.11368683772E-12  0.17120000000E+03  0.17120000000E+03 0.  0.
         13    1    1    2    0    0  0.10387422249E+02 -0.13180175540E+02  0.41787322676E+02  0.45031178851E+02  0.10566000000E+00 0.  1.
        994    1    1    2    0    0  0.16519347660E+02  0.53926090095E+01  0.44862083129E+01  0.17213812810E+03  0.17120000000E+03 0.  0.
        998    1    1    2    0    0 -0.26906769909E+02  0.77875665304E+01  0.14537264653E+04  0.14540306931E+04  0.10000000000E+02 0.  1.
</event>
<event>
 5    1  0.1300052E-008  0.3843200E+03  0.7957747E-01  0.3432561E+00
         13   -1    0    0    0    0  0.00000000000E+00  0.00000000000E+00  0.14999999963E+04  0.15000000000E+04  0.10566000000E+00 0.  1.
        994   -1    0    0    0    0 -0.00000000000E+00 -0.00000000000E+00  0.11368683772E-12  0.17120000000E+03  0.17120000000E+03 0.  0.
         13    1    1    2    0    0  0.98096771514E+01 -0.11385107371E+02  0.63135787924E+02  0.64899840651E+02  0.10566000000E+00 0.  1.
        994    1    1    2    0    0 -0.51038851330E+02 -0.47071688736E+02  0.18021740497E+02  0.18562039585E+03  0.17120000000E+03 0.  0.
        998    1    1    2    0    0  0.41229174179E+02  0.58456796108E+02  0.14188424679E+04  0.14206797635E+04  0.10000000000E+02 0.  1.
</event>
<event>
 5    1  0.1300052E-008  0.3800017E+03  0.7957747E-01  0.3451151E+00
         13   -1    0    0    0    0  0.00000000000E+00  0.00000000000E+00  0.14999999963E+04  0.15000000000E+04  0.10566000000E+00 0.  1.
        994   -1    0    0    0    0 -0.00000000000E+00 -0.00000000000E+00  0.11368683772E-12  0.17120000000E+03  0.17120000000E+03 0.  0.
         13    1    1    2    0    0  0.22540176609E+02  0.69270434252E+01  0.67287109774E+02  0.71299437571E+02  0.10566000000E+00 0.  1.
        994    1    1    2    0    0 -0.11423839274E+02  0.40420089960E+01  0.46233069823E+01  0.17169058480E+03  0.17120000000E+03 0.  0.
        998    1    1    2    0    0 -0.11116337335E+02 -0.10969052421E+02  0.14280895795E+04  0.14282099776E+04  0.10000000000E+02 0.  1.
</event>
<event>
 5    1  0.1300052E-008  0.3795167E+03  0.7957747E-01  0.3453266E+00
         13   -1    0    0    0    0  0.00000000000E+00  0.00000000000E+00  0.14999999963E+04  0.15000000000E+04  0.10566000000E+00 0.  1.
        994   -1    0    0    0    0 -0.00000000000E+00 -0.00000000000E+00  0.11368683772E-12  0.17120000000E+03  0.17120000000E+03 0.  0.
         13    1    1    2    0    0 -0.25039350275E+02  0.10293846495E+02  0.86241874964E+02  0.90391396156E+02  0.10566000000E+00 0.  1.
        994    1    1    2    0    0  0.24915198521E+01 -0.11079003688E+02  0.48092126739E+01  0.17164358572E+03  0.17120000000E+03 0.  0.
        998    1    1    2    0    0  0.22547830423E+02  0.78515719311E+00  0.14089489086E+04  0.14091650181E+04  0.10000000000E+02 0.  1.
</event>
<event>
 5    1  0.1300052E-008  0.3841395E+03  0.7957747E-01  0.3433330E+00
         13   -1    0    0    0    0  0.00000000000E+00  0.00000000000E+00  0.14999999963E+04  0.15000000000E+04  0.10566000000E+00 0.  1.
        994   -1    0    0    0    0 -0.00000000000E+00 -0.00000000000E+00  0.11368683772E-12  0.17120000000E+03  0.17120000000E+03 0.  0.
         13    1    1    2    0    0  0.10197737659E+02  0.55499903427E+01  0.31738197595E+02  0.33795274770E+02  0.10566000000E+00 0.  1.
        994    1    1    2    0    0 -0.10896346028E+02 -0.42723330948E+01  0.25098639250E+01  0.17161795537E+03  0.17120000000E+03 0.  0.
        998    1    1    2    0    0  0.69860836915E+00 -0.12776572479E+01  0.14657519348E+04  0.14657867699E+04  0.10000000000E+02 0.  1.
</event>
<event>
 5    1  0.1300052E-008  0.3843291E+03  0.7957747E-01  0.3432522E+00
         13   -1    0    0    0    0  0.00000000000E+00  0.00000000000E+00  0.14999999963E+04  0.15000000000E+04  0.10566000000E+00 0.  1.
        994   -1    0    0    0    0 -0.00000000000E+00 -0.00000000000E+00  0.11368683772E-12  0.17120000000E+03  0.17120000000E+03 0.  0.
         13    1    1    2    0    0 -0.75128912476E+01  0.81191709860E+01  0.30851391898E+02  0.32774746657E+02  0.10566000000E+00 0.  1.
        994    1    1    2    0    0  0.16611544986E+01 -0.69530718912E+01  0.21320200210E+01  0.17136245257E+03  0.17120000000E+03 0.  0.
        998    1    1    2    0    0  0.58517367490E+01 -0.11660990949E+01  0.14670165844E+04  0.14670628008E+04  0.10000000000E+02 0.  1.
</event>
<event>
 5    1  0.1300052E-008  0.3808254E+03  0.7957747E-01  0.3447572E+00
         13   -1    0    0    0    0  0.00000000000E+00  0.00000000000E+00  0.14999999963E+04  0.15000000000E+04  0.10566000000E+00 0.  1.
        994   -1    0    0    0    0 -0.00000000000E+00 -0.00000000000E+00  0.11368683772E-12  0.17120000000E+03  0.17120000000E+03 0.  0.
         13    1    1    2    0    0  0.21344135730E+02  0.26363719118E+02  0.18115606720E+03  0.18430450256E+03  0.10566000000E+00 0.  1.
        994    1    1    2    0    0  0.60132169873E+01 -0.23104924634E+01  0.38554315167E+01  0.17136452814E+03  0.17120000000E+03 0.  0.
        998    1    1    2    0    0 -0.27357352718E+02 -0.24053226655E+02  0.13149884976E+04  0.13155309693E+04  0.10000000000E+02 0.  1.
</event>
<event>
 5    1  0.1300052E-008  0.3725673E+03  0.7957747E-01  0.3484174E+00
         13   -1    0    0    0    0  0.00000000000E+00  0.00000000000E+00  0.14999999963E+04  0.15000000000E+04  0.10566000000E+00 0.  1.
        994   -1    0    0    0    0 -0.00000000000E+00 -0.00000000000E+00  0.11368683772E-12  0.17120000000E+03  0.17120000000E+03 0.  0.
         13    1    1    2    0    0  0.43458400451E+02  0.27510065441E+02  0.15418678972E+03  0.16253926774E+03  0.10566000000E+00 0.  1.
        994    1    1    2    0    0 -0.39553578997E+02 -0.18716282496E+02  0.14524507235E+02  0.17729970714E+03  0.17120000000E+03 0.  0.
        998    1    1    2    0    0 -0.39048214539E+01 -0.87937829451E+01  0.13312886993E+04  0.13313610251E+04  0.10000000000E+02 0.  1.
</event>
<event>
 5    1  0.1300052E-008  0.2737606E+03  0.7957747E-01  0.4103201E+00
         13   -1    0    0    0    0  0.00000000000E+00  0.00000000000E+00  0.14999999963E+04  0.15000000000E+04  0.10566000000E+00 0.  1.
        994   -1    0    0    0    0 -0.00000000000E+00 -0.00000000000E+00  0.11368683772E-12  0.17120000000E+03  0.17120000000E+03 0.  0.
         13    1    1    2    0    0 -0.22520395540E+03 -0.59401619734E+00  0.17386603559E+03  0.28451113138E+03  0.10566000000E+00 0.  1.
        994    1    1    2    0    0  0.16499320642E+03 -0.51946199723E+01  0.45503927846E+03  0.51343931207E+03  0.17120000000E+03 0.  0.
        998    1    1    2    0    0  0.60210748983E+02  0.57886361697E+01  0.87109468223E+03  0.87324955654E+03  0.10000000000E+02 0. -1.
</event>
<event>
 5    1  0.1300052E-008  0.3849254E+03  0.7957747E-01  0.3429989E+00
         13   -1    0    0    0    0  0.00000000000E+00  0.00000000000E+00  0.14999999963E+04  0.15000000000E+04  0.10566000000E+00 0.  1.
        994   -1    0    0    0    0 -0.00000000000E+00 -0.00000000000E+00  0.11368683772E-12  0.17120000000E+03  0.17120000000E+03 0.  0.
         13    1    1    2    0    0  0.93712205741E+01 -0.12768532281E+02  0.73113604155E+02  0.74809527924E+02  0.10566000000E+00 0.  1.
        994    1    1    2    0    0 -0.35400869799E+01  0.15648306454E+02  0.25143657064E+01  0.17196849638E+03  0.17120000000E+03 0.  0.
        998    1    1    2    0    0 -0.58311335942E+01 -0.28797741731E+01  0.14243720264E+04  0.14244219757E+04  0.10000000000E+02 0.  1.
</event>
<event>
 5    1  0.1300052E-008  0.3858033E+03  0.7957747E-01  0.3426272E+00
         13   -1    0    0    0    0  0.00000000000E+00  0.00000000000E+00  0.14999999963E+04  0.15000000000E+04  0.10566000000E+00 0. -1.
        994   -1    0    0    0    0 -0.00000000000E+00 -0.00000000000E+00  0.11368683772E-12  0.17120000000E+03  0.17120000000E+03 0.  0.
         13    1    1    2    0    0  0.34376642650E+01  0.11425046691E+02  0.56996375284E+02  0.58231839976E+02  0.10566000000E+00 0. -1.
        994    1    1    2    0    0 -0.81692642291E+01 -0.93766507986E+01  0.17392811781E+01  0.17165990667E+03  0.17120000000E+03 0.  0.
        998    1    1    2    0    0  0.47315999640E+01 -0.20483958926E+01  0.14412643398E+04  0.14413082534E+04  0.10000000000E+02 0. -1.
</event>
<event>
 5    1  0.1300052E-008  0.3823353E+03  0.7957747E-01  0.3441053E+00
         13   -1    0    0    0    0  0.00000000000E+00  0.00000000000E+00  0.14999999963E+04  0.15000000000E+04  0.10566000000E+00 0. -1.
        994   -1    0    0    0    0 -0.00000000000E+00 -0.00000000000E+00  0.11368683772E-12  0.17120000000E+03  0.17120000000E+03 0.  0.
         13    1    1    2    0    0 -0.24934933562E+02  0.27419251739E+02  0.22246797728E+03  0.22553398493E+03  0.10566000000E+00 0. -1.
        994    1    1    2    0    0  0.13395749231E+02 -0.22521172904E+02  0.52400998835E+01  0.17327304457E+03  0.17120000000E+03 0.  0.
        998    1    1    2    0    0  0.11539184331E+02 -0.48980788357E+01  0.12722919191E+04  0.12723929705E+04  0.10000000000E+02 0. -1.
</event>
<event>
 5    1  0.1300052E-008  0.3744294E+03  0.7957747E-01  0.3475779E+00
         13   -1    0    0    0    0  0.00000000000E+00  0.00000000000E+00  0.14999999963E+04  0.15000000000E+04  0.10566000000E+00 0.  1.
        994   -1    0    0    0    0 -0.00000000000E+00 -0.00000000000E+00  0.11368683772E-12  0.17120000000E+03  0.17120000000E+03 0.  0.
         13    1    1    2    0    0 -0.15501407550E+02 -0.54993994389E+01  0.14231348890E+02  0.21750390467E+02  0.10566000000E+00 0.  1.
        994    1    1    2    0    0  0.56104024878E+02  0.43916574907E+02  0.24462483535E+02  0.18704058453E+03  0.17120000000E+03 0.  0.
        998    1    1    2    0    0 -0.40602617328E+02 -0.38417175469E+02  0.14613061639E+04  0.14624090250E+04  0.10000000000E+02 0.  1.
</event>
<event>
 5    1  0.1300052E-008  0.3785070E+03  0.7957747E-01  0.3457685E+00
         13   -1    0    0    0    0  0.00000000000E+00  0.00000000000E+00  0.14999999963E+04  0.15000000000E+04  0.10566000000E+00 0. -1.
        994   -1    0    0    0    0 -0.00000000000E+00 -0.00000000000E+00  0.11368683772E-12  0.17120000000E+03  0.17120000000E+03 0.  0.
         13    1    1    2    0    0  0.27343146465E+02 -0.58242426726E+01  0.87620327452E+02  0.91972291524E+02  0.10566000000E+00 0. -1.
        994    1    1    2    0    0  0.72759408044E+01 -0.28443600776E+01  0.50937469423E+01  0.17145383039E+03  0.17120000000E+03 0.  0.
        998    1    1    2    0    0 -0.34619087269E+02  0.86686027502E+01  0.14072859219E+04  0.14077738781E+04  0.10000000000E+02 0. -1.
</event>
<event>
 5    1  0.1300052E-008  0.3802754E+03  0.7957747E-01  0.3449960E+00
         13   -1    0    0    0    0  0.00000000000E+00  0.00000000000E+00  0.14999999963E+04  0.15000000000E+04  0.10566000000E+00 0.  1.
        994   -1    0    0    0    0 -0.00000000000E+00 -0.00000000000E+00  0.11368683772E-12  0.17120000000E+03  0.17120000000E+03 0.  0.
         13    1    1    2    0    0 -0.13198912217E+02 -0.45192044609E+02  0.21263262292E+03  0.21778240442E+03  0.10566000000E+00 0.  1.
        994    1    1    2    0    0 -0.13761848888E+02  0.70366738330E+02  0.21359413562E+02  0.18683289565E+03  0.17120000000E+03 0.  0.
        998    1    1    2    0    0  0.26960761106E+02 -0.25174693721E+02  0.12660079598E+04  0.12665846999E+04  0.10000000000E+02 0.  1.
</event>
<event>
 5    1  0.1300052E-008  0.3838773E+03  0.7957747E-01  0.3434448E+00
         13   -1    0    0    0    0  0.00000000000E+00  0.00000000000E+00  0.14999999963E+04  0.15000000000E+04  0.10566000000E+00 0. -1.
        994   -1    0    0    0    0 -0.00000000000E+00 -0.00000000000E+00  0.11368683772E-12  0.17120000000E+03  0.17120000000E+03 0.  0.
         13    1    1    2    0    0  0.10945824924E+02  0.12923315409E+02  0.64640380295E+02  0.66822249986E+02  0.10566000000E+00 0. -1.
        994    1    1    2    0    0 -0.92551126319E+01 -0.81144211635E+01  0.26887897129E+01  0.17166295620E+03  0.17120000000E+03 0.  0.
        998    1    1    2    0    0 -0.16907122917E+01 -0.48088942456E+01  0.14326708263E+04  0.14327147938E+04  0.10000000000E+02 0. -1.
</event>
<event>
 5    1  0.1300052E-008  0.3860504E+03  0.7957747E-01  0.3425230E+00
         13   -1    0    0    0    0  0.00000000000E+00  0.00000000000E+00  0.14999999963E+04  0.15000000000E+04  0.10566000000E+00 0.  1.
        994   -1    0    0    0    0 -0.00000000000E+00 -0.00000000000E+00  0.11368683772E-12  0.17120000000E+03  0.17120000000E+03 0.  0.
         13    1    1    2    0    0  0.11412350288E+02 -0.43816410646E+01  0.69709568571E+02  0.70773410487E+02  0.10566000000E+00 0.  1.
        994    1    1    2    0    0 -0.11239112499E+01  0.12541267359E+02  0.16293326304E+01  0.17167015258E+03  0.17120000000E+03 0.  0.
        998    1    1    2    0    0 -0.10288439038E+02 -0.81596262944E+01  0.14286610951E+04  0.14287564369E+04  0.10000000000E+02 0.  1.
</event>
<event>
 5    1  0.1300052E-008  0.3822265E+03  0.7957747E-01  0.3441521E+00
         13   -1    0    0    0    0  0.00000000000E+00  0.00000000000E+00  0.14999999963E+04  0.15000000000E+04  0.10566000000E+00 0. -1.
        994   -1    0    0    0    0 -0.00000000000E+00 -0.00000000000E+00  0.11368683772E-12  0.17120000000E+03  0.17120000000E+03 0.  0.
         13    1    1    2    0    0  0.18458751422E+02  0.13584309043E+02  0.84919949773E+02  0.87958330985E+02  0.10566000000E+00 0. -1.
        994    1    1    2    0    0 -0.21653146122E+02  0.37296105281E+00  0.45713323958E+01  0.17262483864E+03  0.17120000000E+03 0.  0.
        998    1    1    2    0    0  0.31943947002E+01 -0.13957270095E+02  0.14105087141E+04  0.14106168304E+04  0.10000000000E+02 0. -1.
</event>
<event>
 5    1  0.1300052E-008  0.3846165E+03  0.7957747E-01  0.3431300E+00
         13   -1    0    0    0    0  0.00000000000E+00  0.00000000000E+00  0.14999999963E+04  0.15000000000E+04  0.10566000000E+00 0. -1.
        994   -1    0    0    0    0 -0.00000000000E+00 -0.00000000000E+00  0.11368683772E-12  0.17120000000E+03  0.17120000000E+03 0.  0.
         13    1    1    2    0    0 -0.79654426960E+01 -0.11405819760E+02  0.53156933907E+02  0.54947354696E+02  0.10566000000E+00 0. -1.
        994    1    1    2    0    0  0.71165895527E+01  0.53813350742E+01  0.20828187920E+01  0.17144498461E+03  0.17120000000E+03 0.  0.
        998    1    1    2    0    0  0.84885314327E+00  0.60244846858E+01  0.14447602436E+04  0.14448076607E+04  0.10000000000E+02 0. -1.
</event>
<event>
 5    1  0.1300052E-008  0.3740290E+03  0.7957747E-01  0.3477577E+00
         13   -1    0    0    0    0  0.00000000000E+00  0.00000000000E+00  0.14999999963E+04  0.15000000000E+04  0.10566000000E+00 0.  1.
        994   -1    0    0    0    0 -0.00000000000E+00 -0.00000000000E+00  0.11368683772E-12  0.17120000000E+03  0.17120000000E+03 0.  0.
         13    1    1    2    0    0 -0.65288093928E+01  0.26799920385E+02  0.48996546765E+02  0.56227518563E+02  0.10566000000E+00 0.  1.
        994    1    1    2    0    0  0.16314391872E+01 -0.26475643915E+02  0.95815545966E+01  0.17350754307E+03  0.17120000000E+03 0.  0.
        998    1    1    2    0    0  0.48973702056E+01 -0.32427647039E+00  0.14414218949E+04  0.14414649384E+04  0.10000000000E+02 0.  1.
</event>
<event>
 5    1  0.1300052E-008  0.3744591E+03  0.7957747E-01  0.3475645E+00
         13   -1    0    0    0    0  0.00000000000E+00  0.00000000000E+00  0.14999999963E+04  0.15000000000E+04  0.10566000000E+00 0. -1.
        994   -1    0    0    0    0 -0.00000000000E+00 -0.00000000000E+00  0.11368683772E-12  0.17120000000E+03  0.17120000000E+03 0.  0.
         13    1    1    2    0    0 -0.12347874911E+02 -0.86164433021E+01  0.13096459648E+02  0.19955989811E+02  0.10566000000E+00 0. -1.
        994    1    1    2    0    0  0.12024570461E+02  0.88700365882E+01  0.77174138181E+01  0.17202402832E+03  0.17120000000E+03 0.  0.
        998    1    1    2    0    0  0.32330444945E+00 -0.25359328612E+00  0.14791861228E+04  0.14792199819E+04  0.10000000000E+02 0.  0.
</event>
<event>
 5    1  0.1300052E-008  0.3858360E+03  0.7957747E-01  0.3426134E+00
         13   -1    0    0    0    0  0.00000000000E+00  0.00000000000E+00  0.14999999963E+04  0.15000000000E+04  0.10566000000E+00 0. -1.
        994   -1    0    0    0    0 -0.00000000000E+00 -0.00000000000E+00  0.11368683772E-12  0.17120000000E+03  0.17120000000E+03 0.  0.
         13    1    1    2    0    0  0.14767362987E+02  0.18650098852E+02  0.14125973902E+03  0.14324882627E+03  0.10566000000E+00 0. -1.
        994    1    1    2    0    0 -0.25504676888E+02 -0.65347133817E+02  0.17524019716E+02  0.18584205043E+03  0.17120000000E+03 0.  0.
        998    1    1    2    0    0  0.10737313901E+02  0.46697034965E+02  0.13412162375E+04  0.13421091233E+04  0.10000000000E+02 0. -1.
</event>
<event>
 5    1  0.1300052E-008  0.3775306E+03  0.7957747E-01  0.3461982E+00
         13   -1    0    0    0    0  0.00000000000E+00  0.00000000000E+00  0.14999999963E+04  0.15000000000E+04  0.10566000000E+00 0. -1.
        994   -1    0    0    0    0 -0.00000000000E+00 -0.00000000000E+00  0.11368683772E-12  0.17120000000E+03  0.17120000000E+03 0.  0.
         13    1    1    2    0    0  0.10233704764E+02 -0.11770262385E+02  0.20641874450E+02  0.25872107271E+02  0.10566000000E+00 0. -1.
        994    1    1    2    0    0  0.24127432698E-01  0.58114480916E+01  0.54987355593E+01  0.17138684198E+03  0.17120000000E+03 0.  0.
        998    1    1    2    0    0 -0.10257832197E+02  0.59588142930E+01  0.14738593863E+04  0.14739410507E+04  0.10000000000E+02 0. -1.
</event>
<event>
 5    1  0.1300052E-008  0.3816458E+03  0.7957747E-01  0.3444023E+00
         13   -1    0    0    0    0  0.00000000000E+00  0.00000000000E+00  0.14999999963E+04  0.15000000000E+04  0.10566000000E+00 0. -1.
        994   -1    0    0    0    0 -0.00000000000E+00 -0.00000000000E+00  0.11368683772E-12  0.17120000000E+03  0.17120000000E+03 0.  0.
         13    1    1    2    0    0  0.53532203933E+01  0.91095667648E+01  0.15397743977E+02  0.18674658199E+02  0.10566000000E+00 0. -1.
        994    1    1    2    0    0 -0.76970042852E+01 -0.77083487134E+01  0.36992835886E+01  0.17158609272E+03  0.17120000000E+03 0.  0.
        998    1    1    2    0    0  0.23437838919E+01 -0.14012180514E+01  0.14809029687E+04  0.14809392491E+04  0.10000000000E+02 0. -1.
</event>
<event>
 5    1  0.1300052E-008  0.3834736E+03  0.7957747E-01  0.3436172E+00
         13   -1    0    0    0    0  0.00000000000E+00  0.00000000000E+00  0.14999999963E+04  0.15000000000E+04  0.10566000000E+00 0. -1.
        994   -1    0    0    0    0 -0.00000000000E+00 -0.00000000000E+00  0.11368683772E-12  0.17120000000E+03  0.17120000000E+03 0.  0.
         13    1    1    2    0    0  0.95554729781E+00 -0.14532638931E+02  0.43167581577E+02  0.45558335441E+02  0.10566000000E+00 0. -1.
        994    1    1    2    0    0 -0.26259253947E+01  0.12405154280E+02  0.29214477185E+01  0.17169379195E+03  0.17120000000E+03 0.  0.
        998    1    1    2    0    0  0.16703780969E+01  0.21274846506E+01  0.14539109670E+04  0.14539478726E+04  0.10000000000E+02 0. -1.
</event>
<event>
 5    1  0.1300052E-008  0.3849719E+03  0.7957747E-01  0.3429791E+00
         13   -1    0    0    0    0  0.00000000000E+00  0.00000000000E+00  0.14999999963E+04  0.15000000000E+04  0.10566000000E+00 0.  1.
        994   -1    0    0    0    0 -0.00000000000E+00 -0.00000000000E+00  0.11368683772E-12  0.17120000000E+03  0.17120000000E+03 0.  0.
         13    1    1    2    0    0 -0.14354427219E+02  0.50201220752E+01  0.70238925419E+02  0.71866327404E+02  0.10566000000E+00 0.  1.
        994    1    1    2    0    0  0.11900005238E+02  0.29751776137E+01  0.21391183525E+01  0.17165219962E+03  0.17120000000E+03 0.  0.
        998    1    1    2    0    0  0.24544219810E+01 -0.79952996890E+01  0.14276219525E+04  0.14276814730E+04  0.10000000000E+02 0.  1.
</event>
<event>
 5    1  0.2034331E-008  0.3864094E+03  0.7957747E-01  0.3423717E+00
         13   -1    0    0    0    0  0.00000000000E+00  0.00000000000E+00  0.14999999963E+04  0.15000000000E+04  0.10566000000E+00 0. -1.
        994   -1    0    0    0    0 -0.00000000000E+00 -0.00000000000E+00  0.11368683772E-12  0.17120000000E+03  0.17120000000E+03 0.  0.
         13    1    1    2    0    0  0.84484445868E+01 -0.67639618691E+01  0.64656075524E+02  0.65555676050E+02  0.10566000000E+00 0. -1.
        994    1    1    2    0    0 -0.49026526997E+01  0.37003785614E+01  0.10555169467E+01  0.17131340555E+03  0.17120000000E+03 0.  0.
        998    1    1    2    0    0 -0.35457918871E+01  0.30635833076E+01  0.14342884038E+04  0.14343309184E+04  0.10000000000E+02 0. -1.
</event>
<event>
 5    1  0.1300052E-008  0.3848417E+03  0.7957747E-01  0.3430344E+00
         13   -1    0    0    0    0  0.00000000000E+00  0.00000000000E+00  0.14999999963E+04  0.15000000000E+04  0.10566000000E+00 0.  1.
        994   -1    0    0    0    0 -0.00000000000E+00 -0.00000000000E+00  0.11368683772E-12  0.17120000000E+03  0.17120000000E+03 0.  0.
         13    1    1    2    0    0  0.96240322905E+01 -0.14851215803E+02  0.10126493915E+03  0.10279970658E+03  0.10566000000E+00 0.  1.
        994    1    1    2    0    0  0.68621092153E+01  0.29006315635E+01  0.18914147695E+01  0.17137245886E+03  0.17120000000E+03 0.  0.
        998    1    1    2    0    0 -0.16486141506E+02  0.11950584240E+02  0.13968436424E+04  0.13970278346E+04  0.10000000000E+02 0.  1.
</event>
<event>
 5    1  0.1300052E-008  0.4066881E+03  0.7957747E-01  0.3342595E+00
         13   -1    0    0    0    0  0.00000000000E+00  0.00000000000E+00  0.14999999963E+04  0.15000000000E+04  0.10566000000E+00 0. -1.
        994   -1    0    0    0    0 -0.00000000000E+00 -0.00000000000E+00  0.11368683772E-12  0.17120000000E+03  0.17120000000E+03 0.  0.
         13    1    1    2    0    0  0.13978162923E+02 -0.11332068302E+03  0.17149492560E+03  0.20602787896E+03  0.10566000000E+00 0. -1.
        994    1    1    2    0    0 -0.12312829985E+02  0.11412667605E+03  0.87170640085E+02  0.22379603317E+03  0.17120000000E+03 0.  0.
        998    1    1    2    0    0 -0.16653329377E+01 -0.80599303224E+00  0.12413344306E+04  0.12413760879E+04  0.10000000000E+02 0.  0.
</event>
<event>
 5    1  0.1300052E-008  0.3747428E+03  0.7957747E-01  0.3474374E+00
         13   -1    0    0    0    0  0.00000000000E+00  0.00000000000E+00  0.14999999963E+04  0.15000000000E+04  0.10566000000E+00 0. -1.
        994   -1    0    0    0    0 -0.00000000000E+00 -0.00000000000E+00  0.11368683772E-12  0.17120000000E+03  0.17120000000E+03 0.  0.
         13    1    1    2    0    0 -0.10306202846E+02 -0.33998844578E+02  0.95445883630E+02  0.10184334596E+03  0.10566000000E+00 0. -1.
        994    1    1    2    0    0 -0.57726734933E+01  0.10408600759E+02  0.72929869267E+01  0.17176812972E+03  0.17120000000E+03 0.  0.
        998    1    1    2    0    0  0.16078876339E+02  0.23590243819E+02  0.13972611257E+04  0.13975885243E+04  0.10000000000E+02 0. -1.
</event>
<event>
 5    1  0.1300052E-008  0.3823757E+03  0.7957747E-01  0.3440879E+00
         13   -1    0    0    0    0  0.00000000000E+00  0.00000000000E+00  0.14999999963E+04  0.15000000000E+04  0.10566000000E+00 0. -1.
        994   -1    0    0    0    0 -0.00000000000E+00 -0.00000000000E+00  0.11368683772E-12  0.17120000000E+03  0.17120000000E+03 0.  0.
         13    1    1    2    0    0  0.16878895456E+02  0.27898011219E+02  0.15215662316E+03  0.15561119907E+03  0.10566000000E+00 0. -1.
        994    1    1    2    0    0 -0.13949741788E+02 -0.41322675665E+02  0.92737241752E+01  0.17691127940E+03  0.17120000000E+03 0.  0.
        998    1    1    2    0    0 -0.29291536675E+01  0.13424664447E+02  0.13385696489E+04  0.13386775215E+04  0.10000000000E+02 0. -1.
</event>
<event>
 5    1  0.1300052E-008  0.3847819E+03  0.7957747E-01  0.3430598E+00
         13   -1    0    0    0    0  0.00000000000E+00  0.00000000000E+00  0.14999999963E+04  0.15000000000E+04  0.10566000000E+00 0.  1.
        994   -1    0    0    0    0 -0.00000000000E+00 -0.00000000000E+00  0.11368683772E-12  0.17120000000E+03  0.17120000000E+03 0.  0.
         13    1    1    2    0    0 -0.10944923911E+02 -0.13576637651E+02  0.83505593000E+02  0.85307160753E+02  0.10566000000E+00 0.  1.
        994    1    1    2    0    0  0.15714980100E+02  0.10303781327E+02  0.29014543955E+01  0.17225268342E+03  0.17120000000E+03 0.  0.
        998    1    1    2    0    0 -0.47700561896E+01  0.32728563236E+01  0.14135929489E+04  0.14136401558E+04  0.10000000000E+02 0.  1.
</event>
<event>
 5    1  0.1300052E-008  0.3833927E+03  0.7957747E-01  0.3436518E+00
         13   -1    0    0    0    0  0.00000000000E+00  0.00000000000E+00  0.14999999963E+04  0.15000000000E+04  0.10566000000E+00 0.  1.
        994   -1    0    0    0    0 -0.00000000000E+00 -0.00000000000E+00  0.11368683772E-12  0.17120000000E+03  0.17120000000E+03 0.  0.
         13    1    1    2    0    0 -0.41169727237E+01  0.22373470312E+02  0.11471360849E+03  0.11694761551E+03  0.10566000000E+00 0.  1.
        994    1    1    2    0    0 -0.37207857192E+01 -0.34595268526E+01  0.25155607900E+01  0.17129384291E+03  0.17120000000E+03 0.  0.
        998    1    1    2    0    0  0.78377584428E+01 -0.18913943460E+02  0.13827708270E+04  0.13829585416E+04  0.10000000000E+02 0.  1.
</event>
<event>
 5    1  0.1300052E-008  0.3734765E+03  0.7957747E-01  0.3480065E+00
         13   -1    0    0    0    0  0.00000000000E+00  0.00000000000E+00  0.14999999963E+04  0.15000000000E+04  0.10566000000E+00 0.  1.
        994   -1    0    0    0    0 -0.00000000000E+00 -0.00000000000E+00  0.11368683772E-12  0.17120000000E+03  0.17120000000E+03 0.  0.
         13    1    1    2    0    0 -0.32640797874E+02  0.12702096110E+03  0.64973760160E+03  0.66284139004E+03  0.10566000000E+00 0.  1.
        994    1    1    2    0    0  0.41459546001E+02 -0.12083512401E+03  0.65455586380E+02  0.22341417801E+03  0.17120000000E+03 0.  0.
        998    1    1    2    0    0 -0.88187481265E+01 -0.61858370915E+01  0.78480680829E+03  0.78494443195E+03  0.10000000000E+02 0.  0.
</event>
<event>
 5    1  0.1300052E-008  0.3797707E+03  0.7957747E-01  0.3452158E+00
         13   -1    0    0    0    0  0.00000000000E+00  0.00000000000E+00  0.14999999963E+04  0.15000000000E+04  0.10566000000E+00 0. -1.
        994   -1    0    0    0    0 -0.00000000000E+00 -0.00000000000E+00  0.11368683772E-12  0.17120000000E+03  0.17120000000E+03 0.  0.
         13    1    1    2    0    0  0.14383203799E+02  0.22136267208E+02  0.82663809761E+02  0.86776768121E+02  0.10566000000E+00 0. -1.
        994    1    1    2    0    0  0.16927965104E+02 -0.24317845976E+02  0.71915186053E+01  0.17389385146E+03  0.17120000000E+03 0.  0.
        998    1    1    2    0    0 -0.31311168902E+02  0.21815787685E+01  0.14101446679E+04  0.14105293804E+04  0.10000000000E+02 0. -1.
</event>
<event>
 5    1  0.1300052E-008  0.3838158E+03  0.7957747E-01  0.3434710E+00
         13   -1    0    0    0    0  0.00000000000E+00  0.00000000000E+00  0.14999999963E+04  0.15000000000E+04  0.10566000000E+00 0. -1.
        994   -1    0    0    0    0 -0.00000000000E+00 -0.00000000000E+00  0.11368683772E-12  0.17120000000E+03  0.17120000000E+03 0.  0.
         13    1    1    2    0    0 -0.22448508091E+02  0.41013470184E+01  0.11298003240E+03  0.11526168248E+03  0.10566000000E+00 0. -1.
        994    1    1    2    0    0  0.18030132192E+02 -0.56716217587E+01  0.33994917346E+01  0.17227376325E+03  0.17120000000E+03 0.  0.
        998    1    1    2    0    0  0.44183758992E+01  0.15702747403E+01  0.13836204721E+04  0.13836645543E+04  0.10000000000E+02 0. -1.
</event>
<event>
 5    1  0.1300052E-008  0.3770248E+03  0.7957747E-01  0.3464216E+00
         13   -1    0    0    0    0  0.00000000000E+00  0.00000000000E+00  0.14999999963E+04  0.15000000000E+04  0.10566000000E+00 0. -1.
        994   -1    0    0    0    0 -0.00000000000E+00 -0.00000000000E+00  0.11368683772E-12  0.17120000000E+03  0.17120000000E+03 0.  0.
         13    1    1    2    0    0  0.18000905492E+02  0.19606529999E+02  0.62114367815E+02  0.67577026201E+02  0.10566000000E+00 0. -1.
        994    1    1    2    0    0 -0.58003695839E+01 -0.89641038899E+01  0.60275882254E+01  0.17163849005E+03  0.17120000000E+03 0.  0.
        998    1    1    2    0    0 -0.12200535908E+02 -0.10642426109E+02  0.14318580402E+04  0.14319844838E+04  0.10000000000E+02 0. -1.
</event>
<event>
 5    1  0.1300052E-008  0.3722009E+03  0.7957747E-01  0.3485837E+00
         13   -1    0    0    0    0  0.00000000000E+00  0.00000000000E+00  0.14999999963E+04  0.15000000000E+04  0.10566000000E+00 0. -1.
        994   -1    0    0    0    0 -0.00000000000E+00 -0.00000000000E+00  0.11368683772E-12  0.17120000000E+03  0.17120000000E+03 0.  0.
         13    1    1    2    0    0 -0.81567802536E+02 -0.75201114380E+02  0.36314811485E+03  0.37971710325E+03  0.10566000000E+00 0. -1.
        994    1    1    2    0    0  0.77595584544E+02  0.85781508346E+02  0.60866915595E+02  0.21539211529E+03  0.17120000000E+03 0.  0.
        998    1    1    2    0    0  0.39722179921E+01 -0.10580393967E+02  0.10759849658E+04  0.10760907815E+04  0.10000000000E+02 0. -1.
</event>
<event>
 5    1  0.1300052E-008  0.3826413E+03  0.7957747E-01  0.3439738E+00
         13   -1    0    0    0    0  0.00000000000E+00  0.00000000000E+00  0.14999999963E+04  0.15000000000E+04  0.10566000000E+00 0. -1.
        994   -1    0    0    0    0 -0.00000000000E+00 -0.00000000000E+00  0.11368683772E-12  0.17120000000E+03  0.17120000000E+03 0.  0.
         13    1    1    2    0    0 -0.12917575399E+02  0.30202312653E+01  0.30536720182E+02  0.33293963336E+02  0.10566000000E+00 0. -1.
        994    1    1    2    0    0  0.69422423597E+01 -0.36494020741E+01  0.30096254518E+01  0.17140598213E+03  0.17120000000E+03 0.  0.
        998    1    1    2    0    0  0.59753330393E+01  0.62917080884E+00  0.14664536506E+04  0.14665000545E+04  0.10000000000E+02 0. -1.
</event>
<event>
 5    1  0.1300052E-008  0.3705368E+03  0.7957747E-01  0.3493427E+00
         13   -1    0    0    0    0  0.00000000000E+00  0.00000000000E+00  0.14999999963E+04  0.15000000000E+04  0.10566000000E+00 0.  1.
        994   -1    0    0    0    0 -0.00000000000E+00 -0.00000000000E+00  0.11368683772E-12  0.17120000000E+03  0.17120000000E+03 0.  0.
         13    1    1    2    0    0  0.30431111789E+02 -0.21391799036E+02  0.75072512837E+02  0.83782784499E+02  0.10566000000E+00 0.  1.
        994    1    1    2    0    0 -0.28573261158E+02 -0.88118571000E+01  0.12080648413E+02  0.17421097022E+03  0.17120000000E+03 0.  0.
        998    1    1    2    0    0 -0.18578506309E+01  0.30203656136E+02  0.14128468350E+04  0.14132062453E+04  0.10000000000E+02 0.  1.
</event>
<event>
 5    1  0.1300052E-008  0.3854387E+03  0.7957747E-01  0.3427814E+00
         13   -1    0    0    0    0  0.00000000000E+00  0.00000000000E+00  0.14999999963E+04  0.15000000000E+04  0.10566000000E+00 0.  1.
        994   -1    0    0    0    0 -0.00000000000E+00 -0.00000000000E+00  0.11368683772E-12  0.17120000000E+03  0.17120000000E+03 0.  0.
         13    1    1    2    0    0  0.12309918625E+02 -0.37593915994E+01  0.57390164825E+02  0.58815893297E+02  0.10566000000E+00 0.  1.
        994    1    1    2    0    0 -0.13215883753E+02  0.72717742642E-01  0.19862831285E+01  0.17172084961E+03  0.17120000000E+03 0.  0.
        998    1    1    2    0    0  0.90596512795E+00  0.36866738568E+01  0.14406235483E+04  0.14406632571E+04  0.10000000000E+02 0.  1.
</event>
<event>
 5    1  0.1300052E-008  0.3747120E+03  0.7957747E-01  0.3474512E+00
         13   -1    0    0    0    0  0.00000000000E+00  0.00000000000E+00  0.14999999963E+04  0.15000000000E+04  0.10566000000E+00 0. -1.
        994   -1    0    0    0    0 -0.00000000000E+00 -0.00000000000E+00  0.11368683772E-12  0.17120000000E+03  0.17120000000E+03 0.  0.
         13    1    1    2    0    0 -0.32219351301E+02  0.12742321316E+02  0.11403267068E+03  0.11918017661E+03  0.10566000000E+00 0. -1.
        994    1    1    2    0    0 -0.57809434550E+02 -0.39425521321E+02  0.23673313256E+02  0.18645688031E+03  0.17120000000E+03 0.  0.
        998    1    1    2    0    0  0.90028785851E+02  0.26683200005E+02  0.13622940123E+04  0.13655629431E+04  0.10000000000E+02 0. -1.
</event>
<event>
 5    1  0.1300052E-008  0.3855439E+03  0.7957747E-01  0.3427369E+00
         13   -1    0    0    0    0  0.00000000000E+00  0.00000000000E+00  0.14999999963E+04  0.15000000000E+04  0.10566000000E+00 0.  1.
        994   -1    0    0    0    0 -0.00000000000E+00 -0.00000000000E+00  0.11368683772E-12  0.17120000000E+03  0.17120000000E+03 0.  0.
         13    1    1    2    0    0 -0.14014832164E+02  0.53351604598E+01  0.85636789665E+02  0.86939923889E+02  0.10566000000E+00 0.  1.
        994    1    1    2    0    0  0.67349320017E+01  0.75415000479E+00  0.15111429685E+01  0.17134074706E+03  0.17120000000E+03 0.  0.
        998    1    1    2    0    0  0.72799001620E+01 -0.60893104646E+01  0.14128520636E+04  0.14129193290E+04  0.10000000000E+02 0.  1.
</event>
<event>
 5    1  0.1300052E-008  0.3786442E+03  0.7957747E-01  0.3457083E+00
         13   -1    0    0    0    0  0.00000000000E+00  0.00000000000E+00  0.14999999963E+04  0.15000000000E+04  0.10566000000E+00 0.  1.
        994   -1    0    0    0    0 -0.00000000000E+00 -0.00000000000E+00  0.11368683772E-12  0.17120000000E+03  0.17120000000E+03 0.  0.
         13    1    1    2    0    0 -0.29732882331E+02 -0.43856227761E+01  0.10012776785E+03  0.10454118345E+03  0.10566000000E+00 0.  1.
        994    1    1    2    0    0  0.48854519078E+01 -0.23462042877E+02  0.67500945998E+01  0.17300097940E+03  0.17120000000E+03 0.  0.
        998    1    1    2    0    0  0.24847430423E+02  0.27847665653E+02  0.13931221338E+04  0.13936578371E+04  0.10000000000E+02 0.  1.
</event>
<event>
 5    1  0.1300052E-008  0.3847637E+03  0.7957747E-01  0.3430675E+00
         13   -1    0    0    0    0  0.00000000000E+00  0.00000000000E+00  0.14999999963E+04  0.15000000000E+04  0.10566000000E+00 0. -1.
        994   -1    0    0    0    0 -0.00000000000E+00 -0.00000000000E+00  0.11368683772E-12  0.17120000000E+03  0.17120000000E+03 0.  0.
         13    1    1    2    0    0  0.17077368959E+02 -0.75691682135E+00  0.84996742038E+02  0.86698712647E+02  0.10566000000E+00 0. -1.
        994    1    1    2    0    0 -0.85403254754E+01  0.27971333769E+00  0.19878600528E+01  0.17142463938E+03  0.17120000000E+03 0.  0.
        998    1    1    2    0    0 -0.85370434837E+01  0.47720348366E+00  0.14130153942E+04  0.14130766480E+04  0.10000000000E+02 0. -1.
</event>
<event>
 5    1  0.1300052E-008  0.3800588E+03  0.7957747E-01  0.3450902E+00
         13   -1    0    0    0    0  0.00000000000E+00  0.00000000000E+00  0.14999999963E+04  0.15000000000E+04  0.10566000000E+00 0.  1.
        994   -1    0    0    0    0 -0.00000000000E+00 -0.00000000000E+00  0.11368683772E-12  0.17120000000E+03  0.17120000000E+03 0.  0.
         13    1    1    2    0    0 -0.19341371645E+02  0.16037039846E+02  0.80032268608E+02  0.83883553136E+02  0.10566000000E+00 0.  1.
        994    1    1    2    0    0 -0.54709478156E+01 -0.11637702367E+02  0.46563378301E+01  0.17174541877E+03  0.17120000000E+03 0.  0.
        998    1    1    2    0    0  0.24812319461E+02 -0.43993374789E+01  0.14153113898E+04  0.14155710281E+04  0.10000000000E+02 0.  1.
</event>
<event>
 5    1  0.1300052E-008  0.3834244E+03  0.7957747E-01  0.3436382E+00
         13   -1    0    0    0    0  0.00000000000E+00  0.00000000000E+00  0.14999999963E+04  0.15000000000E+04  0.10566000000E+00 0. -1.
        994   -1    0    0    0    0 -0.00000000000E+00 -0.00000000000E+00  0.11368683772E-12  0.17120000000E+03  0.17120000000E+03 0.  0.
         13    1    1    2    0    0  0.99114733375E+01 -0.68617739841E+01  0.28731658000E+02  0.31158314804E+02  0.10566000000E+00 0. -1.
        994    1    1    2    0    0 -0.92500694413E+01  0.10849331039E+02  0.30866410888E+01  0.17182036876E+03  0.17120000000E+03 0.  0.
        998    1    1    2    0    0 -0.66140389616E+00 -0.39875570553E+01  0.14681816972E+04  0.14682213164E+04  0.10000000000E+02 0. -1.
</event>
<event>
 5    1  0.1300052E-008  0.4074172E+03  0.7957747E-01  0.3339828E+00
         13   -1    0    0    0    0  0.00000000000E+00  0.00000000000E+00  0.14999999963E+04  0.15000000000E+04  0.10566000000E+00 0.  1.
        994   -1    0    0    0    0 -0.00000000000E+00 -0.00000000000E+00  0.11368683772E-12  0.17120000000E+03  0.17120000000E+03 0.  0.
         13    1    1    2    0    0 -0.28687245913E+02  0.30833623968E+02  0.14617024319E+02  0.44579580629E+02  0.10566000000E+00 0.  1.
        994    1    1    2    0    0  0.31310424626E+02 -0.27820469866E+02  0.39402543278E+02  0.18059989383E+03  0.17120000000E+03 0.  0.
        998    1    1    2    0    0 -0.26231787132E+01 -0.30131541027E+01  0.14459804287E+04  0.14460205255E+04  0.10000000000E+02 0.  1.
</event>
<event>
 5    1  0.1300052E-008  0.3738351E+03  0.7957747E-01  0.3478449E+00
         13   -1    0    0    0    0  0.00000000000E+00  0.00000000000E+00  0.14999999963E+04  0.15000000000E+04  0.10566000000E+00 0.  1.
        994   -1    0    0    0    0 -0.00000000000E+00 -0.00000000000E+00  0.11368683772E-12  0.17120000000E+03  0.17120000000E+03 0.  0.
         13    1    1    2    0    0 -0.11597130107E+02  0.34053967106E+02  0.93018542677E+02  0.99732775697E+02  0.10566000000E+00 0.  1.
        994    1    1    2    0    0  0.36981837016E+01 -0.23914604958E+01  0.73443600875E+01  0.17141404631E+03  0.17120000000E+03 0.  0.
        998    1    1    2    0    0  0.78989464056E+01 -0.31662506610E+02  0.13996370935E+04  0.14000531780E+04  0.10000000000E+02 0.  1.
</event>
<event>
 5    1  0.1300052E-008  0.3836790E+03  0.7957747E-01  0.3435294E+00
         13   -1    0    0    0    0  0.00000000000E+00  0.00000000000E+00  0.14999999963E+04  0.15000000000E+04  0.10566000000E+00 0.  1.
        994   -1    0    0    0    0 -0.00000000000E+00 -0.00000000000E+00  0.11368683772E-12  0.17120000000E+03  0.17120000000E+03 0.  0.
         13    1    1    2    0    0  0.11755284350E+02 -0.20946361720E+02  0.12448458140E+03  0.12678075149E+03  0.10566000000E+00 0.  1.
        994    1    1    2    0    0 -0.36844312397E+01  0.16129059115E+02  0.31919661078E+01  0.17202717875E+03  0.17120000000E+03 0.  0.
        998    1    1    2    0    0 -0.80708531101E+01  0.48173026043E+01  0.13723234488E+04  0.13723920698E+04  0.10000000000E+02 0.  1.
</event>
<event>
 5    1  0.1300052E-008  0.3822042E+03  0.7957747E-01  0.3441617E+00
         13   -1    0    0    0    0  0.00000000000E+00  0.00000000000E+00  0.14999999963E+04  0.15000000000E+04  0.10566000000E+00 0.  1.
        994   -1    0    0    0    0 -0.00000000000E+00 -0.00000000000E+00  0.11368683772E-12  0.17120000000E+03  0.17120000000E+03 0.  0.
         13    1    1    2    0    0  0.10878122911E+02 -0.46641930692E+01  0.22554256455E+02  0.25471433084E+02  0.10566000000E+00 0.  1.
        994    1    1    2    0    0 -0.20388187076E+01 -0.45306746179E+01  0.31064993856E+01  0.17130024557E+03  0.17120000000E+03 0.  0.
        998    1    1    2    0    0 -0.88393042035E+01  0.91948676871E+01  0.14743392404E+04  0.14744283213E+04  0.10000000000E+02 0.  1.
</event>
<event>
 5    1  0.1300052E-008  0.3752179E+03  0.7957747E-01  0.3472249E+00
         13   -1    0    0    0    0  0.00000000000E+00  0.00000000000E+00  0.14999999963E+04  0.15000000000E+04  0.10566000000E+00 0.  1.
        994   -1    0    0    0    0 -0.00000000000E+00 -0.00000000000E+00  0.11368683772E-12  0.17120000000E+03  0.17120000000E+03 0.  0.
         13    1    1    2    0    0 -0.24297034618E+02 -0.26647280720E+00  0.43523541951E+02  0.49847033683E+02  0.10566000000E+00 0.  1.
        994    1    1    2    0    0  0.72462773070E+01 -0.58178749157E+01  0.68602346579E+01  0.17158921593E+03  0.17120000000E+03 0.  0.
        998    1    1    2    0    0  0.17050757311E+02  0.60843477229E+01  0.14496162197E+04  0.14497637504E+04  0.10000000000E+02 0.  1.
</event>
<event>
 5    1  0.1300052E-008  0.3845037E+03  0.7957747E-01  0.3431780E+00
         13   -1    0    0    0    0  0.00000000000E+00  0.00000000000E+00  0.14999999963E+04  0.15000000000E+04  0.10566000000E+00 0. -1.
        994   -1    0    0    0    0 -0.00000000000E+00 -0.00000000000E+00  0.11368683772E-12  0.17120000000E+03  0.17120000000E+03 0.  0.
         13    1    1    2    0    0  0.11589868665E+01 -0.16631474130E+02  0.78745548829E+02  0.80491128745E+02  0.10566000000E+00 0. -1.
        994    1    1    2    0    0 -0.52719639963E+01  0.71328080447E+00  0.19699925156E+01  0.17129396733E+03  0.17120000000E+03 0.  0.
        998    1    1    2    0    0  0.41129771298E+01  0.15918193326E+02  0.14192844549E+04  0.14194149039E+04  0.10000000000E+02 0. -1.
</event>
<event>
 5    1  0.1300052E-008  0.3784264E+03  0.7957747E-01  0.3458039E+00
         13   -1    0    0    0    0  0.00000000000E+00  0.00000000000E+00  0.14999999963E+04  0.15000000000E+04  0.10566000000E+00 0. -1.
        994   -1    0    0    0    0 -0.00000000000E+00 -0.00000000000E+00  0.11368683772E-12  0.17120000000E+03  0.17120000000E+03 0.  0.
         13    1    1    2    0    0  0.97806378826E+02  0.91611511881E+02  0.72917871015E+03  0.74139082766E+03  0.10566000000E+00 0. -1.
        994    1    1    2    0    0 -0.11406299965E+03 -0.89714534399E+02  0.79308032548E+02  0.23802997626E+03  0.17120000000E+03 0.  0.
        998    1    1    2    0    0  0.16256620821E+02 -0.18969774820E+01  0.69151325358E+03  0.69177919608E+03  0.10000000000E+02 0. -1.
</event>
<event>
 5    1  0.1300052E-008  0.3849925E+03  0.7957747E-01  0.3429704E+00
         13   -1    0    0    0    0  0.00000000000E+00  0.00000000000E+00  0.14999999963E+04  0.15000000000E+04  0.10566000000E+00 0.  1.
        994   -1    0    0    0    0 -0.00000000000E+00 -0.00000000000E+00  0.11368683772E-12  0.17120000000E+03  0.17120000000E+03 0.  0.
         13    1    1    2    0    0 -0.19783107693E+02 -0.11537294134E+02  0.12657715976E+03  0.12863230171E+03  0.10566000000E+00 0.  1.
        994    1    1    2    0    0  0.31813185863E+02  0.29515386538E+02  0.78520147993E+01  0.17678894472E+03  0.17120000000E+03 0.  0.
        998    1    1    2    0    0 -0.12030078170E+02 -0.17978092404E+02  0.13655708217E+04  0.13657787536E+04  0.10000000000E+02 0.  1.
</event>
<event>
 5    1  0.1300052E-008  0.3845465E+03  0.7957747E-01  0.3431598E+00
         13   -1    0    0    0    0  0.00000000000E+00  0.00000000000E+00  0.14999999963E+04  0.15000000000E+04  0.10566000000E+00 0. -1.
        994   -1    0    0    0    0 -0.00000000000E+00 -0.00000000000E+00  0.11368683772E-12  0.17120000000E+03  0.17120000000E+03 0.  0.
         13    1    1    2    0    0  0.87163842690E+01 -0.13547388344E+02  0.76056730724E+02  0.77744096484E+02  0.10566000000E+00 0. -1.
        994    1    1    2    0    0 -0.75959868717E+01 -0.80218695119E+01  0.22575143514E+01  0.17157093512E+03  0.17120000000E+03 0.  0.
        998    1    1    2    0    0 -0.11203973973E+01  0.21569257856E+02  0.14216857512E+04  0.14218849684E+04  0.10000000000E+02 0. -1.
</event>
<event>
 5    1  0.1300052E-008  0.3740854E+03  0.7957747E-01  0.3477323E+00
         13   -1    0    0    0    0  0.00000000000E+00  0.00000000000E+00  0.14999999963E+04  0.15000000000E+04  0.10566000000E+00 0.  1.
        994   -1    0    0    0    0 -0.00000000000E+00 -0.00000000000E+00  0.11368683772E-12  0.17120000000E+03  0.17120000000E+03 0.  0.
         13    1    1    2    0    0  0.46703917732E+02 -0.46317619938E+01  0.14927221600E+03  0.15647656305E+03  0.10566000000E+00 0.  1.
        994    1    1    2    0    0 -0.32936630616E+02 -0.15594672994E+02  0.11690760948E+02  0.17542556642E+03  0.17120000000E+03 0.  0.
        998    1    1    2    0    0 -0.13767287116E+02  0.20226434987E+02  0.13390370193E+04  0.13392978705E+04  0.10000000000E+02 0.  1.
</event>
<event>
 5    1  0.1300052E-008  0.3728168E+03  0.7957747E-01  0.3483045E+00
         13   -1    0    0    0    0  0.00000000000E+00  0.00000000000E+00  0.14999999963E+04  0.15000000000E+04  0.10566000000E+00 0. -1.
        994   -1    0    0    0    0 -0.00000000000E+00 -0.00000000000E+00  0.11368683772E-12  0.17120000000E+03  0.17120000000E+03 0.  0.
         13    1    1    2    0    0 -0.48139927971E+02  0.23587165873E+02  0.16886682449E+03  0.17717173205E+03  0.10566000000E+00 0. -1.
        994    1    1    2    0    0  0.45626161050E+02 -0.11145840075E+02  0.15396333351E+02  0.17819220916E+03  0.17120000000E+03 0.  0.
        998    1    1    2    0    0  0.25137669212E+01 -0.12441325798E+02  0.13157368384E+04  0.13158360588E+04  0.10000000000E+02 0. -1.
</event>
<event>
 5    1  0.1300052E-008  0.3793986E+03  0.7957747E-01  0.3453781E+00
         13   -1    0    0    0    0  0.00000000000E+00  0.00000000000E+00  0.14999999963E+04  0.15000000000E+04  0.10566000000E+00 0. -1.
        994   -1    0    0    0    0 -0.00000000000E+00 -0.00000000000E+00  0.11368683772E-12  0.17120000000E+03  0.17120000000E+03 0.  0.
         13    1    1    2    0    0  0.39125934215E+02 -0.19145315042E+03  0.11549781346E+04  0.11713921846E+04  0.10566000000E+00 0. -1.
        994    1    1    2    0    0 -0.51101449867E+02  0.17902972482E+03  0.13096379393E+03  0.28482267443E+03  0.17120000000E+03 0.  0.
        998    1    1    2    0    0  0.11975515653E+02  0.12423425600E+02  0.21405806773E+03  0.21498514097E+03  0.10000000000E+02 0. -1.
</event>
<event>
 5    1  0.1300052E-008  0.3848342E+03  0.7957747E-01  0.3430376E+00
         13   -1    0    0    0    0  0.00000000000E+00  0.00000000000E+00  0.14999999963E+04  0.15000000000E+04  0.10566000000E+00 0.  1.
        994   -1    0    0    0    0 -0.00000000000E+00 -0.00000000000E+00  0.11368683772E-12  0.17120000000E+03  0.17120000000E+03 0.  0.
         13    1    1    2    0    0  0.10681308763E+02 -0.10752765491E+02  0.62464346456E+02  0.64276885929E+02  0.10566000000E+00 0.  1.
        994    1    1    2    0    0 -0.14406972959E+02  0.16208677121E+02  0.32614503788E+01  0.17259883876E+03  0.17120000000E+03 0.  0.
        998    1    1    2    0    0  0.37256641966E+01 -0.54559116300E+01  0.14342741994E+04  0.14343242753E+04  0.10000000000E+02 0.  1.
</event>
<event>
 5    1  0.1300052E-008  0.3789370E+03  0.7957747E-01  0.3455800E+00
         13   -1    0    0    0    0  0.00000000000E+00  0.00000000000E+00  0.14999999963E+04  0.15000000000E+04  0.10566000000E+00 0.  1.
        994   -1    0    0    0    0 -0.00000000000E+00 -0.00000000000E+00  0.11368683772E-12  0.17120000000E+03  0.17120000000E+03 0.  0.
         13    1    1    2    0    0  0.16088398320E+02 -0.96769009947E+01  0.35118562580E+02  0.39822149303E+02  0.10566000000E+00 0.  1.
        994    1    1    2    0    0 -0.16654729208E+02  0.10179864961E+02  0.59499157532E+01  0.17241186488E+03  0.17120000000E+03 0.  0.
        998    1    1    2    0    0  0.56633088781E+00 -0.50296396599E+00  0.14589315179E+04  0.14589659858E+04  0.10000000000E+02 0.  1.
</event>
<event>
 5    1  0.1300052E-008  0.3830538E+03  0.7957747E-01  0.3437968E+00
         13   -1    0    0    0    0  0.00000000000E+00  0.00000000000E+00  0.14999999963E+04  0.15000000000E+04  0.10566000000E+00 0. -1.
        994   -1    0    0    0    0 -0.00000000000E+00 -0.00000000000E+00  0.11368683772E-12  0.17120000000E+03  0.17120000000E+03 0.  0.
         13    1    1    2    0    0 -0.87453739996E+01  0.30641943372E+02  0.14706270071E+03  0.15047544439E+03  0.10566000000E+00 0. -1.
        994    1    1    2    0    0  0.41745131747E+02 -0.48315672399E+02  0.16211706391E+02  0.18343750884E+03  0.17120000000E+03 0.  0.
        998    1    1    2    0    0 -0.32999757747E+02  0.17673729027E+02  0.13367255892E+04  0.13372870468E+04  0.10000000000E+02 0. -1.
</event>
<event>
 5    1  0.1300052E-008  0.3849196E+03  0.7957747E-01  0.3430013E+00
         13   -1    0    0    0    0  0.00000000000E+00  0.00000000000E+00  0.14999999963E+04  0.15000000000E+04  0.10566000000E+00 0. -1.
        994   -1    0    0    0    0 -0.00000000000E+00 -0.00000000000E+00  0.11368683772E-12  0.17120000000E+03  0.17120000000E+03 0.  0.
         13    1    1    2    0    0 -0.16262464184E+01  0.12302749254E+02  0.46398693814E+02  0.48029701938E+02  0.10566000000E+00 0. -1.
        994    1    1    2    0    0  0.82944841117E+01 -0.56677981902E+01  0.20021103196E+01  0.17150618312E+03  0.17120000000E+03 0.  0.
        998    1    1    2    0    0 -0.66682376933E+01 -0.66349510640E+01  0.14515991921E+04  0.14516641149E+04  0.10000000000E+02 0. -1.
</event>
<event>
 5    1  0.1396831E-008  0.3862053E+03  0.7957747E-01  0.3424576E+00
         13   -1    0    0    0    0  0.00000000000E+00  0.00000000000E+00  0.14999999963E+04  0.15000000000E+04  0.10566000000E+00 0. -1.
        994   -1    0    0    0    0 -0.00000000000E+00 -0.00000000000E+00  0.11368683772E-12  0.17120000000E+03  0.17120000000E+03 0.  0.
         13    1    1    2    0    0 -0.18318681619E+01 -0.10640198579E+02  0.62327775257E+02  0.63256085077E+02  0.10566000000E+00 0. -1.
        994    1    1    2    0    0  0.51625973169E+01 -0.43336357606E+01  0.11817258895E+01  0.17133671319E+03  0.17120000000E+03 0.  0.
        998    1    1    2    0    0 -0.33307291550E+01  0.14973834340E+02  0.14364904951E+04  0.14366072017E+04  0.10000000000E+02 0. -1.
</event>
<event>
 5    1  0.1300052E-008  0.3853368E+03  0.7957747E-01  0.3428245E+00
         13   -1    0    0    0    0  0.00000000000E+00  0.00000000000E+00  0.14999999963E+04  0.15000000000E+04  0.10566000000E+00 0.  1.
        994   -1    0    0    0    0 -0.00000000000E+00 -0.00000000000E+00  0.11368683772E-12  0.17120000000E+03  0.17120000000E+03 0.  0.
         13    1    1    2    0    0  0.56625703461E+01  0.17769846929E+02  0.11261761033E+03  0.11415151985E+03  0.10566000000E+00 0.  1.
        994    1    1    2    0    0 -0.47925237380E+01 -0.17724548636E+02  0.25712706891E+01  0.17220098531E+03  0.17120000000E+03 0.  0.
        998    1    1    2    0    0 -0.87004660815E+00 -0.45298293697E-01  0.13848111153E+04  0.13848474948E+04  0.10000000000E+02 0.  0.
</event>
<event>
 5    1  0.1300052E-008  0.3820053E+03  0.7957747E-01  0.3442473E+00
         13   -1    0    0    0    0  0.00000000000E+00  0.00000000000E+00  0.14999999963E+04  0.15000000000E+04  0.10566000000E+00 0.  1.
        994   -1    0    0    0    0 -0.00000000000E+00 -0.00000000000E+00  0.11368683772E-12  0.17120000000E+03  0.17120000000E+03 0.  0.
         13    1    1    2    0    0  0.67437583827E+01  0.74987781390E+01  0.14739449057E+02  0.17859800482E+02  0.10566000000E+00 0.  1.
        994    1    1    2    0    0 -0.20957370757E+02  0.79926683619E+00  0.45863765875E+01  0.17254079247E+03  0.17120000000E+03 0.  0.
        998    1    1    2    0    0  0.14213612374E+02 -0.82980449752E+01  0.14806741706E+04  0.14807994070E+04  0.10000000000E+02 0.  1.
</event>
<event>
 5    1  0.1300052E-008  0.3848266E+03  0.7957747E-01  0.3430408E+00
         13   -1    0    0    0    0  0.00000000000E+00  0.00000000000E+00  0.14999999963E+04  0.15000000000E+04  0.10566000000E+00 0. -1.
        994   -1    0    0    0    0 -0.00000000000E+00 -0.00000000000E+00  0.11368683772E-12  0.17120000000E+03  0.17120000000E+03 0.  0.
         13    1    1    2    0    0 -0.45381957944E+00  0.16841793052E+02  0.83945034029E+02  0.85619109126E+02  0.10566000000E+00 0. -1.
        994    1    1    2    0    0 -0.27526434988E+01 -0.87683405401E+01  0.19942050365E+01  0.17145809312E+03  0.17120000000E+03 0.  0.
        998    1    1    2    0    0  0.32064630782E+01 -0.80734525121E+01  0.14140607572E+04  0.14141227978E+04  0.10000000000E+02 0. -1.
</event>
<event>
 5    1  0.1300052E-008  0.3817906E+03  0.7957747E-01  0.3443399E+00
         13   -1    0    0    0    0  0.00000000000E+00  0.00000000000E+00  0.14999999963E+04  0.15000000000E+04  0.10566000000E+00 0.  1.
        994   -1    0    0    0    0 -0.00000000000E+00 -0.00000000000E+00  0.11368683772E-12  0.17120000000E+03  0.17120000000E+03 0.  0.
         13    1    1    2    0    0  0.23542172519E+02  0.90244521496E+01  0.10065735421E+03  0.10376699256E+03  0.10566000000E+00 0.  1.
        994    1    1    2    0    0 -0.86382385441E+01 -0.42716891776E+01  0.35406714536E+01  0.17150755916E+03  0.17120000000E+03 0.  0.
        998    1    1    2    0    0 -0.14903933974E+02 -0.47527629720E+01  0.13958019706E+04  0.13959254483E+04  0.10000000000E+02 0.  1.
</event>
<event>
 5    1  0.1300052E-008  0.3841959E+03  0.7957747E-01  0.3433090E+00
         13   -1    0    0    0    0  0.00000000000E+00  0.00000000000E+00  0.14999999963E+04  0.15000000000E+04  0.10566000000E+00 0. -1.
        994   -1    0    0    0    0 -0.00000000000E+00 -0.00000000000E+00  0.11368683772E-12  0.17120000000E+03  0.17120000000E+03 0.  0.
         13    1    1    2    0    0  0.85514800127E+00  0.25722752480E+02  0.15223683203E+03  0.15439707078E+03  0.10566000000E+00 0. -1.
        994    1    1    2    0    0 -0.21313657321E+01 -0.23143868639E+02  0.38130193914E+01  0.17281250097E+03  0.17120000000E+03 0.  0.
        998    1    1    2    0    0  0.12762177308E+01 -0.25788838414E+01  0.13439501449E+04  0.13439904282E+04  0.10000000000E+02 0.  0.
</event>
<event>
 5    1  0.1300052E-008  0.3802366E+03  0.7957747E-01  0.3450129E+00
         13   -1    0    0    0    0  0.00000000000E+00  0.00000000000E+00  0.14999999963E+04  0.15000000000E+04  0.10566000000E+00 0.  1.
        994   -1    0    0    0    0 -0.00000000000E+00 -0.00000000000E+00  0.11368683772E-12  0.17120000000E+03  0.17120000000E+03 0.  0.
         13    1    1    2    0    0 -0.44957732091E+02 -0.31694603183E+01  0.24009484061E+03  0.24428832720E+03  0.10566000000E+00 0.  1.
        994    1    1    2    0    0  0.31172374688E+02  0.60739333743E+01  0.73901759367E+01  0.17427754965E+03  0.17120000000E+03 0.  0.
        998    1    1    2    0    0  0.13785357403E+02 -0.29044730560E+01  0.12525149797E+04  0.12526341232E+04  0.10000000000E+02 0.  1.
</event>
<event>
 5    1  0.1300052E-008  0.3855142E+03  0.7957747E-01  0.3427494E+00
         13   -1    0    0    0    0  0.00000000000E+00  0.00000000000E+00  0.14999999963E+04  0.15000000000E+04  0.10566000000E+00 0. -1.
        994   -1    0    0    0    0 -0.00000000000E+00 -0.00000000000E+00  0.11368683772E-12  0.17120000000E+03  0.17120000000E+03 0.  0.
         13    1    1    2    0    0 -0.45367846459E+01  0.10351503651E+02  0.45398725857E+02  0.46784522186E+02  0.10566000000E+00 0. -1.
        994    1    1    2    0    0  0.43191574733E+01 -0.11552584173E+02  0.18746529280E+01  0.17165392989E+03  0.17120000000E+03 0.  0.
        998    1    1    2    0    0  0.21762717265E+00  0.12010805219E+01  0.14527266175E+04  0.14527615479E+04  0.10000000000E+02 0. -1.
</event>
<event>
 5    1  0.1300052E-008  0.3787485E+03  0.7957747E-01  0.3456626E+00
         13   -1    0    0    0    0  0.00000000000E+00  0.00000000000E+00  0.14999999963E+04  0.15000000000E+04  0.10566000000E+00 0.  1.
        994   -1    0    0    0    0 -0.00000000000E+00 -0.00000000000E+00  0.11368683772E-12  0.17120000000E+03  0.17120000000E+03 0.  0.
         13    1    1    2    0    0 -0.40012024664E+02 -0.13372675809E+02  0.24408203474E+03  0.24770111308E+03  0.10566000000E+00 0.  1.
        994    1    1    2    0    0 -0.86303113725E+01 -0.45373793617E+01  0.50853996575E+01  0.17155282386E+03  0.17120000000E+03 0.  0.
        998    1    1    2    0    0  0.48642336037E+02  0.17910055170E+02  0.12508325619E+04  0.12519460631E+04  0.10000000000E+02 0.  1.
</event>
<event>
 5    1  0.1300052E-008  0.3839447E+03  0.7957747E-01  0.3434160E+00
         13   -1    0    0    0    0  0.00000000000E+00  0.00000000000E+00  0.14999999963E+04  0.15000000000E+04  0.10566000000E+00 0.  1.
        994   -1    0    0    0    0 -0.00000000000E+00 -0.00000000000E+00  0.11368683772E-12  0.17120000000E+03  0.17120000000E+03 0.  0.
         13    1    1    2    0    0 -0.70474714338E+01 -0.13748425921E+02  0.52139803873E+02  0.54380661828E+02  0.10566000000E+00 0.  1.
        994    1    1    2    0    0  0.92119790719E+01  0.18388256976E+02  0.35520676754E+01  0.17246752082E+03  0.17120000000E+03 0.  0.
        998    1    1    2    0    0 -0.21645076381E+01 -0.46398310549E+01  0.14443081247E+04  0.14443518174E+04  0.10000000000E+02 0.  1.
</event>
<event>
 5    1  0.1300052E-008  0.3851026E+03  0.7957747E-01  0.3429237E+00
         13   -1    0    0    0    0  0.00000000000E+00  0.00000000000E+00  0.14999999963E+04  0.15000000000E+04  0.10566000000E+00 0. -1.
        994   -1    0    0    0    0 -0.00000000000E+00 -0.00000000000E+00  0.11368683772E-12  0.17120000000E+03  0.17120000000E+03 0.  0.
         13    1    1    2    0    0  0.58521862769E+01  0.11967482356E+02  0.55458622433E+02  0.57036292695E+02  0.10566000000E+00 0. -1.
        994    1    1    2    0    0 -0.41501449378E+01 -0.10402623055E+02  0.19916991216E+01  0.17157751932E+03  0.17120000000E+03 0.  0.
        998    1    1    2    0    0 -0.17020413391E+01 -0.15648593009E+01  0.14425496747E+04  0.14425861880E+04  0.10000000000E+02 0. -1.
</event>
<event>
 5    1  0.1300052E-008  0.3853531E+03  0.7957747E-01  0.3428176E+00
         13   -1    0    0    0    0  0.00000000000E+00  0.00000000000E+00  0.14999999963E+04  0.15000000000E+04  0.10566000000E+00 0. -1.
        994   -1    0    0    0    0 -0.00000000000E+00 -0.00000000000E+00  0.11368683772E-12  0.17120000000E+03  0.17120000000E+03 0.  0.
         13    1    1    2    0    0 -0.78077500940E+01  0.84484420871E+01  0.43324261273E+02  0.44825661335E+02  0.10566000000E+00 0. -1.
        994    1    1    2    0    0  0.10470155251E+02 -0.13490786943E+02  0.24134850370E+01  0.17206652897E+03  0.17120000000E+03 0.  0.
        998    1    1    2    0    0 -0.26624051570E+01  0.50423448556E+01  0.14542622500E+04  0.14543078097E+04  0.10000000000E+02 0. -1.
</event>
<event>
 5    1  0.1300052E-008  0.3379414E+03  0.7957747E-01  0.3657583E+00
         13   -1    0    0    0    0  0.00000000000E+00  0.00000000000E+00  0.14999999963E+04  0.15000000000E+04  0.10566000000E+00 0. -1.
        994   -1    0    0    0    0 -0.00000000000E+00 -0.00000000000E+00  0.11368683772E-12  0.17120000000E+03  0.17120000000E+03 0.  0.
         13    1    1    2    0    0  0.25743887911E+02 -0.23092012164E+03  0.86625864500E+03  0.89687842072E+03  0.10566000000E+00 0. -1.
        994    1    1    2    0    0 -0.56466507984E+02  0.21836828779E+03  0.21857723928E+03  0.35771304864E+03  0.17120000000E+03 0.  0.
        998    1    1    2    0    0  0.30722620073E+02  0.12551833856E+02  0.41516411199E+03  0.41660853064E+03  0.10000000000E+02 0. -1.
</event>
<event>
 5    1  0.1300052E-008  0.3852584E+03  0.7957747E-01  0.3428577E+00
         13   -1    0    0    0    0  0.00000000000E+00  0.00000000000E+00  0.14999999963E+04  0.15000000000E+04  0.10566000000E+00 0. -1.
        994   -1    0    0    0    0 -0.00000000000E+00 -0.00000000000E+00  0.11368683772E-12  0.17120000000E+03  0.17120000000E+03 0.  0.
         13    1    1    2    0    0  0.15957282624E+02 -0.54820341800E+01  0.10011064098E+03  0.10152260423E+03  0.10566000000E+00 0. -1.
        994    1    1    2    0    0 -0.41422026859E+01  0.18828685570E+01  0.15699106607E+01  0.17126764918E+03  0.17120000000E+03 0.  0.
        998    1    1    2    0    0 -0.11815079938E+02  0.35991656230E+01  0.13983194446E+04  0.13984097466E+04  0.10000000000E+02 0. -1.
</event>
<event>
 5    1  0.1300052E-008  0.3846568E+03  0.7957747E-01  0.3431129E+00
         13   -1    0    0    0    0  0.00000000000E+00  0.00000000000E+00  0.14999999963E+04  0.15000000000E+04  0.10566000000E+00 0. -1.
        994   -1    0    0    0    0 -0.00000000000E+00 -0.00000000000E+00  0.11368683772E-12  0.17120000000E+03  0.17120000000E+03 0.  0.
         13    1    1    2    0    0 -0.10825635856E+01  0.18652104765E+02  0.10205541905E+03  0.10375159121E+03  0.10566000000E+00 0. -1.
        994    1    1    2    0    0  0.20611888401E+01 -0.48500865317E+01  0.18920898539E+01  0.17129154049E+03  0.17120000000E+03 0.  0.
        998    1    1    2    0    0 -0.97862525455E+00 -0.13802018233E+02  0.13960524874E+04  0.13961568683E+04  0.10000000000E+02 0. -1.
</event>
<event>
 5    1  0.1300052E-008  0.3837459E+03  0.7957747E-01  0.3435008E+00
         13   -1    0    0    0    0  0.00000000000E+00  0.00000000000E+00  0.14999999963E+04  0.15000000000E+04  0.10566000000E+00 0.  1.
        994   -1    0    0    0    0 -0.00000000000E+00 -0.00000000000E+00  0.11368683772E-12  0.17120000000E+03  0.17120000000E+03 0.  0.
         13    1    1    2    0    0  0.91168301179E+01 -0.48982663704E+01  0.22931278356E+02  0.25158781685E+02  0.10566000000E+00 0.  1.
        994    1    1    2    0    0 -0.75050428385E+01  0.36656038922E+01  0.24844316495E+01  0.17142162851E+03  0.17120000000E+03 0.  0.
        998    1    1    2    0    0 -0.16117872794E+01  0.12326624783E+01  0.14745842863E+04  0.14746195898E+04  0.10000000000E+02 0.  1.
</event>
<event>
 5    1  0.1300052E-008  0.2959618E+03  0.7957747E-01  0.3925277E+00
         13   -1    0    0    0    0  0.00000000000E+00  0.00000000000E+00  0.14999999963E+04  0.15000000000E+04  0.10566000000E+00 0. -1.
        994   -1    0    0    0    0 -0.00000000000E+00 -0.00000000000E+00  0.11368683772E-12  0.17120000000E+03  0.17120000000E+03 0.  0.
         13    1    1    2    0    0  0.14549437281E+03 -0.17342571187E+03  0.55436286899E+03  0.59880154621E+03  0.10566000000E+00 0. -1.
        994    1    1    2    0    0 -0.12997381544E+03  0.14987803993E+03  0.20907535475E+03  0.33522912092E+03  0.17120000000E+03 0.  0.
        998    1    1    2    0    0 -0.15520557376E+02  0.23547671939E+02  0.73656177254E+03  0.73716933287E+03  0.10000000000E+02 0. -1.
</event>
<event>
 5    1  0.1300052E-008  0.3746730E+03  0.7957747E-01  0.3474686E+00
         13   -1    0    0    0    0  0.00000000000E+00  0.00000000000E+00  0.14999999963E+04  0.15000000000E+04  0.10566000000E+00 0. -1.
        994   -1    0    0    0    0 -0.00000000000E+00 -0.00000000000E+00  0.11368683772E-12  0.17120000000E+03  0.17120000000E+03 0.  0.
         13    1    1    2    0    0 -0.56659939256E+02  0.68068825741E+01  0.28345405632E+03  0.28914165313E+03  0.10566000000E+00 0. -1.
        994    1    1    2    0    0  0.84982371694E+01  0.47904804455E+01  0.71706518094E+01  0.17162758224E+03  0.17120000000E+03 0.  0.
        998    1    1    2    0    0  0.48161702087E+02 -0.11597363020E+02  0.12093752881E+04  0.12104307646E+04  0.10000000000E+02 0. -1.
</event>
<event>
 5    1  0.1300052E-008  0.3785538E+03  0.7957747E-01  0.3457480E+00
         13   -1    0    0    0    0  0.00000000000E+00  0.00000000000E+00  0.14999999963E+04  0.15000000000E+04  0.10566000000E+00 0. -1.
        994   -1    0    0    0    0 -0.00000000000E+00 -0.00000000000E+00  0.11368683772E-12  0.17120000000E+03  0.17120000000E+03 0.  0.
         13    1    1    2    0    0 -0.59869208770E+02  0.12478993215E+02  0.36851680151E+03  0.37355681173E+03  0.10566000000E+00 0. -1.
        994    1    1    2    0    0  0.39369883292E+02 -0.93551377322E+00  0.10091988533E+02  0.17596065222E+03  0.17120000000E+03 0.  0.
        998    1    1    2    0    0  0.20499325478E+02 -0.11543479442E+02  0.11213912062E+04  0.11216825361E+04  0.10000000000E+02 0. -1.
</event>
<event>
 5    1  0.1300052E-008  0.3757731E+03  0.7957747E-01  0.3469772E+00
         13   -1    0    0    0    0  0.00000000000E+00  0.00000000000E+00  0.14999999963E+04  0.15000000000E+04  0.10566000000E+00 0. -1.
        994   -1    0    0    0    0 -0.00000000000E+00 -0.00000000000E+00  0.11368683772E-12  0.17120000000E+03  0.17120000000E+03 0.  0.
         13    1    1    2    0    0  0.11960497690E+02 -0.55894782636E+01 -0.21931531671E+00  0.13204356686E+02  0.10566000000E+00 0. -1.
        994    1    1    2    0    0 -0.87329003556E+01 -0.20925379128E+01  0.14312445302E+02  0.17203176554E+03  0.17120000000E+03 0.  0.
        998    1    1    2    0    0 -0.32275973347E+01  0.76820161764E+01  0.14859068663E+04  0.14859638778E+04  0.10000000000E+02 0. -1.
</event>
<event>
 5    1  0.1300052E-008  0.3716525E+03  0.7957747E-01  0.3488331E+00
         13   -1    0    0    0    0  0.00000000000E+00  0.00000000000E+00  0.14999999963E+04  0.15000000000E+04  0.10566000000E+00 0. -1.
        994   -1    0    0    0    0 -0.00000000000E+00 -0.00000000000E+00  0.11368683772E-12  0.17120000000E+03  0.17120000000E+03 0.  0.
         13    1    1    2    0    0 -0.14515286407E+02  0.59421044611E+01  0.10777923311E+02  0.19030946898E+02  0.10566000000E+00 0. -1.
        994    1    1    2    0    0  0.12418035565E+02 -0.10629102054E+02  0.93270071901E+01  0.17223129356E+03  0.17120000000E+03 0.  0.
        998    1    1    2    0    0  0.20972508420E+01  0.46869975928E+01  0.14798950658E+04  0.14799377595E+04  0.10000000000E+02 0. -1.
</event>
<event>
 5    1  0.1300052E-008  0.3814958E+03  0.7957747E-01  0.3444671E+00
         13   -1    0    0    0    0  0.00000000000E+00  0.00000000000E+00  0.14999999963E+04  0.15000000000E+04  0.10566000000E+00 0.  1.
        994   -1    0    0    0    0 -0.00000000000E+00 -0.00000000000E+00  0.11368683772E-12  0.17120000000E+03  0.17120000000E+03 0.  0.
         13    1    1    2    0    0  0.91618017991E+01 -0.20681912139E+02  0.82173274966E+02  0.85229914846E+02  0.10566000000E+00 0.  1.
        994    1    1    2    0    0 -0.19693159294E+01 -0.58845688757E+01  0.35080950822E+01  0.17134833844E+03  0.17120000000E+03 0.  0.
        998    1    1    2    0    0 -0.71924858696E+01  0.26566481014E+02  0.14143186262E+04  0.14146217467E+04  0.10000000000E+02 0.  1.
</event>
<event>
 5    1  0.1300052E-008  0.3702103E+03  0.7957747E-01  0.3494925E+00
         13   -1    0    0    0    0  0.00000000000E+00  0.00000000000E+00  0.14999999963E+04  0.15000000000E+04  0.10566000000E+00 0.  1.
        994   -1    0    0    0    0 -0.00000000000E+00 -0.00000000000E+00  0.11368683772E-12  0.17120000000E+03  0.17120000000E+03 0.  0.
         13    1    1    2    0    0 -0.50426892803E+02  0.14247549522E+02  0.14759411028E+03  0.15662023094E+03  0.10566000000E+00 0.  1.
        994    1    1    2    0    0  0.25063851381E+02 -0.23730984910E+02  0.13286641783E+02  0.17514945373E+03  0.17120000000E+03 0.  0.
        998    1    1    2    0    0  0.25363041422E+02  0.94834353880E+01  0.13391192442E+04  0.13394303153E+04  0.10000000000E+02 0.  1.
</event>
<event>
 5    1  0.1300052E-008  0.3834455E+03  0.7957747E-01  0.3436292E+00
         13   -1    0    0    0    0  0.00000000000E+00  0.00000000000E+00  0.14999999963E+04  0.15000000000E+04  0.10566000000E+00 0.  1.
        994   -1    0    0    0    0 -0.00000000000E+00 -0.00000000000E+00  0.11368683772E-12  0.17120000000E+03  0.17120000000E+03 0.  0.
         13    1    1    2    0    0  0.10968592258E+02 -0.12657488306E+02  0.59671398847E+02  0.61977488096E+02  0.10566000000E+00 0.  1.
        994    1    1    2    0    0  0.23232709508E+01  0.79229485785E+01  0.26292445077E+01  0.17141914604E+03  0.17120000000E+03 0.  0.
        998    1    1    2    0    0 -0.13291863208E+02  0.47345397270E+01  0.14376993529E+04  0.14378033659E+04  0.10000000000E+02 0.  1.
</event>
<event>
 5    1  0.1375933E-008  0.3860656E+03  0.7957747E-01  0.3425165E+00
         13   -1    0    0    0    0  0.00000000000E+00  0.00000000000E+00  0.14999999963E+04  0.15000000000E+04  0.10566000000E+00 0.  1.
        994   -1    0    0    0    0 -0.00000000000E+00 -0.00000000000E+00  0.11368683772E-12  0.17120000000E+03  0.17120000000E+03 0.  0.
         13    1    1    2    0    0 -0.97720668663E+01  0.31874448010E+01  0.48352301388E+02  0.49432876800E+02  0.10566000000E+00 0.  1.
        994    1    1    2    0    0  0.70415665202E+01 -0.27712151808E+01  0.12896877248E+01  0.17137201226E+03  0.17120000000E+03 0.  0.
        998    1    1    2    0    0  0.27305003461E+01 -0.41622962018E+00  0.14503580072E+04  0.14503951109E+04  0.10000000000E+02 0.  0.
</event>
<event>
 5    1  0.1300052E-008  0.3860999E+03  0.7957747E-01  0.3425021E+00
         13   -1    0    0    0    0  0.00000000000E+00  0.00000000000E+00  0.14999999963E+04  0.15000000000E+04  0.10566000000E+00 0.  1.
        994   -1    0    0    0    0 -0.00000000000E+00 -0.00000000000E+00  0.11368683772E-12  0.17120000000E+03  0.17120000000E+03 0.  0.
         13    1    1    2    0    0  0.96040689704E+01  0.82347498435E+01  0.74969163444E+02  0.76029177802E+02  0.10566000000E+00 0.  1.
        994    1    1    2    0    0 -0.11710192139E+02  0.12312725450E+01  0.15395137627E+01  0.17161134792E+03  0.17120000000E+03 0.  0.
        998    1    1    2    0    0  0.21061231690E+01 -0.94660223885E+01  0.14234913191E+04  0.14235594743E+04  0.10000000000E+02 0.  1.
</event>
<event>
 5    1  0.1300052E-008  0.3711408E+03  0.7957747E-01  0.3490664E+00
         13   -1    0    0    0    0  0.00000000000E+00  0.00000000000E+00  0.14999999963E+04  0.15000000000E+04  0.10566000000E+00 0. -1.
        994   -1    0    0    0    0 -0.00000000000E+00 -0.00000000000E+00  0.11368683772E-12  0.17120000000E+03  0.17120000000E+03 0.  0.
         13    1    1    2    0    0  0.12838653207E+02 -0.36801138100E+02  0.83089665803E+02  0.91777222168E+02  0.10566000000E+00 0. -1.
        994    1    1    2    0    0 -0.10801510530E+02  0.27209191667E+02  0.11631292174E+02  0.17407394894E+03  0.17120000000E+03 0.  0.
        998    1    1    2    0    0 -0.20371426770E+01  0.95919464326E+01  0.14052790383E+04  0.14053488289E+04  0.10000000000E+02 0. -1.
</event>
<event>
 5    1  0.1300052E-008  0.3730481E+03  0.7957747E-01  0.3481999E+00
         13   -1    0    0    0    0  0.00000000000E+00  0.00000000000E+00  0.14999999963E+04  0.15000000000E+04  0.10566000000E+00 0.  1.
        994   -1    0    0    0    0 -0.00000000000E+00 -0.00000000000E+00  0.11368683772E-12  0.17120000000E+03  0.17120000000E+03 0.  0.
         13    1    1    2    0    0  0.49683310513E+02 -0.22876959455E+02  0.19208987842E+03  0.19972560971E+03  0.10566000000E+00 0.  1.
        994    1    1    2    0    0 -0.28506386262E+02  0.14664413254E+02  0.11208981448E+02  0.17453578527E+03  0.17120000000E+03 0.  0.
        998    1    1    2    0    0 -0.21176924252E+02  0.82125462011E+01  0.12967011364E+04  0.12969386050E+04  0.10000000000E+02 0.  1.
</event>
<event>
 5    1  0.1300052E-008  0.3766702E+03  0.7957747E-01  0.3465786E+00
         13   -1    0    0    0    0  0.00000000000E+00  0.00000000000E+00  0.14999999963E+04  0.15000000000E+04  0.10566000000E+00 0. -1.
        994   -1    0    0    0    0 -0.00000000000E+00 -0.00000000000E+00  0.11368683772E-12  0.17120000000E+03  0.17120000000E+03 0.  0.
         13    1    1    2    0    0 -0.16345451036E+02 -0.27453989969E+01  0.21747322950E+02  0.27343522172E+02  0.10566000000E+00 0. -1.
        994    1    1    2    0    0  0.20816649881E+01 -0.13624031013E+02  0.64658253937E+01  0.17187552021E+03  0.17120000000E+03 0.  0.
        998    1    1    2    0    0  0.14263786048E+02  0.16369430010E+02  0.14717868479E+04  0.14719809576E+04  0.10000000000E+02 0. -1.
</event>
<event>
 5    1  0.1300052E-008  0.3809631E+03  0.7957747E-01  0.3446976E+00
         13   -1    0    0    0    0  0.00000000000E+00  0.00000000000E+00  0.14999999963E+04  0.15000000000E+04  0.10566000000E+00 0. -1.
        994   -1    0    0    0    0 -0.00000000000E+00 -0.00000000000E+00  0.11368683772E-12  0.17120000000E+03  0.17120000000E+03 0.  0.
         13    1    1    2    0    0 -0.19430250375E+02  0.16035394622E+02  0.80610846631E+02  0.84455836204E+02  0.10566000000E+00 0. -1.
        994    1    1    2    0    0  0.21664997517E+02 -0.18302286240E+02  0.63327067779E+01  0.17364875172E+03  0.17120000000E+03 0.  0.
        998    1    1    2    0    0 -0.22347471412E+01  0.22668916179E+01  0.14130564429E+04  0.14130954121E+04  0.10000000000E+02 0. -1.
</event>
<event>
 5    1  0.1300052E-008  0.3749655E+03  0.7957747E-01  0.3473377E+00
         13   -1    0    0    0    0  0.00000000000E+00  0.00000000000E+00  0.14999999963E+04  0.15000000000E+04  0.10566000000E+00 0. -1.
        994   -1    0    0    0    0 -0.00000000000E+00 -0.00000000000E+00  0.11368683772E-12  0.17120000000E+03  0.17120000000E+03 0.  0.
         13    1    1    2    0    0 -0.57232514603E+01 -0.52603267884E+02  0.18045327324E+03  0.18805120150E+03  0.10566000000E+00 0. -1.
        994    1    1    2    0    0 -0.12244142824E+02  0.57256102763E+02  0.18441504059E+02  0.18187278359E+03  0.17120000000E+03 0.  0.
        998    1    1    2    0    0  0.17967394284E+02 -0.46528348798E+01  0.13011052190E+04  0.13012760149E+04  0.10000000000E+02 0. -1.
</event>
<event>
 5    1  0.1300052E-008  0.3802032E+03  0.7957747E-01  0.3450274E+00
         13   -1    0    0    0    0  0.00000000000E+00  0.00000000000E+00  0.14999999963E+04  0.15000000000E+04  0.10566000000E+00 0.  1.
        994   -1    0    0    0    0 -0.00000000000E+00 -0.00000000000E+00  0.11368683772E-12  0.17120000000E+03  0.17120000000E+03 0.  0.
         13    1    1    2    0    0  0.45584948422E+02  0.53467278890E+02  0.28439525997E+03  0.29294609144E+03  0.10566000000E+00 0.  1.
        994    1    1    2    0    0 -0.20801655333E+02  0.11112047887E+03  0.64389045658E+02  0.21502525175E+03  0.17120000000E+03 0.  0.
        998    1    1    2    0    0 -0.24783293089E+02 -0.16458775776E+03  0.11512156907E+04  0.11632286568E+04  0.10000000000E+02 0.  1.
</event>
<event>
 5    1  0.1300052E-008  0.3853181E+03  0.7957747E-01  0.3428324E+00
         13   -1    0    0    0    0  0.00000000000E+00  0.00000000000E+00  0.14999999963E+04  0.15000000000E+04  0.10566000000E+00 0. -1.
        994   -1    0    0    0    0 -0.00000000000E+00 -0.00000000000E+00  0.11368683772E-12  0.17120000000E+03  0.17120000000E+03 0.  0.
         13    1    1    2    0    0 -0.13865479116E+02  0.45881690223E+01  0.74460665404E+02  0.75879540474E+02  0.10566000000E+00 0. -1.
        994    1    1    2    0    0  0.49097275214E+00 -0.19830309002E+02  0.27660621891E+01  0.17236755295E+03  0.17120000000E+03 0.  0.
        998    1    1    2    0    0  0.13374506364E+02  0.15242139980E+02  0.14227732687E+04  0.14229529066E+04  0.10000000000E+02 0. -1.
</event>
<event>
 5    1  0.1300052E-008  0.3743967E+03  0.7957747E-01  0.3475925E+00
         13   -1    0    0    0    0  0.00000000000E+00  0.00000000000E+00  0.14999999963E+04  0.15000000000E+04  0.10566000000E+00 0.  1.
        994   -1    0    0    0    0 -0.00000000000E+00 -0.00000000000E+00  0.11368683772E-12  0.17120000000E+03  0.17120000000E+03 0.  0.
         13    1    1    2    0    0 -0.26660716994E+02  0.38825877172E+01  0.49575873597E+02  0.56423813456E+02  0.10566000000E+00 0.  1.
        994    1    1    2    0    0  0.14530313052E+02 -0.69500484703E+01  0.78730178119E+01  0.17213616000E+03  0.17120000000E+03 0.  0.
        998    1    1    2    0    0  0.12130403942E+02  0.30674607531E+01  0.14425511049E+04  0.14426400265E+04  0.10000000000E+02 0.  1.
</event>
<event>
 5    1  0.1300052E-008  0.3803122E+03  0.7957747E-01  0.3449800E+00
         13   -1    0    0    0    0  0.00000000000E+00  0.00000000000E+00  0.14999999963E+04  0.15000000000E+04  0.10566000000E+00 0.  1.
        994   -1    0    0    0    0 -0.00000000000E+00 -0.00000000000E+00  0.11368683772E-12  0.17120000000E+03  0.17120000000E+03 0.  0.
         13    1    1    2    0    0  0.67036231268E+01 -0.18345505957E+02  0.46558550652E+02  0.50489661860E+02  0.10566000000E+00 0.  1.
        994    1    1    2    0    0 -0.26224389232E+02  0.38290623600E+01  0.63247251911E+01  0.17335461476E+03  0.17120000000E+03 0.  0.
        998    1    1    2    0    0  0.19520766106E+02  0.14516443597E+02  0.14471167204E+04  0.14473557234E+04  0.10000000000E+02 0.  1.
</event>
<event>
 5    1  0.1300052E-008  0.3735469E+03  0.7957747E-01  0.3479747E+00
         13   -1    0    0    0    0  0.00000000000E+00  0.00000000000E+00  0.14999999963E+04  0.15000000000E+04  0.10566000000E+00 0.  1.
        994   -1    0    0    0    0 -0.00000000000E+00 -0.00000000000E+00  0.11368683772E-12  0.17120000000E+03  0.17120000000E+03 0.  0.
         13    1    1    2    0    0 -0.67818990402E+01 -0.15775900622E+02  0.16498031440E+02  0.23813219028E+02  0.10566000000E+00 0.  1.
        994    1    1    2    0    0  0.27905660661E+01  0.15668191332E+02  0.82924609116E+01  0.17213798066E+03  0.17120000000E+03 0.  0.
        998    1    1    2    0    0  0.39913329741E+01  0.10770929002E+00  0.14752095039E+04  0.14752488003E+04  0.10000000000E+02 0.  1.
</event>
<event>
 5    1  0.1300052E-008  0.3702099E+03  0.7957747E-01  0.3494927E+00
         13   -1    0    0    0    0  0.00000000000E+00  0.00000000000E+00  0.14999999963E+04  0.15000000000E+04  0.10566000000E+00 0.  1.
        994   -1    0    0    0    0 -0.00000000000E+00 -0.00000000000E+00  0.11368683772E-12  0.17120000000E+03  0.17120000000E+03 0.  0.
         13    1    1    2    0    0 -0.14242442464E+02 -0.36168420116E+02  0.59132231212E+02  0.70764636035E+02  0.10566000000E+00 0.  1.
        994    1    1    2    0    0  0.17427091483E+02  0.51255391934E+02  0.21374885093E+02  0.18082351737E+03  0.17120000000E+03 0.  0.
        998    1    1    2    0    0 -0.31846490190E+01 -0.15086971818E+02  0.14194928800E+04  0.14196118466E+04  0.10000000000E+02 0.  1.
</event>
<event>
 5    1  0.1300052E-008  0.3854557E+03  0.7957747E-01  0.3427742E+00
         13   -1    0    0    0    0  0.00000000000E+00  0.00000000000E+00  0.14999999963E+04  0.15000000000E+04  0.10566000000E+00 0. -1.
        994   -1    0    0    0    0 -0.00000000000E+00 -0.00000000000E+00  0.11368683772E-12  0.17120000000E+03  0.17120000000E+03 0.  0.
         13    1    1    2    0    0 -0.37270539868E+01  0.15098731947E+02  0.82924329798E+02  0.84370126670E+02  0.10566000000E+00 0. -1.
        994    1    1    2    0    0  0.24345789642E+01 -0.15563317573E+02  0.22193145191E+01  0.17193751593E+03  0.17120000000E+03 0.  0.
        998    1    1    2    0    0  0.12924750225E+01  0.46458562576E+00  0.14148563520E+04  0.14148923574E+04  0.10000000000E+02 0. -1.
</event>
<event>
 5    1  0.1300052E-008  0.3806276E+03  0.7957747E-01  0.3448430E+00
         13   -1    0    0    0    0  0.00000000000E+00  0.00000000000E+00  0.14999999963E+04  0.15000000000E+04  0.10566000000E+00 0. -1.
        994   -1    0    0    0    0 -0.00000000000E+00 -0.00000000000E+00  0.11368683772E-12  0.17120000000E+03  0.17120000000E+03 0.  0.
         13    1    1    2    0    0 -0.23905859780E+02  0.35554643156E+02  0.47200484203E+02  0.63745742248E+02  0.10566000000E+00 0. -1.
        994    1    1    2    0    0  0.11944298887E+03  0.42728023850E+02  0.77729316453E+02  0.22681181241E+03  0.17120000000E+03 0.  0.
        998    1    1    2    0    0 -0.95537129092E+02 -0.78282667005E+02  0.13750701956E+04  0.13806424453E+04  0.10000000000E+02 0. -1.
</event>
<event>
 5    1  0.1300052E-008  0.3857187E+03  0.7957747E-01  0.3426630E+00
         13   -1    0    0    0    0  0.00000000000E+00  0.00000000000E+00  0.14999999963E+04  0.15000000000E+04  0.10566000000E+00 0.  1.
        994   -1    0    0    0    0 -0.00000000000E+00 -0.00000000000E+00  0.11368683772E-12  0.17120000000E+03  0.17120000000E+03 0.  0.
         13    1    1    2    0    0 -0.54354984904E+00  0.11561638575E+02  0.53462621416E+02  0.54701279561E+02  0.10566000000E+00 0.  1.
        994    1    1    2    0    0 -0.67196720325E+00 -0.64067256933E+01  0.14099130625E+01  0.17132695506E+03  0.17120000000E+03 0.  0.
        998    1    1    2    0    0  0.12155170523E+01 -0.51549128813E+01  0.14451274618E+04  0.14451717654E+04  0.10000000000E+02 0.  1.
</event>
<event>
 5    1  0.1300052E-008  0.3783364E+03  0.7957747E-01  0.3458434E+00
         13   -1    0    0    0    0  0.00000000000E+00  0.00000000000E+00  0.14999999963E+04  0.15000000000E+04  0.10566000000E+00 0.  1.
        994   -1    0    0    0    0 -0.00000000000E+00 -0.00000000000E+00  0.11368683772E-12  0.17120000000E+03  0.17120000000E+03 0.  0.
         13    1    1    2    0    0 -0.52867697323E+02 -0.13748775976E+02  0.32255100043E+03  0.32714397641E+03  0.10566000000E+00 0.  1.
        994    1    1    2    0    0  0.20630378023E+02  0.10122286734E+02  0.67523649671E+01  0.17286731218E+03  0.17120000000E+03 0.  0.
        998    1    1    2    0    0  0.32237319300E+02  0.36264892417E+01  0.11706966309E+04  0.11711887114E+04  0.10000000000E+02 0.  1.
</event>
<event>
 5    1  0.1300052E-008  0.4043225E+03  0.7957747E-01  0.3351641E+00
         13   -1    0    0    0    0  0.00000000000E+00  0.00000000000E+00  0.14999999963E+04  0.15000000000E+04  0.10566000000E+00 0.  1.
        994   -1    0    0    0    0 -0.00000000000E+00 -0.00000000000E+00  0.11368683772E-12  0.17120000000E+03  0.17120000000E+03 0.  0.
         13    1    1    2    0    0 -0.11126652262E+03 -0.55985295746E+02  0.20835015311E+03  0.24274346512E+03  0.10566000000E+00 0.  1.
        994    1    1    2    0    0  0.11522504674E+03  0.49297024472E+02  0.96236673928E+02  0.23297627653E+03  0.17120000000E+03 0.  0.
        998    1    1    2    0    0 -0.39585241223E+01  0.66882712742E+01  0.11954131692E+04  0.11954802583E+04  0.10000000000E+02 0.  1.
</event>
<event>
 5    1  0.1300052E-008  0.3862336E+03  0.7957747E-01  0.3424457E+00
         13   -1    0    0    0    0  0.00000000000E+00  0.00000000000E+00  0.14999999963E+04  0.15000000000E+04  0.10566000000E+00 0. -1.
        994   -1    0    0    0    0 -0.00000000000E+00 -0.00000000000E+00  0.11368683772E-12  0.17120000000E+03  0.17120000000E+03 0.  0.
         13    1    1    2    0    0 -0.18666341187E+01 -0.11248900260E+02  0.64354042144E+02  0.65356529776E+02  0.10566000000E+00 0. -1.
        994    1    1    2    0    0 -0.24119483910E+01  0.90592708441E+01  0.13068655292E+01  0.17146147025E+03  0.17120000000E+03 0.  0.
        998    1    1    2    0    0  0.42785825096E+01  0.21896294160E+01  0.14343390886E+04  0.14343820000E+04  0.10000000000E+02 0. -1.
</event>
<event>
 5    1  0.1300052E-008  0.3731192E+03  0.7957747E-01  0.3481677E+00
         13   -1    0    0    0    0  0.00000000000E+00  0.00000000000E+00  0.14999999963E+04  0.15000000000E+04  0.10566000000E+00 0. -1.
        994   -1    0    0    0    0 -0.00000000000E+00 -0.00000000000E+00  0.11368683772E-12  0.17120000000E+03  0.17120000000E+03 0.  0.
         13    1    1    2    0    0  0.21281933872E+02  0.44874172046E+02  0.16473119616E+03  0.17205519515E+03  0.10566000000E+00 0. -1.
        994    1    1    2    0    0 -0.16538106165E+02 -0.16659996105E+02  0.95351755543E+01  0.17306479711E+03  0.17120000000E+03 0.  0.
        998    1    1    2    0    0 -0.47438277073E+01 -0.28214175940E+02  0.13257336246E+04  0.13260800077E+04  0.10000000000E+02 0. -1.
</event>
<event>
 5    1  0.1300052E-008  0.3839761E+03  0.7957747E-01  0.3434026E+00
         13   -1    0    0    0    0  0.00000000000E+00  0.00000000000E+00  0.14999999963E+04  0.15000000000E+04  0.10566000000E+00 0. -1.
        994   -1    0    0    0    0 -0.00000000000E+00 -0.00000000000E+00  0.11368683772E-12  0.17120000000E+03  0.17120000000E+03 0.  0.
         13    1    1    2    0    0  0.16801320961E+02  0.86991914975E+01  0.92761354654E+02  0.94671222661E+02  0.10566000000E+00 0. -1.
        994    1    1    2    0    0  0.26712243955E+01  0.33706804219E+01  0.22003593570E+01  0.17126814797E+03  0.17120000000E+03 0.  0.
        998    1    1    2    0    0 -0.19472545356E+02 -0.12069871919E+02  0.14050382823E+04  0.14052606294E+04  0.10000000000E+02 0. -1.
</event>
<event>
 5    1  0.1300052E-008  0.3794999E+03  0.7957747E-01  0.3453339E+00
         13   -1    0    0    0    0  0.00000000000E+00  0.00000000000E+00  0.14999999963E+04  0.15000000000E+04  0.10566000000E+00 0. -1.
        994   -1    0    0    0    0 -0.00000000000E+00 -0.00000000000E+00  0.11368683772E-12  0.17120000000E+03  0.17120000000E+03 0.  0.
         13    1    1    2    0    0 -0.20690046408E+02 -0.16640172502E+02  0.80779214627E+02  0.85030971070E+02  0.10566000000E+00 0. -1.
        994    1    1    2    0    0  0.48647924534E+01  0.11660636949E+02  0.49205036952E+01  0.17173609992E+03  0.17120000000E+03 0.  0.
        998    1    1    2    0    0  0.15825253954E+02  0.49795355528E+01  0.14143002780E+04  0.14144329290E+04  0.10000000000E+02 0. -1.
</event>
<event>
 5    1  0.1300052E-008  0.3806098E+03  0.7957747E-01  0.3448508E+00
         13   -1    0    0    0    0  0.00000000000E+00  0.00000000000E+00  0.14999999963E+04  0.15000000000E+04  0.10566000000E+00 0. -1.
        994   -1    0    0    0    0 -0.00000000000E+00 -0.00000000000E+00  0.11368683772E-12  0.17120000000E+03  0.17120000000E+03 0.  0.
         13    1    1    2    0    0  0.12148061789E+02  0.19906608865E+02  0.67525410570E+02  0.71439069972E+02  0.10566000000E+00 0. -1.
        994    1    1    2    0    0 -0.11641502001E+02 -0.18726763187E+02  0.54494525151E+01  0.17270018171E+03  0.17120000000E+03 0.  0.
        998    1    1    2    0    0 -0.50655978843E+00 -0.11798456780E+01  0.14270251332E+04  0.14270607483E+04  0.10000000000E+02 0. -1.
</event>
<event>
 5    1  0.1300052E-008  0.3744890E+03  0.7957747E-01  0.3475511E+00
         13   -1    0    0    0    0  0.00000000000E+00  0.00000000000E+00  0.14999999963E+04  0.15000000000E+04  0.10566000000E+00 0. -1.
        994   -1    0    0    0    0 -0.00000000000E+00 -0.00000000000E+00  0.11368683772E-12  0.17120000000E+03  0.17120000000E+03 0.  0.
         13    1    1    2    0    0  0.43338743253E+02 -0.13512321329E+02  0.77847975092E+02  0.90117411661E+02  0.10566000000E+00 0. -1.
        994    1    1    2    0    0 -0.81050813018E+01 -0.29002133902E+01  0.13595708678E+02  0.17195460702E+03  0.17120000000E+03 0.  0.
        998    1    1    2    0    0 -0.35233661952E+02  0.16412534719E+02  0.14085563125E+04  0.14091279813E+04  0.10000000000E+02 0. -1.
</event>
<event>
 5    1  0.1300052E-008  0.3822791E+03  0.7957747E-01  0.3441294E+00
         13   -1    0    0    0    0  0.00000000000E+00  0.00000000000E+00  0.14999999963E+04  0.15000000000E+04  0.10566000000E+00 0.  1.
        994   -1    0    0    0    0 -0.00000000000E+00 -0.00000000000E+00  0.11368683772E-12  0.17120000000E+03  0.17120000000E+03 0.  0.
         13    1    1    2    0    0 -0.92298769997E+01 -0.30880126346E+02  0.18330382464E+03  0.18611576001E+03  0.10566000000E+00 0.  1.
        994    1    1    2    0    0  0.20976713304E+01  0.11716863222E+02  0.34572995479E+01  0.17164812271E+03  0.17120000000E+03 0.  0.
        998    1    1    2    0    0  0.71322056693E+01  0.19163263124E+02  0.13132388721E+04  0.13134361173E+04  0.10000000000E+02 0.  1.
</event>
<event>
 5    1  0.1300052E-008  0.3714795E+03  0.7957747E-01  0.3489119E+00
         13   -1    0    0    0    0  0.00000000000E+00  0.00000000000E+00  0.14999999963E+04  0.15000000000E+04  0.10566000000E+00 0. -1.
        994   -1    0    0    0    0 -0.00000000000E+00 -0.00000000000E+00  0.11368683772E-12  0.17120000000E+03  0.17120000000E+03 0.  0.
         13    1    1    2    0    0  0.36682134569E+02  0.87620870374E+02  0.40228949327E+03  0.41335196078E+03  0.10566000000E+00 0. -1.
        994    1    1    2    0    0 -0.42878323037E+02 -0.78599400146E+02  0.36601544106E+02  0.19663552406E+03  0.17120000000E+03 0.  0.
        998    1    1    2    0    0  0.61961884681E+01 -0.90214702278E+01  0.10611089589E+04  0.10612125152E+04  0.10000000000E+02 0. -1.
</event>
<event>
 5    1  0.1300052E-008  0.3803018E+03  0.7957747E-01  0.3449845E+00
         13   -1    0    0    0    0  0.00000000000E+00  0.00000000000E+00  0.14999999963E+04  0.15000000000E+04  0.10566000000E+00 0.  1.
        994   -1    0    0    0    0 -0.00000000000E+00 -0.00000000000E+00  0.11368683772E-12  0.17120000000E+03  0.17120000000E+03 0.  0.
         13    1    1    2    0    0  0.14048767341E+02  0.22903166567E+02  0.89825591905E+02  0.93758045136E+02  0.10566000000E+00 0.  1.
        994    1    1    2    0    0 -0.69011985455E+01 -0.13775529502E+02  0.47740421696E+01  0.17195820199E+03  0.17120000000E+03 0.  0.
        998    1    1    2    0    0 -0.71475687956E+01 -0.91276370656E+01  0.14054003622E+04  0.14054837529E+04  0.10000000000E+02 0.  1.
</event>
<event>
 5    1  0.1300052E-008  0.3833137E+03  0.7957747E-01  0.3436856E+00
         13   -1    0    0    0    0  0.00000000000E+00  0.00000000000E+00  0.14999999963E+04  0.15000000000E+04  0.10566000000E+00 0. -1.
        994   -1    0    0    0    0 -0.00000000000E+00 -0.00000000000E+00  0.11368683772E-12  0.17120000000E+03  0.17120000000E+03 0.  0.
         13    1    1    2    0    0 -0.58780392306E+01  0.23372173216E+02  0.10676048465E+03  0.10944689156E+03  0.10566000000E+00 0. -1.
        994    1    1    2    0    0  0.51114490060E+01 -0.28227255484E+02  0.51955702401E+01  0.17366444315E+03  0.17120000000E+03 0.  0.
        998    1    1    2    0    0  0.76659022462E+00  0.48550822676E+01  0.13880439414E+04  0.13880886653E+04  0.10000000000E+02 0. -1.
</event>
<event>
 5    1  0.1300052E-008  0.3765694E+03  0.7957747E-01  0.3466233E+00
         13   -1    0    0    0    0  0.00000000000E+00  0.00000000000E+00  0.14999999963E+04  0.15000000000E+04  0.10566000000E+00 0. -1.
        994   -1    0    0    0    0 -0.00000000000E+00 -0.00000000000E+00  0.11368683772E-12  0.17120000000E+03  0.17120000000E+03 0.  0.
         13    1    1    2    0    0 -0.17145768059E+02  0.19876785097E+02  0.61289333766E+02  0.66674264493E+02  0.10566000000E+00 0. -1.
        994    1    1    2    0    0  0.82529161779E+01  0.15262211624E+02  0.68935634578E+01  0.17221500209E+03  0.17120000000E+03 0.  0.
        998    1    1    2    0    0  0.88928518807E+01 -0.35138996721E+02  0.14318170991E+04  0.14323107334E+04  0.10000000000E+02 0. -1.
</event>
<event>
 5    1  0.1300052E-008  0.3700862E+03  0.7957747E-01  0.3495495E+00
         13   -1    0    0    0    0  0.00000000000E+00  0.00000000000E+00  0.14999999963E+04  0.15000000000E+04  0.10566000000E+00 0.  1.
        994   -1    0    0    0    0 -0.00000000000E+00 -0.00000000000E+00  0.11368683772E-12  0.17120000000E+03  0.17120000000E+03 0.  0.
         13    1    1    2    0    0 -0.17522686561E+02 -0.43242752053E+01  0.99391094655E+01  0.20604391798E+02  0.10566000000E+00 0.  1.
        994    1    1    2    0    0  0.12910166463E+02  0.66948118651E+01  0.11724317655E+02  0.17221612157E+03  0.17120000000E+03 0.  0.
        998    1    1    2    0    0  0.46125200978E+01 -0.23705366598E+01  0.14783365692E+04  0.14783794866E+04  0.10000000000E+02 0.  1.
</event>
<event>
 5    1  0.1300052E-008  0.3849945E+03  0.7957747E-01  0.3429696E+00
         13   -1    0    0    0    0  0.00000000000E+00  0.00000000000E+00  0.14999999963E+04  0.15000000000E+04  0.10566000000E+00 0. -1.
        994   -1    0    0    0    0 -0.00000000000E+00 -0.00000000000E+00  0.11368683772E-12  0.17120000000E+03  0.17120000000E+03 0.  0.
         13    1    1    2    0    0 -0.17284788101E+02  0.48848061802E+01  0.10241218857E+03  0.10397544308E+03  0.10566000000E+00 0. -1.
        994    1    1    2    0    0  0.72032793803E+01 -0.41845492056E+00  0.18041060234E+01  0.17136148090E+03  0.17120000000E+03 0.  0.
        998    1    1    2    0    0  0.10081508721E+02 -0.44663512597E+01  0.13957837017E+04  0.13958630760E+04  0.10000000000E+02 0. -1.
</event>
<event>
 5    1  0.1300052E-008  0.3826152E+03  0.7957747E-01  0.3439850E+00
         13   -1    0    0    0    0  0.00000000000E+00  0.00000000000E+00  0.14999999963E+04  0.15000000000E+04  0.10566000000E+00 0. -1.
        994   -1    0    0    0    0 -0.00000000000E+00 -0.00000000000E+00  0.11368683772E-12  0.17120000000E+03  0.17120000000E+03 0.  0.
         13    1    1    2    0    0  0.21833063598E+02  0.26359190212E+02  0.19131588892E+03  0.19435346689E+03  0.10566000000E+00 0. -1.
        994    1    1    2    0    0 -0.12821387942E+02 -0.27433830342E+02  0.58639609023E+01  0.17395639992E+03  0.17120000000E+03 0.  0.
        998    1    1    2    0    0 -0.90116756564E+01  0.10746401299E+01  0.13028201465E+04  0.13028901332E+04  0.10000000000E+02 0. -1.
</event>
<event>
 5    1  0.1300052E-008  0.3695332E+03  0.7957747E-01  0.3498039E+00
         13   -1    0    0    0    0  0.00000000000E+00  0.00000000000E+00  0.14999999963E+04  0.15000000000E+04  0.10566000000E+00 0. -1.
        994   -1    0    0    0    0 -0.00000000000E+00 -0.00000000000E+00  0.11368683772E-12  0.17120000000E+03  0.17120000000E+03 0.  0.
         13    1    1    2    0    0  0.48563437518E+02  0.35351513529E+02  0.20432974661E+03  0.21297603970E+03  0.10566000000E+00 0. -1.
        994    1    1    2    0    0 -0.30022938212E+02  0.94555043468E+01  0.12952300811E+02  0.17455081059E+03  0.17120000000E+03 0.  0.
        998    1    1    2    0    0 -0.18540499306E+02 -0.44807017875E+02  0.12827179489E+04  0.12836731497E+04  0.10000000000E+02 0. -1.
</event>
<event>
 5    1  0.1300052E-008  0.3820080E+03  0.7957747E-01  0.3442461E+00
         13   -1    0    0    0    0  0.00000000000E+00  0.00000000000E+00  0.14999999963E+04  0.15000000000E+04  0.10566000000E+00 0. -1.
        994   -1    0    0    0    0 -0.00000000000E+00 -0.00000000000E+00  0.11368683772E-12  0.17120000000E+03  0.17120000000E+03 0.  0.
         13    1    1    2    0    0 -0.61720475979E+01 -0.33523575669E+02  0.16795901308E+03  0.17138309583E+03  0.10566000000E+00 0. -1.
        994    1    1    2    0    0  0.10901029622E+02  0.31433308112E+02  0.68074682897E+01  0.17453557497E+03  0.17120000000E+03 0.  0.
        998    1    1    2    0    0 -0.47289820245E+01  0.20902675568E+01  0.13252335149E+04  0.13252813292E+04  0.10000000000E+02 0. -1.
</event>
<event>
 5    1  0.1300052E-008  0.3804218E+03  0.7957747E-01  0.3449324E+00
         13   -1    0    0    0    0  0.00000000000E+00  0.00000000000E+00  0.14999999963E+04  0.15000000000E+04  0.10566000000E+00 0. -1.
        994   -1    0    0    0    0 -0.00000000000E+00 -0.00000000000E+00  0.11368683772E-12  0.17120000000E+03  0.17120000000E+03 0.  0.
         13    1    1    2    0    0  0.38502486640E+02 -0.30072834073E+01  0.20629318810E+03  0.20987704937E+03  0.10566000000E+00 0. -1.
        994    1    1    2    0    0 -0.10128630929E+02  0.19263889252E+02  0.55032559181E+01  0.17266560868E+03  0.17120000000E+03 0.  0.
        998    1    1    2    0    0 -0.28373855710E+02 -0.16256605844E+02  0.12882035523E+04  0.12886573420E+04  0.10000000000E+02 0. -1.
</event>
<event>
 5    1  0.1300052E-008  0.3860363E+03  0.7957747E-01  0.3425289E+00
         13   -1    0    0    0    0  0.00000000000E+00  0.00000000000E+00  0.14999999963E+04  0.15000000000E+04  0.10566000000E+00 0. -1.
        994   -1    0    0    0    0 -0.00000000000E+00 -0.00000000000E+00  0.11368683772E-12  0.17120000000E+03  0.17120000000E+03 0.  0.
         13    1    1    2    0    0 -0.39831888397E+00 -0.12754913758E+02  0.73311362095E+02  0.74413798849E+02  0.10566000000E+00 0. -1.
        994    1    1    2    0    0 -0.13152143946E+02  0.10006809746E+02  0.20121861445E+01  0.17200756967E+03  0.17120000000E+03 0.  0.
        998    1    1    2    0    0  0.13550462830E+02  0.27481040125E+01  0.14246764480E+04  0.14247786315E+04  0.10000000000E+02 0. -1.
</event>
<event>
 5    1  0.1300052E-008  0.3816392E+03  0.7957747E-01  0.3444052E+00
         13   -1    0    0    0    0  0.00000000000E+00  0.00000000000E+00  0.14999999963E+04  0.15000000000E+04  0.10566000000E+00 0.  1.
        994   -1    0    0    0    0 -0.00000000000E+00 -0.00000000000E+00  0.11368683772E-12  0.17120000000E+03  0.17120000000E+03 0.  0.
         13    1    1    2    0    0 -0.97616791527E+01 -0.99837995511E+01  0.28689171863E+02  0.31906839073E+02  0.10566000000E+00 0.  1.
        994    1    1    2    0    0  0.59503099874E+01  0.37404238999E+00  0.34261708051E+01  0.17133804231E+03  0.17120000000E+03 0.  0.
        998    1    1    2    0    0  0.38113691653E+01  0.96097571611E+01  0.14678846536E+04  0.14679551186E+04  0.10000000000E+02 0.  1.
</event>
<event>
 5    1  0.1300052E-008  0.3848145E+03  0.7957747E-01  0.3430459E+00
         13   -1    0    0    0    0  0.00000000000E+00  0.00000000000E+00  0.14999999963E+04  0.15000000000E+04  0.10566000000E+00 0. -1.
        994   -1    0    0    0    0 -0.00000000000E+00 -0.00000000000E+00  0.11368683772E-12  0.17120000000E+03  0.17120000000E+03 0.  0.
         13    1    1    2    0    0  0.39353220523E+02  0.17186285042E+02  0.37960861977E+02  0.57315639795E+02  0.10566000000E+00 0. -1.
        994    1    1    2    0    0 -0.67556757035E+02 -0.65236820850E+01  0.36194365056E+02  0.18768576374E+03  0.17120000000E+03 0.  0.
        998    1    1    2    0    0  0.28203536512E+02 -0.10662602957E+02  0.14258447692E+04  0.14261985965E+04  0.10000000000E+02 0. -1.
</event>
<event>
 5    1  0.1300052E-008  0.3749499E+03  0.7957747E-01  0.3473447E+00
         13   -1    0    0    0    0  0.00000000000E+00  0.00000000000E+00  0.14999999963E+04  0.15000000000E+04  0.10566000000E+00 0. -1.
        994   -1    0    0    0    0 -0.00000000000E+00 -0.00000000000E+00  0.11368683772E-12  0.17120000000E+03  0.17120000000E+03 0.  0.
         13    1    1    2    0    0 -0.19498735803E+02 -0.10849258317E+02  0.34826682576E+02  0.41362012611E+02  0.10566000000E+00 0. -1.
        994    1    1    2    0    0  0.34444057608E+01  0.16076075215E+02  0.76239356096E+01  0.17215652331E+03  0.17120000000E+03 0.  0.
        998    1    1    2    0    0  0.16054330043E+02 -0.52268168981E+01  0.14575493781E+04  0.14576814641E+04  0.10000000000E+02 0. -1.
</event>
<event>
 5    1  0.1300052E-008  0.3829488E+03  0.7957747E-01  0.3438419E+00
         13   -1    0    0    0    0  0.00000000000E+00  0.00000000000E+00  0.14999999963E+04  0.15000000000E+04  0.10566000000E+00 0.  1.
        994   -1    0    0    0    0 -0.00000000000E+00 -0.00000000000E+00  0.11368683772E-12  0.17120000000E+03  0.17120000000E+03 0.  0.
         13    1    1    2    0    0  0.18772246229E+02  0.71737809060E+00  0.61389551714E+02  0.64199689123E+02  0.10566000000E+00 0.  1.
        994    1    1    2    0    0 -0.26605091737E+02  0.90812949965E+01  0.52727853999E+01  0.17357287545E+03  0.17120000000E+03 0.  0.
        998    1    1    2    0    0  0.78328455079E+01 -0.97986730872E+01  0.14333376592E+04  0.14334274354E+04  0.10000000000E+02 0.  1.
</event>
<event>
 5    1  0.1300052E-008  0.3850429E+03  0.7957747E-01  0.3429490E+00
         13   -1    0    0    0    0  0.00000000000E+00  0.00000000000E+00  0.14999999963E+04  0.15000000000E+04  0.10566000000E+00 0.  1.
        994   -1    0    0    0    0 -0.00000000000E+00 -0.00000000000E+00  0.11368683772E-12  0.17120000000E+03  0.17120000000E+03 0.  0.
         13    1    1    2    0    0 -0.10702716204E+02 -0.15246739985E+01  0.35921828463E+02  0.37513486763E+02  0.10566000000E+00 0.  1.
        994    1    1    2    0    0  0.88274442277E+01  0.30948536875E+00  0.18654148390E+01  0.17143785849E+03  0.17120000000E+03 0.  0.
        998    1    1    2    0    0  0.18752719759E+01  0.12151886298E+01  0.14622127530E+04  0.14622486547E+04  0.10000000000E+02 0.  1.
</event>
<event>
 5    1  0.1300052E-008  0.3854536E+03  0.7957747E-01  0.3427751E+00
         13   -1    0    0    0    0  0.00000000000E+00  0.00000000000E+00  0.14999999963E+04  0.15000000000E+04  0.10566000000E+00 0.  1.
        994   -1    0    0    0    0 -0.00000000000E+00 -0.00000000000E+00  0.11368683772E-12  0.17120000000E+03  0.17120000000E+03 0.  0.
         13    1    1    2    0    0  0.87019328839E+01  0.10225933951E+02  0.65451230818E+02  0.66814430632E+02  0.10566000000E+00 0.  1.
        994    1    1    2    0    0 -0.43004002646E+01 -0.50559313879E+01  0.15498020556E+01  0.17133562902E+03  0.17120000000E+03 0.  0.
        998    1    1    2    0    0 -0.44015326193E+01 -0.51700025632E+01  0.14329989634E+04  0.14330499403E+04  0.10000000000E+02 0.  1.
</event>
<event>
 5    1  0.2140704E-008  0.3863318E+03  0.7957747E-01  0.3424043E+00
         13   -1    0    0    0    0  0.00000000000E+00  0.00000000000E+00  0.14999999963E+04  0.15000000000E+04  0.10566000000E+00 0. -1.
        994   -1    0    0    0    0 -0.00000000000E+00 -0.00000000000E+00  0.11368683772E-12  0.17120000000E+03  0.17120000000E+03 0.  0.
         13    1    1    2    0    0  0.23621392985E+01  0.98267041886E+01  0.57463307559E+02  0.58345408533E+02  0.10566000000E+00 0. -1.
        994    1    1    2    0    0  0.53043609380E+01  0.93537083626E+00  0.10653642112E+01  0.17128802108E+03  0.17120000000E+03 0.  0.
        998    1    1    2    0    0 -0.76665002364E+01 -0.10762075025E+02  0.14414713245E+04  0.14415665704E+04  0.10000000000E+02 0. -1.
</event>
<event>
 5    1  0.1300052E-008  0.3805771E+03  0.7957747E-01  0.3448650E+00
         13   -1    0    0    0    0  0.00000000000E+00  0.00000000000E+00  0.14999999963E+04  0.15000000000E+04  0.10566000000E+00 0.  1.
        994   -1    0    0    0    0 -0.00000000000E+00 -0.00000000000E+00  0.11368683772E-12  0.17120000000E+03  0.17120000000E+03 0.  0.
         13    1    1    2    0    0 -0.85812899183E+01 -0.21733250939E+02  0.68613612532E+02  0.72483182338E+02  0.10566000000E+00 0.  1.
        994    1    1    2    0    0  0.80121063930E+01  0.16514926619E+02  0.49671408998E+01  0.17225286395E+03  0.17120000000E+03 0.  0.
        998    1    1    2    0    0  0.56918352537E+00  0.52183243202E+01  0.14264192428E+04  0.14264639537E+04  0.10000000000E+02 0.  1.
</event>
<event>
 5    1  0.1300052E-008  0.3807815E+03  0.7957747E-01  0.3447763E+00
         13   -1    0    0    0    0  0.00000000000E+00  0.00000000000E+00  0.14999999963E+04  0.15000000000E+04  0.10566000000E+00 0. -1.
        994   -1    0    0    0    0 -0.00000000000E+00 -0.00000000000E+00  0.11368683772E-12  0.17120000000E+03  0.17120000000E+03 0.  0.
         13    1    1    2    0    0 -0.93615080783E+01 -0.17137787144E+02  0.49899164451E+02  0.53584320082E+02  0.10566000000E+00 0. -1.
        994    1    1    2    0    0  0.43763713733E+01  0.10586276894E+02  0.41768105360E+01  0.17163364365E+03  0.17120000000E+03 0.  0.
        998    1    1    2    0    0  0.49851367050E+01  0.65515102494E+01  0.14459240213E+04  0.14459820363E+04  0.10000000000E+02 0. -1.
</event>
<event>
 5    1  0.1300052E-008  0.3746627E+03  0.7957747E-01  0.3474733E+00
         13   -1    0    0    0    0  0.00000000000E+00  0.00000000000E+00  0.14999999963E+04  0.15000000000E+04  0.10566000000E+00 0.  1.
        994   -1    0    0    0    0 -0.00000000000E+00 -0.00000000000E+00  0.11368683772E-12  0.17120000000E+03  0.17120000000E+03 0.  0.
         13    1    1    2    0    0  0.13241579685E+02 -0.28221108174E+01  0.10259759122E+02  0.16987570848E+02  0.10566000000E+00 0.  1.
        994    1    1    2    0    0 -0.10895159050E+02  0.49439179966E+01  0.73393359178E+01  0.17177442379E+03  0.17120000000E+03 0.  0.
        998    1    1    2    0    0 -0.23464206352E+01 -0.21218071792E+01  0.14824009012E+04  0.14824380054E+04  0.10000000000E+02 0.  1.
</event>
<event>
 5    1  0.1300052E-008  0.3820931E+03  0.7957747E-01  0.3442095E+00
         13   -1    0    0    0    0  0.00000000000E+00  0.00000000000E+00  0.14999999963E+04  0.15000000000E+04  0.10566000000E+00 0.  1.
        994   -1    0    0    0    0 -0.00000000000E+00 -0.00000000000E+00  0.11368683772E-12  0.17120000000E+03  0.17120000000E+03 0.  0.
         13    1    1    2    0    0 -0.12177801171E+02 -0.14934156917E+02  0.58016299619E+02  0.61132888610E+02  0.10566000000E+00 0.  1.
        994    1    1    2    0    0  0.15776133627E+02  0.93168518568E+01  0.41955583546E+01  0.17222872243E+03  0.17120000000E+03 0.  0.
        998    1    1    2    0    0 -0.35983324566E+01  0.56173050601E+01  0.14377881383E+04  0.14378383890E+04  0.10000000000E+02 0.  1.
</event>
<event>
 5    1  0.1300052E-008  0.3858599E+03  0.7957747E-01  0.3426033E+00
         13   -1    0    0    0    0  0.00000000000E+00  0.00000000000E+00  0.14999999963E+04  0.15000000000E+04  0.10566000000E+00 0. -1.
        994   -1    0    0    0    0 -0.00000000000E+00 -0.00000000000E+00  0.11368683772E-12  0.17120000000E+03  0.17120000000E+03 0.  0.
         13    1    1    2    0    0  0.90710835567E+01  0.64656321044E+01  0.52679894682E+02  0.53844882980E+02  0.10566000000E+00 0. -1.
        994    1    1    2    0    0 -0.65829510377E+01 -0.45106787662E+00  0.13466143889E+01  0.17133240230E+03  0.17120000000E+03 0.  0.
        998    1    1    2    0    0 -0.24881325190E+01 -0.60145642278E+01  0.14459734872E+04  0.14460227147E+04  0.10000000000E+02 0. -1.
</event>
<event>
 5    1  0.1300052E-008  0.3746042E+03  0.7957747E-01  0.3474995E+00
         13   -1    0    0    0    0  0.00000000000E+00  0.00000000000E+00  0.14999999963E+04  0.15000000000E+04  0.10566000000E+00 0. -1.
        994   -1    0    0    0    0 -0.00000000000E+00 -0.00000000000E+00  0.11368683772E-12  0.17120000000E+03  0.17120000000E+03 0.  0.
         13    1    1    2    0    0  0.87272931485E+02 -0.19964842051E+02  0.53023083982E+03  0.53773591488E+03  0.10566000000E+00 0. -1.
        994    1    1    2    0    0 -0.62265459724E+02 -0.51930349841E+00  0.20195999573E+02  0.18328823080E+03  0.17120000000E+03 0.  0.
        998    1    1    2    0    0 -0.25007471761E+02  0.20484145549E+02  0.94957315688E+03  0.95017585432E+03  0.10000000000E+02 0. -1.
</event>
<event>
 5    1  0.1300052E-008  0.3841208E+03  0.7957747E-01  0.3433409E+00
         13   -1    0    0    0    0  0.00000000000E+00  0.00000000000E+00  0.14999999963E+04  0.15000000000E+04  0.10566000000E+00 0.  1.
        994   -1    0    0    0    0 -0.00000000000E+00 -0.00000000000E+00  0.11368683772E-12  0.17120000000E+03  0.17120000000E+03 0.  0.
         13    1    1    2    0    0  0.12585613214E+02 -0.74528871367E+01  0.53051633265E+02  0.55031174281E+02  0.10566000000E+00 0.  1.
        994    1    1    2    0    0 -0.60098709628E-01  0.64406915227E+01  0.22040910088E+01  0.17133529740E+03  0.17120000000E+03 0.  0.
        998    1    1    2    0    0 -0.12525514504E+02  0.10121956141E+01  0.14447442720E+04  0.14448335283E+04  0.10000000000E+02 0.  1.
</event>
<event>
 5    1  0.1300052E-008  0.3850241E+03  0.7957747E-01  0.3429570E+00
         13   -1    0    0    0    0  0.00000000000E+00  0.00000000000E+00  0.14999999963E+04  0.15000000000E+04  0.10566000000E+00 0. -1.
        994   -1    0    0    0    0 -0.00000000000E+00 -0.00000000000E+00  0.11368683772E-12  0.17120000000E+03  0.17120000000E+03 0.  0.
         13    1    1    2    0    0  0.14875332121E+02 -0.12295264651E+02  0.11317310754E+03  0.11480684854E+03  0.10566000000E+00 0. -1.
        994    1    1    2    0    0 -0.81952123882E+01  0.12521655440E+02  0.23549447203E+01  0.17186895917E+03  0.17120000000E+03 0.  0.
        998    1    1    2    0    0 -0.66801197330E+01 -0.22639078959E+00  0.13844719440E+04  0.13845241923E+04  0.10000000000E+02 0. -1.
</event>
<event>
 5    1  0.1300052E-008  0.3856931E+03  0.7957747E-01  0.3426738E+00
         13   -1    0    0    0    0  0.00000000000E+00  0.00000000000E+00  0.14999999963E+04  0.15000000000E+04  0.10566000000E+00 0. -1.
        994   -1    0    0    0    0 -0.00000000000E+00 -0.00000000000E+00  0.11368683772E-12  0.17120000000E+03  0.17120000000E+03 0.  0.
         13    1    1    2    0    0 -0.27824523926E+01 -0.14441489142E+02  0.87759022360E+02  0.88982896219E+02  0.10566000000E+00 0. -1.
        994    1    1    2    0    0  0.32184465151E+01  0.47499520962E+01  0.13944575683E+01  0.17130179495E+03  0.17120000000E+03 0.  0.
        998    1    1    2    0    0 -0.43599412251E+00  0.96915370453E+01  0.14108465164E+04  0.14109153088E+04  0.10000000000E+02 0. -1.
</event>
<event>
 5    1  0.1300052E-008  0.3635073E+03  0.7957747E-01  0.3526273E+00
         13   -1    0    0    0    0  0.00000000000E+00  0.00000000000E+00  0.14999999963E+04  0.15000000000E+04  0.10566000000E+00 0. -1.
        994   -1    0    0    0    0 -0.00000000000E+00 -0.00000000000E+00  0.11368683772E-12  0.17120000000E+03  0.17120000000E+03 0.  0.
         13    1    1    2    0    0 -0.16177889959E+03  0.21430927857E+03  0.98374799976E+03  0.10197357586E+04  0.10566000000E+00 0. -1.
        994    1    1    2    0    0  0.16207133322E+03 -0.20898099001E+03  0.30036558489E+03  0.43528047949E+03  0.17120000000E+03 0.  0.
        998    1    1    2    0    0 -0.29243362169E+00 -0.53282885568E+01  0.21588641163E+03  0.21618376188E+03  0.10000000000E+02 0.  1.
</event>
<event>
 5    1  0.1300052E-008  0.3785015E+03  0.7957747E-01  0.3457709E+00
         13   -1    0    0    0    0  0.00000000000E+00  0.00000000000E+00  0.14999999963E+04  0.15000000000E+04  0.10566000000E+00 0. -1.
        994   -1    0    0    0    0 -0.00000000000E+00 -0.00000000000E+00  0.11368683772E-12  0.17120000000E+03  0.17120000000E+03 0.  0.
         13    1    1    2    0    0 -0.11894413522E+03 -0.59792130192E+02  0.67967132271E+03  0.69258640199E+03  0.10566000000E+00 0. -1.
        994    1    1    2    0    0  0.14992560277E+03  0.45523481976E+02  0.92363206601E+02  0.24978085537E+03  0.17120000000E+03 0.  0.
        998    1    1    2    0    0 -0.30981467547E+02  0.14268648216E+02  0.72796546696E+03  0.72883274264E+03  0.10000000000E+02 0.  1.
</event>
<event>
 5    1  0.1300052E-008  0.3762132E+03  0.7957747E-01  0.3467815E+00
         13   -1    0    0    0    0  0.00000000000E+00  0.00000000000E+00  0.14999999963E+04  0.15000000000E+04  0.10566000000E+00 0. -1.
        994   -1    0    0    0    0 -0.00000000000E+00 -0.00000000000E+00  0.11368683772E-12  0.17120000000E+03  0.17120000000E+03 0.  0.
         13    1    1    2    0    0 -0.21010423415E+01  0.10621151915E+02  0.68801970299E+01  0.12828543258E+02  0.10566000000E+00 0. -1.
        994    1    1    2    0    0  0.37817526961E+01 -0.91122585617E+01  0.63866131768E+01  0.17160292462E+03  0.17120000000E+03 0.  0.
        998    1    1    2    0    0 -0.16807103545E+01 -0.15088933532E+01  0.14867331861E+04  0.14867685321E+04  0.10000000000E+02 0. -1.
</event>
<event>
 5    1  0.1300052E-008  0.3769223E+03  0.7957747E-01  0.3464670E+00
         13   -1    0    0    0    0  0.00000000000E+00  0.00000000000E+00  0.14999999963E+04  0.15000000000E+04  0.10566000000E+00 0.  1.
        994   -1    0    0    0    0 -0.00000000000E+00 -0.00000000000E+00  0.11368683772E-12  0.17120000000E+03  0.17120000000E+03 0.  0.
         13    1    1    2    0    0  0.19211797431E+02 -0.97562782195E+00  0.28359787691E+02  0.34268553107E+02  0.10566000000E+00 0.  1.
        994    1    1    2    0    0 -0.33684484979E+02  0.26056754289E+02  0.11844586046E+02  0.17681440323E+03  0.17120000000E+03 0.  0.
        998    1    1    2    0    0  0.14472687548E+02 -0.25081126467E+02  0.14597956225E+04  0.14601170437E+04  0.10000000000E+02 0.  1.
</event>
<event>
 5    1  0.1300052E-008  0.3849171E+03  0.7957747E-01  0.3430024E+00
         13   -1    0    0    0    0  0.00000000000E+00  0.00000000000E+00  0.14999999963E+04  0.15000000000E+04  0.10566000000E+00 0. -1.
        994   -1    0    0    0    0 -0.00000000000E+00 -0.00000000000E+00  0.11368683772E-12  0.17120000000E+03  0.17120000000E+03 0.  0.
         13    1    1    2    0    0 -0.14798745403E+02 -0.66734015274E+01  0.79318897884E+02  0.80963176068E+02  0.10566000000E+00 0. -1.
        994    1    1    2    0    0  0.12144539741E+02 -0.31940831984E+01  0.21902287043E+01  0.17167390342E+03  0.17120000000E+03 0.  0.
        998    1    1    2    0    0  0.26542056619E+01  0.98674847257E+01  0.14184908697E+04  0.14185629205E+04  0.10000000000E+02 0. -1.
</event>
<event>
 5    1  0.1300052E-008  0.3842369E+03  0.7957747E-01  0.3432915E+00
         13   -1    0    0    0    0  0.00000000000E+00  0.00000000000E+00  0.14999999963E+04  0.15000000000E+04  0.10566000000E+00 0. -1.
        994   -1    0    0    0    0 -0.00000000000E+00 -0.00000000000E+00  0.11368683772E-12  0.17120000000E+03  0.17120000000E+03 0.  0.
         13    1    1    2    0    0 -0.83602541467E+00 -0.13534630870E+02  0.42956808858E+02  0.45046462265E+02  0.10566000000E+00 0. -1.
        994    1    1    2    0    0 -0.76851534115E+01  0.21159551376E+02  0.36820477884E+01  0.17271301536E+03  0.17120000000E+03 0.  0.
        998    1    1    2    0    0  0.85211788262E+01 -0.76249205056E+01  0.14533611396E+04  0.14534405224E+04  0.10000000000E+02 0. -1.
</event>
<event>
 5    1  0.1300052E-008  0.3718815E+03  0.7957747E-01  0.3487288E+00
         13   -1    0    0    0    0  0.00000000000E+00  0.00000000000E+00  0.14999999963E+04  0.15000000000E+04  0.10566000000E+00 0.  1.
        994   -1    0    0    0    0 -0.00000000000E+00 -0.00000000000E+00  0.11368683772E-12  0.17120000000E+03  0.17120000000E+03 0.  0.
         13    1    1    2    0    0  0.26903204761E+02  0.68541013586E+02  0.24105300521E+03  0.25204804196E+03  0.10566000000E+00 0.  1.
        994    1    1    2    0    0 -0.27202160235E+02 -0.89169488466E+02  0.38764780917E+02  0.19875437966E+03  0.17120000000E+03 0.  0.
        998    1    1    2    0    0  0.29895547381E+00  0.20628474880E+02  0.12201822101E+04  0.12203975784E+04  0.10000000000E+02 0.  1.
</event>
<event>
 5    1  0.1300052E-008  0.3739462E+03  0.7957747E-01  0.3477949E+00
         13   -1    0    0    0    0  0.00000000000E+00  0.00000000000E+00  0.14999999963E+04  0.15000000000E+04  0.10566000000E+00 0. -1.
        994   -1    0    0    0    0 -0.00000000000E+00 -0.00000000000E+00  0.11368683772E-12  0.17120000000E+03  0.17120000000E+03 0.  0.
         13    1    1    2    0    0  0.31518134272E+02  0.35190384347E+02  0.15519830945E+03  0.16222910454E+03  0.10566000000E+00 0. -1.
        994    1    1    2    0    0 -0.14374603679E+02 -0.19356690816E+02  0.92064560907E+01  0.17313436847E+03  0.17120000000E+03 0.  0.
        998    1    1    2    0    0 -0.17143530592E+02 -0.15833693531E+02  0.13355952307E+04  0.13358365270E+04  0.10000000000E+02 0. -1.
</event>
<event>
 5    1  0.1300052E-008  0.3729120E+03  0.7957747E-01  0.3482614E+00
         13   -1    0    0    0    0  0.00000000000E+00  0.00000000000E+00  0.14999999963E+04  0.15000000000E+04  0.10566000000E+00 0. -1.
        994   -1    0    0    0    0 -0.00000000000E+00 -0.00000000000E+00  0.11368683772E-12  0.17120000000E+03  0.17120000000E+03 0.  0.
         13    1    1    2    0    0  0.43481741265E+01 -0.14039639589E+02  0.10444423675E+02  0.18030952497E+02  0.10566000000E+00 0. -1.
        994    1    1    2    0    0 -0.19240349165E+01  0.11232995468E+02  0.81996451063E+01  0.17177472537E+03  0.17120000000E+03 0.  0.
        998    1    1    2    0    0 -0.24241392101E+01  0.28066441211E+01  0.14813559275E+04  0.14813943221E+04  0.10000000000E+02 0. -1.
</event>
<event>
 5    1  0.1300052E-008  0.3859131E+03  0.7957747E-01  0.3425809E+00
         13   -1    0    0    0    0  0.00000000000E+00  0.00000000000E+00  0.14999999963E+04  0.15000000000E+04  0.10566000000E+00 0. -1.
        994   -1    0    0    0    0 -0.00000000000E+00 -0.00000000000E+00  0.11368683772E-12  0.17120000000E+03  0.17120000000E+03 0.  0.
         13    1    1    2    0    0  0.80522440168E+01  0.62604638892E+01  0.47566505903E+02  0.48647874462E+02  0.10566000000E+00 0. -1.
        994    1    1    2    0    0  0.53374343479E+01 -0.18853415491E+01  0.12825433449E+01  0.17129835853E+03  0.17120000000E+03 0.  0.
        998    1    1    2    0    0 -0.13389678365E+02 -0.43751223401E+01  0.14511509470E+04  0.14512537670E+04  0.10000000000E+02 0. -1.
</event>
<event>
 5    1  0.1300052E-008  0.3828848E+03  0.7957747E-01  0.3438693E+00
         13   -1    0    0    0    0  0.00000000000E+00  0.00000000000E+00  0.14999999963E+04  0.15000000000E+04  0.10566000000E+00 0.  1.
        994   -1    0    0    0    0 -0.00000000000E+00 -0.00000000000E+00  0.11368683772E-12  0.17120000000E+03  0.17120000000E+03 0.  0.
         13    1    1    2    0    0 -0.24678797644E+02  0.21748833268E+02  0.17111056897E+03  0.17424377400E+03  0.10566000000E+00 0.  1.
        994    1    1    2    0    0  0.27083596275E+02 -0.28604812596E+02  0.78394082858E+01  0.17584838018E+03  0.17120000000E+03 0.  0.
        998    1    1    2    0    0 -0.24047986303E+01  0.68559793284E+01  0.13210500190E+04  0.13211078458E+04  0.10000000000E+02 0.  1.
</event>
<event>
 5    1  0.1300052E-008  0.3839260E+03  0.7957747E-01  0.3434240E+00
         13   -1    0    0    0    0  0.00000000000E+00  0.00000000000E+00  0.14999999963E+04  0.15000000000E+04  0.10566000000E+00 0. -1.
        994   -1    0    0    0    0 -0.00000000000E+00 -0.00000000000E+00  0.11368683772E-12  0.17120000000E+03  0.17120000000E+03 0.  0.
         13    1    1    2    0    0  0.14704449348E+02 -0.49442389684E+01  0.53401947645E+02  0.55609760887E+02  0.10566000000E+00 0. -1.
        994    1    1    2    0    0 -0.17776673893E+02 -0.97038524103E+00  0.32109729745E+01  0.17215313570E+03  0.17120000000E+03 0.  0.
        998    1    1    2    0    0  0.30722245447E+01  0.59146242094E+01  0.14433870757E+04  0.14434371034E+04  0.10000000000E+02 0. -1.
</event>
<event>
 5    1  0.1300052E-008  0.3728859E+03  0.7957747E-01  0.3482732E+00
         13   -1    0    0    0    0  0.00000000000E+00  0.00000000000E+00  0.14999999963E+04  0.15000000000E+04  0.10566000000E+00 0. -1.
        994   -1    0    0    0    0 -0.00000000000E+00 -0.00000000000E+00  0.11368683772E-12  0.17120000000E+03  0.17120000000E+03 0.  0.
         13    1    1    2    0    0  0.34791257716E+02  0.42312728756E+02  0.12827003753E+03  0.13947764093E+03  0.10566000000E+00 0. -1.
        994    1    1    2    0    0 -0.95028257682E+01 -0.27701027575E+01  0.12819128870E+02  0.17196437780E+03  0.17120000000E+03 0.  0.
        998    1    1    2    0    0 -0.25288431948E+02 -0.39542625999E+02  0.13589108299E+04  0.13597579813E+04  0.10000000000E+02 0. -1.
</event>
<event>
 5    1  0.1300052E-008  0.3742115E+03  0.7957747E-01  0.3476757E+00
         13   -1    0    0    0    0  0.00000000000E+00  0.00000000000E+00  0.14999999963E+04  0.15000000000E+04  0.10566000000E+00 0.  1.
        994   -1    0    0    0    0 -0.00000000000E+00 -0.00000000000E+00  0.11368683772E-12  0.17120000000E+03  0.17120000000E+03 0.  0.
         13    1    1    2    0    0 -0.31503529610E+02 -0.30935168742E+02  0.12540798368E+03  0.13295349028E+03  0.10566000000E+00 0.  1.
        994    1    1    2    0    0  0.32408283976E+02  0.28224050199E+02  0.13405094418E+02  0.17701985888E+03  0.17120000000E+03 0.  0.
        998    1    1    2    0    0 -0.90475436651E+00  0.27111185434E+01  0.13611869182E+04  0.13612266508E+04  0.10000000000E+02 0.  1.
</event>
<event>
 5    1  0.1300052E-008  0.3761418E+03  0.7957747E-01  0.3468132E+00
         13   -1    0    0    0    0  0.00000000000E+00  0.00000000000E+00  0.14999999963E+04  0.15000000000E+04  0.10566000000E+00 0.  1.
        994   -1    0    0    0    0 -0.00000000000E+00 -0.00000000000E+00  0.11368683772E-12  0.17120000000E+03  0.17120000000E+03 0.  0.
         13    1    1    2    0    0  0.68733562379E+02  0.13376939316E+02  0.40551186247E+03  0.41151321592E+03  0.10566000000E+00 0.  1.
        994    1    1    2    0    0 -0.36777367258E+02 -0.13434179457E+02  0.11302398996E+02  0.17598362464E+03  0.17120000000E+03 0.  0.
        998    1    1    2    0    0 -0.31956195121E+02  0.57240141285E-01  0.10831857348E+04  0.10837031594E+04  0.10000000000E+02 0.  1.
</event>
<event>
 5    1  0.1300052E-008  0.3849572E+03  0.7957747E-01  0.3429854E+00
         13   -1    0    0    0    0  0.00000000000E+00  0.00000000000E+00  0.14999999963E+04  0.15000000000E+04  0.10566000000E+00 0. -1.
        994   -1    0    0    0    0 -0.00000000000E+00 -0.00000000000E+00  0.11368683772E-12  0.17120000000E+03  0.17120000000E+03 0.  0.
         13    1    1    2    0    0  0.38000819671E+02  0.13670611077E+02  0.34970517663E+02  0.53421869796E+02  0.10566000000E+00 0. -1.
        994    1    1    2    0    0 -0.35450011164E+02 -0.60439548339E+01  0.23865019029E+02  0.17655653999E+03  0.17120000000E+03 0.  0.
        998    1    1    2    0    0 -0.25508085071E+01 -0.76266562429E+01  0.14411644596E+04  0.14412215902E+04  0.10000000000E+02 0. -1.
</event>
<event>
 5    1  0.1300052E-008  0.3838321E+03  0.7957747E-01  0.3434641E+00
         13   -1    0    0    0    0  0.00000000000E+00  0.00000000000E+00  0.14999999963E+04  0.15000000000E+04  0.10566000000E+00 0.  1.
        994   -1    0    0    0    0 -0.00000000000E+00 -0.00000000000E+00  0.11368683772E-12  0.17120000000E+03  0.17120000000E+03 0.  0.
         13    1    1    2    0    0  0.19661808853E+02 -0.94446418677E+01  0.98614892072E+02  0.10099849548E+03  0.10566000000E+00 0.  1.
        994    1    1    2    0    0 -0.29191231604E+02 -0.24463642358E+00  0.50293786605E+01  0.17374384162E+03  0.17120000000E+03 0.  0.
        998    1    1    2    0    0  0.95294227511E+01  0.96892782913E+01  0.13963557255E+04  0.13964576629E+04  0.10000000000E+02 0.  1.
</event>
<event>
 5    1  0.1300052E-008  0.3825819E+03  0.7957747E-01  0.3439993E+00
         13   -1    0    0    0    0  0.00000000000E+00  0.00000000000E+00  0.14999999963E+04  0.15000000000E+04  0.10566000000E+00 0.  1.
        994   -1    0    0    0    0 -0.00000000000E+00 -0.00000000000E+00  0.11368683772E-12  0.17120000000E+03  0.17120000000E+03 0.  0.
         13    1    1    2    0    0  0.11186877526E+02 -0.30153486217E+02  0.15991966891E+03  0.16312170495E+03  0.10566000000E+00 0.  1.
        994    1    1    2    0    0 -0.14479300554E+02  0.32631494810E+02  0.70713617284E+01  0.17502545173E+03  0.17120000000E+03 0.  0.
        998    1    1    2    0    0  0.32924230273E+01 -0.24780085937E+01  0.13330089656E+04  0.13330528433E+04  0.10000000000E+02 0.  1.
</event>
<event>
 5    1  0.1300052E-008  0.3786769E+03  0.7957747E-01  0.3456940E+00
         13   -1    0    0    0    0  0.00000000000E+00  0.00000000000E+00  0.14999999963E+04  0.15000000000E+04  0.10566000000E+00 0. -1.
        994   -1    0    0    0    0 -0.00000000000E+00 -0.00000000000E+00  0.11368683772E-12  0.17120000000E+03  0.17120000000E+03 0.  0.
         13    1    1    2    0    0 -0.19269678356E+02 -0.51050966351E+01  0.40592038389E+02  0.45222862141E+02  0.10566000000E+00 0. -1.
        994    1    1    2    0    0  0.45658316192E+01  0.17442515322E+01  0.48827375129E+01  0.17133934270E+03  0.17120000000E+03 0.  0.
        998    1    1    2    0    0  0.14703846737E+02  0.33608451029E+01  0.14545252204E+04  0.14546377952E+04  0.10000000000E+02 0. -1.
</event>
<event>
 5    1  0.1300052E-008  0.3807723E+03  0.7957747E-01  0.3447803E+00
         13   -1    0    0    0    0  0.00000000000E+00  0.00000000000E+00  0.14999999963E+04  0.15000000000E+04  0.10566000000E+00 0. -1.
        994   -1    0    0    0    0 -0.00000000000E+00 -0.00000000000E+00  0.11368683772E-12  0.17120000000E+03  0.17120000000E+03 0.  0.
         13    1    1    2    0    0 -0.13132082073E+02 -0.13043258953E+02  0.43277170623E+02  0.47069128363E+02  0.10566000000E+00 0. -1.
        994    1    1    2    0    0  0.15431813442E+02  0.11446080086E+02  0.49756967733E+01  0.17234660186E+03  0.17120000000E+03 0.  0.
        998    1    1    2    0    0 -0.22997313690E+01  0.15971788668E+01  0.14517471289E+04  0.14517842698E+04  0.10000000000E+02 0. -1.
</event>
<event>
 5    1  0.1300052E-008  0.4370349E+03  0.7957747E-01  0.3235106E+00
         13   -1    0    0    0    0  0.00000000000E+00  0.00000000000E+00  0.14999999963E+04  0.15000000000E+04  0.10566000000E+00 0.  1.
        994   -1    0    0    0    0 -0.00000000000E+00 -0.00000000000E+00  0.11368683772E-12  0.17120000000E+03  0.17120000000E+03 0.  0.
         13    1    1    2    0    0 -0.45288690173E+02 -0.59095418275E+01  0.55001951793E+00  0.45676053110E+02  0.10566000000E+00 0.  1.
        994    1    1    2    0    0  0.40851429186E+02  0.47384087193E+01  0.59971659323E+02  0.18600357982E+03  0.17120000000E+03 0.  0.
        998    1    1    2    0    0  0.44372609875E+01  0.11711331082E+01  0.14394783174E+04  0.14395203671E+04  0.10000000000E+02 0.  1.
</event>
<event>
 5    1  0.1300052E-008  0.3861844E+03  0.7957747E-01  0.3424664E+00
         13   -1    0    0    0    0  0.00000000000E+00  0.00000000000E+00  0.14999999963E+04  0.15000000000E+04  0.10566000000E+00 0. -1.
        994   -1    0    0    0    0 -0.00000000000E+00 -0.00000000000E+00  0.11368683772E-12  0.17120000000E+03  0.17120000000E+03 0.  0.
         13    1    1    2    0    0 -0.47416216544E+01  0.98105104555E+01  0.58570473789E+02  0.59575503819E+02  0.10566000000E+00 0. -1.
        994    1    1    2    0    0  0.35658985071E+00 -0.58919709500E+01  0.11573862852E+01  0.17130563920E+03  0.17120000000E+03 0.  0.
        998    1    1    2    0    0  0.43850318037E+01 -0.39185395055E+01  0.14402721362E+04  0.14403188570E+04  0.10000000000E+02 0. -1.
</event>
<event>
 5    1  0.1300052E-008  0.3835111E+03  0.7957747E-01  0.3436011E+00
         13   -1    0    0    0    0  0.00000000000E+00  0.00000000000E+00  0.14999999963E+04  0.15000000000E+04  0.10566000000E+00 0. -1.
        994   -1    0    0    0    0 -0.00000000000E+00 -0.00000000000E+00  0.11368683772E-12  0.17120000000E+03  0.17120000000E+03 0.  0.
         13    1    1    2    0    0 -0.31763249099E+01  0.14101936218E+02  0.45736211193E+02  0.47966298829E+02  0.10566000000E+00 0. -1.
        994    1    1    2    0    0 -0.67756543116E+01  0.32421919971E+00  0.25232217341E+01  0.17135291435E+03  0.17120000000E+03 0.  0.
        998    1    1    2    0    0  0.99519792215E+01 -0.14426155417E+02  0.14517405634E+04  0.14518807868E+04  0.10000000000E+02 0. -1.
</event>
<event>
 5    1  0.1300052E-008  0.3839492E+03  0.7957747E-01  0.3434141E+00
         13   -1    0    0    0    0  0.00000000000E+00  0.00000000000E+00  0.14999999963E+04  0.15000000000E+04  0.10566000000E+00 0.  1.
        994   -1    0    0    0    0 -0.00000000000E+00 -0.00000000000E+00  0.11368683772E-12  0.17120000000E+03  0.17120000000E+03 0.  0.
         13    1    1    2    0    0 -0.13072706570E+02  0.10306625837E+01  0.38346661350E+02  0.40526972786E+02  0.10566000000E+00 0.  1.
        994    1    1    2    0    0  0.14996868653E+02 -0.13783376977E+01  0.29015085981E+01  0.17188561498E+03  0.17120000000E+03 0.  0.
        998    1    1    2    0    0 -0.19241620834E+01  0.34767511403E+00  0.14587518263E+04  0.14587874122E+04  0.10000000000E+02 0.  1.
</event>
<event>
 5    1  0.1300052E-008  0.3750823E+03  0.7957747E-01  0.3472855E+00
         13   -1    0    0    0    0  0.00000000000E+00  0.00000000000E+00  0.14999999963E+04  0.15000000000E+04  0.10566000000E+00 0. -1.
        994   -1    0    0    0    0 -0.00000000000E+00 -0.00000000000E+00  0.11368683772E-12  0.17120000000E+03  0.17120000000E+03 0.  0.
         13    1    1    2    0    0 -0.41529104122E+02  0.27713315454E+02  0.18075216231E+03  0.18752079801E+03  0.10566000000E+00 0. -1.
        994    1    1    2    0    0  0.22244937915E+02 -0.27722725150E+02  0.10941855735E+02  0.17519289643E+03  0.17120000000E+03 0.  0.
        998    1    1    2    0    0  0.19284166207E+02  0.94096959538E-02  0.13083059782E+04  0.13084863056E+04  0.10000000000E+02 0. -1.
</event>
<event>
 5    1  0.1300052E-008  0.3818095E+03  0.7957747E-01  0.3443317E+00
         13   -1    0    0    0    0  0.00000000000E+00  0.00000000000E+00  0.14999999963E+04  0.15000000000E+04  0.10566000000E+00 0.  1.
        994   -1    0    0    0    0 -0.00000000000E+00 -0.00000000000E+00  0.11368683772E-12  0.17120000000E+03  0.17120000000E+03 0.  0.
         13    1    1    2    0    0  0.20020598131E+02  0.46111946638E+01  0.64078034155E+02  0.67291107072E+02  0.10566000000E+00 0.  1.
        994    1    1    2    0    0 -0.13843738073E+02 -0.35331264371E+01  0.39011452338E+01  0.17183943378E+03  0.17120000000E+03 0.  0.
        998    1    1    2    0    0 -0.61768600573E+01 -0.10780682267E+01  0.14320208169E+04  0.14320694592E+04  0.10000000000E+02 0.  1.
</event>
<event>
 5    1  0.1300052E-008  0.3760639E+03  0.7957747E-01  0.3468478E+00
         13   -1    0    0    0    0  0.00000000000E+00  0.00000000000E+00  0.14999999963E+04  0.15000000000E+04  0.10566000000E+00 0. -1.
        994   -1    0    0    0    0 -0.00000000000E+00 -0.00000000000E+00  0.11368683772E-12  0.17120000000E+03  0.17120000000E+03 0.  0.
         13    1    1    2    0    0  0.12962913145E+01  0.12764686379E+02  0.10982448796E+02  0.16889136600E+02  0.10566000000E+00 0. -1.
        994    1    1    2    0    0 -0.10889314657E+02  0.44764972138E+01  0.66030543563E+01  0.17173134987E+03  0.17120000000E+03 0.  0.
        998    1    1    2    0    0  0.95930233422E+01 -0.17241183593E+02  0.14824144931E+04  0.14825795135E+04  0.10000000000E+02 0. -1.
</event>
<event>
 5    1  0.1300052E-008  0.3814184E+03  0.7957747E-01  0.3445006E+00
         13   -1    0    0    0    0  0.00000000000E+00  0.00000000000E+00  0.14999999963E+04  0.15000000000E+04  0.10566000000E+00 0. -1.
        994   -1    0    0    0    0 -0.00000000000E+00 -0.00000000000E+00  0.11368683772E-12  0.17120000000E+03  0.17120000000E+03 0.  0.
         13    1    1    2    0    0 -0.89172917934E+01 -0.94491230903E+01  0.23235896094E+02  0.26621834111E+02  0.10566000000E+00 0. -1.
        994    1    1    2    0    0  0.53746547016E+01  0.93148248226E+01  0.38037519984E+01  0.17157960661E+03  0.17120000000E+03 0.  0.
        998    1    1    2    0    0  0.35426370918E+01  0.13429826768E+00  0.14729603482E+04  0.14729985593E+04  0.10000000000E+02 0. -1.
</event>
<event>
 5    1  0.1300052E-008  0.3752041E+03  0.7957747E-01  0.3472311E+00
         13   -1    0    0    0    0  0.00000000000E+00  0.00000000000E+00  0.14999999963E+04  0.15000000000E+04  0.10566000000E+00 0. -1.
        994   -1    0    0    0    0 -0.00000000000E+00 -0.00000000000E+00  0.11368683772E-12  0.17120000000E+03  0.17120000000E+03 0.  0.
         13    1    1    2    0    0 -0.27590622096E+02  0.20662506717E+02  0.36402586771E+02  0.50133233479E+02  0.10566000000E+00 0. -1.
        994    1    1    2    0    0  0.47344262373E+02 -0.40055027305E+01  0.21800223692E+02  0.17900338819E+03  0.17120000000E+03 0.  0.
        998    1    1    2    0    0 -0.19753640277E+02 -0.16657003987E+02  0.14417971858E+04  0.14420633783E+04  0.10000000000E+02 0. -1.
</event>
<event>
 5    1  0.1300052E-008  0.3809563E+03  0.7957747E-01  0.3447005E+00
         13   -1    0    0    0    0  0.00000000000E+00  0.00000000000E+00  0.14999999963E+04  0.15000000000E+04  0.10566000000E+00 0.  1.
        994   -1    0    0    0    0 -0.00000000000E+00 -0.00000000000E+00  0.11368683772E-12  0.17120000000E+03  0.17120000000E+03 0.  0.
         13    1    1    2    0    0 -0.14882176604E+02  0.11015903038E+02  0.49646001180E+02  0.52986469003E+02  0.10566000000E+00 0.  1.
        994    1    1    2    0    0 -0.11705652609E+01  0.13894023965E+02  0.42993105306E+01  0.17182065707E+03  0.17120000000E+03 0.  0.
        998    1    1    2    0    0  0.16052741865E+02 -0.24909927003E+02  0.14460546846E+04  0.14463928739E+04  0.10000000000E+02 0.  1.
</event>
<event>
 5    1  0.1300052E-008  0.3894970E+03  0.7957747E-01  0.3410821E+00
         13   -1    0    0    0    0  0.00000000000E+00  0.00000000000E+00  0.14999999963E+04  0.15000000000E+04  0.10566000000E+00 0.  1.
        994   -1    0    0    0    0 -0.00000000000E+00 -0.00000000000E+00  0.11368683772E-12  0.17120000000E+03  0.17120000000E+03 0.  0.
         13    1    1    2    0    0  0.30672978855E+02  0.34311168906E+02  0.35732386219E+02  0.58265792129E+02  0.10566000000E+00 0.  1.
        994    1    1    2    0    0 -0.92863646795E+02 -0.26513752189E+02  0.57587395530E+02  0.20482281141E+03  0.17120000000E+03 0.  0.
        998    1    1    2    0    0  0.62190667940E+02 -0.77974167170E+01  0.14066802145E+04  0.14081113965E+04  0.10000000000E+02 0.  1.
</event>
<event>
 5    1  0.2229797E-008  0.3863963E+03  0.7957747E-01  0.3423772E+00
         13   -1    0    0    0    0  0.00000000000E+00  0.00000000000E+00  0.14999999963E+04  0.15000000000E+04  0.10566000000E+00 0. -1.
        994   -1    0    0    0    0 -0.00000000000E+00 -0.00000000000E+00  0.11368683772E-12  0.17120000000E+03  0.17120000000E+03 0.  0.
         13    1    1    2    0    0  0.10191444886E+02 -0.99192691204E+00  0.54677779154E+02  0.55628411492E+02  0.10566000000E+00 0. -1.
        994    1    1    2    0    0 -0.12589567761E+02 -0.21173900350E+01  0.14722446110E+01  0.17168164742E+03  0.17120000000E+03 0.  0.
        998    1    1    2    0    0  0.23981228752E+01  0.31093169470E+01  0.14438499725E+04  0.14438899411E+04  0.10000000000E+02 0. -1.
</event>
<event>
 5    1  0.1300052E-008  0.3684175E+03  0.7957747E-01  0.3503196E+00
         13   -1    0    0    0    0  0.00000000000E+00  0.00000000000E+00  0.14999999963E+04  0.15000000000E+04  0.10566000000E+00 0. -1.
        994   -1    0    0    0    0 -0.00000000000E+00 -0.00000000000E+00  0.11368683772E-12  0.17120000000E+03  0.17120000000E+03 0.  0.
         13    1    1    2    0    0  0.52475179246E+02 -0.45148279263E+02  0.17875167043E+03  0.19168772105E+03  0.10566000000E+00 0. -1.
        994    1    1    2    0    0 -0.81816895771E+02  0.54992230918E+02  0.44697798432E+02  0.20254748352E+03  0.17120000000E+03 0.  0.
        998    1    1    2    0    0  0.29341716525E+02 -0.98439516552E+01  0.12765505274E+04  0.12769647954E+04  0.10000000000E+02 0. -1.
</event>
<event>
 5    1  0.1300052E-008  0.3684715E+03  0.7957747E-01  0.3502945E+00
         13   -1    0    0    0    0  0.00000000000E+00  0.00000000000E+00  0.14999999963E+04  0.15000000000E+04  0.10566000000E+00 0.  1.
        994   -1    0    0    0    0 -0.00000000000E+00 -0.00000000000E+00  0.11368683772E-12  0.17120000000E+03  0.17120000000E+03 0.  0.
         13    1    1    2    0    0 -0.23407079178E+02 -0.14645513129E+03  0.68168281464E+03  0.69763060983E+03  0.10566000000E+00 0.  1.
        994    1    1    2    0    0  0.81711690181E+02  0.12890022626E+03  0.96016316033E+02  0.24863757074E+03  0.17120000000E+03 0.  0.
        998    1    1    2    0    0 -0.58304611003E+02  0.17554905035E+02  0.72230086561E+03  0.72493181942E+03  0.10000000000E+02 0.  1.
</event>
<event>
 5    1  0.1300052E-008  0.3784096E+03  0.7957747E-01  0.3458113E+00
         13   -1    0    0    0    0  0.00000000000E+00  0.00000000000E+00  0.14999999963E+04  0.15000000000E+04  0.10566000000E+00 0.  1.
        994   -1    0    0    0    0 -0.00000000000E+00 -0.00000000000E+00  0.11368683772E-12  0.17120000000E+03  0.17120000000E+03 0.  0.
         13    1    1    2    0    0  0.13983177441E+02  0.33020979109E+01  0.19268672416E+02  0.24035931491E+02  0.10566000000E+00 0.  1.
        994    1    1    2    0    0 -0.16721890877E+01  0.52949593185E+01  0.50417368338E+01  0.17136420840E+03  0.17120000000E+03 0.  0.
        998    1    1    2    0    0 -0.12310988354E+02 -0.85970572295E+01  0.14756895870E+04  0.14757998601E+04  0.10000000000E+02 0.  1.
</event>
<event>
 5    1  0.1300052E-008  0.3854843E+03  0.7957747E-01  0.3427621E+00
         13   -1    0    0    0    0  0.00000000000E+00  0.00000000000E+00  0.14999999963E+04  0.15000000000E+04  0.10566000000E+00 0. -1.
        994   -1    0    0    0    0 -0.00000000000E+00 -0.00000000000E+00  0.11368683772E-12  0.17120000000E+03  0.17120000000E+03 0.  0.
         13    1    1    2    0    0 -0.57994980248E+01  0.10920948516E+02  0.59568641608E+02  0.60838602226E+02  0.10566000000E+00 0. -1.
        994    1    1    2    0    0  0.39059830083E+01  0.54874859625E+01  0.15388658308E+01  0.17133936300E+03  0.17120000000E+03 0.  0.
        998    1    1    2    0    0  0.18935150166E+01 -0.16408434479E+02  0.14388924888E+04  0.14390220348E+04  0.10000000000E+02 0. -1.
</event>
<event>
 5    1  0.1300052E-008  0.4120956E+03  0.7957747E-01  0.3322303E+00
         13   -1    0    0    0    0  0.00000000000E+00  0.00000000000E+00  0.14999999963E+04  0.15000000000E+04  0.10566000000E+00 0.  1.
        994   -1    0    0    0    0 -0.00000000000E+00 -0.00000000000E+00  0.11368683772E-12  0.17120000000E+03  0.17120000000E+03 0.  0.
         13    1    1    2    0    0 -0.79467481877E+02 -0.47625520018E+00  0.79931980931E+02  0.11271397533E+03  0.10566000000E+00 0.  1.
        994    1    1    2    0    0  0.56716164747E+02  0.22070623920E+01  0.48606622980E+02  0.18679838935E+03  0.17120000000E+03 0.  0.
        998    1    1    2    0    0  0.22751317129E+02 -0.17308071918E+01  0.13714613924E+04  0.13716876353E+04  0.10000000000E+02 0.  1.
</event>
<event>
 5    1  0.1300052E-008  0.3824540E+03  0.7957747E-01  0.3440542E+00
         13   -1    0    0    0    0  0.00000000000E+00  0.00000000000E+00  0.14999999963E+04  0.15000000000E+04  0.10566000000E+00 0.  1.
        994   -1    0    0    0    0 -0.00000000000E+00 -0.00000000000E+00  0.11368683772E-12  0.17120000000E+03  0.17120000000E+03 0.  0.
         13    1    1    2    0    0  0.10975994803E+02  0.69502055803E+01  0.26104422003E+02  0.29158700789E+02  0.10566000000E+00 0.  1.
        994    1    1    2    0    0 -0.16492493436E+02 -0.31208232652E+02  0.70421092343E+01  0.17494281188E+03  0.17120000000E+03 0.  0.
        998    1    1    2    0    0  0.55164986320E+01  0.24258027072E+02  0.14668534650E+04  0.14670984873E+04  0.10000000000E+02 0.  1.
</event>
<event>
 5    1  0.1300052E-008  0.3822103E+03  0.7957747E-01  0.3441591E+00
         13   -1    0    0    0    0  0.00000000000E+00  0.00000000000E+00  0.14999999963E+04  0.15000000000E+04  0.10566000000E+00 0.  1.
        994   -1    0    0    0    0 -0.00000000000E+00 -0.00000000000E+00  0.11368683772E-12  0.17120000000E+03  0.17120000000E+03 0.  0.
         13    1    1    2    0    0 -0.19096684313E+02  0.21084138491E+02  0.12202398650E+03  0.12529600430E+03  0.10566000000E+00 0.  1.
        994    1    1    2    0    0  0.21112885376E+02 -0.21904265279E+02  0.60992424419E+01  0.17398905576E+03  0.17120000000E+03 0.  0.
        998    1    1    2    0    0 -0.20162010631E+01  0.82012678721E+00  0.13718767673E+04  0.13719149399E+04  0.10000000000E+02 0.  0.
</event>
<event>
 5    1  0.1300052E-008  0.3783669E+03  0.7957747E-01  0.3458300E+00
         13   -1    0    0    0    0  0.00000000000E+00  0.00000000000E+00  0.14999999963E+04  0.15000000000E+04  0.10566000000E+00 0. -1.
        994   -1    0    0    0    0 -0.00000000000E+00 -0.00000000000E+00  0.11368683772E-12  0.17120000000E+03  0.17120000000E+03 0.  0.
         13    1    1    2    0    0 -0.13214853478E+02 -0.39246484282E+01  0.16709506133E+02  0.21662270818E+02  0.10566000000E+00 0. -1.
        994    1    1    2    0    0  0.17891072996E+02  0.36905889821E+00  0.60368129663E+01  0.17223852591E+03  0.17120000000E+03 0.  0.
        998    1    1    2    0    0 -0.46762195180E+01  0.35555895300E+01  0.14772536772E+04  0.14772992033E+04  0.10000000000E+02 0. -1.
</event>
<event>
 5    1  0.1300052E-008  0.3855790E+03  0.7957747E-01  0.3427220E+00
         13   -1    0    0    0    0  0.00000000000E+00  0.00000000000E+00  0.14999999963E+04  0.15000000000E+04  0.10566000000E+00 0.  1.
        994   -1    0    0    0    0 -0.00000000000E+00 -0.00000000000E+00  0.11368683772E-12  0.17120000000E+03  0.17120000000E+03 0.  0.
         13    1    1    2    0    0  0.50162790809E+01  0.13187425647E+02  0.73700694984E+02  0.75039155486E+02  0.10566000000E+00 0.  1.
        994    1    1    2    0    0 -0.48443734954E+01 -0.97684129955E+01  0.17332978557E+01  0.17155562995E+03  0.17120000000E+03 0.  0.
        998    1    1    2    0    0 -0.17190558548E+00 -0.34190126511E+01  0.14245660034E+04  0.14246052146E+04  0.10000000000E+02 0.  1.
</event>
<event>
 5    1  0.1300052E-008  0.3842397E+03  0.7957747E-01  0.3432903E+00
         13   -1    0    0    0    0  0.00000000000E+00  0.00000000000E+00  0.14999999963E+04  0.15000000000E+04  0.10566000000E+00 0. -1.
        994   -1    0    0    0    0 -0.00000000000E+00 -0.00000000000E+00  0.11368683772E-12  0.17120000000E+03  0.17120000000E+03 0.  0.
         13    1    1    2    0    0 -0.45040110294E+01 -0.13322526043E+02  0.50525972207E+02  0.52446742959E+02  0.10566000000E+00 0. -1.
        994    1    1    2    0    0  0.87126688210E+01  0.85817495032E-01  0.22584218059E+01  0.17143645596E+03  0.17120000000E+03 0.  0.
        998    1    1    2    0    0 -0.42086577916E+01  0.13236708548E+02  0.14472156023E+04  0.14473168011E+04  0.10000000000E+02 0. -1.
</event>
<event>
 5    1  0.1300052E-008  0.3771935E+03  0.7957747E-01  0.3463470E+00
         13   -1    0    0    0    0  0.00000000000E+00  0.00000000000E+00  0.14999999963E+04  0.15000000000E+04  0.10566000000E+00 0. -1.
        994   -1    0    0    0    0 -0.00000000000E+00 -0.00000000000E+00  0.11368683772E-12  0.17120000000E+03  0.17120000000E+03 0.  0.
         13    1    1    2    0    0 -0.37722804123E+02 -0.35499660083E+02  0.27900187324E+03  0.28376978742E+03  0.10566000000E+00 0. -1.
        994    1    1    2    0    0  0.47408406115E+01  0.10549037338E+02  0.60080387252E+01  0.17169535313E+03  0.17120000000E+03 0.  0.
        998    1    1    2    0    0  0.32981963511E+02  0.24950622745E+02  0.12149900843E+04  0.12157348594E+04  0.10000000000E+02 0. -1.
</event>
<event>
 5    1  0.1300052E-008  0.3826955E+03  0.7957747E-01  0.3439505E+00
         13   -1    0    0    0    0  0.00000000000E+00  0.00000000000E+00  0.14999999963E+04  0.15000000000E+04  0.10566000000E+00 0.  1.
        994   -1    0    0    0    0 -0.00000000000E+00 -0.00000000000E+00  0.11368683772E-12  0.17120000000E+03  0.17120000000E+03 0.  0.
         13    1    1    2    0    0  0.13188696228E+02 -0.17375289054E+02  0.79155758828E+02  0.82106563061E+02  0.10566000000E+00 0.  1.
        994    1    1    2    0    0 -0.13914493331E+02  0.22637439660E+02  0.51216081775E+01  0.17332552515E+03  0.17120000000E+03 0.  0.
        998    1    1    2    0    0  0.72579710284E+00 -0.52621506062E+01  0.14157226293E+04  0.14157679118E+04  0.10000000000E+02 0.  1.
</event>
<event>
 5    1  0.1479590E-008  0.3859142E+03  0.7957747E-01  0.3425804E+00
         13   -1    0    0    0    0  0.00000000000E+00  0.00000000000E+00  0.14999999963E+04  0.15000000000E+04  0.10566000000E+00 0.  1.
        994   -1    0    0    0    0 -0.00000000000E+00 -0.00000000000E+00  0.11368683772E-12  0.17120000000E+03  0.17120000000E+03 0.  0.
         13    1    1    2    0    0  0.30367480938E+01 -0.10567070969E+02  0.59174476719E+02  0.60187329953E+02  0.10566000000E+00 0.  1.
        994    1    1    2    0    0 -0.23042154374E+02 -0.16678500353E+02  0.38344568629E+01  0.17358933237E+03  0.17120000000E+03 0.  0.
        998    1    1    2    0    0  0.20005406280E+02  0.27245571322E+02  0.14369910627E+04  0.14374233377E+04  0.10000000000E+02 0.  1.
</event>
<event>
 5    1  0.1300052E-008  0.3812292E+03  0.7957747E-01  0.3445824E+00
         13   -1    0    0    0    0  0.00000000000E+00  0.00000000000E+00  0.14999999963E+04  0.15000000000E+04  0.10566000000E+00 0. -1.
        994   -1    0    0    0    0 -0.00000000000E+00 -0.00000000000E+00  0.11368683772E-12  0.17120000000E+03  0.17120000000E+03 0.  0.
         13    1    1    2    0    0 -0.11110333154E+02  0.26860854687E+01  0.17080674869E+02  0.20552741324E+02  0.10566000000E+00 0. -1.
        994    1    1    2    0    0  0.95989726667E+01  0.13984543156E+00  0.38208503287E+01  0.17151151195E+03  0.17120000000E+03 0.  0.
        998    1    1    2    0    0  0.15113604877E+01 -0.28259309003E+01  0.14790984711E+04  0.14791357467E+04  0.10000000000E+02 0. -1.
</event>
<event>
 5    1  0.1300052E-008  0.3852500E+03  0.7957747E-01  0.3428612E+00
         13   -1    0    0    0    0  0.00000000000E+00  0.00000000000E+00  0.14999999963E+04  0.15000000000E+04  0.10566000000E+00 0. -1.
        994   -1    0    0    0    0 -0.00000000000E+00 -0.00000000000E+00  0.11368683772E-12  0.17120000000E+03  0.17120000000E+03 0.  0.
         13    1    1    2    0    0  0.16760414937E+02 -0.56884023626E+01  0.99289513613E+02  0.10085478723E+03  0.10566000000E+00 0. -1.
        994    1    1    2    0    0 -0.15719537177E+02  0.77607596829E+01  0.25165971849E+01  0.17211364415E+03  0.17120000000E+03 0.  0.
        998    1    1    2    0    0 -0.10408777606E+01 -0.20723573203E+01  0.13981938855E+04  0.13982315686E+04  0.10000000000E+02 0. -1.
</event>
<event>
 5    1  0.1300052E-008  0.3856875E+03  0.7957747E-01  0.3426762E+00
         13   -1    0    0    0    0  0.00000000000E+00  0.00000000000E+00  0.14999999963E+04  0.15000000000E+04  0.10566000000E+00 0.  1.
        994   -1    0    0    0    0 -0.00000000000E+00 -0.00000000000E+00  0.11368683772E-12  0.17120000000E+03  0.17120000000E+03 0.  0.
         13    1    1    2    0    0 -0.48872069416E+01  0.13247896415E+02  0.84367839144E+02  0.85541422696E+02  0.10566000000E+00 0.  1.
        994    1    1    2    0    0 -0.17523858219E+02 -0.65976877540E+01  0.24405321107E+01  0.17223823991E+03  0.17120000000E+03 0.  0.
        998    1    1    2    0    0  0.22411065161E+02 -0.66502086607E+01  0.14131916250E+04  0.14134203374E+04  0.10000000000E+02 0.  1.
</event>
<event>
 5    1  0.1300052E-008  0.3830307E+03  0.7957747E-01  0.3438067E+00
         13   -1    0    0    0    0  0.00000000000E+00  0.00000000000E+00  0.14999999963E+04  0.15000000000E+04  0.10566000000E+00 0.  1.
        994   -1    0    0    0    0 -0.00000000000E+00 -0.00000000000E+00  0.11368683772E-12  0.17120000000E+03  0.17120000000E+03 0.  0.
         13    1    1    2    0    0  0.37866754726E+01 -0.14095869418E+02  0.40930618731E+02  0.43455254682E+02  0.10566000000E+00 0.  1.
        994    1    1    2    0    0 -0.13000091103E+01  0.38922247494E+01  0.26667644223E+01  0.17126993627E+03  0.17120000000E+03 0.  0.
        998    1    1    2    0    0 -0.24866663622E+01  0.10203644668E+02  0.14564026131E+04  0.14564748090E+04  0.10000000000E+02 0.  1.
</event>
<event>
 5    1  0.1300052E-008  0.3822409E+03  0.7957747E-01  0.3441459E+00
         13   -1    0    0    0    0  0.00000000000E+00  0.00000000000E+00  0.14999999963E+04  0.15000000000E+04  0.10566000000E+00 0.  1.
        994   -1    0    0    0    0 -0.00000000000E+00 -0.00000000000E+00  0.11368683772E-12  0.17120000000E+03  0.17120000000E+03 0.  0.
         13    1    1    2    0    0  0.33583233782E+01 -0.19755758550E+02  0.64606079460E+02  0.67642627086E+02  0.10566000000E+00 0.  1.
        994    1    1    2    0    0  0.69798896642E+01  0.18241930322E+02  0.42731519210E+01  0.17236353068E+03  0.17120000000E+03 0.  0.
        998    1    1    2    0    0 -0.10338213042E+02  0.15138282285E+01  0.14311207649E+04  0.14311938422E+04  0.10000000000E+02 0.  1.
</event>
<event>
 5    1  0.1300052E-008  0.3750814E+03  0.7957747E-01  0.3472859E+00
         13   -1    0    0    0    0  0.00000000000E+00  0.00000000000E+00  0.14999999963E+04  0.15000000000E+04  0.10566000000E+00 0. -1.
        994   -1    0    0    0    0 -0.00000000000E+00 -0.00000000000E+00  0.11368683772E-12  0.17120000000E+03  0.17120000000E+03 0.  0.
         13    1    1    2    0    0  0.12012749109E+03 -0.22753316070E+02  0.44851777411E+03  0.46488335351E+03  0.10566000000E+00 0. -1.
        994    1    1    2    0    0 -0.93567202132E+02  0.35149996897E+02  0.50124912585E+02  0.20448053809E+03  0.17120000000E+03 0.  0.
        998    1    1    2    0    0 -0.26560288962E+02 -0.12396680827E+02  0.10013573096E+04  0.10018361084E+04  0.10000000000E+02 0. -1.
</event>
<event>
 5    1  0.1300052E-008  0.3816622E+03  0.7957747E-01  0.3443952E+00
         13   -1    0    0    0    0  0.00000000000E+00  0.00000000000E+00  0.14999999963E+04  0.15000000000E+04  0.10566000000E+00 0. -1.
        994   -1    0    0    0    0 -0.00000000000E+00 -0.00000000000E+00  0.11368683772E-12  0.17120000000E+03  0.17120000000E+03 0.  0.
         13    1    1    2    0    0 -0.12306841938E+02 -0.22050579142E+01  0.22235871752E+02  0.25510111633E+02  0.10566000000E+00 0. -1.
        994    1    1    2    0    0  0.11751859138E+02 -0.12122331536E+01  0.37605772687E+01  0.17164835462E+03  0.17120000000E+03 0.  0.
        998    1    1    2    0    0  0.55498279924E+00  0.34172910678E+01  0.14740035473E+04  0.14740415337E+04  0.10000000000E+02 0. -1.
</event>
<event>
 5    1  0.1300052E-008  0.3773115E+03  0.7957747E-01  0.3462949E+00
         13   -1    0    0    0    0  0.00000000000E+00  0.00000000000E+00  0.14999999963E+04  0.15000000000E+04  0.10566000000E+00 0. -1.
        994   -1    0    0    0    0 -0.00000000000E+00 -0.00000000000E+00  0.11368683772E-12  0.17120000000E+03  0.17120000000E+03 0.  0.
         13    1    1    2    0    0 -0.28059087051E+02  0.21829900659E+03  0.99708879609E+03  0.10210914979E+04  0.10566000000E+00 0. -1.
        994    1    1    2    0    0  0.37219059018E+02 -0.21607907232E+03  0.18995273172E+03  0.33684848840E+03  0.17120000000E+03 0.  0.
        998    1    1    2    0    0 -0.91599719667E+01 -0.22199342702E+01  0.31295846847E+03  0.31326001370E+03  0.10000000000E+02 0.  0.
</event>
<event>
 5    1  0.1300052E-008  0.3729821E+03  0.7957747E-01  0.3482297E+00
         13   -1    0    0    0    0  0.00000000000E+00  0.00000000000E+00  0.14999999963E+04  0.15000000000E+04  0.10566000000E+00 0.  1.
        994   -1    0    0    0    0 -0.00000000000E+00 -0.00000000000E+00  0.11368683772E-12  0.17120000000E+03  0.17120000000E+03 0.  0.
         13    1    1    2    0    0  0.10146275513E+02  0.12194546951E+02  0.13125957614E+02  0.20590187212E+02  0.10566000000E+00 0.  1.
        994    1    1    2    0    0 -0.62828794085E+01  0.63276435355E+00  0.78551067429E+01  0.17149640715E+03  0.17120000000E+03 0.  0.
        998    1    1    2    0    0 -0.38633961049E+01 -0.12827311304E+02  0.14790189319E+04  0.14791134056E+04  0.10000000000E+02 0.  1.
</event>
<event>
 5    1  0.1300052E-008  0.3860747E+03  0.7957747E-01  0.3425127E+00
         13   -1    0    0    0    0  0.00000000000E+00  0.00000000000E+00  0.14999999963E+04  0.15000000000E+04  0.10566000000E+00 0. -1.
        994   -1    0    0    0    0 -0.00000000000E+00 -0.00000000000E+00  0.11368683772E-12  0.17120000000E+03  0.17120000000E+03 0.  0.
         13    1    1    2    0    0  0.65764374385E+01  0.81860655019E+01  0.52002579986E+02  0.53052244882E+02  0.10566000000E+00 0. -1.
        994    1    1    2    0    0 -0.60147790005E+00 -0.45631987100E+01  0.11669268654E+01  0.17126583511E+03  0.17120000000E+03 0.  0.
        998    1    1    2    0    0 -0.59749595385E+01 -0.36228667919E+01  0.14468304894E+04  0.14468819200E+04  0.10000000000E+02 0. -1.
</event>
<event>
 5    1  0.1300052E-008  0.3804828E+03  0.7957747E-01  0.3449059E+00
         13   -1    0    0    0    0  0.00000000000E+00  0.00000000000E+00  0.14999999963E+04  0.15000000000E+04  0.10566000000E+00 0. -1.
        994   -1    0    0    0    0 -0.00000000000E+00 -0.00000000000E+00  0.11368683772E-12  0.17120000000E+03  0.17120000000E+03 0.  0.
         13    1    1    2    0    0  0.27825058453E+02  0.11159190739E+02  0.10952792608E+03  0.11355676629E+03  0.10566000000E+00 0. -1.
        994    1    1    2    0    0 -0.28585937106E+02  0.18732027168E+01  0.66335005160E+01  0.17370696019E+03  0.17120000000E+03 0.  0.
        998    1    1    2    0    0  0.76087865268E+00 -0.13032393456E+02  0.13838385697E+04  0.13839362735E+04  0.10000000000E+02 0. -1.
</event>
<event>
 5    1  0.1300052E-008  0.3854219E+03  0.7957747E-01  0.3427885E+00
         13   -1    0    0    0    0  0.00000000000E+00  0.00000000000E+00  0.14999999963E+04  0.15000000000E+04  0.10566000000E+00 0.  1.
        994   -1    0    0    0    0 -0.00000000000E+00 -0.00000000000E+00  0.11368683772E-12  0.17120000000E+03  0.17120000000E+03 0.  0.
         13    1    1    2    0    0 -0.14349757149E+01  0.14071618485E+02  0.71934183670E+02  0.73311714933E+02  0.10566000000E+00 0.  1.
        994    1    1    2    0    0  0.67204866412E+01 -0.63087802716E+01  0.16998919603E+01  0.17145639470E+03  0.17120000000E+03 0.  0.
        998    1    1    2    0    0 -0.52855109263E+01 -0.77628382137E+01  0.14263659206E+04  0.14264318904E+04  0.10000000000E+02 0.  1.
</event>
<event>
 5    1  0.1300052E-008  0.3851291E+03  0.7957747E-01  0.3429125E+00
         13   -1    0    0    0    0  0.00000000000E+00  0.00000000000E+00  0.14999999963E+04  0.15000000000E+04  0.10566000000E+00 0. -1.
        994   -1    0    0    0    0 -0.00000000000E+00 -0.00000000000E+00  0.11368683772E-12  0.17120000000E+03  0.17120000000E+03 0.  0.
         13    1    1    2    0    0 -0.25676645189E+01  0.13450760056E+02  0.61430932921E+02  0.62938752218E+02  0.10566000000E+00 0. -1.
        994    1    1    2    0    0  0.14109818834E+01 -0.49937182138E+01  0.16545825184E+01  0.17128661867E+03  0.17120000000E+03 0.  0.
        998    1    1    2    0    0  0.11566826355E+01 -0.84570418424E+01  0.14369144808E+04  0.14369746291E+04  0.10000000000E+02 0. -1.
</event>
<event>
 5    1  0.1300052E-008  0.3839426E+03  0.7957747E-01  0.3434169E+00
         13   -1    0    0    0    0  0.00000000000E+00  0.00000000000E+00  0.14999999963E+04  0.15000000000E+04  0.10566000000E+00 0.  1.
        994   -1    0    0    0    0 -0.00000000000E+00 -0.00000000000E+00  0.11368683772E-12  0.17120000000E+03  0.17120000000E+03 0.  0.
         13    1    1    2    0    0 -0.38555674644E+01 -0.14550496436E+02  0.50346665683E+02  0.52548836870E+02  0.10566000000E+00 0.  1.
        994    1    1    2    0    0  0.18969986965E+01  0.16867979529E+02  0.31074108468E+01  0.17206749646E+03  0.17120000000E+03 0.  0.
        998    1    1    2    0    0  0.19585687679E+01 -0.23174830927E+01  0.14465459197E+04  0.14465836667E+04  0.10000000000E+02 0.  1.
</event>
<event>
 5    1  0.1300052E-008  0.3844789E+03  0.7957747E-01  0.3431885E+00
         13   -1    0    0    0    0  0.00000000000E+00  0.00000000000E+00  0.14999999963E+04  0.15000000000E+04  0.10566000000E+00 0. -1.
        994   -1    0    0    0    0 -0.00000000000E+00 -0.00000000000E+00  0.11368683772E-12  0.17120000000E+03  0.17120000000E+03 0.  0.
         13    1    1    2    0    0 -0.14020951701E+02 -0.12006292215E+02  0.92027680157E+02  0.93860765064E+02  0.10566000000E+00 0. -1.
        994    1    1    2    0    0  0.10588367592E+01  0.12097936225E+02  0.23750394882E+01  0.17164661957E+03  0.17120000000E+03 0.  0.
        998    1    1    2    0    0  0.12962114942E+02 -0.91644009317E-01  0.14055972766E+04  0.14056926154E+04  0.10000000000E+02 0. -1.
</event>
<event>
 5    1  0.1300052E-008  0.3803136E+03  0.7957747E-01  0.3449794E+00
         13   -1    0    0    0    0  0.00000000000E+00  0.00000000000E+00  0.14999999963E+04  0.15000000000E+04  0.10566000000E+00 0. -1.
        994   -1    0    0    0    0 -0.00000000000E+00 -0.00000000000E+00  0.11368683772E-12  0.17120000000E+03  0.17120000000E+03 0.  0.
         13    1    1    2    0    0  0.33131150590E+02 -0.21689176834E+02  0.16156220019E+03  0.16634436939E+03  0.10566000000E+00 0. -1.
        994    1    1    2    0    0 -0.44918207714E+02  0.27605774656E+02  0.13314114223E+02  0.17962858853E+03  0.17120000000E+03 0.  0.
        998    1    1    2    0    0  0.11787057125E+02 -0.59165978218E+01  0.13251236819E+04  0.13252270421E+04  0.10000000000E+02 0. -1.
</event>
<event>
 5    1  0.1300052E-008  0.3769817E+03  0.7957747E-01  0.3464407E+00
         13   -1    0    0    0    0  0.00000000000E+00  0.00000000000E+00  0.14999999963E+04  0.15000000000E+04  0.10566000000E+00 0.  1.
        994   -1    0    0    0    0 -0.00000000000E+00 -0.00000000000E+00  0.11368683772E-12  0.17120000000E+03  0.17120000000E+03 0.  0.
         13    1    1    2    0    0  0.53362138498E+02 -0.10558852038E+03  0.37745064277E+03  0.39555714171E+03  0.10566000000E+00 0.  1.
        994    1    1    2    0    0 -0.56301240471E+02  0.89531071689E+02  0.55943751768E+02  0.20886547306E+03  0.17120000000E+03 0.  0.
        998    1    1    2    0    0  0.29391019734E+01  0.16057448692E+02  0.10666056017E+04  0.10667773852E+04  0.10000000000E+02 0.  0.
</event>
<event>
 5    1  0.1300052E-008  0.3745289E+03  0.7957747E-01  0.3475332E+00
         13   -1    0    0    0    0  0.00000000000E+00  0.00000000000E+00  0.14999999963E+04  0.15000000000E+04  0.10566000000E+00 0.  1.
        994   -1    0    0    0    0 -0.00000000000E+00 -0.00000000000E+00  0.11368683772E-12  0.17120000000E+03  0.17120000000E+03 0.  0.
         13    1    1    2    0    0  0.34343805950E+02  0.29293932455E+02  0.70169266550E+02  0.83434816581E+02  0.10566000000E+00 0.  1.
        994    1    1    2    0    0 -0.27778124802E+02 -0.24013448803E+02  0.18158621041E+02  0.17603251251E+03  0.17120000000E+03 0.  0.
        998    1    1    2    0    0 -0.65656811476E+01 -0.52804836517E+01  0.14116721087E+04  0.14117326709E+04  0.10000000000E+02 0.  1.
</event>
<event>
 5    1  0.1300052E-008  0.3863191E+03  0.7957747E-01  0.3424097E+00
         13   -1    0    0    0    0  0.00000000000E+00  0.00000000000E+00  0.14999999963E+04  0.15000000000E+04  0.10566000000E+00 0. -1.
        994   -1    0    0    0    0 -0.00000000000E+00 -0.00000000000E+00  0.11368683772E-12  0.17120000000E+03  0.17120000000E+03 0.  0.
         13    1    1    2    0    0 -0.44307993059E+02 -0.22966190298E+02  0.52810876928E+02  0.72661159031E+02  0.10566000000E+00 0. -1.
        994    1    1    2    0    0  0.44474781368E+02  0.35680029356E+02  0.32004238483E+02  0.18326151247E+03  0.17120000000E+03 0.  0.
        998    1    1    2    0    0 -0.16678830836E+00 -0.12713839058E+02  0.14151848809E+04  0.14152773285E+04  0.10000000000E+02 0. -1.
</event>
<event>
 5    1  0.1300052E-008  0.3765890E+03  0.7957747E-01  0.3466146E+00
         13   -1    0    0    0    0  0.00000000000E+00  0.00000000000E+00  0.14999999963E+04  0.15000000000E+04  0.10566000000E+00 0. -1.
        994   -1    0    0    0    0 -0.00000000000E+00 -0.00000000000E+00  0.11368683772E-12  0.17120000000E+03  0.17120000000E+03 0.  0.
         13    1    1    2    0    0 -0.63753598972E+02  0.42622180968E+02  0.45282026856E+03  0.45926830772E+03  0.10566000000E+00 0. -1.
        994    1    1    2    0    0  0.31344481632E+02 -0.51916232317E+02  0.18402673945E+02  0.18255374583E+03  0.17120000000E+03 0.  0.
        998    1    1    2    0    0  0.32409117340E+02  0.92940513488E+01  0.10287770538E+04  0.10293779465E+04  0.10000000000E+02 0. -1.
</event>
<event>
 5    1  0.1300052E-008  0.3851565E+03  0.7957747E-01  0.3429009E+00
         13   -1    0    0    0    0  0.00000000000E+00  0.00000000000E+00  0.14999999963E+04  0.15000000000E+04  0.10566000000E+00 0.  1.
        994   -1    0    0    0    0 -0.00000000000E+00 -0.00000000000E+00  0.11368683772E-12  0.17120000000E+03  0.17120000000E+03 0.  0.
         13    1    1    2    0    0 -0.45639693259E+01  0.13226199140E+02  0.66660336388E+02  0.68112948630E+02  0.10566000000E+00 0.  1.
        994    1    1    2    0    0 -0.39164326394E+01 -0.25142623386E+01  0.16236605641E+01  0.17127094393E+03  0.17120000000E+03 0.  0.
        998    1    1    2    0    0  0.84804019652E+01 -0.10711936801E+02  0.14317159993E+04  0.14318161074E+04  0.10000000000E+02 0.  1.
</event>
<event>
 5    1  0.1300052E-008  0.3852144E+03  0.7957747E-01  0.3428763E+00
         13   -1    0    0    0    0  0.00000000000E+00  0.00000000000E+00  0.14999999963E+04  0.15000000000E+04  0.10566000000E+00 0.  1.
        994   -1    0    0    0    0 -0.00000000000E+00 -0.00000000000E+00  0.11368683772E-12  0.17120000000E+03  0.17120000000E+03 0.  0.
         13    1    1    2    0    0  0.46969378844E+01 -0.10816051590E+02  0.44918111381E+02  0.46440242157E+02  0.10566000000E+00 0.  1.
        994    1    1    2    0    0 -0.49279439269E+01  0.97226488183E+01  0.19142985895E+01  0.17155733464E+03  0.17120000000E+03 0.  0.
        998    1    1    2    0    0  0.23100604251E+00  0.10934027715E+01  0.14531675863E+04  0.14532024232E+04  0.10000000000E+02 0.  1.
</event>
<event>
 5    1  0.1300052E-008  0.3851238E+03  0.7957747E-01  0.3429147E+00
         13   -1    0    0    0    0  0.00000000000E+00  0.00000000000E+00  0.14999999963E+04  0.15000000000E+04  0.10566000000E+00 0.  1.
        994   -1    0    0    0    0 -0.00000000000E+00 -0.00000000000E+00  0.11368683772E-12  0.17120000000E+03  0.17120000000E+03 0.  0.
         13    1    1    2    0    0  0.10571029670E+02 -0.39301321218E+01  0.39750826474E+02  0.41319873865E+02  0.10566000000E+00 0.  1.
        994    1    1    2    0    0 -0.10555437055E+02  0.35824507720E+01  0.19772650205E+01  0.17157389307E+03  0.17120000000E+03 0.  0.
        998    1    1    2    0    0 -0.15592615914E-01  0.34768134979E+00  0.14582719048E+04  0.14583062331E+04  0.10000000000E+02 0.  0.
</event>
<event>
 5    1  0.1300052E-008  0.3864893E+03  0.7957747E-01  0.3423380E+00
         13   -1    0    0    0    0  0.00000000000E+00  0.00000000000E+00  0.14999999963E+04  0.15000000000E+04  0.10566000000E+00 0.  1.
        994   -1    0    0    0    0 -0.00000000000E+00 -0.00000000000E+00  0.11368683772E-12  0.17120000000E+03  0.17120000000E+03 0.  0.
         13    1    1    2    0    0  0.35551881692E+01  0.10079508715E+02  0.63463910226E+02  0.64357710681E+02  0.10566000000E+00 0.  1.
        994    1    1    2    0    0 -0.62220829140E+01 -0.91716867559E+01  0.12946528969E+01  0.17156325446E+03  0.17120000000E+03 0.  0.
        998    1    1    2    0    0  0.26668947448E+01 -0.90782195934E+00  0.14352414332E+04  0.14352790349E+04  0.10000000000E+02 0.  1.
</event>
<event>
 5    1  0.1300052E-008  0.3809476E+03  0.7957747E-01  0.3447043E+00
         13   -1    0    0    0    0  0.00000000000E+00  0.00000000000E+00  0.14999999963E+04  0.15000000000E+04  0.10566000000E+00 0.  1.
        994   -1    0    0    0    0 -0.00000000000E+00 -0.00000000000E+00  0.11368683772E-12  0.17120000000E+03  0.17120000000E+03 0.  0.
         13    1    1    2    0    0  0.33418425366E+01 -0.21537862752E+02  0.64945765256E+02  0.68505554754E+02  0.10566000000E+00 0.  1.
        994    1    1    2    0    0  0.32689809814E+00  0.96778259091E+01  0.39681101602E+01  0.17151954138E+03  0.17120000000E+03 0.  0.
        998    1    1    2    0    0 -0.36687406347E+01  0.11860036843E+02  0.14310861209E+04  0.14311749039E+04  0.10000000000E+02 0.  1.
</event>
<event>
 5    1  0.1300052E-008  0.3737964E+03  0.7957747E-01  0.3478623E+00
         13   -1    0    0    0    0  0.00000000000E+00  0.00000000000E+00  0.14999999963E+04  0.15000000000E+04  0.10566000000E+00 0. -1.
        994   -1    0    0    0    0 -0.00000000000E+00 -0.00000000000E+00  0.11368683772E-12  0.17120000000E+03  0.17120000000E+03 0.  0.
         13    1    1    2    0    0 -0.16594579441E+02  0.15316969843E+01  0.15902086539E+02  0.23035053350E+02  0.10566000000E+00 0. -1.
        994    1    1    2    0    0  0.11730400797E+02  0.18014662373E+02  0.88769563841E+01  0.17277259828E+03  0.17120000000E+03 0.  0.
        998    1    1    2    0    0  0.48641786445E+01 -0.19546359358E+02  0.14752209534E+04  0.14753923484E+04  0.10000000000E+02 0. -1.
</event>
<event>
 5    1  0.1300052E-008  0.3733614E+03  0.7957747E-01  0.3480584E+00
         13   -1    0    0    0    0  0.00000000000E+00  0.00000000000E+00  0.14999999963E+04  0.15000000000E+04  0.10566000000E+00 0. -1.
        994   -1    0    0    0    0 -0.00000000000E+00 -0.00000000000E+00  0.11368683772E-12  0.17120000000E+03  0.17120000000E+03 0.  0.
         13    1    1    2    0    0 -0.70081687443E+02 -0.64595291635E+01  0.34274236222E+03  0.34989356447E+03  0.10566000000E+00 0. -1.
        994    1    1    2    0    0  0.33898298036E+02  0.44501995880E+01  0.11528485756E+02  0.17496069521E+03  0.17120000000E+03 0.  0.
        998    1    1    2    0    0  0.36183389407E+02  0.20093295756E+01  0.11457291483E+04  0.11463457403E+04  0.10000000000E+02 0. -1.
</event>
<event>
 5    1  0.1300052E-008  0.3807901E+03  0.7957747E-01  0.3447725E+00
         13   -1    0    0    0    0  0.00000000000E+00  0.00000000000E+00  0.14999999963E+04  0.15000000000E+04  0.10566000000E+00 0.  1.
        994   -1    0    0    0    0 -0.00000000000E+00 -0.00000000000E+00  0.11368683772E-12  0.17120000000E+03  0.17120000000E+03 0.  0.
         13    1    1    2    0    0  0.98709300212E+01 -0.23591111554E+02  0.81833778304E+02  0.85736539698E+02  0.10566000000E+00 0.  1.
        994    1    1    2    0    0 -0.96253350217E+01  0.24955507417E+02  0.61238704907E+01  0.17338502304E+03  0.17120000000E+03 0.  0.
        998    1    1    2    0    0 -0.24559499947E+00 -0.13643958630E+01  0.14120423475E+04  0.14120784373E+04  0.10000000000E+02 0.  1.
</event>
<event>
 5    1  0.1300052E-008  0.3827408E+03  0.7957747E-01  0.3439311E+00
         13   -1    0    0    0    0  0.00000000000E+00  0.00000000000E+00  0.14999999963E+04  0.15000000000E+04  0.10566000000E+00 0. -1.
        994   -1    0    0    0    0 -0.00000000000E+00 -0.00000000000E+00  0.11368683772E-12  0.17120000000E+03  0.17120000000E+03 0.  0.
         13    1    1    2    0    0 -0.76115812477E+01  0.86727367516E+01  0.22305450739E+02  0.25113678117E+02  0.10566000000E+00 0. -1.
        994    1    1    2    0    0  0.23132917144E+02 -0.57478858667E+01  0.46405297206E+01  0.17291369108E+03  0.17120000000E+03 0.  0.
        998    1    1    2    0    0 -0.15521335896E+02 -0.29248508850E+01  0.14730540158E+04  0.14731726308E+04  0.10000000000E+02 0. -1.
</event>
<event>
 5    1  0.1300052E-008  0.3691561E+03  0.7957747E-01  0.3499778E+00
         13   -1    0    0    0    0  0.00000000000E+00  0.00000000000E+00  0.14999999963E+04  0.15000000000E+04  0.10566000000E+00 0.  1.
        994   -1    0    0    0    0 -0.00000000000E+00 -0.00000000000E+00  0.11368683772E-12  0.17120000000E+03  0.17120000000E+03 0.  0.
         13    1    1    2    0    0 -0.10121027888E+03 -0.81894469685E+02  0.60357535861E+03  0.61745724499E+03  0.10566000000E+00 0.  1.
        994    1    1    2    0    0  0.75513627168E+02  0.75446860847E+02  0.51337686311E+02  0.20818149470E+03  0.17120000000E+03 0.  0.
        998    1    1    2    0    0  0.25696651710E+02  0.64476088380E+01  0.84508695136E+03  0.84556126031E+03  0.10000000000E+02 0.  1.
</event>
<event>
 5    1  0.1300052E-008  0.3810335E+03  0.7957747E-01  0.3446671E+00
         13   -1    0    0    0    0  0.00000000000E+00  0.00000000000E+00  0.14999999963E+04  0.15000000000E+04  0.10566000000E+00 0. -1.
        994   -1    0    0    0    0 -0.00000000000E+00 -0.00000000000E+00  0.11368683772E-12  0.17120000000E+03  0.17120000000E+03 0.  0.
         13    1    1    2    0    0 -0.15791323117E+02 -0.11088662166E+02  0.52209565261E+02  0.55661244895E+02  0.10566000000E+00 0. -1.
        994    1    1    2    0    0 -0.66063912348E+00  0.63018533476E+01  0.37461189508E+01  0.17135817228E+03  0.17120000000E+03 0.  0.
        998    1    1    2    0    0  0.16451962241E+02  0.47868088185E+01  0.14440443121E+04  0.14441805828E+04  0.10000000000E+02 0. -1.
</event>
<event>
 5    1  0.1300052E-008  0.3763908E+03  0.7957747E-01  0.3467026E+00
         13   -1    0    0    0    0  0.00000000000E+00  0.00000000000E+00  0.14999999963E+04  0.15000000000E+04  0.10566000000E+00 0.  1.
        994   -1    0    0    0    0 -0.00000000000E+00 -0.00000000000E+00  0.11368683772E-12  0.17120000000E+03  0.17120000000E+03 0.  0.
         13    1    1    2    0    0 -0.10679253101E+02 -0.23846293215E+01  0.73168070017E+01  0.13163575978E+02  0.10566000000E+00 0.  1.
        994    1    1    2    0    0  0.76521919524E+01  0.17124043900E+01  0.61743062874E+01  0.17149067155E+03  0.17120000000E+03 0.  0.
        998    1    1    2    0    0  0.30270611488E+01  0.67222493147E+00  0.14865088830E+04  0.14865457525E+04  0.10000000000E+02 0.  1.
</event>
<event>
 5    1  0.1300052E-008  0.3859867E+03  0.7957747E-01  0.3425498E+00
         13   -1    0    0    0    0  0.00000000000E+00  0.00000000000E+00  0.14999999963E+04  0.15000000000E+04  0.10566000000E+00 0. -1.
        994   -1    0    0    0    0 -0.00000000000E+00 -0.00000000000E+00  0.11368683772E-12  0.17120000000E+03  0.17120000000E+03 0.  0.
         13    1    1    2    0    0  0.89146495527E+01 -0.62098208006E+01  0.52347409011E+02  0.53463026899E+02  0.10566000000E+00 0. -1.
        994    1    1    2    0    0 -0.38111796715E+01  0.71982996319E+01  0.13585530644E+01  0.17139902647E+03  0.17120000000E+03 0.  0.
        998    1    1    2    0    0 -0.51034698812E+01 -0.98847883128E+00  0.14462940342E+04  0.14463379466E+04  0.10000000000E+02 0. -1.
</event>
<event>
 5    1  0.1395918E-008  0.3860169E+03  0.7957747E-01  0.3425371E+00
         13   -1    0    0    0    0  0.00000000000E+00  0.00000000000E+00  0.14999999963E+04  0.15000000000E+04  0.10566000000E+00 0. -1.
        994   -1    0    0    0    0 -0.00000000000E+00 -0.00000000000E+00  0.11368683772E-12  0.17120000000E+03  0.17120000000E+03 0.  0.
         13    1    1    2    0    0 -0.10907705120E+02 -0.16089920975E+01  0.65718584762E+02  0.66637155054E+02  0.10566000000E+00 0. -1.
        994    1    1    2    0    0 -0.17061709537E+02  0.70421007890E+01  0.22436478541E+01  0.17220675675E+03  0.17120000000E+03 0.  0.
        998    1    1    2    0    0  0.27969414657E+02 -0.54331086916E+01  0.14320377637E+04  0.14323560882E+04  0.10000000000E+02 0. -1.
</event>
<event>
 5    1  0.1300052E-008  0.3850988E+03  0.7957747E-01  0.3429253E+00
         13   -1    0    0    0    0  0.00000000000E+00  0.00000000000E+00  0.14999999963E+04  0.15000000000E+04  0.10566000000E+00 0.  1.
        994   -1    0    0    0    0 -0.00000000000E+00 -0.00000000000E+00  0.11368683772E-12  0.17120000000E+03  0.17120000000E+03 0.  0.
         13    1    1    2    0    0  0.13851401087E+02  0.52233576316E+01  0.67699091066E+02  0.69298794162E+02  0.10566000000E+00 0.  1.
        994    1    1    2    0    0 -0.10771115068E+02 -0.98105901952E+01  0.22792686002E+01  0.17183393048E+03  0.17120000000E+03 0.  0.
        998    1    1    2    0    0 -0.30802860188E+01  0.45872325636E+01  0.14300216366E+04  0.14300672754E+04  0.10000000000E+02 0.  1.
</event>
<event>
 5    1  0.1300052E-008  0.3824177E+03  0.7957747E-01  0.3440698E+00
         13   -1    0    0    0    0  0.00000000000E+00  0.00000000000E+00  0.14999999963E+04  0.15000000000E+04  0.10566000000E+00 0.  1.
        994   -1    0    0    0    0 -0.00000000000E+00 -0.00000000000E+00  0.11368683772E-12  0.17120000000E+03  0.17120000000E+03 0.  0.
         13    1    1    2    0    0  0.99201369105E+01  0.85416951700E+01  0.27998223185E+02  0.30907625892E+02  0.10566000000E+00 0.  1.
        994    1    1    2    0    0 -0.12169160828E+02 -0.46255463512E+01  0.34799275856E+01  0.17172953750E+03  0.17120000000E+03 0.  0.
        998    1    1    2    0    0  0.22490239179E+01 -0.39161488189E+01  0.14685218455E+04  0.14685628366E+04  0.10000000000E+02 0.  1.
</event>
<event>
 5    1  0.1300052E-008  0.3836878E+03  0.7957747E-01  0.3435256E+00
         13   -1    0    0    0    0  0.00000000000E+00  0.00000000000E+00  0.14999999963E+04  0.15000000000E+04  0.10566000000E+00 0.  1.
        994   -1    0    0    0    0 -0.00000000000E+00 -0.00000000000E+00  0.11368683772E-12  0.17120000000E+03  0.17120000000E+03 0.  0.
         13    1    1    2    0    0  0.23489281397E+02 -0.20256885739E+00  0.13200257910E+03  0.13407639399E+03  0.10566000000E+00 0.  1.
        994    1    1    2    0    0 -0.26533669707E+01 -0.33478435127E+01  0.23432903128E+01  0.17126931839E+03  0.17120000000E+03 0.  0.
        998    1    1    2    0    0 -0.20835914426E+02  0.35504123701E+01  0.13656541269E+04  0.13658542876E+04  0.10000000000E+02 0.  1.
</event>
<event>
 5    1  0.1300052E-008  0.3856751E+03  0.7957747E-01  0.3426814E+00
         13   -1    0    0    0    0  0.00000000000E+00  0.00000000000E+00  0.14999999963E+04  0.15000000000E+04  0.10566000000E+00 0. -1.
        994   -1    0    0    0    0 -0.00000000000E+00 -0.00000000000E+00  0.11368683772E-12  0.17120000000E+03  0.17120000000E+03 0.  0.
         13    1    1    2    0    0 -0.21134809728E+01  0.14618243242E+02  0.89279794284E+02  0.90493384668E+02  0.10566000000E+00 0. -1.
        994    1    1    2    0    0 -0.36080361766E+01 -0.40489829248E+01  0.13918413238E+01  0.17129153339E+03  0.17120000000E+03 0.  0.
        998    1    1    2    0    0  0.57215171494E+01 -0.10569260317E+02  0.14093283607E+04  0.14094150819E+04  0.10000000000E+02 0. -1.
</event>
<event>
 5    1  0.1300052E-008  0.3776656E+03  0.7957747E-01  0.3461386E+00
         13   -1    0    0    0    0  0.00000000000E+00  0.00000000000E+00  0.14999999963E+04  0.15000000000E+04  0.10566000000E+00 0. -1.
        994   -1    0    0    0    0 -0.00000000000E+00 -0.00000000000E+00  0.11368683772E-12  0.17120000000E+03  0.17120000000E+03 0.  0.
         13    1    1    2    0    0 -0.10254393409E+01 -0.24839391318E+02  0.54917386129E+02  0.60282479629E+02  0.10566000000E+00 0. -1.
        994    1    1    2    0    0 -0.31843586284E+00  0.22137736376E+02  0.69693160506E+01  0.17276629341E+03  0.17120000000E+03 0.  0.
        998    1    1    2    0    0  0.13438752037E+01  0.27016549412E+01  0.14381132941E+04  0.14381512270E+04  0.10000000000E+02 0. -1.
</event>
<event>
 5    1  0.1513329E-008  0.3862641E+03  0.7957747E-01  0.3424329E+00
         13   -1    0    0    0    0  0.00000000000E+00  0.00000000000E+00  0.14999999963E+04  0.15000000000E+04  0.10566000000E+00 0. -1.
        994   -1    0    0    0    0 -0.00000000000E+00 -0.00000000000E+00  0.11368683772E-12  0.17120000000E+03  0.17120000000E+03 0.  0.
         13    1    1    2    0    0 -0.14211016252E+01  0.10815813478E+02  0.59992554196E+02  0.60976381280E+02  0.10566000000E+00 0. -1.
        994    1    1    2    0    0 -0.15792909071E+01 -0.81717131664E+01  0.12307421100E+01  0.17140660950E+03  0.17120000000E+03 0.  0.
        998    1    1    2    0    0  0.30003925322E+01 -0.26441003120E+01  0.14387767000E+04  0.14388170092E+04  0.10000000000E+02 0. -1.
</event>
<event>
 5    1  0.1300052E-008  0.3821068E+03  0.7957747E-01  0.3442036E+00
         13   -1    0    0    0    0  0.00000000000E+00  0.00000000000E+00  0.14999999963E+04  0.15000000000E+04  0.10566000000E+00 0.  1.
        994   -1    0    0    0    0 -0.00000000000E+00 -0.00000000000E+00  0.11368683772E-12  0.17120000000E+03  0.17120000000E+03 0.  0.
         13    1    1    2    0    0 -0.11788744576E+02  0.35300974689E+01  0.24352478123E+02  0.27285352143E+02  0.10566000000E+00 0.  1.
        994    1    1    2    0    0 -0.11030979190E+02 -0.25229838291E+02  0.55946485044E+01  0.17349053961E+03  0.17120000000E+03 0.  0.
        998    1    1    2    0    0  0.22819723766E+02  0.21699740822E+02  0.14700528697E+04  0.14704241082E+04  0.10000000000E+02 0.  1.
</event>
<event>
 5    1  0.1300052E-008  0.3803899E+03  0.7957747E-01  0.3449463E+00
         13   -1    0    0    0    0  0.00000000000E+00  0.00000000000E+00  0.14999999963E+04  0.15000000000E+04  0.10566000000E+00 0. -1.
        994   -1    0    0    0    0 -0.00000000000E+00 -0.00000000000E+00  0.11368683772E-12  0.17120000000E+03  0.17120000000E+03 0.  0.
         13    1    1    2    0    0  0.20774544052E+02  0.39259015605E+02  0.25096586813E+03  0.25486610233E+03  0.10566000000E+00 0. -1.
        994    1    1    2    0    0 -0.67859778298E+02  0.43799952325E+00  0.19467451612E+02  0.18518521276E+03  0.17120000000E+03 0.  0.
        998    1    1    2    0    0  0.47085234246E+02 -0.39697015128E+02  0.12295666765E+04  0.12311486849E+04  0.10000000000E+02 0. -1.
</event>
<event>
 5    1  0.1300052E-008  0.3797891E+03  0.7957747E-01  0.3452077E+00
         13   -1    0    0    0    0  0.00000000000E+00  0.00000000000E+00  0.14999999963E+04  0.15000000000E+04  0.10566000000E+00 0. -1.
        994   -1    0    0    0    0 -0.00000000000E+00 -0.00000000000E+00  0.11368683772E-12  0.17120000000E+03  0.17120000000E+03 0.  0.
         13    1    1    2    0    0  0.59582223585E+01 -0.19178664684E+02  0.45559986315E+02  0.49790010141E+02  0.10566000000E+00 0. -1.
        994    1    1    2    0    0 -0.72995390315E+01  0.14133665400E+02  0.50865842640E+01  0.17201266554E+03  0.17120000000E+03 0.  0.
        998    1    1    2    0    0  0.13413166731E+01  0.50449992840E+01  0.14493534257E+04  0.14493973243E+04  0.10000000000E+02 0. -1.
</event>
<event>
 5    1  0.1300052E-008  0.3846544E+03  0.7957747E-01  0.3431139E+00
         13   -1    0    0    0    0  0.00000000000E+00  0.00000000000E+00  0.14999999963E+04  0.15000000000E+04  0.10566000000E+00 0.  1.
        994   -1    0    0    0    0 -0.00000000000E+00 -0.00000000000E+00  0.11368683772E-12  0.17120000000E+03  0.17120000000E+03 0.  0.
         13    1    1    2    0    0 -0.39524567139E+02  0.17137261148E+02  0.42217263518E+02  0.60317374198E+02  0.10566000000E+00 0.  1.
        994    1    1    2    0    0  0.16866908749E+02 -0.34013005937E+02  0.24239855866E+02  0.17702651721E+03  0.17120000000E+03 0.  0.
        998    1    1    2    0    0  0.22657658390E+02  0.16875744789E+02  0.14335428769E+04  0.14338561086E+04  0.10000000000E+02 0.  1.
</event>
<event>
 5    1  0.1300052E-008  0.3707552E+03  0.7957747E-01  0.3492427E+00
         13   -1    0    0    0    0  0.00000000000E+00  0.00000000000E+00  0.14999999963E+04  0.15000000000E+04  0.10566000000E+00 0.  1.
        994   -1    0    0    0    0 -0.00000000000E+00 -0.00000000000E+00  0.11368683772E-12  0.17120000000E+03  0.17120000000E+03 0.  0.
         13    1    1    2    0    0  0.31377861308E+02  0.98238190388E+01  0.57099220599E+02  0.65889375152E+02  0.10566000000E+00 0.  1.
        994    1    1    2    0    0 -0.23021583108E+02 -0.73485377898E+01  0.10891472788E+02  0.17323988708E+03  0.17120000000E+03 0.  0.
        998    1    1    2    0    0 -0.83562782005E+01 -0.24752812490E+01  0.14320093029E+04  0.14320707378E+04  0.10000000000E+02 0.  1.
</event>
<event>
 5    1  0.1300052E-008  0.3845432E+03  0.7957747E-01  0.3431612E+00
         13   -1    0    0    0    0  0.00000000000E+00  0.00000000000E+00  0.14999999963E+04  0.15000000000E+04  0.10566000000E+00 0.  1.
        994   -1    0    0    0    0 -0.00000000000E+00 -0.00000000000E+00  0.11368683772E-12  0.17120000000E+03  0.17120000000E+03 0.  0.
         13    1    1    2    0    0  0.35520288290E+01  0.12884874400E+02  0.48962877553E+02  0.50754422856E+02  0.10566000000E+00 0.  1.
        994    1    1    2    0    0  0.10610028370E+02 -0.76459809954E+01  0.24206017357E+01  0.17171584971E+03  0.17120000000E+03 0.  0.
        998    1    1    2    0    0 -0.14162057199E+02 -0.52388934048E+01  0.14486165170E+04  0.14487297274E+04  0.10000000000E+02 0.  1.
</event>
<event>
 5    1  0.1300052E-008  0.3783578E+03  0.7957747E-01  0.3458340E+00
         13   -1    0    0    0    0  0.00000000000E+00  0.00000000000E+00  0.14999999963E+04  0.15000000000E+04  0.10566000000E+00 0. -1.
        994   -1    0    0    0    0 -0.00000000000E+00 -0.00000000000E+00  0.11368683772E-12  0.17120000000E+03  0.17120000000E+03 0.  0.
         13    1    1    2    0    0  0.33984123592E+02  0.35270877450E+00  0.11350051617E+03  0.11847963283E+03  0.10566000000E+00 0. -1.
        994    1    1    2    0    0 -0.22327177521E+02 -0.13999608831E+01  0.66483835134E+01  0.17278340126E+03  0.17120000000E+03 0.  0.
        998    1    1    2    0    0 -0.11656946071E+02  0.10472521086E+01  0.13798510966E+04  0.13799369659E+04  0.10000000000E+02 0. -1.
</event>
<event>
 5    1  0.1300052E-008  0.3795200E+03  0.7957747E-01  0.3453251E+00
         13   -1    0    0    0    0  0.00000000000E+00  0.00000000000E+00  0.14999999963E+04  0.15000000000E+04  0.10566000000E+00 0. -1.
        994   -1    0    0    0    0 -0.00000000000E+00 -0.00000000000E+00  0.11368683772E-12  0.17120000000E+03  0.17120000000E+03 0.  0.
         13    1    1    2    0    0 -0.48999233535E+02 -0.31500032823E+02  0.13129529841E+03  0.14363719401E+03  0.10566000000E+00 0. -1.
        994    1    1    2    0    0 -0.30464406727E+02 -0.24430024470E+02  0.21599744914E+02  0.17692058996E+03  0.17120000000E+03 0.  0.
        998    1    1    2    0    0  0.79463640262E+02  0.55930057293E+02  0.13471049530E+04  0.13506422160E+04  0.10000000000E+02 0. -1.
</event>
<event>
 5    1  0.1300052E-008  0.3823301E+03  0.7957747E-01  0.3441075E+00
         13   -1    0    0    0    0  0.00000000000E+00  0.00000000000E+00  0.14999999963E+04  0.15000000000E+04  0.10566000000E+00 0. -1.
        994   -1    0    0    0    0 -0.00000000000E+00 -0.00000000000E+00  0.11368683772E-12  0.17120000000E+03  0.17120000000E+03 0.  0.
         13    1    1    2    0    0  0.18972314056E+02 -0.67075012506E+01  0.65007313961E+02  0.68050725978E+02  0.10566000000E+00 0. -1.
        994    1    1    2    0    0 -0.20941485540E+02  0.22176287123E+01  0.44340418367E+01  0.17254728170E+03  0.17120000000E+03 0.  0.
        998    1    1    2    0    0  0.19691714831E+01  0.44898725383E+01  0.14305586405E+04  0.14306019923E+04  0.10000000000E+02 0. -1.
</event>
<event>
 5    1  0.1300052E-008  0.3702869E+03  0.7957747E-01  0.3494573E+00
         13   -1    0    0    0    0  0.00000000000E+00  0.00000000000E+00  0.14999999963E+04  0.15000000000E+04  0.10566000000E+00 0.  1.
        994   -1    0    0    0    0 -0.00000000000E+00 -0.00000000000E+00  0.11368683772E-12  0.17120000000E+03  0.17120000000E+03 0.  0.
         13    1    1    2    0    0  0.42848448273E+02 -0.20923960084E+02  0.11554504031E+03  0.12499787650E+03  0.10566000000E+00 0.  1.
        994    1    1    2    0    0 -0.40266138747E+02  0.13137139020E+02  0.15341461243E+02  0.17702753115E+03  0.17120000000E+03 0.  0.
        998    1    1    2    0    0 -0.25823095252E+01  0.77868210636E+01  0.13691134947E+04  0.13691745924E+04  0.10000000000E+02 0.  1.
</event>
<event>
 5    1  0.1300052E-008  0.3773659E+03  0.7957747E-01  0.3462709E+00
         13   -1    0    0    0    0  0.00000000000E+00  0.00000000000E+00  0.14999999963E+04  0.15000000000E+04  0.10566000000E+00 0. -1.
        994   -1    0    0    0    0 -0.00000000000E+00 -0.00000000000E+00  0.11368683772E-12  0.17120000000E+03  0.17120000000E+03 0.  0.
         13    1    1    2    0    0  0.45367307967E+02 -0.20724929018E+02  0.15507396736E+03  0.16289770359E+03  0.10566000000E+00 0. -1.
        994    1    1    2    0    0 -0.72802703916E+02  0.77501108641E+02  0.44600746607E+02  0.20641056692E+03  0.17120000000E+03 0.  0.
        998    1    1    2    0    0  0.27435395949E+02 -0.56776179623E+02  0.13003252823E+04  0.13018917295E+04  0.10000000000E+02 0. -1.
</event>
<event>
 5    1  0.1300052E-008  0.3841932E+03  0.7957747E-01  0.3433101E+00
         13   -1    0    0    0    0  0.00000000000E+00  0.00000000000E+00  0.14999999963E+04  0.15000000000E+04  0.10566000000E+00 0.  1.
        994   -1    0    0    0    0 -0.00000000000E+00 -0.00000000000E+00  0.11368683772E-12  0.17120000000E+03  0.17120000000E+03 0.  0.
         13    1    1    2    0    0 -0.14437812653E+02 -0.64469895853E+01  0.65022186882E+02  0.66917188075E+02  0.10566000000E+00 0.  1.
        994    1    1    2    0    0 -0.23441735642E+01  0.48608420618E+01  0.21272861546E+01  0.17129824366E+03  0.17120000000E+03 0.  0.
        998    1    1    2    0    0  0.16781986217E+02  0.15861475235E+01  0.14328505232E+04  0.14329845683E+04  0.10000000000E+02 0.  1.
</event>
<event>
 5    1  0.1300052E-008  0.3724269E+03  0.7957747E-01  0.3484811E+00
         13   -1    0    0    0    0  0.00000000000E+00  0.00000000000E+00  0.14999999963E+04  0.15000000000E+04  0.10566000000E+00 0.  1.
        994   -1    0    0    0    0 -0.00000000000E+00 -0.00000000000E+00  0.11368683772E-12  0.17120000000E+03  0.17120000000E+03 0.  0.
         13    1    1    2    0    0 -0.11084760701E+02 -0.48806314423E+01  0.53001045663E+00  0.12123718826E+02  0.10566000000E+00 0.  1.
        994    1    1    2    0    0 -0.12724283757E+02 -0.78644136689E+01  0.13017182027E+02  0.17234454859E+03  0.17120000000E+03 0.  0.
        998    1    1    2    0    0  0.23809044457E+02  0.12745045111E+02  0.14864528038E+04  0.14867317326E+04  0.10000000000E+02 0.  1.
</event>
<event>
 5    1  0.1300052E-008  0.3768400E+03  0.7957747E-01  0.3465034E+00
         13   -1    0    0    0    0  0.00000000000E+00  0.00000000000E+00  0.14999999963E+04  0.15000000000E+04  0.10566000000E+00 0. -1.
        994   -1    0    0    0    0 -0.00000000000E+00 -0.00000000000E+00  0.11368683772E-12  0.17120000000E+03  0.17120000000E+03 0.  0.
         13    1    1    2    0    0  0.68244194258E+02  0.93349063711E+01  0.31254736702E+03  0.32004730638E+03  0.10566000000E+00 0. -1.
        994    1    1    2    0    0 -0.73254384129E+02 -0.96930573605E+01  0.24410926654E+02  0.18805715486E+03  0.17120000000E+03 0.  0.
        998    1    1    2    0    0  0.50101898708E+01  0.35815098941E+00  0.11630417026E+04  0.11630955388E+04  0.10000000000E+02 0.  0.
</event>
<event>
 5    1  0.1300052E-008  0.3852455E+03  0.7957747E-01  0.3428632E+00
         13   -1    0    0    0    0  0.00000000000E+00  0.00000000000E+00  0.14999999963E+04  0.15000000000E+04  0.10566000000E+00 0. -1.
        994   -1    0    0    0    0 -0.00000000000E+00 -0.00000000000E+00  0.11368683772E-12  0.17120000000E+03  0.17120000000E+03 0.  0.
         13    1    1    2    0    0  0.71996115637E+01  0.97723394319E+01  0.50257107787E+02  0.51702234689E+02  0.10566000000E+00 0. -1.
        994    1    1    2    0    0 -0.65104774263E+01  0.46677595867E+00  0.16483247716E+01  0.17133231210E+03  0.17120000000E+03 0.  0.
        998    1    1    2    0    0 -0.68913413739E+00 -0.10239115391E+02  0.14480945637E+04  0.14481654532E+04  0.10000000000E+02 0. -1.
</event>
<event>
 5    1  0.1300052E-008  0.3779819E+03  0.7957747E-01  0.3459993E+00
         13   -1    0    0    0    0  0.00000000000E+00  0.00000000000E+00  0.14999999963E+04  0.15000000000E+04  0.10566000000E+00 0.  1.
        994   -1    0    0    0    0 -0.00000000000E+00 -0.00000000000E+00  0.11368683772E-12  0.17120000000E+03  0.17120000000E+03 0.  0.
         13    1    1    2    0    0  0.20456344576E+02  0.91575001554E+01  0.48641256411E+02  0.53556557318E+02  0.10566000000E+00 0.  1.
        994    1    1    2    0    0 -0.44343719210E+01  0.26708207376E+01  0.52455430524E+01  0.17135855000E+03  0.17120000000E+03 0.  0.
        998    1    1    2    0    0 -0.16021972655E+02 -0.11828320893E+02  0.14461131968E+04  0.14462848927E+04  0.10000000000E+02 0.  1.
</event>
<event>
 5    1  0.1300052E-008  0.3848087E+03  0.7957747E-01  0.3430484E+00
         13   -1    0    0    0    0  0.00000000000E+00  0.00000000000E+00  0.14999999963E+04  0.15000000000E+04  0.10566000000E+00 0. -1.
        994   -1    0    0    0    0 -0.00000000000E+00 -0.00000000000E+00  0.11368683772E-12  0.17120000000E+03  0.17120000000E+03 0.  0.
         13    1    1    2    0    0  0.78013246117E+01 -0.17116704574E+02  0.10267277840E+03  0.10438176483E+03  0.10566000000E+00 0. -1.
        994    1    1    2    0    0  0.11699675119E+01  0.13497442463E+02  0.23293944203E+01  0.17175102869E+03  0.17120000000E+03 0.  0.
        998    1    1    2    0    0 -0.89712921237E+01  0.36192621103E+01  0.13949978235E+04  0.13950672065E+04  0.10000000000E+02 0. -1.
</event>
<event>
 5    1  0.1300052E-008  0.3776840E+03  0.7957747E-01  0.3461305E+00
         13   -1    0    0    0    0  0.00000000000E+00  0.00000000000E+00  0.14999999963E+04  0.15000000000E+04  0.10566000000E+00 0.  1.
        994   -1    0    0    0    0 -0.00000000000E+00 -0.00000000000E+00  0.11368683772E-12  0.17120000000E+03  0.17120000000E+03 0.  0.
         13    1    1    2    0    0 -0.26757445703E+01 -0.30183533128E+02  0.84597781877E+02  0.89861010141E+02  0.10566000000E+00 0.  1.
        994    1    1    2    0    0  0.41063750464E+01  0.18465113812E+02  0.65131438231E+01  0.17236497262E+03  0.17120000000E+03 0.  0.
        998    1    1    2    0    0 -0.14306304762E+01  0.11718419316E+02  0.14088890706E+04  0.14089740172E+04  0.10000000000E+02 0.  1.
</event>
<event>
 5    1  0.1300052E-008  0.3794155E+03  0.7957747E-01  0.3453708E+00
         13   -1    0    0    0    0  0.00000000000E+00  0.00000000000E+00  0.14999999963E+04  0.15000000000E+04  0.10566000000E+00 0. -1.
        994   -1    0    0    0    0 -0.00000000000E+00 -0.00000000000E+00  0.11368683772E-12  0.17120000000E+03  0.17120000000E+03 0.  0.
         13    1    1    2    0    0 -0.50179557894E+02 -0.74986287819E+01  0.28581641389E+03  0.29028477582E+03  0.10566000000E+00 0. -1.
        994    1    1    2    0    0  0.28194399440E+02  0.17950129770E+02  0.81792631529E+01  0.17462380039E+03  0.17120000000E+03 0.  0.
        998    1    1    2    0    0  0.21985158454E+02 -0.10451500988E+02  0.12060043192E+04  0.12062914238E+04  0.10000000000E+02 0.  1.
</event>
<event>
 5    1  0.1300052E-008  0.3777086E+03  0.7957747E-01  0.3461197E+00
         13   -1    0    0    0    0  0.00000000000E+00  0.00000000000E+00  0.14999999963E+04  0.15000000000E+04  0.10566000000E+00 0. -1.
        994   -1    0    0    0    0 -0.00000000000E+00 -0.00000000000E+00  0.11368683772E-12  0.17120000000E+03  0.17120000000E+03 0.  0.
         13    1    1    2    0    0 -0.55188213828E+02 -0.19507285002E+02  0.33655908297E+03  0.34161132974E+03  0.10566000000E+00 0. -1.
        994    1    1    2    0    0  0.23203692337E+02  0.20108480726E+02  0.84764928507E+01  0.17413802935E+03  0.17120000000E+03 0.  0.
        998    1    1    2    0    0  0.31984521491E+02 -0.60119572408E+00  0.11549644205E+04  0.11554506409E+04  0.10000000000E+02 0. -1.
</event>
<event>
 5    1  0.1927907E-008  0.3864864E+03  0.7957747E-01  0.3423393E+00
         13   -1    0    0    0    0  0.00000000000E+00  0.00000000000E+00  0.14999999963E+04  0.15000000000E+04  0.10566000000E+00 0.  1.
        994   -1    0    0    0    0 -0.00000000000E+00 -0.00000000000E+00  0.11368683772E-12  0.17120000000E+03  0.17120000000E+03 0.  0.
         13    1    1    2    0    0  0.10070188111E+02 -0.23474772840E+01  0.57707614988E+02  0.58626779971E+02  0.10566000000E+00 0.  1.
        994    1    1    2    0    0 -0.11506867116E+02  0.13926802658E+02  0.19628513429E+01  0.17216171644E+03  0.17120000000E+03 0.  0.
        998    1    1    2    0    0  0.14366790058E+01 -0.11579325374E+02  0.14403295299E+04  0.14404115036E+04  0.10000000000E+02 0.  1.
</event>
<event>
 5    1  0.1300052E-008  0.3755412E+03  0.7957747E-01  0.3470806E+00
         13   -1    0    0    0    0  0.00000000000E+00  0.00000000000E+00  0.14999999963E+04  0.15000000000E+04  0.10566000000E+00 0. -1.
        994   -1    0    0    0    0 -0.00000000000E+00 -0.00000000000E+00  0.11368683772E-12  0.17120000000E+03  0.17120000000E+03 0.  0.
         13    1    1    2    0    0 -0.10867509157E+02 -0.19956875770E+02  0.36982722842E+02  0.43406365877E+02  0.10566000000E+00 0. -1.
        994    1    1    2    0    0  0.11146763829E+02  0.19579669026E+02  0.81252970334E+01  0.17286721562E+03  0.17120000000E+03 0.  0.
        998    1    1    2    0    0 -0.27925467211E+00  0.37720674337E+00  0.14548919764E+04  0.14549264185E+04  0.10000000000E+02 0.  0.
</event>
<event>
 5    1  0.1300052E-008  0.3831031E+03  0.7957747E-01  0.3437757E+00
         13   -1    0    0    0    0  0.00000000000E+00  0.00000000000E+00  0.14999999963E+04  0.15000000000E+04  0.10566000000E+00 0. -1.
        994   -1    0    0    0    0 -0.00000000000E+00 -0.00000000000E+00  0.11368683772E-12  0.17120000000E+03  0.17120000000E+03 0.  0.
         13    1    1    2    0    0  0.82537501336E+01  0.10000231084E+02  0.31542735013E+02  0.34104021891E+02  0.10566000000E+00 0. -1.
        994    1    1    2    0    0 -0.92395355393E+01 -0.66658411287E+01  0.30045078403E+01  0.17160498105E+03  0.17120000000E+03 0.  0.
        998    1    1    2    0    0  0.98578540571E+00 -0.33343899557E+01  0.14654527534E+04  0.14654909971E+04  0.10000000000E+02 0. -1.
</event>
<event>
 5    1  0.1300052E-008  0.4025398E+03  0.7957747E-01  0.3358528E+00
         13   -1    0    0    0    0  0.00000000000E+00  0.00000000000E+00  0.14999999963E+04  0.15000000000E+04  0.10566000000E+00 0. -1.
        994   -1    0    0    0    0 -0.00000000000E+00 -0.00000000000E+00  0.11368683772E-12  0.17120000000E+03  0.17120000000E+03 0.  0.
         13    1    1    2    0    0  0.81845176135E+02  0.75518048062E+01  0.10058875943E+03  0.12989908506E+03  0.10566000000E+00 0. -1.
        994    1    1    2    0    0 -0.77780826663E+02 -0.10157592701E+02  0.54083401606E+02  0.19592725184E+03  0.17120000000E+03 0.  0.
        998    1    1    2    0    0 -0.40643494726E+01  0.26057878944E+01  0.13453278352E+04  0.13453736631E+04  0.10000000000E+02 0.  0.
</event>
<event>
 5    1  0.1300052E-008  0.3740774E+03  0.7957747E-01  0.3477359E+00
         13   -1    0    0    0    0  0.00000000000E+00  0.00000000000E+00  0.14999999963E+04  0.15000000000E+04  0.10566000000E+00 0.  1.
        994   -1    0    0    0    0 -0.00000000000E+00 -0.00000000000E+00  0.11368683772E-12  0.17120000000E+03  0.17120000000E+03 0.  0.
         13    1    1    2    0    0  0.14282883378E+03 -0.40556487327E+02  0.80035087463E+03  0.81400641159E+03  0.10566000000E+00 0.  1.
        994    1    1    2    0    0 -0.12715133794E+03  0.59286730471E+02  0.77547553045E+02  0.23453239037E+03  0.17120000000E+03 0.  0.
        998    1    1    2    0    0 -0.15677495832E+02 -0.18730243144E+02  0.62210156860E+03  0.62266119804E+03  0.10000000000E+02 0. -1.
</event>
<event>
 5    1  0.1300052E-008  0.3818518E+03  0.7957747E-01  0.3443135E+00
         13   -1    0    0    0    0  0.00000000000E+00  0.00000000000E+00  0.14999999963E+04  0.15000000000E+04  0.10566000000E+00 0. -1.
        994   -1    0    0    0    0 -0.00000000000E+00 -0.00000000000E+00  0.11368683772E-12  0.17120000000E+03  0.17120000000E+03 0.  0.
         13    1    1    2    0    0 -0.13232627286E+02 -0.16166571237E+01  0.26560990577E+02  0.29718906265E+02  0.10566000000E+00 0. -1.
        994    1    1    2    0    0  0.88525235434E+01  0.11816432554E+01  0.34663525396E+01  0.17146783679E+03  0.17120000000E+03 0.  0.
        998    1    1    2    0    0  0.43801037422E+01  0.43501386829E+00  0.14699726532E+04  0.14700132569E+04  0.10000000000E+02 0. -1.
</event>
<event>
 5    1  0.1300052E-008  0.3814454E+03  0.7957747E-01  0.3444889E+00
         13   -1    0    0    0    0  0.00000000000E+00  0.00000000000E+00  0.14999999963E+04  0.15000000000E+04  0.10566000000E+00 0. -1.
        994   -1    0    0    0    0 -0.00000000000E+00 -0.00000000000E+00  0.11368683772E-12  0.17120000000E+03  0.17120000000E+03 0.  0.
         13    1    1    2    0    0  0.20008604553E+02  0.21474289716E+01  0.53935058862E+02  0.57566982254E+02  0.10566000000E+00 0. -1.
        994    1    1    2    0    0 -0.28769784589E+02 -0.30714063151E+02  0.93201845841E+01  0.17654279940E+03  0.17120000000E+03 0.  0.
        998    1    1    2    0    0  0.87611800362E+01  0.28566634179E+02  0.14367447528E+04  0.14370902183E+04  0.10000000000E+02 0. -1.
</event>
<event>
 5    1  0.1300052E-008  0.3747758E+03  0.7957747E-01  0.3474226E+00
         13   -1    0    0    0    0  0.00000000000E+00  0.00000000000E+00  0.14999999963E+04  0.15000000000E+04  0.10566000000E+00 0. -1.
        994   -1    0    0    0    0 -0.00000000000E+00 -0.00000000000E+00  0.11368683772E-12  0.17120000000E+03  0.17120000000E+03 0.  0.
         13    1    1    2    0    0 -0.23707803571E+02 -0.94771070107E+01  0.50219898380E+02  0.56337597258E+02  0.10566000000E+00 0. -1.
        994    1    1    2    0    0 -0.23821360253E+02  0.16690769009E+02  0.96773348882E+01  0.17392276960E+03  0.17120000000E+03 0.  0.
        998    1    1    2    0    0  0.47529163823E+02 -0.72136619986E+01  0.14401027630E+04  0.14409396331E+04  0.10000000000E+02 0. -1.
</event>
<event>
 5    1  0.1300052E-008  0.3822831E+03  0.7957747E-01  0.3441277E+00
         13   -1    0    0    0    0  0.00000000000E+00  0.00000000000E+00  0.14999999963E+04  0.15000000000E+04  0.10566000000E+00 0. -1.
        994   -1    0    0    0    0 -0.00000000000E+00 -0.00000000000E+00  0.11368683772E-12  0.17120000000E+03  0.17120000000E+03 0.  0.
         13    1    1    2    0    0 -0.88814101108E+01  0.94810934306E+01  0.27305725220E+02  0.30238789196E+02  0.10566000000E+00 0. -1.
        994    1    1    2    0    0  0.80670541606E+01 -0.25916717126E+01  0.32233159924E+01  0.17143985503E+03  0.17120000000E+03 0.  0.
        998    1    1    2    0    0  0.81435595027E+00 -0.68894217179E+01  0.14694709551E+04  0.14695213558E+04  0.10000000000E+02 0. -1.
</event>
<event>
 5    1  0.1300052E-008  0.3860880E+03  0.7957747E-01  0.3425071E+00
         13   -1    0    0    0    0  0.00000000000E+00  0.00000000000E+00  0.14999999963E+04  0.15000000000E+04  0.10566000000E+00 0. -1.
        994   -1    0    0    0    0 -0.00000000000E+00 -0.00000000000E+00  0.11368683772E-12  0.17120000000E+03  0.17120000000E+03 0.  0.
         13    1    1    2    0    0  0.50278214719E+01  0.88480731548E+01  0.48785341618E+02  0.49835610843E+02  0.10566000000E+00 0. -1.
        994    1    1    2    0    0 -0.14673003787E+01 -0.46115803115E+01  0.11676717682E+01  0.17127236526E+03  0.17120000000E+03 0.  0.
        998    1    1    2    0    0 -0.35605210932E+01 -0.42364928433E+01  0.14500469829E+04  0.14500920239E+04  0.10000000000E+02 0. -1.
</event>
<event>
 5    1  0.1300052E-008  0.3840146E+03  0.7957747E-01  0.3433862E+00
         13   -1    0    0    0    0  0.00000000000E+00  0.00000000000E+00  0.14999999963E+04  0.15000000000E+04  0.10566000000E+00 0. -1.
        994   -1    0    0    0    0 -0.00000000000E+00 -0.00000000000E+00  0.11368683772E-12  0.17120000000E+03  0.17120000000E+03 0.  0.
         13    1    1    2    0    0 -0.69640353093E+01  0.96024029212E+02  0.42605118693E+03  0.43679370076E+03  0.10566000000E+00 0. -1.
        994    1    1    2    0    0  0.40754810432E+02  0.26144382035E+02  0.27223006108E+02  0.17998615321E+03  0.17120000000E+03 0.  0.
        998    1    1    2    0    0 -0.33790775122E+02 -0.12216841125E+03  0.10467258032E+04  0.10544201460E+04  0.10000000000E+02 0. -1.
</event>
<event>
 5    1  0.1300052E-008  0.3855171E+03  0.7957747E-01  0.3427482E+00
         13   -1    0    0    0    0  0.00000000000E+00  0.00000000000E+00  0.14999999963E+04  0.15000000000E+04  0.10566000000E+00 0.  1.
        994   -1    0    0    0    0 -0.00000000000E+00 -0.00000000000E+00  0.11368683772E-12  0.17120000000E+03  0.17120000000E+03 0.  0.
         13    1    1    2    0    0 -0.13408559859E+02 -0.58777367758E+01  0.80341089713E+02  0.81664185096E+02  0.10566000000E+00 0.  1.
        994    1    1    2    0    0  0.49154026831E+01  0.48537161870E+01  0.15302959324E+01  0.17134614542E+03  0.17120000000E+03 0.  0.
        998    1    1    2    0    0  0.84931571756E+01  0.10240205888E+01  0.14181286106E+04  0.14181896695E+04  0.10000000000E+02 0.  1.
</event>
<event>
 5    1  0.1300052E-008  0.3732936E+03  0.7957747E-01  0.3480890E+00
         13   -1    0    0    0    0  0.00000000000E+00  0.00000000000E+00  0.14999999963E+04  0.15000000000E+04  0.10566000000E+00 0. -1.
        994   -1    0    0    0    0 -0.00000000000E+00 -0.00000000000E+00  0.11368683772E-12  0.17120000000E+03  0.17120000000E+03 0.  0.
         13    1    1    2    0    0  0.27809310288E+01 -0.12959792709E+02  0.10643469082E+01  0.13297887156E+02  0.10566000000E+00 0. -1.
        994    1    1    2    0    0 -0.14657913454E+01  0.11328625876E+02  0.13152715769E+02  0.17208404993E+03  0.17120000000E+03 0.  0.
        998    1    1    2    0    0 -0.13151396834E+01  0.16311668331E+01  0.14857829336E+04  0.14858180629E+04  0.10000000000E+02 0. -1.
</event>
<event>
 5    1  0.1300052E-008  0.3824350E+03  0.7957747E-01  0.3440624E+00
         13   -1    0    0    0    0  0.00000000000E+00  0.00000000000E+00  0.14999999963E+04  0.15000000000E+04  0.10566000000E+00 0. -1.
        994   -1    0    0    0    0 -0.00000000000E+00 -0.00000000000E+00  0.11368683772E-12  0.17120000000E+03  0.17120000000E+03 0.  0.
         13    1    1    2    0    0  0.24284428154E+03 -0.43408489658E+02  0.96844621494E+03  0.99937266545E+03  0.10566000000E+00 0. -1.
        994    1    1    2    0    0 -0.25951354235E+03  0.45779872114E+02  0.28420296110E+03  0.42370253534E+03  0.17120000000E+03 0.  0.
        998    1    1    2    0    0  0.16669260814E+02 -0.23713824563E+01  0.24735082024E+03  0.24812479921E+03  0.10000000000E+02 0. -1.
</event>
<event>
 5    1  0.1300052E-008  0.3831750E+03  0.7957747E-01  0.3437449E+00
         13   -1    0    0    0    0  0.00000000000E+00  0.00000000000E+00  0.14999999963E+04  0.15000000000E+04  0.10566000000E+00 0. -1.
        994   -1    0    0    0    0 -0.00000000000E+00 -0.00000000000E+00  0.11368683772E-12  0.17120000000E+03  0.17120000000E+03 0.  0.
         13    1    1    2    0    0  0.12395759470E+02  0.45317388396E+01  0.34172173764E+02  0.36632501055E+02  0.10566000000E+00 0. -1.
        994    1    1    2    0    0 -0.24282687649E+01 -0.43313528957E+01  0.26205002929E+01  0.17129204339E+03  0.17120000000E+03 0.  0.
        998    1    1    2    0    0 -0.99674907046E+01 -0.20038594387E+00  0.14632073222E+04  0.14632754556E+04  0.10000000000E+02 0. -1.
</event>
<event>
 5    1  0.1300052E-008  0.3993157E+03  0.7957747E-01  0.3371137E+00
         13   -1    0    0    0    0  0.00000000000E+00  0.00000000000E+00  0.14999999963E+04  0.15000000000E+04  0.10566000000E+00 0.  1.
        994   -1    0    0    0    0 -0.00000000000E+00 -0.00000000000E+00  0.11368683772E-12  0.17120000000E+03  0.17120000000E+03 0.  0.
         13    1    1    2    0    0  0.10729460271E+02 -0.31298483427E+02  0.11789721938E+02  0.35124422984E+02  0.10566000000E+00 0.  1.
        994    1    1    2    0    0 -0.41553537638E+02 -0.13317891090E+03  0.10821152871E+03  0.24593188843E+03  0.17120000000E+03 0.  0.
        998    1    1    2    0    0  0.30824077367E+02  0.16447739433E+03  0.13799987456E+04  0.13901436886E+04  0.10000000000E+02 0.  1.
</event>
<event>
 5    1  0.1300052E-008  0.3826599E+03  0.7957747E-01  0.3439658E+00
         13   -1    0    0    0    0  0.00000000000E+00  0.00000000000E+00  0.14999999963E+04  0.15000000000E+04  0.10566000000E+00 0. -1.
        994   -1    0    0    0    0 -0.00000000000E+00 -0.00000000000E+00  0.11368683772E-12  0.17120000000E+03  0.17120000000E+03 0.  0.
         13    1    1    2    0    0  0.15493815524E+02 -0.15009544821E+02  0.80088402282E+02  0.82942800166E+02  0.10566000000E+00 0. -1.
        994    1    1    2    0    0 -0.19753244941E+02  0.66129780973E+01  0.42356656410E+01  0.17251464584E+03  0.17120000000E+03 0.  0.
        998    1    1    2    0    0  0.42594294165E+01  0.83965667233E+01  0.14156759284E+04  0.14157425540E+04  0.10000000000E+02 0. -1.
</event>
<event>
 5    1  0.1300052E-008  0.3834265E+03  0.7957747E-01  0.3436373E+00
         13   -1    0    0    0    0  0.00000000000E+00  0.00000000000E+00  0.14999999963E+04  0.15000000000E+04  0.10566000000E+00 0. -1.
        994   -1    0    0    0    0 -0.00000000000E+00 -0.00000000000E+00  0.11368683772E-12  0.17120000000E+03  0.17120000000E+03 0.  0.
         13    1    1    2    0    0 -0.94844412879E+01  0.70058485451E+01  0.28330444996E+02  0.30686508731E+02  0.10566000000E+00 0. -1.
        994    1    1    2    0    0  0.75337174612E+01  0.15744632228E+01  0.26092233454E+01  0.17139277663E+03  0.17120000000E+03 0.  0.
        998    1    1    2    0    0  0.19507238267E+01 -0.85803117680E+01  0.14690603279E+04  0.14691207146E+04  0.10000000000E+02 0. -1.
</event>
<event>
 5    1  0.1300052E-008  0.3759744E+03  0.7957747E-01  0.3468877E+00
         13   -1    0    0    0    0  0.00000000000E+00  0.00000000000E+00  0.14999999963E+04  0.15000000000E+04  0.10566000000E+00 0. -1.
        994   -1    0    0    0    0 -0.00000000000E+00 -0.00000000000E+00  0.11368683772E-12  0.17120000000E+03  0.17120000000E+03 0.  0.
         13    1    1    2    0    0  0.64897699780E+02  0.17827694594E+03  0.11348133060E+04  0.11505631801E+04  0.10566000000E+00 0. -1.
        994    1    1    2    0    0 -0.76889495067E+02 -0.15525822962E+03  0.11578705440E+03  0.26969092362E+03  0.17120000000E+03 0.  0.
        998    1    1    2    0    0  0.11991795287E+02 -0.23018716319E+02  0.24939963590E+03  0.25094589625E+03  0.10000000000E+02 0. -1.
</event>
<event>
 5    1  0.1300052E-008  0.3827027E+03  0.7957747E-01  0.3439474E+00
         13   -1    0    0    0    0  0.00000000000E+00  0.00000000000E+00  0.14999999963E+04  0.15000000000E+04  0.10566000000E+00 0. -1.
        994   -1    0    0    0    0 -0.00000000000E+00 -0.00000000000E+00  0.11368683772E-12  0.17120000000E+03  0.17120000000E+03 0.  0.
         13    1    1    2    0    0 -0.99544541518E+01  0.13699679778E+02  0.50687571705E+02  0.53441682916E+02  0.10566000000E+00 0. -1.
        994    1    1    2    0    0  0.11472793719E+02 -0.60552121388E+01  0.33328337792E+01  0.17172314454E+03  0.17120000000E+03 0.  0.
        998    1    1    2    0    0 -0.15183395668E+01 -0.76444676394E+01  0.14459795908E+04  0.14460351725E+04  0.10000000000E+02 0. -1.
</event>
<event>
 5    1  0.1300052E-008  0.3852574E+03  0.7957747E-01  0.3428581E+00
         13   -1    0    0    0    0  0.00000000000E+00  0.00000000000E+00  0.14999999963E+04  0.15000000000E+04  0.10566000000E+00 0.  1.
        994   -1    0    0    0    0 -0.00000000000E+00 -0.00000000000E+00  0.11368683772E-12  0.17120000000E+03  0.17120000000E+03 0.  0.
         13    1    1    2    0    0  0.13191496550E+02 -0.19239852528E+00  0.59228284498E+02  0.60679926228E+02  0.10566000000E+00 0.  1.
        994    1    1    2    0    0 -0.55744281881E+01  0.26634248190E+01  0.16278285725E+01  0.17131916970E+03  0.17120000000E+03 0.  0.
        998    1    1    2    0    0 -0.76170683620E+01 -0.24710262938E+01  0.14391438832E+04  0.14392009041E+04  0.10000000000E+02 0.  1.
</event>
<event>
 5    1  0.1300052E-008  0.3797490E+03  0.7957747E-01  0.3452252E+00
         13   -1    0    0    0    0  0.00000000000E+00  0.00000000000E+00  0.14999999963E+04  0.15000000000E+04  0.10566000000E+00 0.  1.
        994   -1    0    0    0    0 -0.00000000000E+00 -0.00000000000E+00  0.11368683772E-12  0.17120000000E+03  0.17120000000E+03 0.  0.
         13    1    1    2    0    0  0.25744870191E+02  0.16153038324E+00  0.73064930966E+02  0.77468185304E+02  0.10566000000E+00 0.  1.
        994    1    1    2    0    0 -0.25992107362E+02  0.23049831387E+01  0.65413110111E+01  0.17330069631E+03  0.17120000000E+03 0.  0.
        998    1    1    2    0    0  0.24723717060E+00 -0.24665135219E+01  0.14203937543E+04  0.14204311184E+04  0.10000000000E+02 0.  1.
</event>
<event>
 5    1  0.1300052E-008  0.3855392E+03  0.7957747E-01  0.3427389E+00
         13   -1    0    0    0    0  0.00000000000E+00  0.00000000000E+00  0.14999999963E+04  0.15000000000E+04  0.10566000000E+00 0.  1.
        994   -1    0    0    0    0 -0.00000000000E+00 -0.00000000000E+00  0.11368683772E-12  0.17120000000E+03  0.17120000000E+03 0.  0.
         13    1    1    2    0    0 -0.11209628564E+02 -0.11808118489E+00  0.49332866793E+02  0.50590637728E+02  0.10566000000E+00 0.  1.
        994    1    1    2    0    0 -0.27960310955E+01  0.86240759769E+01  0.16325720099E+01  0.17144765314E+03  0.17120000000E+03 0.  0.
        998    1    1    2    0    0  0.14005659660E+02 -0.85059947921E+01  0.14490345575E+04  0.14491617091E+04  0.10000000000E+02 0.  1.
</event>
<event>
 5    1  0.1300052E-008  0.3822624E+03  0.7957747E-01  0.3441366E+00
         13   -1    0    0    0    0  0.00000000000E+00  0.00000000000E+00  0.14999999963E+04  0.15000000000E+04  0.10566000000E+00 0. -1.
        994   -1    0    0    0    0 -0.00000000000E+00 -0.00000000000E+00  0.11368683772E-12  0.17120000000E+03  0.17120000000E+03 0.  0.
         13    1    1    2    0    0 -0.28552281065E+01 -0.10244667800E+02  0.17688521852E+02  0.20639779921E+02  0.10566000000E+00 0. -1.
        994    1    1    2    0    0  0.61069619222E+01  0.60794041778E+01  0.32418776159E+01  0.17144737942E+03  0.17120000000E+03 0.  0.
        998    1    1    2    0    0 -0.32517338157E+01  0.41652636221E+01  0.14790695968E+04  0.14791128407E+04  0.10000000000E+02 0. -1.
</event>
<event>
 5    1  0.1300052E-008  0.4155035E+03  0.7957747E-01  0.3309782E+00
         13   -1    0    0    0    0  0.00000000000E+00  0.00000000000E+00  0.14999999963E+04  0.15000000000E+04  0.10566000000E+00 0.  1.
        994   -1    0    0    0    0 -0.00000000000E+00 -0.00000000000E+00  0.11368683772E-12  0.17120000000E+03  0.17120000000E+03 0.  0.
         13    1    1    2    0    0 -0.28609147757E+02  0.63861426256E+02  0.51144195681E+02  0.86674708045E+02  0.10566000000E+00 0. -1.
        994    1    1    2    0    0  0.28619174761E+02 -0.65195152841E+02  0.58918705213E+02  0.19455158427E+03  0.17120000000E+03 0.  0.
        998    1    1    2    0    0 -0.10027003779E-01  0.13337265848E+01  0.13899370954E+04  0.13899737077E+04  0.10000000000E+02 0.  1.
</event>
<event>
 5    1  0.1300052E-008  0.3755912E+03  0.7957747E-01  0.3470583E+00
         13   -1    0    0    0    0  0.00000000000E+00  0.00000000000E+00  0.14999999963E+04  0.15000000000E+04  0.10566000000E+00 0. -1.
        994   -1    0    0    0    0 -0.00000000000E+00 -0.00000000000E+00  0.11368683772E-12  0.17120000000E+03  0.17120000000E+03 0.  0.
         13    1    1    2    0    0 -0.42555469736E+00  0.30455154697E+02  0.69057054348E+02  0.75475727646E+02  0.10566000000E+00 0. -1.
        994    1    1    2    0    0  0.20639603712E+02 -0.24304296701E+02  0.98322594014E+01  0.17442134446E+03  0.17120000000E+03 0.  0.
        998    1    1    2    0    0 -0.20214049015E+02 -0.61508579959E+01  0.14211106825E+04  0.14213029279E+04  0.10000000000E+02 0. -1.
</event>
<event>
 5    1  0.1300052E-008  0.3848504E+03  0.7957747E-01  0.3430307E+00
         13   -1    0    0    0    0  0.00000000000E+00  0.00000000000E+00  0.14999999963E+04  0.15000000000E+04  0.10566000000E+00 0. -1.
        994   -1    0    0    0    0 -0.00000000000E+00 -0.00000000000E+00  0.11368683772E-12  0.17120000000E+03  0.17120000000E+03 0.  0.
         13    1    1    2    0    0 -0.29293082938E+01  0.14862355653E+02  0.67823122703E+02  0.69494299046E+02  0.10566000000E+00 0. -1.
        994    1    1    2    0    0 -0.10666436130E+02 -0.11088416447E+02  0.24836917393E+01  0.17190792467E+03  0.17120000000E+03 0.  0.
        998    1    1    2    0    0  0.13595744424E+02 -0.37739392058E+01  0.14296931818E+04  0.14297977763E+04  0.10000000000E+02 0. -1.
</event>
<event>
 5    1  0.1300052E-008  0.3853774E+03  0.7957747E-01  0.3428073E+00
         13   -1    0    0    0    0  0.00000000000E+00  0.00000000000E+00  0.14999999963E+04  0.15000000000E+04  0.10566000000E+00 0. -1.
        994   -1    0    0    0    0 -0.00000000000E+00 -0.00000000000E+00  0.11368683772E-12  0.17120000000E+03  0.17120000000E+03 0.  0.
         13    1    1    2    0    0 -0.10952926921E+02  0.14753051547E+01  0.41124501336E+02  0.42583786910E+02  0.10566000000E+00 0. -1.
        994    1    1    2    0    0  0.12440693717E+02 -0.64232965491E+01  0.20870061563E+01  0.17178424024E+03  0.17120000000E+03 0.  0.
        998    1    1    2    0    0 -0.14877667957E+01  0.49479913945E+01  0.14567884888E+04  0.14568319729E+04  0.10000000000E+02 0. -1.
</event>
<event>
 5    1  0.1300052E-008  0.3854848E+03  0.7957747E-01  0.3427619E+00
         13   -1    0    0    0    0  0.00000000000E+00  0.00000000000E+00  0.14999999963E+04  0.15000000000E+04  0.10566000000E+00 0.  1.
        994   -1    0    0    0    0 -0.00000000000E+00 -0.00000000000E+00  0.11368683772E-12  0.17120000000E+03  0.17120000000E+03 0.  0.
         13    1    1    2    0    0  0.14087053582E+02  0.87060719154E+01  0.94254238341E+02  0.95698032248E+02  0.10566000000E+00 0.  1.
        994    1    1    2    0    0 -0.16199450144E+02 -0.58593300008E+01  0.23646477774E+01  0.17208075282E+03  0.17120000000E+03 0.  0.
        998    1    1    2    0    0  0.21123965614E+01 -0.28467419145E+01  0.14033811102E+04  0.14034212149E+04  0.10000000000E+02 0.  1.
</event>
<event>
 5    1  0.1300052E-008  0.3768766E+03  0.7957747E-01  0.3464872E+00
         13   -1    0    0    0    0  0.00000000000E+00  0.00000000000E+00  0.14999999963E+04  0.15000000000E+04  0.10566000000E+00 0.  1.
        994   -1    0    0    0    0 -0.00000000000E+00 -0.00000000000E+00  0.11368683772E-12  0.17120000000E+03  0.17120000000E+03 0.  0.
         13    1    1    2    0    0  0.84196110781E+02 -0.68954674644E+02  0.63598116543E+03  0.64522537626E+03  0.10566000000E+00 0.  1.
        994    1    1    2    0    0 -0.92655521959E+02  0.50173611994E+02  0.44190773611E+02  0.20582687279E+03  0.17120000000E+03 0.  0.
        998    1    1    2    0    0  0.84594111782E+01  0.18781062650E+02  0.81982805724E+03  0.82014775095E+03  0.10000000000E+02 0. -1.
</event>
<event>
 5    1  0.1300052E-008  0.3703262E+03  0.7957747E-01  0.3494393E+00
         13   -1    0    0    0    0  0.00000000000E+00  0.00000000000E+00  0.14999999963E+04  0.15000000000E+04  0.10566000000E+00 0. -1.
        994   -1    0    0    0    0 -0.00000000000E+00 -0.00000000000E+00  0.11368683772E-12  0.17120000000E+03  0.17120000000E+03 0.  0.
         13    1    1    2    0    0 -0.37276867565E+01  0.20167558441E+02  0.13937487787E+02  0.24796991589E+02  0.10566000000E+00 0. -1.
        994    1    1    2    0    0  0.63422496547E+00 -0.20121140976E+02  0.12531081709E+02  0.17283440214E+03  0.17120000000E+03 0.  0.
        998    1    1    2    0    0  0.30934617910E+01 -0.46417465209E-01  0.14735314268E+04  0.14735686063E+04  0.10000000000E+02 0. -1.
</event>
<event>
 5    1  0.1300052E-008  0.3804586E+03  0.7957747E-01  0.3449164E+00
         13   -1    0    0    0    0  0.00000000000E+00  0.00000000000E+00  0.14999999963E+04  0.15000000000E+04  0.10566000000E+00 0.  1.
        994   -1    0    0    0    0 -0.00000000000E+00 -0.00000000000E+00  0.11368683772E-12  0.17120000000E+03  0.17120000000E+03 0.  0.
         13    1    1    2    0    0 -0.15212472447E+02 -0.21122818034E+01  0.28595512738E+02  0.32459136852E+02  0.10566000000E+00 0.  1.
        994    1    1    2    0    0  0.11623104121E+02  0.25743461815E-01  0.43528842309E+01  0.17164930764E+03  0.17120000000E+03 0.  0.
        998    1    1    2    0    0  0.35893683261E+01  0.20865383416E+01  0.14670515993E+04  0.14670915555E+04  0.10000000000E+02 0.  1.
</event>
<event>
 5    1  0.1300052E-008  0.3844559E+03  0.7957747E-01  0.3431983E+00
         13   -1    0    0    0    0  0.00000000000E+00  0.00000000000E+00  0.14999999963E+04  0.15000000000E+04  0.10566000000E+00 0.  1.
        994   -1    0    0    0    0 -0.00000000000E+00 -0.00000000000E+00  0.11368683772E-12  0.17120000000E+03  0.17120000000E+03 0.  0.
         13    1    1    2    0    0 -0.12319434205E+02  0.49095852183E+01  0.44105896155E+02  0.46056636067E+02  0.10566000000E+00 0.  1.
        994    1    1    2    0    0  0.17295226049E+02 -0.32674666479E+01  0.29218106897E+01  0.17212721505E+03  0.17120000000E+03 0.  0.
        998    1    1    2    0    0 -0.49757918436E+01 -0.16421185704E+01  0.14529722894E+04  0.14530161489E+04  0.10000000000E+02 0.  1.
</event>
<event>
 5    1  0.1300052E-008  0.3816109E+03  0.7957747E-01  0.3444174E+00
         13   -1    0    0    0    0  0.00000000000E+00  0.00000000000E+00  0.14999999963E+04  0.15000000000E+04  0.10566000000E+00 0.  1.
        994   -1    0    0    0    0 -0.00000000000E+00 -0.00000000000E+00  0.11368683772E-12  0.17120000000E+03  0.17120000000E+03 0.  0.
         13    1    1    2    0    0  0.71411127956E+01  0.72809190721E+01  0.14717031950E+02  0.17905570864E+02  0.10566000000E+00 0.  1.
        994    1    1    2    0    0 -0.65686556693E+01  0.13214868495E+02  0.40466961604E+01  0.17188250561E+03  0.17120000000E+03 0.  0.
        998    1    1    2    0    0 -0.57245712629E+00 -0.20495787567E+02  0.14812362682E+04  0.14814119235E+04  0.10000000000E+02 0.  1.
</event>
<event>
 5    1  0.1300052E-008  0.3849153E+03  0.7957747E-01  0.3430032E+00
         13   -1    0    0    0    0  0.00000000000E+00  0.00000000000E+00  0.14999999963E+04  0.15000000000E+04  0.10566000000E+00 0.  1.
        994   -1    0    0    0    0 -0.00000000000E+00 -0.00000000000E+00  0.11368683772E-12  0.17120000000E+03  0.17120000000E+03 0.  0.
         13    1    1    2    0    0  0.12087484235E+02  0.33789075987E+01  0.48218779458E+02  0.49825557179E+02  0.10566000000E+00 0.  1.
        994    1    1    2    0    0 -0.42557034972E+01  0.16279259667E+01  0.17405160727E+01  0.17126946766E+03  0.17120000000E+03 0.  0.
        998    1    1    2    0    0 -0.78317807381E+01 -0.50068335654E+01  0.14500407007E+04  0.14501049752E+04  0.10000000000E+02 0.  1.
</event>
<event>
 5    1  0.1300052E-008  0.3820467E+03  0.7957747E-01  0.3442295E+00
         13   -1    0    0    0    0  0.00000000000E+00  0.00000000000E+00  0.14999999963E+04  0.15000000000E+04  0.10566000000E+00 0.  1.
        994   -1    0    0    0    0 -0.00000000000E+00 -0.00000000000E+00  0.11368683772E-12  0.17120000000E+03  0.17120000000E+03 0.  0.
         13    1    1    2    0    0 -0.16834934827E+02 -0.41703944501E+02  0.25579523301E+03  0.25971878333E+03  0.10566000000E+00 0.  1.
        994    1    1    2    0    0  0.26996647465E+02  0.44744098821E+02  0.12224777801E+02  0.17941498975E+03  0.17120000000E+03 0.  0.
        998    1    1    2    0    0 -0.10161712637E+02 -0.30401543194E+01  0.12319799855E+04  0.12320662269E+04  0.10000000000E+02 0.  1.
</event>
<event>
 5    1  0.1300052E-008  0.3763303E+03  0.7957747E-01  0.3467294E+00
         13   -1    0    0    0    0  0.00000000000E+00  0.00000000000E+00  0.14999999963E+04  0.15000000000E+04  0.10566000000E+00 0. -1.
        994   -1    0    0    0    0 -0.00000000000E+00 -0.00000000000E+00  0.11368683772E-12  0.17120000000E+03  0.17120000000E+03 0.  0.
         13    1    1    2    0    0 -0.19536916584E+02  0.28472887017E+02  0.88802504255E+02  0.95280073103E+02  0.10566000000E+00 0. -1.
        994    1    1    2    0    0  0.38718194307E+01 -0.49906719679E+02  0.14523900405E+02  0.17895825026E+03  0.17120000000E+03 0.  0.
        998    1    1    2    0    0  0.15665097153E+02  0.21433832662E+02  0.13966735916E+04  0.13969616766E+04  0.10000000000E+02 0. -1.
</event>
<event>
 5    1  0.1300052E-008  0.3854657E+03  0.7957747E-01  0.3427699E+00
         13   -1    0    0    0    0  0.00000000000E+00  0.00000000000E+00  0.14999999963E+04  0.15000000000E+04  0.10566000000E+00 0. -1.
        994   -1    0    0    0    0 -0.00000000000E+00 -0.00000000000E+00  0.11368683772E-12  0.17120000000E+03  0.17120000000E+03 0.  0.
         13    1    1    2    0    0 -0.10238181793E+00  0.10564395602E+02  0.40815993674E+02  0.42161278919E+02  0.10566000000E+00 0. -1.
        994    1    1    2    0    0  0.36955970065E+01 -0.33650951386E+01  0.14811355686E+01  0.17127934804E+03  0.17120000000E+03 0.  0.
        998    1    1    2    0    0 -0.35932151886E+01 -0.71993004630E+01  0.14577028670E+04  0.14577593730E+04  0.10000000000E+02 0. -1.
</event>
<event>
 5    1  0.1300052E-008  0.3716580E+03  0.7957747E-01  0.3488306E+00
         13   -1    0    0    0    0  0.00000000000E+00  0.00000000000E+00  0.14999999963E+04  0.15000000000E+04  0.10566000000E+00 0.  1.
        994   -1    0    0    0    0 -0.00000000000E+00 -0.00000000000E+00  0.11368683772E-12  0.17120000000E+03  0.17120000000E+03 0.  0.
         13    1    1    2    0    0 -0.61591222878E+02  0.13012590304E+02  0.20423505330E+03  0.21371657494E+03  0.10566000000E+00 0.  1.
        994    1    1    2    0    0  0.60205708829E+02 -0.10321154718E+02  0.21344204559E+02  0.18301985870E+03  0.17120000000E+03 0.  0.
        998    1    1    2    0    0  0.13855140495E+01 -0.26914355860E+01  0.12744207384E+04  0.12744635664E+04  0.10000000000E+02 0.  1.
</event>
<event>
 5    1  0.1300052E-008  0.3828499E+03  0.7957747E-01  0.3438843E+00
         13   -1    0    0    0    0  0.00000000000E+00  0.00000000000E+00  0.14999999963E+04  0.15000000000E+04  0.10566000000E+00 0. -1.
        994   -1    0    0    0    0 -0.00000000000E+00 -0.00000000000E+00  0.11368683772E-12  0.17120000000E+03  0.17120000000E+03 0.  0.
         13    1    1    2    0    0  0.42885086279E+01 -0.12893917677E+02  0.33680577331E+02  0.36318547227E+02  0.10566000000E+00 0. -1.
        994    1    1    2    0    0 -0.69982848927E+01  0.39457235014E+01  0.29151920052E+01  0.17141319398E+03  0.17120000000E+03 0.  0.
        998    1    1    2    0    0  0.27097762648E+01  0.89481941751E+01  0.14634042269E+04  0.14634682588E+04  0.10000000000E+02 0. -1.
</event>
<event>
 5    1  0.1300052E-008  0.3823151E+03  0.7957747E-01  0.3441140E+00
         13   -1    0    0    0    0  0.00000000000E+00  0.00000000000E+00  0.14999999963E+04  0.15000000000E+04  0.10566000000E+00 0.  1.
        994   -1    0    0    0    0 -0.00000000000E+00 -0.00000000000E+00  0.11368683772E-12  0.17120000000E+03  0.17120000000E+03 0.  0.
         13    1    1    2    0    0  0.15482279883E+02  0.12625695599E+02  0.64434173948E+02  0.67460233591E+02  0.10566000000E+00 0.  1.
        994    1    1    2    0    0 -0.12401981038E+02 -0.14312491020E+02  0.41598111812E+01  0.17229451692E+03  0.17120000000E+03 0.  0.
        998    1    1    2    0    0 -0.30802988448E+01  0.16867954214E+01  0.14314060111E+04  0.14314452495E+04  0.10000000000E+02 0.  1.
</event>
<event>
 5    1  0.1300052E-008  0.3817111E+03  0.7957747E-01  0.3443742E+00
         13   -1    0    0    0    0  0.00000000000E+00  0.00000000000E+00  0.14999999963E+04  0.15000000000E+04  0.10566000000E+00 0. -1.
        994   -1    0    0    0    0 -0.00000000000E+00 -0.00000000000E+00  0.11368683772E-12  0.17120000000E+03  0.17120000000E+03 0.  0.
         13    1    1    2    0    0 -0.57792097658E+01 -0.10734933013E+02  0.21213175941E+02  0.24467285298E+02  0.10566000000E+00 0. -1.
        994    1    1    2    0    0  0.63020910396E+01  0.10005849153E+02  0.37368625238E+01  0.17164858727E+03  0.17120000000E+03 0.  0.
        998    1    1    2    0    0 -0.52288127382E+00  0.72908386055E+00  0.14750499578E+04  0.14750841274E+04  0.10000000000E+02 0. -1.
</event>
<event>
 5    1  0.1300052E-008  0.3856873E+03  0.7957747E-01  0.3426763E+00
         13   -1    0    0    0    0  0.00000000000E+00  0.00000000000E+00  0.14999999963E+04  0.15000000000E+04  0.10566000000E+00 0.  1.
        994   -1    0    0    0    0 -0.00000000000E+00 -0.00000000000E+00  0.11368683772E-12  0.17120000000E+03  0.17120000000E+03 0.  0.
         13    1    1    2    0    0  0.43218220064E+01 -0.13003745248E+02  0.77033899808E+02  0.78243264372E+02  0.10566000000E+00 0.  1.
        994    1    1    2    0    0  0.58420523248E+01  0.48983234584E+01  0.14800369300E+01  0.17137605917E+03  0.17120000000E+03 0.  0.
        998    1    1    2    0    0 -0.10163874331E+02  0.81054217899E+01  0.14214860595E+04  0.14215806765E+04  0.10000000000E+02 0.  1.
</event>
<event>
 5    1  0.1300052E-008  0.3854496E+03  0.7957747E-01  0.3427768E+00
         13   -1    0    0    0    0  0.00000000000E+00  0.00000000000E+00  0.14999999963E+04  0.15000000000E+04  0.10566000000E+00 0.  1.
        994   -1    0    0    0    0 -0.00000000000E+00 -0.00000000000E+00  0.11368683772E-12  0.17120000000E+03  0.17120000000E+03 0.  0.
         13    1    1    2    0    0  0.31319555217E+01  0.15937565231E+02  0.94951956979E+02  0.96331201742E+02  0.10566000000E+00 0.  1.
        994    1    1    2    0    0 -0.21213130817E+01 -0.92089985032E+01  0.17004193140E+01  0.17146905566E+03  0.17120000000E+03 0.  0.
        998    1    1    2    0    0 -0.10106424400E+01 -0.67285667282E+01  0.14033476200E+04  0.14033997426E+04  0.10000000000E+02 0.  1.
</event>
<event>
 5    1  0.1300052E-008  0.3721285E+03  0.7957747E-01  0.3486166E+00
         13   -1    0    0    0    0  0.00000000000E+00  0.00000000000E+00  0.14999999963E+04  0.15000000000E+04  0.10566000000E+00 0.  1.
        994   -1    0    0    0    0 -0.00000000000E+00 -0.00000000000E+00  0.11368683772E-12  0.17120000000E+03  0.17120000000E+03 0.  0.
         13    1    1    2    0    0  0.18819970037E+02 -0.29405762962E+02  0.46065534049E+02  0.57800819707E+02  0.10566000000E+00 0.  1.
        994    1    1    2    0    0 -0.61022340870E-01  0.26381378557E+02  0.14523979551E+02  0.17382855588E+03  0.17120000000E+03 0.  0.
        998    1    1    2    0    0 -0.18758947696E+02  0.30243844042E+01  0.14394104827E+04  0.14395706244E+04  0.10000000000E+02 0.  1.
</event>
<event>
 5    1  0.1300052E-008  0.3791007E+03  0.7957747E-01  0.3455084E+00
         13   -1    0    0    0    0  0.00000000000E+00  0.00000000000E+00  0.14999999963E+04  0.15000000000E+04  0.10566000000E+00 0.  1.
        994   -1    0    0    0    0 -0.00000000000E+00 -0.00000000000E+00  0.11368683772E-12  0.17120000000E+03  0.17120000000E+03 0.  0.
         13    1    1    2    0    0  0.26266310871E+01 -0.14938675307E+02  0.26462118033E+02  0.30501115810E+02  0.10566000000E+00 0.  1.
        994    1    1    2    0    0 -0.16069032464E+02 -0.40093078609E+02  0.10868722045E+02  0.17689894820E+03  0.17120000000E+03 0.  0.
        998    1    1    2    0    0  0.13442401377E+02  0.55031753916E+02  0.14626691562E+04  0.14637999360E+04  0.10000000000E+02 0.  1.
</event>
<event>
 5    1  0.1300052E-008  0.3841213E+03  0.7957747E-01  0.3433407E+00
         13   -1    0    0    0    0  0.00000000000E+00  0.00000000000E+00  0.14999999963E+04  0.15000000000E+04  0.10566000000E+00 0. -1.
        994   -1    0    0    0    0 -0.00000000000E+00 -0.00000000000E+00  0.11368683772E-12  0.17120000000E+03  0.17120000000E+03 0.  0.
         13    1    1    2    0    0 -0.18132863702E+02 -0.10213445229E+02  0.11907966095E+03  0.12088462279E+03  0.10566000000E+00 0. -1.
        994    1    1    2    0    0 -0.42895499465E+01  0.80274853168E-01  0.21277211942E+01  0.17126696669E+03  0.17120000000E+03 0.  0.
        998    1    1    2    0    0  0.22422413649E+02  0.10133170376E+02  0.13787926141E+04  0.13790484105E+04  0.10000000000E+02 0. -1.
</event>
<event>
 5    1  0.1300052E-008  0.3849491E+03  0.7957747E-01  0.3429888E+00
         13   -1    0    0    0    0  0.00000000000E+00  0.00000000000E+00  0.14999999963E+04  0.15000000000E+04  0.10566000000E+00 0.  1.
        994   -1    0    0    0    0 -0.00000000000E+00 -0.00000000000E+00  0.11368683772E-12  0.17120000000E+03  0.17120000000E+03 0.  0.
         13    1    1    2    0    0 -0.13114443594E+02 -0.88180722444E+01  0.77345332264E+02  0.78943388678E+02  0.10566000000E+00 0.  1.
        994    1    1    2    0    0  0.12413438129E+02 -0.61234724025E+01  0.22858618349E+01  0.17177384994E+03  0.17120000000E+03 0.  0.
        998    1    1    2    0    0  0.70100546510E+00  0.14941544647E+02  0.14203688022E+04  0.14204827614E+04  0.10000000000E+02 0.  1.
</event>
<event>
 5    1  0.1300052E-008  0.3856311E+03  0.7957747E-01  0.3427000E+00
         13   -1    0    0    0    0  0.00000000000E+00  0.00000000000E+00  0.14999999963E+04  0.15000000000E+04  0.10566000000E+00 0.  1.
        994   -1    0    0    0    0 -0.00000000000E+00 -0.00000000000E+00  0.11368683772E-12  0.17120000000E+03  0.17120000000E+03 0.  0.
         13    1    1    2    0    0 -0.97804778982E+01 -0.14059327407E+02  0.10346909967E+03  0.10487701457E+03  0.10566000000E+00 0.  1.
        994    1    1    2    0    0  0.11848638246E+02  0.16127921387E+02  0.26326707594E+01  0.17238582027E+03  0.17120000000E+03 0.  0.
        998    1    1    2    0    0 -0.20681603474E+01 -0.20685939807E+01  0.13938982258E+04  0.13939371652E+04  0.10000000000E+02 0.  1.
</event>
<event>
 5    1  0.1300052E-008  0.3792325E+03  0.7957747E-01  0.3454507E+00
         13   -1    0    0    0    0  0.00000000000E+00  0.00000000000E+00  0.14999999963E+04  0.15000000000E+04  0.10566000000E+00 0.  1.
        994   -1    0    0    0    0 -0.00000000000E+00 -0.00000000000E+00  0.11368683772E-12  0.17120000000E+03  0.17120000000E+03 0.  0.
         13    1    1    2    0    0  0.99539790331E+01  0.10888233909E+01  0.88281655694E+01  0.13349715590E+02  0.10566000000E+00 0.  1.
        994    1    1    2    0    0 -0.17499261217E+02 -0.10135717233E+02  0.58928606769E+01  0.17249093516E+03  0.17120000000E+03 0.  0.
        998    1    1    2    0    0  0.75452821841E+01  0.90468938418E+01  0.14852789700E+04  0.14853593492E+04  0.10000000000E+02 0.  1.
</event>
<event>
 5    1  0.1300052E-008  0.3689108E+03  0.7957747E-01  0.3500912E+00
         13   -1    0    0    0    0  0.00000000000E+00  0.00000000000E+00  0.14999999963E+04  0.15000000000E+04  0.10566000000E+00 0.  1.
        994   -1    0    0    0    0 -0.00000000000E+00 -0.00000000000E+00  0.11368683772E-12  0.17120000000E+03  0.17120000000E+03 0.  0.
         13    1    1    2    0    0 -0.13427400513E+02  0.39031617109E+01  0.52901871372E+01  0.14950819371E+02  0.10566000000E+00 0.  1.
        994    1    1    2    0    0  0.15251395130E+02 -0.20180981956E+02  0.12063482784E+02  0.17347865777E+03  0.17120000000E+03 0.  0.
        998    1    1    2    0    0 -0.18239946171E+01  0.16277820245E+02  0.14826463264E+04  0.14827705229E+04  0.10000000000E+02 0.  1.
</event>
<event>
 5    1  0.1300052E-008  0.3772734E+03  0.7957747E-01  0.3463117E+00
         13   -1    0    0    0    0  0.00000000000E+00  0.00000000000E+00  0.14999999963E+04  0.15000000000E+04  0.10566000000E+00 0. -1.
        994   -1    0    0    0    0 -0.00000000000E+00 -0.00000000000E+00  0.11368683772E-12  0.17120000000E+03  0.17120000000E+03 0.  0.
         13    1    1    2    0    0  0.20531791434E+02  0.20374577286E+02  0.76211267285E+02  0.81515926568E+02  0.10566000000E+00 0. -1.
        994    1    1    2    0    0 -0.31969895920E+01 -0.11314679352E+02  0.59823461321E+01  0.17170751637E+03  0.17120000000E+03 0.  0.
        998    1    1    2    0    0 -0.17334801842E+02 -0.90598979336E+01  0.14178063829E+04  0.14179765571E+04  0.10000000000E+02 0. -1.
</event>
<event>
 5    1  0.1300052E-008  0.3850406E+03  0.7957747E-01  0.3429500E+00
         13   -1    0    0    0    0  0.00000000000E+00  0.00000000000E+00  0.14999999963E+04  0.15000000000E+04  0.10566000000E+00 0. -1.
        994   -1    0    0    0    0 -0.00000000000E+00 -0.00000000000E+00  0.11368683772E-12  0.17120000000E+03  0.17120000000E+03 0.  0.
         13    1    1    2    0    0  0.13506714362E+02 -0.40191078852E+01  0.61121412505E+02  0.62724977415E+02  0.10566000000E+00 0. -1.
        994    1    1    2    0    0 -0.11086554284E+02  0.78797894243E+00  0.20162828115E+01  0.17157225298E+03  0.17120000000E+03 0.  0.
        998    1    1    2    0    0 -0.24201600784E+01  0.32311289427E+01  0.14368623010E+04  0.14369027696E+04  0.10000000000E+02 0. -1.
</event>
<event>
 5    1  0.1300052E-008  0.3832249E+03  0.7957747E-01  0.3437236E+00
         13   -1    0    0    0    0  0.00000000000E+00  0.00000000000E+00  0.14999999963E+04  0.15000000000E+04  0.10566000000E+00 0. -1.
        994   -1    0    0    0    0 -0.00000000000E+00 -0.00000000000E+00  0.11368683772E-12  0.17120000000E+03  0.17120000000E+03 0.  0.
         13    1    1    2    0    0  0.11236757227E+02  0.18159862305E+02  0.98892369052E+02  0.10117191870E+03  0.10566000000E+00 0. -1.
        994    1    1    2    0    0  0.13409783307E+02 -0.73115302873E+01  0.32860352640E+01  0.17191136900E+03  0.17120000000E+03 0.  0.
        998    1    1    2    0    0 -0.24646540534E+02 -0.10848332018E+02  0.13978215920E+04  0.13981167123E+04  0.10000000000E+02 0. -1.
</event>
<event>
 5    1  0.1300052E-008  0.3850690E+03  0.7957747E-01  0.3429380E+00
         13   -1    0    0    0    0  0.00000000000E+00  0.00000000000E+00  0.14999999963E+04  0.15000000000E+04  0.10566000000E+00 0.  1.
        994   -1    0    0    0    0 -0.00000000000E+00 -0.00000000000E+00  0.11368683772E-12  0.17120000000E+03  0.17120000000E+03 0.  0.
         13    1    1    2    0    0  0.96511855818E+01 -0.14214482673E+02  0.97872528546E+02  0.99369210065E+02  0.10566000000E+00 0.  1.
        994    1    1    2    0    0  0.77786635063E+01  0.10481645869E+02  0.21562650325E+01  0.17171040150E+03  0.17120000000E+03 0.  0.
        998    1    1    2    0    0 -0.17429849088E+02  0.37328368040E+01  0.13999712027E+04  0.14001203884E+04  0.10000000000E+02 0.  1.
</event>
<event>
 5    1  0.1300052E-008  0.3845023E+03  0.7957747E-01  0.3431786E+00
         13   -1    0    0    0    0  0.00000000000E+00  0.00000000000E+00  0.14999999963E+04  0.15000000000E+04  0.10566000000E+00 0.  1.
        994   -1    0    0    0    0 -0.00000000000E+00 -0.00000000000E+00  0.11368683772E-12  0.17120000000E+03  0.17120000000E+03 0.  0.
         13    1    1    2    0    0 -0.17292637044E+02  0.76343950111E+01  0.99072787676E+02  0.10086004018E+03  0.10566000000E+00 0.  1.
        994    1    1    2    0    0  0.80843917018E+01  0.27313484718E+01  0.21173179587E+01  0.17142561270E+03  0.17120000000E+03 0.  0.
        998    1    1    2    0    0  0.92082453425E+01 -0.10365743483E+02  0.13988098906E+04  0.13989143471E+04  0.10000000000E+02 0.  1.
</event>
<event>
 5    1  0.1300052E-008  0.3813426E+03  0.7957747E-01  0.3445333E+00
         13   -1    0    0    0    0  0.00000000000E+00  0.00000000000E+00  0.14999999963E+04  0.15000000000E+04  0.10566000000E+00 0.  1.
        994   -1    0    0    0    0 -0.00000000000E+00 -0.00000000000E+00  0.11368683772E-12  0.17120000000E+03  0.17120000000E+03 0.  0.
         13    1    1    2    0    0  0.23357658968E+02  0.22963048555E+01  0.75788514897E+02  0.79339545013E+02  0.10566000000E+00 0.  1.
        994    1    1    2    0    0 -0.21533545963E+02 -0.57647680160E+01  0.51125562623E+01  0.17272088578E+03  0.17120000000E+03 0.  0.
        998    1    1    2    0    0 -0.18241130043E+01  0.34684631604E+01  0.14190989251E+04  0.14191395692E+04  0.10000000000E+02 0.  1.
</event>
<event>
 5    1  0.1300052E-008  0.3794400E+03  0.7957747E-01  0.3453600E+00
         13   -1    0    0    0    0  0.00000000000E+00  0.00000000000E+00  0.14999999963E+04  0.15000000000E+04  0.10566000000E+00 0.  1.
        994   -1    0    0    0    0 -0.00000000000E+00 -0.00000000000E+00  0.11368683772E-12  0.17120000000E+03  0.17120000000E+03 0.  0.
         13    1    1    2    0    0 -0.33679064063E+02 -0.42586605527E+02  0.84940584532E+02  0.10081077517E+03  0.10566000000E+00 0.  1.
        994    1    1    2    0    0  0.17960461857E+02  0.40296198348E+02  0.23091488013E+02  0.17829475205E+03  0.17120000000E+03 0.  0.
        998    1    1    2    0    0  0.15718602206E+02  0.22904071786E+01  0.13919679237E+04  0.13920944728E+04  0.10000000000E+02 0. -1.
</event>
<event>
 5    1  0.1300052E-008  0.4203549E+03  0.7957747E-01  0.3292303E+00
         13   -1    0    0    0    0  0.00000000000E+00  0.00000000000E+00  0.14999999963E+04  0.15000000000E+04  0.10566000000E+00 0.  1.
        994   -1    0    0    0    0 -0.00000000000E+00 -0.00000000000E+00  0.11368683772E-12  0.17120000000E+03  0.17120000000E+03 0.  0.
         13    1    1    2    0    0 -0.25305947631E+02  0.78432418414E+02  0.82829275567E+02  0.11684491987E+03  0.10566000000E+00 0.  1.
        994    1    1    2    0    0 -0.32309101380E+01 -0.12968039919E+02  0.41328150669E+02  0.17662407785E+03  0.17120000000E+03 0.  0.
        998    1    1    2    0    0  0.28536857769E+02 -0.65464378495E+02  0.13758425700E+04  0.13777310023E+04  0.10000000000E+02 0.  1.
</event>
<event>
 5    1  0.1300052E-008  0.3717160E+03  0.7957747E-01  0.3488042E+00
         13   -1    0    0    0    0  0.00000000000E+00  0.00000000000E+00  0.14999999963E+04  0.15000000000E+04  0.10566000000E+00 0.  1.
        994   -1    0    0    0    0 -0.00000000000E+00 -0.00000000000E+00  0.11368683772E-12  0.17120000000E+03  0.17120000000E+03 0.  0.
         13    1    1    2    0    0 -0.36603486466E+01  0.12945008489E+02  0.21561824898E+01  0.13624671885E+02  0.10566000000E+00 0.  1.
        994    1    1    2    0    0 -0.48234415889E+01 -0.14869447476E+02  0.12708962493E+02  0.17238133247E+03  0.17120000000E+03 0.  0.
        998    1    1    2    0    0  0.84837902355E+01  0.19244389872E+01  0.14851348513E+04  0.14851939956E+04  0.10000000000E+02 0.  1.
</event>
<event>
 5    1  0.1300052E-008  0.3706303E+03  0.7957747E-01  0.3492999E+00
         13   -1    0    0    0    0  0.00000000000E+00  0.00000000000E+00  0.14999999963E+04  0.15000000000E+04  0.10566000000E+00 0.  1.
        994   -1    0    0    0    0 -0.00000000000E+00 -0.00000000000E+00  0.11368683772E-12  0.17120000000E+03  0.17120000000E+03 0.  0.
         13    1    1    2    0    0  0.99514343114E+01  0.21690340974E+02  0.19927263328E+02  0.31090334900E+02  0.10566000000E+00 0.  1.
        994    1    1    2    0    0 -0.21229915942E+02 -0.22167357493E+02  0.14580427517E+02  0.17453976606E+03  0.17120000000E+03 0.  0.
        998    1    1    2    0    0  0.11278481630E+02  0.47701651941E+00  0.14654923054E+04  0.14655698990E+04  0.10000000000E+02 0.  1.
</event>
<event>
 5    1  0.1300052E-008  0.3795931E+03  0.7957747E-01  0.3452932E+00
         13   -1    0    0    0    0  0.00000000000E+00  0.00000000000E+00  0.14999999963E+04  0.15000000000E+04  0.10566000000E+00 0. -1.
        994   -1    0    0    0    0 -0.00000000000E+00 -0.00000000000E+00  0.11368683772E-12  0.17120000000E+03  0.17120000000E+03 0.  0.
         13    1    1    2    0    0 -0.39559456973E+02  0.67503883476E+01  0.20071592813E+03  0.20468857649E+03  0.10566000000E+00 0. -1.
        994    1    1    2    0    0  0.10681154769E+02 -0.56534146647E+01  0.48277104123E+01  0.17169389900E+03  0.17120000000E+03 0.  0.
        998    1    1    2    0    0  0.28878302204E+02 -0.10969736830E+01  0.12944563577E+04  0.12948175245E+04  0.10000000000E+02 0. -1.
</event>
<event>
 5    1  0.1300052E-008  0.3846124E+03  0.7957747E-01  0.3431318E+00
         13   -1    0    0    0    0  0.00000000000E+00  0.00000000000E+00  0.14999999963E+04  0.15000000000E+04  0.10566000000E+00 0.  1.
        994   -1    0    0    0    0 -0.00000000000E+00 -0.00000000000E+00  0.11368683772E-12  0.17120000000E+03  0.17120000000E+03 0.  0.
         13    1    1    2    0    0 -0.18288051522E+02 -0.10847691709E+02  0.12048588772E+03  0.12234780565E+03  0.10566000000E+00 0.  1.
        994    1    1    2    0    0  0.15358549195E+02  0.66805743030E+01  0.27468947895E+01  0.17203924127E+03  0.17120000000E+03 0.  0.
        998    1    1    2    0    0  0.29295023277E+01  0.41671174058E+01  0.13767672138E+04  0.13768129531E+04  0.10000000000E+02 0.  1.
</event>
<event>
 5    1  0.1300052E-008  0.3725585E+03  0.7957747E-01  0.3484214E+00
         13   -1    0    0    0    0  0.00000000000E+00  0.00000000000E+00  0.14999999963E+04  0.15000000000E+04  0.10566000000E+00 0. -1.
        994   -1    0    0    0    0 -0.00000000000E+00 -0.00000000000E+00  0.11368683772E-12  0.17120000000E+03  0.17120000000E+03 0.  0.
         13    1    1    2    0    0  0.48454470332E+01  0.12954983882E+02  0.84101207327E+01  0.16187997378E+02  0.10566000000E+00 0. -1.
        994    1    1    2    0    0 -0.63622067702E+00 -0.13452638195E+02  0.85597493424E+01  0.17194210526E+03  0.17120000000E+03 0.  0.
        998    1    1    2    0    0 -0.42092263562E+01  0.49765431354E+00  0.14830301262E+04  0.14830698974E+04  0.10000000000E+02 0. -1.
</event>
<event>
 5    1  0.1300052E-008  0.3774705E+03  0.7957747E-01  0.3462247E+00
         13   -1    0    0    0    0  0.00000000000E+00  0.00000000000E+00  0.14999999963E+04  0.15000000000E+04  0.10566000000E+00 0. -1.
        994   -1    0    0    0    0 -0.00000000000E+00 -0.00000000000E+00  0.11368683772E-12  0.17120000000E+03  0.17120000000E+03 0.  0.
         13    1    1    2    0    0  0.71814419805E+01  0.35159703550E+02  0.11358256574E+03  0.11911670020E+03  0.10566000000E+00 0. -1.
        994    1    1    2    0    0 -0.10032846976E+02 -0.26212811288E+02  0.80757249609E+01  0.17367333367E+03  0.17120000000E+03 0.  0.
        998    1    1    2    0    0  0.28514049955E+01 -0.89468922622E+01  0.13783417056E+04  0.13784099661E+04  0.10000000000E+02 0. -1.
</event>
<event>
 5    1  0.1300052E-008  0.3880083E+03  0.7957747E-01  0.3417013E+00
         13   -1    0    0    0    0  0.00000000000E+00  0.00000000000E+00  0.14999999963E+04  0.15000000000E+04  0.10566000000E+00 0.  1.
        994   -1    0    0    0    0 -0.00000000000E+00 -0.00000000000E+00  0.11368683772E-12  0.17120000000E+03  0.17120000000E+03 0.  0.
         13    1    1    2    0    0  0.12410063084E+03 -0.58822558858E+02  0.33272394552E+03  0.35995318458E+03  0.10566000000E+00 0.  1.
        994    1    1    2    0    0 -0.12634986624E+03  0.56369775883E+02  0.96368954577E+02  0.24028786015E+03  0.17120000000E+03 0.  0.
        998    1    1    2    0    0  0.22492354021E+01  0.24527829752E+01  0.10709070962E+04  0.10709589553E+04  0.10000000000E+02 0.  0.
</event>
<event>
 5    1  0.1300052E-008  0.3842711E+03  0.7957747E-01  0.3432770E+00
         13   -1    0    0    0    0  0.00000000000E+00  0.00000000000E+00  0.14999999963E+04  0.15000000000E+04  0.10566000000E+00 0.  1.
        994   -1    0    0    0    0 -0.00000000000E+00 -0.00000000000E+00  0.11368683772E-12  0.17120000000E+03  0.17120000000E+03 0.  0.
         13    1    1    2    0    0 -0.35016800730E+00  0.28070982299E+02  0.15698998760E+03  0.15948031238E+03  0.10566000000E+00 0.  1.
        994    1    1    2    0    0  0.12328277848E+02 -0.43309479285E+02  0.87054731020E+01  0.17723691120E+03  0.17120000000E+03 0.  0.
        998    1    1    2    0    0 -0.11978109841E+02  0.15238496986E+02  0.13343045356E+04  0.13344827764E+04  0.10000000000E+02 0.  1.
</event>
<event>
 5    1  0.1300052E-008  0.3840843E+03  0.7957747E-01  0.3433565E+00
         13   -1    0    0    0    0  0.00000000000E+00  0.00000000000E+00  0.14999999963E+04  0.15000000000E+04  0.10566000000E+00 0.  1.
        994   -1    0    0    0    0 -0.00000000000E+00 -0.00000000000E+00  0.11368683772E-12  0.17120000000E+03  0.17120000000E+03 0.  0.
         13    1    1    2    0    0 -0.31515463057E+01  0.13634339431E+02  0.50156314003E+02  0.52072012196E+02  0.10566000000E+00 0.  1.
        994    1    1    2    0    0 -0.72861965594E+01  0.40873191855E+01  0.23156981918E+01  0.17141936092E+03  0.17120000000E+03 0.  0.
        998    1    1    2    0    0  0.10437742865E+02 -0.17721658616E+02  0.14475279841E+04  0.14477086269E+04  0.10000000000E+02 0.  1.
</event>
<event>
 5    1  0.2038822E-008  0.3862568E+03  0.7957747E-01  0.3424359E+00
         13   -1    0    0    0    0  0.00000000000E+00  0.00000000000E+00  0.14999999963E+04  0.15000000000E+04  0.10566000000E+00 0.  1.
        994   -1    0    0    0    0 -0.00000000000E+00 -0.00000000000E+00  0.11368683772E-12  0.17120000000E+03  0.17120000000E+03 0.  0.
         13    1    1    2    0    0  0.86172918165E+01 -0.58434555611E+01  0.55561780861E+02  0.56528986791E+02  0.10566000000E+00 0.  1.
        994    1    1    2    0    0 -0.40861961089E+01  0.26649404513E+01  0.10853863096E+01  0.17127293122E+03  0.17120000000E+03 0.  0.
        998    1    1    2    0    0 -0.45310957076E+01  0.31785151099E+01  0.14433528291E+04  0.14433980820E+04  0.10000000000E+02 0.  1.
</event>
<event>
 5    1  0.2262562E-008  0.3861168E+03  0.7957747E-01  0.3424949E+00
         13   -1    0    0    0    0  0.00000000000E+00  0.00000000000E+00  0.14999999963E+04  0.15000000000E+04  0.10566000000E+00 0.  1.
        994   -1    0    0    0    0 -0.00000000000E+00 -0.00000000000E+00  0.11368683772E-12  0.17120000000E+03  0.17120000000E+03 0.  0.
         13    1    1    2    0    0  0.96224390066E+01 -0.73854902423E+01  0.66359315614E+02  0.67458926254E+02  0.10566000000E+00 0.  1.
        994    1    1    2    0    0 -0.11436760230E+02  0.74156170062E+01  0.16857024495E+01  0.17175002897E+03  0.17120000000E+03 0.  0.
        998    1    1    2    0    0  0.18143212237E+01 -0.30126763899E-01  0.14319549782E+04  0.14319910448E+04  0.10000000000E+02 0.  1.
</event>
<event>
 5    1  0.1300052E-008  0.3774711E+03  0.7957747E-01  0.3462244E+00
         13   -1    0    0    0    0  0.00000000000E+00  0.00000000000E+00  0.14999999963E+04  0.15000000000E+04  0.10566000000E+00 0.  1.
        994   -1    0    0    0    0 -0.00000000000E+00 -0.00000000000E+00  0.11368683772E-12  0.17120000000E+03  0.17120000000E+03 0.  0.
         13    1    1    2    0    0  0.38710059252E+01  0.26353948761E+02  0.62416289556E+02  0.67862505614E+02  0.10566000000E+00 0.  1.
        994    1    1    2    0    0 -0.11473113416E+02 -0.20113656648E+02  0.72248719532E+01  0.17290989067E+03  0.17120000000E+03 0.  0.
        998    1    1    2    0    0  0.76021074910E+01 -0.62402921125E+01  0.14303588348E+04  0.14304276037E+04  0.10000000000E+02 0.  1.
</event>
<event>
 5    1  0.1300052E-008  0.3834411E+03  0.7957747E-01  0.3436311E+00
         13   -1    0    0    0    0  0.00000000000E+00  0.00000000000E+00  0.14999999963E+04  0.15000000000E+04  0.10566000000E+00 0. -1.
        994   -1    0    0    0    0 -0.00000000000E+00 -0.00000000000E+00  0.11368683772E-12  0.17120000000E+03  0.17120000000E+03 0.  0.
         13    1    1    2    0    0  0.12968058057E+02  0.44825784402E+01  0.38333243730E+02  0.40715019073E+02  0.10566000000E+00 0. -1.
        994    1    1    2    0    0 -0.78853006626E+01 -0.70711772005E+01  0.27769863377E+01  0.17154979209E+03  0.17120000000E+03 0.  0.
        998    1    1    2    0    0 -0.50827573945E+01  0.25885987603E+01  0.14588897662E+04  0.14589351888E+04  0.10000000000E+02 0. -1.
</event>
<event>
 5    1  0.1300052E-008  0.3843210E+03  0.7957747E-01  0.3432557E+00
         13   -1    0    0    0    0  0.00000000000E+00  0.00000000000E+00  0.14999999963E+04  0.15000000000E+04  0.10566000000E+00 0.  1.
        994   -1    0    0    0    0 -0.00000000000E+00 -0.00000000000E+00  0.11368683772E-12  0.17120000000E+03  0.17120000000E+03 0.  0.
         13    1    1    2    0    0 -0.92454935427E+01 -0.17422498105E+02  0.10517543134E+03  0.10700890202E+03  0.10566000000E+00 0.  1.
        994    1    1    2    0    0 -0.88698191176E+00  0.47218459528E+01  0.20437192900E+01  0.17127959410E+03  0.17120000000E+03 0.  0.
        998    1    1    2    0    0  0.10132475454E+02  0.12700652152E+02  0.13927808457E+04  0.13929115039E+04  0.10000000000E+02 0.  0.
</event>
<event>
 5    1  0.1300052E-008  0.3865348E+03  0.7957747E-01  0.3423189E+00
         13   -1    0    0    0    0  0.00000000000E+00  0.00000000000E+00  0.14999999963E+04  0.15000000000E+04  0.10566000000E+00 0. -1.
        994   -1    0    0    0    0 -0.00000000000E+00 -0.00000000000E+00  0.11368683772E-12  0.17120000000E+03  0.17120000000E+03 0.  0.
         13    1    1    2    0    0  0.32935102406E+01 -0.95301058099E+01  0.60254205407E+02  0.61092148102E+02  0.10566000000E+00 0. -1.
        994    1    1    2    0    0 -0.73550268663E+00  0.58760885914E+01  0.98482704367E+00  0.17130522253E+03  0.17120000000E+03 0.  0.
        998    1    1    2    0    0 -0.25580075540E+01  0.36540172185E+01  0.14387609638E+04  0.14388026294E+04  0.10000000000E+02 0. -1.
</event>
<event>
 5    1  0.1335443E-008  0.3861255E+03  0.7957747E-01  0.3424913E+00
         13   -1    0    0    0    0  0.00000000000E+00  0.00000000000E+00  0.14999999963E+04  0.15000000000E+04  0.10566000000E+00 0.  1.
        994   -1    0    0    0    0 -0.00000000000E+00 -0.00000000000E+00  0.11368683772E-12  0.17120000000E+03  0.17120000000E+03 0.  0.
         13    1    1    2    0    0 -0.55134544460E+01  0.95012149479E+01  0.55396528484E+02  0.56475284838E+02  0.10566000000E+00 0.  1.
        994    1    1    2    0    0  0.73604854746E+01 -0.90452249925E+01  0.15180849238E+01  0.17160343069E+03  0.17120000000E+03 0.  0.
        998    1    1    2    0    0 -0.18470310285E+01 -0.45598995536E+00  0.14430853829E+04  0.14431212845E+04  0.10000000000E+02 0.  1.
</event>
<event>
 5    1  0.1300052E-008  0.3831894E+03  0.7957747E-01  0.3437388E+00
         13   -1    0    0    0    0  0.00000000000E+00  0.00000000000E+00  0.14999999963E+04  0.15000000000E+04  0.10566000000E+00 0. -1.
        994   -1    0    0    0    0 -0.00000000000E+00 -0.00000000000E+00  0.11368683772E-12  0.17120000000E+03  0.17120000000E+03 0.  0.
         13    1    1    2    0    0  0.21837515243E+02  0.22927977466E+01  0.10687592397E+03  0.10910824112E+03  0.10566000000E+00 0. -1.
        994    1    1    2    0    0  0.42085691333E+01  0.29002021712E+01  0.26181650168E+01  0.17129628722E+03  0.17120000000E+03 0.  0.
        998    1    1    2    0    0 -0.26046084376E+02 -0.51929999177E+01  0.13905059073E+04  0.13907954717E+04  0.10000000000E+02 0. -1.
</event>
<event>
 5    1  0.1300052E-008  0.4125324E+03  0.7957747E-01  0.3320687E+00
         13   -1    0    0    0    0  0.00000000000E+00  0.00000000000E+00  0.14999999963E+04  0.15000000000E+04  0.10566000000E+00 0. -1.
        994   -1    0    0    0    0 -0.00000000000E+00 -0.00000000000E+00  0.11368683772E-12  0.17120000000E+03  0.17120000000E+03 0.  0.
         13    1    1    2    0    0  0.67934921788E+02 -0.17760310761E+02  0.96868215570E+02  0.11964131639E+03  0.10566000000E+00 0. -1.
        994    1    1    2    0    0  0.14327456177E+03 -0.90647717175E+02  0.16788604363E+03  0.29366608985E+03  0.17120000000E+03 0.  0.
        998    1    1    2    0    0 -0.21120948356E+03  0.10840802794E+03  0.12352457371E+04  0.12578925938E+04  0.10000000000E+02 0. -1.
</event>
<event>
 5    1  0.1300052E-008  0.3838931E+03  0.7957747E-01  0.3434380E+00
         13   -1    0    0    0    0  0.00000000000E+00  0.00000000000E+00  0.14999999963E+04  0.15000000000E+04  0.10566000000E+00 0.  1.
        994   -1    0    0    0    0 -0.00000000000E+00 -0.00000000000E+00  0.11368683772E-12  0.17120000000E+03  0.17120000000E+03 0.  0.
         13    1    1    2    0    0 -0.16202734126E+02 -0.15944278764E+02  0.10061835400E+03  0.10315431617E+03  0.10566000000E+00 0.  1.
        994    1    1    2    0    0  0.26339772255E+02  0.27320222191E+02  0.69485363198E+01  0.17549330557E+03  0.17120000000E+03 0.  0.
        998    1    1    2    0    0 -0.10137038129E+02 -0.11375943426E+02  0.13924331060E+04  0.13925523783E+04  0.10000000000E+02 0.  1.
</event>
<event>
 5    1  0.1300052E-008  0.3773903E+03  0.7957747E-01  0.3462601E+00
         13   -1    0    0    0    0  0.00000000000E+00  0.00000000000E+00  0.14999999963E+04  0.15000000000E+04  0.10566000000E+00 0. -1.
        994   -1    0    0    0    0 -0.00000000000E+00 -0.00000000000E+00  0.11368683772E-12  0.17120000000E+03  0.17120000000E+03 0.  0.
         13    1    1    2    0    0 -0.48334682566E+01 -0.94128090307E+01  0.75987167167E+01  0.13027472856E+02  0.10566000000E+00 0. -1.
        994    1    1    2    0    0  0.23262479056E+01  0.18904161817E+02  0.66805940333E+01  0.17238575666E+03  0.17120000000E+03 0.  0.
        998    1    1    2    0    0  0.25072203510E+01 -0.94913527861E+01  0.14857206855E+04  0.14857867705E+04  0.10000000000E+02 0. -1.
</event>
<event>
 5    1  0.1300052E-008  0.3855793E+03  0.7957747E-01  0.3427219E+00
         13   -1    0    0    0    0  0.00000000000E+00  0.00000000000E+00  0.14999999963E+04  0.15000000000E+04  0.10566000000E+00 0. -1.
        994   -1    0    0    0    0 -0.00000000000E+00 -0.00000000000E+00  0.11368683772E-12  0.17120000000E+03  0.17120000000E+03 0.  0.
         13    1    1    2    0    0 -0.13872229188E+02 -0.16598910706E+01  0.83247335495E+02  0.84411634340E+02  0.10566000000E+00 0. -1.
        994    1    1    2    0    0 -0.58952696278E+01 -0.80823399622E+01  0.16713976394E+01  0.17150018074E+03  0.17120000000E+03 0.  0.
        998    1    1    2    0    0  0.19767498815E+02  0.97422310328E+01  0.14150812631E+04  0.14152881849E+04  0.10000000000E+02 0. -1.
</event>
<event>
 5    1  0.1300052E-008  0.3710854E+03  0.7957747E-01  0.3490918E+00
         13   -1    0    0    0    0  0.00000000000E+00  0.00000000000E+00  0.14999999963E+04  0.15000000000E+04  0.10566000000E+00 0.  1.
        994   -1    0    0    0    0 -0.00000000000E+00 -0.00000000000E+00  0.11368683772E-12  0.17120000000E+03  0.17120000000E+03 0.  0.
         13    1    1    2    0    0  0.14646545110E+03 -0.95271914678E+02  0.82993889118E+03  0.84813173526E+03  0.10566000000E+00 0.  1.
        994    1    1    2    0    0 -0.12754827141E+03  0.10318113085E+03  0.10801629439E+03  0.26056067846E+03  0.17120000000E+03 0.  0.
        998    1    1    2    0    0 -0.18917179687E+02 -0.79092161728E+01  0.56204481071E+03  0.56250758629E+03  0.10000000000E+02 0. -1.
</event>
<event>
 5    1  0.1300052E-008  0.3746719E+03  0.7957747E-01  0.3474691E+00
         13   -1    0    0    0    0  0.00000000000E+00  0.00000000000E+00  0.14999999963E+04  0.15000000000E+04  0.10566000000E+00 0.  1.
        994   -1    0    0    0    0 -0.00000000000E+00 -0.00000000000E+00  0.11368683772E-12  0.17120000000E+03  0.17120000000E+03 0.  0.
         13    1    1    2    0    0 -0.78389166510E+02  0.19713833115E+02  0.21338781469E+03  0.22818384532E+03  0.10566000000E+00 0.  1.
        994    1    1    2    0    0  0.71631133955E+02 -0.13801643754E+02  0.32594948219E+02  0.18892690484E+03  0.17120000000E+03 0.  0.
        998    1    1    2    0    0  0.67580325557E+01 -0.59121893613E+01  0.12540172334E+04  0.12540892498E+04  0.10000000000E+02 0.  1.
</event>
<event>
 5    1  0.1300052E-008  0.3729084E+03  0.7957747E-01  0.3482630E+00
         13   -1    0    0    0    0  0.00000000000E+00  0.00000000000E+00  0.14999999963E+04  0.15000000000E+04  0.10566000000E+00 0.  1.
        994   -1    0    0    0    0 -0.00000000000E+00 -0.00000000000E+00  0.11368683772E-12  0.17120000000E+03  0.17120000000E+03 0.  0.
         13    1    1    2    0    0 -0.29489663793E+02  0.57667507350E+02  0.19996036652E+03  0.21018882229E+03  0.10566000000E+00 0.  1.
        994    1    1    2    0    0  0.19642965771E+02  0.12685754933E+02  0.14418519630E+02  0.17339004640E+03  0.17120000000E+03 0.  0.
        998    1    1    2    0    0  0.98466980219E+01 -0.70353262283E+02  0.12856211101E+04  0.12876211313E+04  0.10000000000E+02 0.  1.
</event>
<event>
 5    1  0.1300052E-008  0.3845285E+03  0.7957747E-01  0.3431674E+00
         13   -1    0    0    0    0  0.00000000000E+00  0.00000000000E+00  0.14999999963E+04  0.15000000000E+04  0.10566000000E+00 0. -1.
        994   -1    0    0    0    0 -0.00000000000E+00 -0.00000000000E+00  0.11368683772E-12  0.17120000000E+03  0.17120000000E+03 0.  0.
         13    1    1    2    0    0 -0.14065232595E+02 -0.55703307844E+01  0.66758875872E+02  0.68451574304E+02  0.10566000000E+00 0. -1.
        994    1    1    2    0    0 -0.50901786543E+01  0.93385147549E+00  0.19526400440E+01  0.17128933067E+03  0.17120000000E+03 0.  0.
        998    1    1    2    0    0  0.19155411250E+02  0.46364793089E+01  0.14312884804E+04  0.14314590950E+04  0.10000000000E+02 0. -1.
</event>
<event>
 5    1  0.1300052E-008  0.3811859E+03  0.7957747E-01  0.3446011E+00
         13   -1    0    0    0    0  0.00000000000E+00  0.00000000000E+00  0.14999999963E+04  0.15000000000E+04  0.10566000000E+00 0. -1.
        994   -1    0    0    0    0 -0.00000000000E+00 -0.00000000000E+00  0.11368683772E-12  0.17120000000E+03  0.17120000000E+03 0.  0.
         13    1    1    2    0    0 -0.30849965525E+02  0.10687751170E+02  0.14230542876E+03  0.14600272127E+03  0.10566000000E+00 0. -1.
        994    1    1    2    0    0  0.29782628758E+02  0.31753960004E+01  0.65286621141E+01  0.17392283215E+03  0.17120000000E+03 0.  0.
        998    1    1    2    0    0  0.10673367672E+01 -0.13863147170E+02  0.13511659054E+04  0.13512744466E+04  0.10000000000E+02 0. -1.
</event>
<event>
 5    1  0.1300052E-008  0.3709722E+03  0.7957747E-01  0.3491435E+00
         13   -1    0    0    0    0  0.00000000000E+00  0.00000000000E+00  0.14999999963E+04  0.15000000000E+04  0.10566000000E+00 0. -1.
        994   -1    0    0    0    0 -0.00000000000E+00 -0.00000000000E+00  0.11368683772E-12  0.17120000000E+03  0.17120000000E+03 0.  0.
         13    1    1    2    0    0 -0.61396532421E+02  0.16962232973E+02  0.17409784375E+03  0.18538425473E+03  0.10566000000E+00 0. -1.
        994    1    1    2    0    0  0.50564141266E+02  0.37430622441E+02  0.25469719962E+02  0.18416278265E+03  0.17120000000E+03 0.  0.
        998    1    1    2    0    0  0.10832391155E+02 -0.54392855414E+02  0.13004324326E+04  0.13016529626E+04  0.10000000000E+02 0. -1.
</event>
<event>
 5    1  0.1300052E-008  0.3744362E+03  0.7957747E-01  0.3475748E+00
         13   -1    0    0    0    0  0.00000000000E+00  0.00000000000E+00  0.14999999963E+04  0.15000000000E+04  0.10566000000E+00 0. -1.
        994   -1    0    0    0    0 -0.00000000000E+00 -0.00000000000E+00  0.11368683772E-12  0.17120000000E+03  0.17120000000E+03 0.  0.
         13    1    1    2    0    0 -0.91711988872E+01 -0.10645237556E+02  0.11155642582E+02  0.17941334875E+02  0.10566000000E+00 0. -1.
        994    1    1    2    0    0 -0.18558711423E+01  0.96966667591E+01  0.73005365870E+01  0.17163976066E+03  0.17120000000E+03 0.  0.
        998    1    1    2    0    0  0.11027070030E+02  0.94857079699E+00  0.14815438171E+04  0.14816189045E+04  0.10000000000E+02 0. -1.
</event>
<event>
 5    1  0.1300052E-008  0.3775650E+03  0.7957747E-01  0.3461830E+00
         13   -1    0    0    0    0  0.00000000000E+00  0.00000000000E+00  0.14999999963E+04  0.15000000000E+04  0.10566000000E+00 0. -1.
        994   -1    0    0    0    0 -0.00000000000E+00 -0.00000000000E+00  0.11368683772E-12  0.17120000000E+03  0.17120000000E+03 0.  0.
         13    1    1    2    0    0 -0.56546323891E+02 -0.32319394840E+02  0.31538416054E+03  0.32203914344E+03  0.10566000000E+00 0. -1.
        994    1    1    2    0    0  0.55068251765E+02  0.32104963900E+02  0.19185423001E+02  0.18368658502E+03  0.17120000000E+03 0.  0.
        998    1    1    2    0    0  0.14780721259E+01  0.21443093965E+00  0.11654304127E+04  0.11654742715E+04  0.10000000000E+02 0. -1.
</event>
<event>
 5    1  0.1300052E-008  0.3793131E+03  0.7957747E-01  0.3454155E+00
         13   -1    0    0    0    0  0.00000000000E+00  0.00000000000E+00  0.14999999963E+04  0.15000000000E+04  0.10566000000E+00 0.  1.
        994   -1    0    0    0    0 -0.00000000000E+00 -0.00000000000E+00  0.11368683772E-12  0.17120000000E+03  0.17120000000E+03 0.  0.
         13    1    1    2    0    0 -0.68428606909E+01  0.22035601378E+02  0.58871647525E+02  0.63231910590E+02  0.10566000000E+00 0.  1.
        994    1    1    2    0    0 -0.11372612975E+02 -0.13982084545E+02  0.55693897973E+01  0.17223615508E+03  0.17120000000E+03 0.  0.
        998    1    1    2    0    0  0.18215473666E+02 -0.80535168327E+01  0.14355589590E+04  0.14357319343E+04  0.10000000000E+02 0.  1.
</event>
<event>
 5    1  0.1300052E-008  0.3779406E+03  0.7957747E-01  0.3460175E+00
         13   -1    0    0    0    0  0.00000000000E+00  0.00000000000E+00  0.14999999963E+04  0.15000000000E+04  0.10566000000E+00 0. -1.
        994   -1    0    0    0    0 -0.00000000000E+00 -0.00000000000E+00  0.11368683772E-12  0.17120000000E+03  0.17120000000E+03 0.  0.
         13    1    1    2    0    0 -0.63031299185E+02  0.27536554335E+02  0.34676218988E+03  0.35351836444E+03  0.10566000000E+00 0. -1.
        994    1    1    2    0    0  0.57316011690E+02 -0.44932930414E+02  0.23242033024E+02  0.18749326796E+03  0.17120000000E+03 0.  0.
        998    1    1    2    0    0  0.57152874953E+01  0.17396376080E+02  0.11299957734E+04  0.11301883676E+04  0.10000000000E+02 0. -1.
</event>
<event>
 5    1  0.1300052E-008  0.4039796E+03  0.7957747E-01  0.3352961E+00
         13   -1    0    0    0    0  0.00000000000E+00  0.00000000000E+00  0.14999999963E+04  0.15000000000E+04  0.10566000000E+00 0.  1.
        994   -1    0    0    0    0 -0.00000000000E+00 -0.00000000000E+00  0.11368683772E-12  0.17120000000E+03  0.17120000000E+03 0.  0.
         13    1    1    2    0    0 -0.94386701109E+02 -0.10895608862E+03  0.49202530012E+03  0.51270770007E+03  0.10566000000E+00 0.  1.
        994    1    1    2    0    0 -0.77867103400E+01  0.43016801581E+02  0.37820643160E+02  0.18069565331E+03  0.17120000000E+03 0.  0.
        998    1    1    2    0    0  0.10217341145E+03  0.65939287039E+02  0.97015405300E+03  0.97779664662E+03  0.10000000000E+02 0.  1.
</event>
<event>
 5    1  0.1300052E-008  0.3825433E+03  0.7957747E-01  0.3440159E+00
         13   -1    0    0    0    0  0.00000000000E+00  0.00000000000E+00  0.14999999963E+04  0.15000000000E+04  0.10566000000E+00 0. -1.
        994   -1    0    0    0    0 -0.00000000000E+00 -0.00000000000E+00  0.11368683772E-12  0.17120000000E+03  0.17120000000E+03 0.  0.
         13    1    1    2    0    0 -0.15521400520E+02 -0.18895973868E+02  0.10480174016E+03  0.10761685559E+03  0.10566000000E+00 0. -1.
        994    1    1    2    0    0 -0.49845451255E+01  0.22134771662E+02  0.45632322036E+01  0.17275721952E+03  0.17120000000E+03 0.  0.
        998    1    1    2    0    0  0.20505945645E+02 -0.32387977935E+01  0.13906350239E+04  0.13908259249E+04  0.10000000000E+02 0. -1.
</event>
<event>
 5    1  0.1300052E-008  0.3817841E+03  0.7957747E-01  0.3443427E+00
         13   -1    0    0    0    0  0.00000000000E+00  0.00000000000E+00  0.14999999963E+04  0.15000000000E+04  0.10566000000E+00 0. -1.
        994   -1    0    0    0    0 -0.00000000000E+00 -0.00000000000E+00  0.11368683772E-12  0.17120000000E+03  0.17120000000E+03 0.  0.
         13    1    1    2    0    0  0.90214866493E+01  0.83483316308E+01  0.21471089563E+02  0.24740669220E+02  0.10566000000E+00 0. -1.
        994    1    1    2    0    0 -0.12234243547E+02 -0.13185535996E+02  0.43112164010E+01  0.17219628818E+03  0.17120000000E+03 0.  0.
        998    1    1    2    0    0  0.32127568974E+01  0.48372043654E+01  0.14742176903E+04  0.14742630426E+04  0.10000000000E+02 0. -1.
</event>
<event>
 5    1  0.1337805E-008  0.3861156E+03  0.7957747E-01  0.3424955E+00
         13   -1    0    0    0    0  0.00000000000E+00  0.00000000000E+00  0.14999999963E+04  0.15000000000E+04  0.10566000000E+00 0. -1.
        994   -1    0    0    0    0 -0.00000000000E+00 -0.00000000000E+00  0.11368683772E-12  0.17120000000E+03  0.17120000000E+03 0.  0.
         13    1    1    2    0    0 -0.21563386130E+01  0.11369487332E+02  0.64649148938E+02  0.65676774136E+02  0.10566000000E+00 0. -1.
        994    1    1    2    0    0 -0.14847067461E+00 -0.45115185364E+01  0.11440511044E+01  0.17126331976E+03  0.17120000000E+03 0.  0.
        998    1    1    2    0    0  0.23048092876E+01 -0.68579687961E+01  0.14342067962E+04  0.14342599061E+04  0.10000000000E+02 0. -1.
</event>
<event>
 5    1  0.1300052E-008  0.3703829E+03  0.7957747E-01  0.3494133E+00
         13   -1    0    0    0    0  0.00000000000E+00  0.00000000000E+00  0.14999999963E+04  0.15000000000E+04  0.10566000000E+00 0.  1.
        994   -1    0    0    0    0 -0.00000000000E+00 -0.00000000000E+00  0.11368683772E-12  0.17120000000E+03  0.17120000000E+03 0.  0.
         13    1    1    2    0    0  0.28354845131E+02 -0.56485600022E+00  0.42780632902E+02  0.51327478218E+02  0.10566000000E+00 0.  1.
        994    1    1    2    0    0 -0.12366104710E+01  0.11956351274E+02  0.95681237170E+01  0.17188796506E+03  0.17120000000E+03 0.  0.
        998    1    1    2    0    0 -0.27118234660E+02 -0.11391495274E+02  0.14476512397E+04  0.14479845567E+04  0.10000000000E+02 0.  1.
</event>
<event>
 5    1  0.1300052E-008  0.3859775E+03  0.7957747E-01  0.3425537E+00
         13   -1    0    0    0    0  0.00000000000E+00  0.00000000000E+00  0.14999999963E+04  0.15000000000E+04  0.10566000000E+00 0.  1.
        994   -1    0    0    0    0 -0.00000000000E+00 -0.00000000000E+00  0.11368683772E-12  0.17120000000E+03  0.17120000000E+03 0.  0.
         13    1    1    2    0    0 -0.48371710681E+00 -0.11062637355E+02  0.53263713113E+02  0.54402667454E+02  0.10566000000E+00 0.  1.
        994    1    1    2    0    0  0.14081696103E+01  0.97603303227E+01  0.14644617931E+01  0.17149003364E+03  0.17120000000E+03 0.  0.
        998    1    1    2    0    0 -0.92445250348E+00  0.13023070327E+01  0.14452718214E+04  0.14453072989E+04  0.10000000000E+02 0.  1.
</event>
<event>
 5    1  0.1300052E-008  0.3799770E+03  0.7957747E-01  0.3451259E+00
         13   -1    0    0    0    0  0.00000000000E+00  0.00000000000E+00  0.14999999963E+04  0.15000000000E+04  0.10566000000E+00 0.  1.
        994   -1    0    0    0    0 -0.00000000000E+00 -0.00000000000E+00  0.11368683772E-12  0.17120000000E+03  0.17120000000E+03 0.  0.
         13    1    1    2    0    0  0.14078837025E+02 -0.48903236132E+01  0.24928582373E+02  0.29044350572E+02  0.10566000000E+00 0.  1.
        994    1    1    2    0    0 -0.11840336287E+02  0.50863473553E+01  0.47001270859E+01  0.17174864101E+03  0.17120000000E+03 0.  0.
        998    1    1    2    0    0 -0.22385007382E+01 -0.19602374217E+00  0.14703712868E+04  0.14704070084E+04  0.10000000000E+02 0.  1.
</event>
<event>
 5    1  0.1300052E-008  0.3721573E+03  0.7957747E-01  0.3486035E+00
         13   -1    0    0    0    0  0.00000000000E+00  0.00000000000E+00  0.14999999963E+04  0.15000000000E+04  0.10566000000E+00 0. -1.
        994   -1    0    0    0    0 -0.00000000000E+00 -0.00000000000E+00  0.11368683772E-12  0.17120000000E+03  0.17120000000E+03 0.  0.
         13    1    1    2    0    0 -0.50573929707E+02 -0.16464013207E+02  0.16387750443E+03  0.17229229153E+03  0.10566000000E+00 0. -1.
        994    1    1    2    0    0  0.35987567774E+02  0.18900812195E+02  0.13838212074E+02  0.17650292306E+03  0.17120000000E+03 0.  0.
        998    1    1    2    0    0  0.14586361933E+02 -0.24367989874E+01  0.13222842798E+04  0.13224047854E+04  0.10000000000E+02 0. -1.
</event>
<event>
 5    1  0.1300052E-008  0.3709862E+03  0.7957747E-01  0.3491371E+00
         13   -1    0    0    0    0  0.00000000000E+00  0.00000000000E+00  0.14999999963E+04  0.15000000000E+04  0.10566000000E+00 0. -1.
        994   -1    0    0    0    0 -0.00000000000E+00 -0.00000000000E+00  0.11368683772E-12  0.17120000000E+03  0.17120000000E+03 0.  0.
         13    1    1    2    0    0 -0.38570383058E+02 -0.21956724134E+02  0.12466519173E+03  0.13232986577E+03  0.10566000000E+00 0. -1.
        994    1    1    2    0    0  0.24022284498E+01 -0.10898843785E+02  0.91838338915E+01  0.17180901694E+03  0.17120000000E+03 0.  0.
        998    1    1    2    0    0  0.36168154608E+02  0.32855567918E+02  0.13661509707E+04  0.13670611173E+04  0.10000000000E+02 0. -1.
</event>
<event>
 5    1  0.1300052E-008  0.3746940E+03  0.7957747E-01  0.3474592E+00
         13   -1    0    0    0    0  0.00000000000E+00  0.00000000000E+00  0.14999999963E+04  0.15000000000E+04  0.10566000000E+00 0.  1.
        994   -1    0    0    0    0 -0.00000000000E+00 -0.00000000000E+00  0.11368683772E-12  0.17120000000E+03  0.17120000000E+03 0.  0.
         13    1    1    2    0    0 -0.53784667836E+02  0.48581984898E+02  0.34308405492E+03  0.35065607033E+03  0.10566000000E+00 0.  1.
        994    1    1    2    0    0  0.47316651538E+02 -0.29582082523E+02  0.17506682550E+02  0.18091403774E+03  0.17120000000E+03 0.  0.
        998    1    1    2    0    0  0.64680162989E+01 -0.18999902375E+02  0.11394092588E+04  0.11396298919E+04  0.10000000000E+02 0.  1.
</event>
<event>
 5    1  0.1300052E-008  0.3693403E+03  0.7957747E-01  0.3498928E+00
         13   -1    0    0    0    0  0.00000000000E+00  0.00000000000E+00  0.14999999963E+04  0.15000000000E+04  0.10566000000E+00 0.  1.
        994   -1    0    0    0    0 -0.00000000000E+00 -0.00000000000E+00  0.11368683772E-12  0.17120000000E+03  0.17120000000E+03 0.  0.
         13    1    1    2    0    0 -0.62143189785E+02  0.27069551801E+02  0.21091599584E+03  0.22154030138E+03  0.10566000000E+00 0.  1.
        994    1    1    2    0    0  0.48657905525E+02 -0.41899450508E+02  0.24042319717E+02  0.18441970844E+03  0.17120000000E+03 0.  0.
        998    1    1    2    0    0  0.13485284260E+02  0.14829898707E+02  0.12650416807E+04  0.12652399902E+04  0.10000000000E+02 0.  1.
</event>
<event>
 5    1  0.1300052E-008  0.3812648E+03  0.7957747E-01  0.3445670E+00
         13   -1    0    0    0    0  0.00000000000E+00  0.00000000000E+00  0.14999999963E+04  0.15000000000E+04  0.10566000000E+00 0.  1.
        994   -1    0    0    0    0 -0.00000000000E+00 -0.00000000000E+00  0.11368683772E-12  0.17120000000E+03  0.17120000000E+03 0.  0.
         13    1    1    2    0    0  0.18467117802E+02  0.67566628521E+01  0.53868493570E+02  0.57345555158E+02  0.10566000000E+00 0.  1.
        994    1    1    2    0    0 -0.14834835810E+02  0.70483056694E+00  0.42306622149E+01  0.17189504834E+03  0.17120000000E+03 0.  0.
        998    1    1    2    0    0 -0.36322819921E+01 -0.74614934190E+01  0.14419008405E+04  0.14419593965E+04  0.10000000000E+02 0.  1.
</event>
<event>
 5    1  0.1300052E-008  0.3782062E+03  0.7957747E-01  0.3459006E+00
         13   -1    0    0    0    0  0.00000000000E+00  0.00000000000E+00  0.14999999963E+04  0.15000000000E+04  0.10566000000E+00 0. -1.
        994   -1    0    0    0    0 -0.00000000000E+00 -0.00000000000E+00  0.11368683772E-12  0.17120000000E+03  0.17120000000E+03 0.  0.
         13    1    1    2    0    0 -0.23548531936E+02  0.28697828628E+02  0.14067160455E+03  0.14548749161E+03  0.10566000000E+00 0. -1.
        994    1    1    2    0    0  0.13816894190E+02 -0.75680312818E+01  0.58764306135E+01  0.17202370214E+03  0.17120000000E+03 0.  0.
        998    1    1    2    0    0  0.97316377463E+01 -0.21129797346E+02  0.13534519611E+04  0.13536888062E+04  0.10000000000E+02 0. -1.
</event>
<event>
 5    1  0.1300052E-008  0.3830824E+03  0.7957747E-01  0.3437846E+00
         13   -1    0    0    0    0  0.00000000000E+00  0.00000000000E+00  0.14999999963E+04  0.15000000000E+04  0.10566000000E+00 0. -1.
        994   -1    0    0    0    0 -0.00000000000E+00 -0.00000000000E+00  0.11368683772E-12  0.17120000000E+03  0.17120000000E+03 0.  0.
         13    1    1    2    0    0 -0.13794812710E+02 -0.10781584150E+01  0.36879784113E+02  0.39390213550E+02  0.10566000000E+00 0. -1.
        994    1    1    2    0    0  0.44094224380E+01  0.40523643516E+01  0.27038981448E+01  0.17132605093E+03  0.17120000000E+03 0.  0.
        998    1    1    2    0    0  0.93853902718E+01 -0.29742059366E+01  0.14604163140E+04  0.14604837355E+04  0.10000000000E+02 0. -1.
</event>
<event>
 5    1  0.1300052E-008  0.3820812E+03  0.7957747E-01  0.3442146E+00
         13   -1    0    0    0    0  0.00000000000E+00  0.00000000000E+00  0.14999999963E+04  0.15000000000E+04  0.10566000000E+00 0.  1.
        994   -1    0    0    0    0 -0.00000000000E+00 -0.00000000000E+00  0.11368683772E-12  0.17120000000E+03  0.17120000000E+03 0.  0.
         13    1    1    2    0    0 -0.99221322382E+01 -0.83691922454E+01  0.25830442534E+02  0.28908735921E+02  0.10566000000E+00 0.  1.
        994    1    1    2    0    0  0.10220586918E+02  0.74073209723E+01  0.36154011286E+01  0.17170276622E+03  0.17120000000E+03 0.  0.
        998    1    1    2    0    0 -0.29845467980E+00  0.96187127310E+00  0.14705541526E+04  0.14705884979E+04  0.10000000000E+02 0.  1.
</event>
<event>
 5    1  0.1300052E-008  0.3809767E+03  0.7957747E-01  0.3446917E+00
         13   -1    0    0    0    0  0.00000000000E+00  0.00000000000E+00  0.14999999963E+04  0.15000000000E+04  0.10566000000E+00 0. -1.
        994   -1    0    0    0    0 -0.00000000000E+00 -0.00000000000E+00  0.11368683772E-12  0.17120000000E+03  0.17120000000E+03 0.  0.
         13    1    1    2    0    0  0.11343275972E+02 -0.11720752763E+02  0.52974726746E+02  0.55429042866E+02  0.10566000000E+00 0. -1.
        994    1    1    2    0    0  0.54378071771E+02 -0.66323935066E+02  0.28553259010E+02  0.19359898670E+03  0.17120000000E+03 0.  0.
        998    1    1    2    0    0 -0.65721347743E+02  0.78044687829E+02  0.14184720105E+04  0.14221719704E+04  0.10000000000E+02 0. -1.
</event>
<event>
 5    1  0.1300052E-008  0.3767665E+03  0.7957747E-01  0.3465360E+00
         13   -1    0    0    0    0  0.00000000000E+00  0.00000000000E+00  0.14999999963E+04  0.15000000000E+04  0.10566000000E+00 0.  1.
        994   -1    0    0    0    0 -0.00000000000E+00 -0.00000000000E+00  0.11368683772E-12  0.17120000000E+03  0.17120000000E+03 0.  0.
         13    1    1    2    0    0 -0.69128666810E+02  0.11416158033E+02  0.35385792038E+03  0.36072779241E+03  0.10566000000E+00 0.  1.
        994    1    1    2    0    0  0.59352028102E+02 -0.11999126259E+02  0.18266278858E+02  0.18250955924E+03  0.17120000000E+03 0.  0.
        998    1    1    2    0    0  0.97766387077E+01  0.58296822636E+00  0.11278757970E+04  0.11279626484E+04  0.10000000000E+02 0.  1.
</event>
<event>
 5    1  0.1300052E-008  0.3797565E+03  0.7957747E-01  0.3452219E+00
         13   -1    0    0    0    0  0.00000000000E+00  0.00000000000E+00  0.14999999963E+04  0.15000000000E+04  0.10566000000E+00 0. -1.
        994   -1    0    0    0    0 -0.00000000000E+00 -0.00000000000E+00  0.11368683772E-12  0.17120000000E+03  0.17120000000E+03 0.  0.
         13    1    1    2    0    0  0.11764500650E+02 -0.12447659766E+02  0.32931493144E+02  0.37119295709E+02  0.10566000000E+00 0. -1.
        994    1    1    2    0    0 -0.12505354152E+02  0.21526785901E+01  0.47949895417E+01  0.17173657104E+03  0.17120000000E+03 0.  0.
        998    1    1    2    0    0  0.74085350155E+00  0.10294981176E+02  0.14622735136E+04  0.14623441333E+04  0.10000000000E+02 0. -1.
</event>
<event>
 5    1  0.1300052E-008  0.3697776E+03  0.7957747E-01  0.3496914E+00
         13   -1    0    0    0    0  0.00000000000E+00  0.00000000000E+00  0.14999999963E+04  0.15000000000E+04  0.10566000000E+00 0.  1.
        994   -1    0    0    0    0 -0.00000000000E+00 -0.00000000000E+00  0.11368683772E-12  0.17120000000E+03  0.17120000000E+03 0.  0.
         13    1    1    2    0    0  0.27808339427E+02  0.25098419796E+02  0.57778382821E+02  0.68859183145E+02  0.10566000000E+00 0.  1.
        994    1    1    2    0    0 -0.15595385328E+02 -0.45634247907E+02  0.18990059872E+02  0.17887359503E+03  0.17120000000E+03 0.  0.
        998    1    1    2    0    0 -0.12212954098E+02  0.20535828110E+02  0.14232315536E+04  0.14234672218E+04  0.10000000000E+02 0.  1.
</event>
<event>
 5    1  0.1300052E-008  0.3831931E+03  0.7957747E-01  0.3437372E+00
         13   -1    0    0    0    0  0.00000000000E+00  0.00000000000E+00  0.14999999963E+04  0.15000000000E+04  0.10566000000E+00 0. -1.
        994   -1    0    0    0    0 -0.00000000000E+00 -0.00000000000E+00  0.11368683772E-12  0.17120000000E+03  0.17120000000E+03 0.  0.
         13    1    1    2    0    0 -0.27212622492E+02  0.91126387885E+01  0.16690939496E+03  0.16935856725E+03  0.10566000000E+00 0. -1.
        994    1    1    2    0    0  0.28321274347E+02  0.32771140475E+02  0.87608140284E+01  0.17681129515E+03  0.17120000000E+03 0.  0.
        998    1    1    2    0    0 -0.11086518544E+01 -0.41883779264E+02  0.13243297873E+04  0.13250301376E+04  0.10000000000E+02 0. -1.
</event>
<event>
 5    1  0.1300052E-008  0.3803882E+03  0.7957747E-01  0.3449470E+00
         13   -1    0    0    0    0  0.00000000000E+00  0.00000000000E+00  0.14999999963E+04  0.15000000000E+04  0.10566000000E+00 0.  1.
        994   -1    0    0    0    0 -0.00000000000E+00 -0.00000000000E+00  0.11368683772E-12  0.17120000000E+03  0.17120000000E+03 0.  0.
         13    1    1    2    0    0  0.20417797146E+00  0.18878158026E+02  0.43091859545E+02  0.47046211985E+02  0.10566000000E+00 0.  1.
        994    1    1    2    0    0 -0.60158889424E+01 -0.16865878975E+02  0.50085908351E+01  0.17220677912E+03  0.17120000000E+03 0.  0.
        998    1    1    2    0    0  0.58117109709E+01 -0.20122790513E+01  0.14518995459E+04  0.14519470089E+04  0.10000000000E+02 0.  0.
</event>
<event>
 5    1  0.1300052E-008  0.3792249E+03  0.7957747E-01  0.3454541E+00
         13   -1    0    0    0    0  0.00000000000E+00  0.00000000000E+00  0.14999999963E+04  0.15000000000E+04  0.10566000000E+00 0.  1.
        994   -1    0    0    0    0 -0.00000000000E+00 -0.00000000000E+00  0.11368683772E-12  0.17120000000E+03  0.17120000000E+03 0.  0.
         13    1    1    2    0    0  0.13429921000E+02  0.18017358886E+02  0.52740967335E+02  0.57328952535E+02  0.10566000000E+00 0.  1.
        994    1    1    2    0    0  0.10262824322E+02 -0.34585171154E+02  0.88991444473E+01  0.17518588527E+03  0.17120000000E+03 0.  0.
        998    1    1    2    0    0 -0.23692745322E+02  0.16567812267E+02  0.14383598845E+04  0.14386851622E+04  0.10000000000E+02 0.  1.
</event>
<event>
 5    1  0.1300052E-008  0.3858814E+03  0.7957747E-01  0.3425943E+00
         13   -1    0    0    0    0  0.00000000000E+00  0.00000000000E+00  0.14999999963E+04  0.15000000000E+04  0.10566000000E+00 0. -1.
        994   -1    0    0    0    0 -0.00000000000E+00 -0.00000000000E+00  0.11368683772E-12  0.17120000000E+03  0.17120000000E+03 0.  0.
         13    1    1    2    0    0  0.10326144631E+02 -0.65942277630E+01  0.71378115220E+02  0.72422093308E+02  0.10566000000E+00 0. -1.
        994    1    1    2    0    0  0.10999398811E+02  0.52649050733E+01  0.16809614841E+01  0.17164198680E+03  0.17120000000E+03 0.  0.
        998    1    1    2    0    0 -0.21325543442E+02  0.13293226897E+01  0.14269409196E+04  0.14271359199E+04  0.10000000000E+02 0. -1.
</event>
<event>
 5    1  0.1300052E-008  0.3832721E+03  0.7957747E-01  0.3437034E+00
         13   -1    0    0    0    0  0.00000000000E+00  0.00000000000E+00  0.14999999963E+04  0.15000000000E+04  0.10566000000E+00 0.  1.
        994   -1    0    0    0    0 -0.00000000000E+00 -0.00000000000E+00  0.11368683772E-12  0.17120000000E+03  0.17120000000E+03 0.  0.
         13    1    1    2    0    0  0.63978075028E+01 -0.10455511655E+02  0.29401786387E+02  0.31854762149E+02  0.10566000000E+00 0.  1.
        994    1    1    2    0    0 -0.51355393347E+01  0.61243572930E+01  0.27017281952E+01  0.17140776194E+03  0.17120000000E+03 0.  0.
        998    1    1    2    0    0 -0.12622681681E+01  0.43311543619E+01  0.14678964817E+04  0.14679374759E+04  0.10000000000E+02 0.  1.
</event>
<event>
 5    1  0.1300052E-008  0.3848183E+03  0.7957747E-01  0.3430443E+00
         13   -1    0    0    0    0  0.00000000000E+00  0.00000000000E+00  0.14999999963E+04  0.15000000000E+04  0.10566000000E+00 0.  1.
        994   -1    0    0    0    0 -0.00000000000E+00 -0.00000000000E+00  0.11368683772E-12  0.17120000000E+03  0.17120000000E+03 0.  0.
         13    1    1    2    0    0 -0.10586299632E+02 -0.10107325623E+02  0.62285913681E+02  0.63982606842E+02  0.10566000000E+00 0.  1.
        994    1    1    2    0    0 -0.27914951770E+02  0.47470314888E+02  0.11764143715E+02  0.18022350126E+03  0.17120000000E+03 0.  0.
        998    1    1    2    0    0  0.38501251402E+02 -0.37362989264E+02  0.14259499389E+04  0.14269938919E+04  0.10000000000E+02 0.  1.
</event>
<event>
 5    1  0.1300052E-008  0.3851459E+03  0.7957747E-01  0.3429054E+00
         13   -1    0    0    0    0  0.00000000000E+00  0.00000000000E+00  0.14999999963E+04  0.15000000000E+04  0.10566000000E+00 0. -1.
        994   -1    0    0    0    0 -0.00000000000E+00 -0.00000000000E+00  0.11368683772E-12  0.17120000000E+03  0.17120000000E+03 0.  0.
         13    1    1    2    0    0 -0.65890957853E+01  0.86951681634E+01  0.39886001895E+02  0.41351256860E+02  0.10566000000E+00 0. -1.
        994    1    1    2    0    0 -0.75843419784E+01 -0.40964575653E+01  0.18020015844E+01  0.17142634108E+03  0.17120000000E+03 0.  0.
        998    1    1    2    0    0  0.14173437764E+02 -0.45987105981E+01  0.14583119928E+04  0.14584224021E+04  0.10000000000E+02 0. -1.
</event>
<event>
 5    1  0.1300052E-008  0.3726051E+03  0.7957747E-01  0.3484003E+00
         13   -1    0    0    0    0  0.00000000000E+00  0.00000000000E+00  0.14999999963E+04  0.15000000000E+04  0.10566000000E+00 0. -1.
        994   -1    0    0    0    0 -0.00000000000E+00 -0.00000000000E+00  0.11368683772E-12  0.17120000000E+03  0.17120000000E+03 0.  0.
         13    1    1    2    0    0 -0.83179950591E+01  0.63248464657E+02  0.36499284831E+03  0.37052577212E+03  0.10566000000E+00 0. -1.
        994    1    1    2    0    0  0.17615256568E+02  0.79064686769E+01  0.91923458655E+01  0.17253042843E+03  0.17120000000E+03 0.  0.
        998    1    1    2    0    0 -0.92972615090E+01 -0.71154933334E+02  0.11258148021E+04  0.11281437995E+04  0.10000000000E+02 0. -1.
</event>
<event>
 5    1  0.1300052E-008  0.3755248E+03  0.7957747E-01  0.3470879E+00
         13   -1    0    0    0    0  0.00000000000E+00  0.00000000000E+00  0.14999999963E+04  0.15000000000E+04  0.10566000000E+00 0. -1.
        994   -1    0    0    0    0 -0.00000000000E+00 -0.00000000000E+00  0.11368683772E-12  0.17120000000E+03  0.17120000000E+03 0.  0.
         13    1    1    2    0    0 -0.10914469372E+02  0.18785125022E+02  0.11219467294E+02  0.24451874655E+02  0.10566000000E+00 0. -1.
        994    1    1    2    0    0  0.13526920342E+02  0.51160714511E+00  0.14544001219E+02  0.17234908554E+03  0.17120000000E+03 0.  0.
        998    1    1    2    0    0 -0.26124509698E+01 -0.19296732167E+02  0.14742365278E+04  0.14743990398E+04  0.10000000000E+02 0. -1.
</event>
<event>
 5    1  0.1300052E-008  0.3821246E+03  0.7957747E-01  0.3441959E+00
         13   -1    0    0    0    0  0.00000000000E+00  0.00000000000E+00  0.14999999963E+04  0.15000000000E+04  0.10566000000E+00 0.  1.
        994   -1    0    0    0    0 -0.00000000000E+00 -0.00000000000E+00  0.11368683772E-12  0.17120000000E+03  0.17120000000E+03 0.  0.
         13    1    1    2    0    0 -0.10545311499E+02  0.10355195023E+02  0.35292716290E+02  0.38262522731E+02  0.10566000000E+00 0.  1.
        994    1    1    2    0    0 -0.11252070705E+02 -0.17469676481E+02  0.44992150469E+01  0.17251516347E+03  0.17120000000E+03 0.  0.
        998    1    1    2    0    0  0.21797382204E+02  0.71144814574E+01  0.14602080649E+04  0.14604223138E+04  0.10000000000E+02 0.  1.
</event>
<event>
 5    1  0.1300052E-008  0.4076293E+03  0.7957747E-01  0.3339025E+00
         13   -1    0    0    0    0  0.00000000000E+00  0.00000000000E+00  0.14999999963E+04  0.15000000000E+04  0.10566000000E+00 0.  1.
        994   -1    0    0    0    0 -0.00000000000E+00 -0.00000000000E+00  0.11368683772E-12  0.17120000000E+03  0.17120000000E+03 0.  0.
         13    1    1    2    0    0  0.96135033147E+02  0.18359155967E+02  0.12094098864E+03  0.15558193051E+03  0.10566000000E+00 0.  1.
        994    1    1    2    0    0 -0.11053755862E+03 -0.16320027376E+02  0.84942267674E+02  0.22138094768E+03  0.17120000000E+03 0.  0.
        998    1    1    2    0    0  0.14402525475E+02 -0.20391285907E+01  0.12941167400E+04  0.12942371218E+04  0.10000000000E+02 0.  1.
</event>
<event>
 5    1  0.1300052E-008  0.3793710E+03  0.7957747E-01  0.3453902E+00
         13   -1    0    0    0    0  0.00000000000E+00  0.00000000000E+00  0.14999999963E+04  0.15000000000E+04  0.10566000000E+00 0. -1.
        994   -1    0    0    0    0 -0.00000000000E+00 -0.00000000000E+00  0.11368683772E-12  0.17120000000E+03  0.17120000000E+03 0.  0.
         13    1    1    2    0    0 -0.71798014084E+01  0.10681645928E+02  0.16564928132E+02  0.20977490699E+02  0.10566000000E+00 0. -1.
        994    1    1    2    0    0  0.91142278749E+01 -0.88801534910E+01  0.49936170510E+01  0.17174487616E+03  0.17120000000E+03 0.  0.
        998    1    1    2    0    0 -0.19344264665E+01 -0.18014924367E+01  0.14784414511E+04  0.14784776331E+04  0.10000000000E+02 0. -1.
</event>
<event>
 5    1  0.1300052E-008  0.3862471E+03  0.7957747E-01  0.3424400E+00
         13   -1    0    0    0    0  0.00000000000E+00  0.00000000000E+00  0.14999999963E+04  0.15000000000E+04  0.10566000000E+00 0.  1.
        994   -1    0    0    0    0 -0.00000000000E+00 -0.00000000000E+00  0.11368683772E-12  0.17120000000E+03  0.17120000000E+03 0.  0.
         13    1    1    2    0    0 -0.10964914722E+02 -0.36498812737E+00  0.61592870729E+02  0.62562412517E+02  0.10566000000E+00 0.  1.
        994    1    1    2    0    0  0.49519535926E+01 -0.18610467799E+01  0.11038966189E+01  0.17128527061E+03  0.17120000000E+03 0.  0.
        998    1    1    2    0    0  0.60129611293E+01  0.22260349073E+01  0.14373032289E+04  0.14373523169E+04  0.10000000000E+02 0.  1.
</event>
<event>
 5    1  0.1300052E-008  0.3821355E+03  0.7957747E-01  0.3441913E+00
         13   -1    0    0    0    0  0.00000000000E+00  0.00000000000E+00  0.14999999963E+04  0.15000000000E+04  0.10566000000E+00 0. -1.
        994   -1    0    0    0    0 -0.00000000000E+00 -0.00000000000E+00  0.11368683772E-12  0.17120000000E+03  0.17120000000E+03 0.  0.
         13    1    1    2    0    0  0.33883258662E+02  0.15535148257E+01  0.15466339391E+03  0.15833908300E+03  0.10566000000E+00 0. -1.
        994    1    1    2    0    0 -0.46482951617E+02 -0.34197273237E+01  0.10303944505E+02  0.17773004979E+03  0.17120000000E+03 0.  0.
        998    1    1    2    0    0  0.12599692955E+02  0.18662124980E+01  0.13350326579E+04  0.13351308672E+04  0.10000000000E+02 0. -1.
</event>
<event>
 5    1  0.1300052E-008  0.3860376E+03  0.7957747E-01  0.3425283E+00
         13   -1    0    0    0    0  0.00000000000E+00  0.00000000000E+00  0.14999999963E+04  0.15000000000E+04  0.10566000000E+00 0.  1.
        994   -1    0    0    0    0 -0.00000000000E+00 -0.00000000000E+00  0.11368683772E-12  0.17120000000E+03  0.17120000000E+03 0.  0.
         13    1    1    2    0    0  0.63576105722E+01 -0.79696927767E+01  0.47224566828E+02  0.48312587296E+02  0.10566000000E+00 0.  1.
        994    1    1    2    0    0 -0.57530758588E+01  0.38756150488E+01  0.12735708546E+01  0.17134520786E+03  0.17120000000E+03 0.  0.
        998    1    1    2    0    0 -0.60453471334E+00  0.40940777278E+01  0.14515018586E+04  0.14515422048E+04  0.10000000000E+02 0.  1.
</event>
<event>
 5    1  0.1300052E-008  0.3792689E+03  0.7957747E-01  0.3454348E+00
         13   -1    0    0    0    0  0.00000000000E+00  0.00000000000E+00  0.14999999963E+04  0.15000000000E+04  0.10566000000E+00 0.  1.
        994   -1    0    0    0    0 -0.00000000000E+00 -0.00000000000E+00  0.11368683772E-12  0.17120000000E+03  0.17120000000E+03 0.  0.
         13    1    1    2    0    0  0.13722676048E+02  0.12300653043E+02  0.36200185399E+02  0.40621207394E+02  0.10566000000E+00 0.  1.
        994    1    1    2    0    0 -0.55233738941E+01 -0.90353991524E+01  0.48785640607E+01  0.17159658063E+03  0.17120000000E+03 0.  0.
        998    1    1    2    0    0 -0.81993021542E+01 -0.32652538901E+01  0.14589212468E+04  0.14589822120E+04  0.10000000000E+02 0.  1.
</event>
<event>
 5    1  0.1300052E-008  0.3827853E+03  0.7957747E-01  0.3439120E+00
         13   -1    0    0    0    0  0.00000000000E+00  0.00000000000E+00  0.14999999963E+04  0.15000000000E+04  0.10566000000E+00 0. -1.
        994   -1    0    0    0    0 -0.00000000000E+00 -0.00000000000E+00  0.11368683772E-12  0.17120000000E+03  0.17120000000E+03 0.  0.
         13    1    1    2    0    0  0.12147700959E+02  0.18221807567E+01  0.27957927600E+02  0.30537581126E+02  0.10566000000E+00 0. -1.
        994    1    1    2    0    0  0.53440659116E+01  0.21235458607E+01  0.28432450708E+01  0.17132014631E+03  0.17120000000E+03 0.  0.
        998    1    1    2    0    0 -0.17491766871E+02 -0.39457266173E+01  0.14691988236E+04  0.14693422726E+04  0.10000000000E+02 0. -1.
</event>
<event>
 5    1  0.1300052E-008  0.4258736E+03  0.7957747E-01  0.3272894E+00
         13   -1    0    0    0    0  0.00000000000E+00  0.00000000000E+00  0.14999999963E+04  0.15000000000E+04  0.10566000000E+00 0.  1.
        994   -1    0    0    0    0 -0.00000000000E+00 -0.00000000000E+00  0.11368683772E-12  0.17120000000E+03  0.17120000000E+03 0.  0.
         13    1    1    2    0    0  0.16391732860E+02  0.12311005309E+03  0.18868428144E+03  0.22589055603E+03  0.10566000000E+00 0.  1.
        994    1    1    2    0    0 -0.21787461516E+02 -0.44179537812E+02  0.54968029573E+02  0.18643349837E+03  0.17120000000E+03 0.  0.
        998    1    1    2    0    0  0.53957286559E+01 -0.78930515274E+02  0.12563476853E+04  0.12588759456E+04  0.10000000000E+02 0.  1.
</event>
<event>
 5    1  0.1300052E-008  0.3782267E+03  0.7957747E-01  0.3458916E+00
         13   -1    0    0    0    0  0.00000000000E+00  0.00000000000E+00  0.14999999963E+04  0.15000000000E+04  0.10566000000E+00 0.  1.
        994   -1    0    0    0    0 -0.00000000000E+00 -0.00000000000E+00  0.11368683772E-12  0.17120000000E+03  0.17120000000E+03 0.  0.
         13    1    1    2    0    0  0.17353181103E+02  0.42991846364E+02  0.27857456919E+03  0.28240614992E+03  0.10566000000E+00 0.  1.
        994    1    1    2    0    0  0.35502624780E+01  0.42053067663E+01  0.51328280501E+01  0.17136532582E+03  0.17120000000E+03 0.  0.
        998    1    1    2    0    0 -0.20903443581E+02 -0.47197153130E+02  0.12162925990E+04  0.12174285243E+04  0.10000000000E+02 0.  1.
</event>
<event>
 5    1  0.1300052E-008  0.3724447E+03  0.7957747E-01  0.3484730E+00
         13   -1    0    0    0    0  0.00000000000E+00  0.00000000000E+00  0.14999999963E+04  0.15000000000E+04  0.10566000000E+00 0. -1.
        994   -1    0    0    0    0 -0.00000000000E+00 -0.00000000000E+00  0.11368683772E-12  0.17120000000E+03  0.17120000000E+03 0.  0.
         13    1    1    2    0    0 -0.41719236430E+02 -0.28528245140E+02  0.94528939611E+02  0.10719182360E+03  0.10566000000E+00 0. -1.
        994    1    1    2    0    0  0.38505401328E+02  0.31787519160E+02  0.21080945355E+02  0.17957438170E+03  0.17120000000E+03 0.  0.
        998    1    1    2    0    0  0.32138351014E+01 -0.32592740205E+01  0.13843901113E+04  0.13844337947E+04  0.10000000000E+02 0. -1.
</event>
<event>
 5    1  0.1300052E-008  0.4142363E+03  0.7957747E-01  0.3314414E+00
         13   -1    0    0    0    0  0.00000000000E+00  0.00000000000E+00  0.14999999963E+04  0.15000000000E+04  0.10566000000E+00 0. -1.
        994   -1    0    0    0    0 -0.00000000000E+00 -0.00000000000E+00  0.11368683772E-12  0.17120000000E+03  0.17120000000E+03 0.  0.
         13    1    1    2    0    0 -0.57079659598E+02 -0.56136285667E+02  0.75799934083E+02  0.11024976771E+03  0.10566000000E+00 0. -1.
        994    1    1    2    0    0  0.60134007460E+02  0.31535467811E+02  0.56014586236E+02  0.19250365829E+03  0.17120000000E+03 0.  0.
        998    1    1    2    0    0 -0.30543478618E+01  0.24600817856E+02  0.13681854760E+04  0.13684465740E+04  0.10000000000E+02 0. -1.
</event>
<event>
 5    1  0.1300052E-008  0.3847466E+03  0.7957747E-01  0.3430748E+00
         13   -1    0    0    0    0  0.00000000000E+00  0.00000000000E+00  0.14999999963E+04  0.15000000000E+04  0.10566000000E+00 0. -1.
        994   -1    0    0    0    0 -0.00000000000E+00 -0.00000000000E+00  0.11368683772E-12  0.17120000000E+03  0.17120000000E+03 0.  0.
         13    1    1    2    0    0 -0.85091202183E+01  0.99399218788E+01  0.47752713468E+02  0.49513028401E+02  0.10566000000E+00 0. -1.
        994    1    1    2    0    0  0.20637255818E+01 -0.14040087141E+02  0.24190980933E+01  0.17180417645E+03  0.17120000000E+03 0.  0.
        998    1    1    2    0    0  0.64453946365E+01  0.41001652619E+01  0.14498281847E+04  0.14498827951E+04  0.10000000000E+02 0. -1.
</event>
<event>
 5    1  0.1300052E-008  0.3764714E+03  0.7957747E-01  0.3466668E+00
         13   -1    0    0    0    0  0.00000000000E+00  0.00000000000E+00  0.14999999963E+04  0.15000000000E+04  0.10566000000E+00 0. -1.
        994   -1    0    0    0    0 -0.00000000000E+00 -0.00000000000E+00  0.11368683772E-12  0.17120000000E+03  0.17120000000E+03 0.  0.
         13    1    1    2    0    0  0.21546322431E+02 -0.20533381821E+02  0.66578559230E+02  0.72928591735E+02  0.10566000000E+00 0. -1.
        994    1    1    2    0    0 -0.35528649715E+02  0.23724647145E+02  0.12123511030E+02  0.17686594741E+03  0.17120000000E+03 0.  0.
        998    1    1    2    0    0  0.13982327284E+02 -0.31912653232E+01  0.14212979260E+04  0.14214054609E+04  0.10000000000E+02 0. -1.
</event>
<event>
 5    1  0.1300052E-008  0.3827550E+03  0.7957747E-01  0.3439250E+00
         13   -1    0    0    0    0  0.00000000000E+00  0.00000000000E+00  0.14999999963E+04  0.15000000000E+04  0.10566000000E+00 0.  1.
        994   -1    0    0    0    0 -0.00000000000E+00 -0.00000000000E+00  0.11368683772E-12  0.17120000000E+03  0.17120000000E+03 0.  0.
         13    1    1    2    0    0 -0.12408823556E+02 -0.47131899855E+01  0.31068923335E+02  0.33785828732E+02  0.10566000000E+00 0.  1.
        994    1    1    2    0    0  0.88527759455E+01  0.29652416547E+01  0.30376519326E+01  0.17148128653E+03  0.17120000000E+03 0.  0.
        998    1    1    2    0    0  0.35560476109E+01  0.17479483308E+01  0.14658934210E+04  0.14659328847E+04  0.10000000000E+02 0.  1.
</event>
<event>
 5    1  0.1300052E-008  0.3847590E+03  0.7957747E-01  0.3430695E+00
         13   -1    0    0    0    0  0.00000000000E+00  0.00000000000E+00  0.14999999963E+04  0.15000000000E+04  0.10566000000E+00 0. -1.
        994   -1    0    0    0    0 -0.00000000000E+00 -0.00000000000E+00  0.11368683772E-12  0.17120000000E+03  0.17120000000E+03 0.  0.
         13    1    1    2    0    0  0.86182134347E+01 -0.12955175582E+02  0.68353664911E+02  0.70102388319E+02  0.10566000000E+00 0. -1.
        994    1    1    2    0    0 -0.32054607799E-01  0.14329823805E+02  0.24259575440E+01  0.17181580296E+03  0.17120000000E+03 0.  0.
        998    1    1    2    0    0 -0.85861588269E+01 -0.13746482231E+01  0.14292203738E+04  0.14292818087E+04  0.10000000000E+02 0. -1.
</event>
<event>
 5    1  0.1300052E-008  0.3696932E+03  0.7957747E-01  0.3497302E+00
         13   -1    0    0    0    0  0.00000000000E+00  0.00000000000E+00  0.14999999963E+04  0.15000000000E+04  0.10566000000E+00 0.  1.
        994   -1    0    0    0    0 -0.00000000000E+00 -0.00000000000E+00  0.11368683772E-12  0.17120000000E+03  0.17120000000E+03 0.  0.
         13    1    1    2    0    0 -0.24374900780E+02  0.55449501891E+02  0.19011749997E+03  0.19953310003E+03  0.10566000000E+00 0.  1.
        994    1    1    2    0    0  0.30924632634E+02 -0.27324010833E+02  0.15347044082E+02  0.17677077313E+03  0.17120000000E+03 0.  0.
        998    1    1    2    0    0 -0.65497318540E+01 -0.28125491057E+02  0.12945354522E+04  0.12948961268E+04  0.10000000000E+02 0.  1.
</event>
<event>
 5    1  0.1300052E-008  0.3771904E+03  0.7957747E-01  0.3463484E+00
         13   -1    0    0    0    0  0.00000000000E+00  0.00000000000E+00  0.14999999963E+04  0.15000000000E+04  0.10566000000E+00 0. -1.
        994   -1    0    0    0    0 -0.00000000000E+00 -0.00000000000E+00  0.11368683772E-12  0.17120000000E+03  0.17120000000E+03 0.  0.
         13    1    1    2    0    0 -0.19516890936E+02  0.66801297582E+01  0.35389201404E+02  0.40962664775E+02  0.10566000000E+00 0. -1.
        994    1    1    2    0    0  0.19446046932E+02 -0.52783652487E+01  0.69293500094E+01  0.17252091401E+03  0.17120000000E+03 0.  0.
        998    1    1    2    0    0  0.70844004152E-01 -0.14017645095E+01  0.14576814449E+04  0.14577164212E+04  0.10000000000E+02 0. -1.
</event>
<event>
 5    1  0.1300052E-008  0.3790175E+03  0.7957747E-01  0.3455448E+00
         13   -1    0    0    0    0  0.00000000000E+00  0.00000000000E+00  0.14999999963E+04  0.15000000000E+04  0.10566000000E+00 0.  1.
        994   -1    0    0    0    0 -0.00000000000E+00 -0.00000000000E+00  0.11368683772E-12  0.17120000000E+03  0.17120000000E+03 0.  0.
         13    1    1    2    0    0 -0.10168218860E+02 -0.12084809463E+02  0.25764412459E+02  0.30220049767E+02  0.10566000000E+00 0.  1.
        994    1    1    2    0    0  0.53693413012E+01 -0.36590742543E+01  0.47715209913E+01  0.17138969066E+03  0.17120000000E+03 0.  0.
        998    1    1    2    0    0  0.47988775589E+01  0.15743883717E+02  0.14694640628E+04  0.14695902596E+04  0.10000000000E+02 0.  1.
</event>
<event>
 5    1  0.1300052E-008  0.3831308E+03  0.7957747E-01  0.3437639E+00
         13   -1    0    0    0    0  0.00000000000E+00  0.00000000000E+00  0.14999999963E+04  0.15000000000E+04  0.10566000000E+00 0.  1.
        994   -1    0    0    0    0 -0.00000000000E+00 -0.00000000000E+00  0.11368683772E-12  0.17120000000E+03  0.17120000000E+03 0.  0.
         13    1    1    2    0    0 -0.35879520457E+01 -0.95720656775E+01  0.19375856546E+02  0.21907369129E+02  0.10566000000E+00 0.  1.
        994    1    1    2    0    0  0.36512429572E+01  0.77062232495E+01  0.28016598445E+01  0.17143513861E+03  0.17120000000E+03 0.  0.
        998    1    1    2    0    0 -0.63290911493E-01  0.18658424280E+01  0.14778224799E+04  0.14778574923E+04  0.10000000000E+02 0.  1.
</event>
<event>
 5    1  0.1300052E-008  0.3826233E+03  0.7957747E-01  0.3439815E+00
         13   -1    0    0    0    0  0.00000000000E+00  0.00000000000E+00  0.14999999963E+04  0.15000000000E+04  0.10566000000E+00 0.  1.
        994   -1    0    0    0    0 -0.00000000000E+00 -0.00000000000E+00  0.11368683772E-12  0.17120000000E+03  0.17120000000E+03 0.  0.
         13    1    1    2    0    0  0.27438697923E+02  0.21711196477E+01  0.15950041808E+03  0.16185793288E+03  0.10566000000E+00 0.  1.
        994    1    1    2    0    0  0.54374988831E+01  0.64106607955E+00  0.29141179354E+01  0.17131231550E+03  0.17120000000E+03 0.  0.
        998    1    1    2    0    0 -0.32876196806E+02 -0.28121857272E+01  0.13375854603E+04  0.13380297516E+04  0.10000000000E+02 0.  1.
</event>
<event>
 5    1  0.1300052E-008  0.3838909E+03  0.7957747E-01  0.3434390E+00
         13   -1    0    0    0    0  0.00000000000E+00  0.00000000000E+00  0.14999999963E+04  0.15000000000E+04  0.10566000000E+00 0.  1.
        994   -1    0    0    0    0 -0.00000000000E+00 -0.00000000000E+00  0.11368683772E-12  0.17120000000E+03  0.17120000000E+03 0.  0.
         13    1    1    2    0    0  0.14785845335E+02  0.16508317801E+01  0.48034590010E+02  0.50285976865E+02  0.10566000000E+00 0.  1.
        994    1    1    2    0    0 -0.17836419110E+02 -0.13848587780E+02  0.38666124590E+01  0.17272611824E+03  0.17120000000E+03 0.  0.
        998    1    1    2    0    0  0.30505737749E+01  0.12197756000E+02  0.14480987938E+04  0.14481879049E+04  0.10000000000E+02 0.  1.
</event>
<event>
 5    1  0.1300052E-008  0.3716207E+03  0.7957747E-01  0.3488476E+00
         13   -1    0    0    0    0  0.00000000000E+00  0.00000000000E+00  0.14999999963E+04  0.15000000000E+04  0.10566000000E+00 0. -1.
        994   -1    0    0    0    0 -0.00000000000E+00 -0.00000000000E+00  0.11368683772E-12  0.17120000000E+03  0.17120000000E+03 0.  0.
         13    1    1    2    0    0  0.55213747111E+02  0.30760216639E+02  0.19984194264E+03  0.20959857347E+03  0.10566000000E+00 0. -1.
        994    1    1    2    0    0 -0.55613253470E+02 -0.37269828961E+02  0.23996214644E+02  0.18538374370E+03  0.17120000000E+03 0.  0.
        998    1    1    2    0    0  0.39950635899E+00  0.65096123216E+01  0.12761618390E+04  0.12762176828E+04  0.10000000000E+02 0. -1.
</event>
<event>
 5    1  0.1300052E-008  0.3951777E+03  0.7957747E-01  0.3387622E+00
         13   -1    0    0    0    0  0.00000000000E+00  0.00000000000E+00  0.14999999963E+04  0.15000000000E+04  0.10566000000E+00 0. -1.
        994   -1    0    0    0    0 -0.00000000000E+00 -0.00000000000E+00  0.11368683772E-12  0.17120000000E+03  0.17120000000E+03 0.  0.
         13    1    1    2    0    0 -0.70411687203E+02 -0.21003527179E+02  0.91945484780E+02  0.11769850120E+03  0.10566000000E+00 0. -1.
        994    1    1    2    0    0  0.78173821897E+02  0.24679545545E+02  0.51221487503E+02  0.19660444344E+03  0.17120000000E+03 0.  0.
        998    1    1    2    0    0 -0.77621346943E+01 -0.36760183664E+01  0.13568330240E+04  0.13568970554E+04  0.10000000000E+02 0. -1.
</event>
<event>
 5    1  0.1300052E-008  0.3775170E+03  0.7957747E-01  0.3462042E+00
         13   -1    0    0    0    0  0.00000000000E+00  0.00000000000E+00  0.14999999963E+04  0.15000000000E+04  0.10566000000E+00 0. -1.
        994   -1    0    0    0    0 -0.00000000000E+00 -0.00000000000E+00  0.11368683772E-12  0.17120000000E+03  0.17120000000E+03 0.  0.
         13    1    1    2    0    0  0.36388172186E+02 -0.56429747313E+01  0.40163440915E+02  0.54489039164E+02  0.10566000000E+00 0. -1.
        994    1    1    2    0    0 -0.22473890410E+02 -0.18394192941E+02  0.18004438758E+02  0.17457669346E+03  0.17120000000E+03 0.  0.
        998    1    1    2    0    0 -0.13914281776E+02  0.24037167673E+02  0.14418321166E+04  0.14421342674E+04  0.10000000000E+02 0. -1.
</event>
<event>
 5    1  0.1300052E-008  0.3855227E+03  0.7957747E-01  0.3427459E+00
         13   -1    0    0    0    0  0.00000000000E+00  0.00000000000E+00  0.14999999963E+04  0.15000000000E+04  0.10566000000E+00 0. -1.
        994   -1    0    0    0    0 -0.00000000000E+00 -0.00000000000E+00  0.11368683772E-12  0.17120000000E+03  0.17120000000E+03 0.  0.
         13    1    1    2    0    0  0.76974445097E+01 -0.10813979255E+02  0.64887458487E+02  0.66231308550E+02  0.10566000000E+00 0. -1.
        994    1    1    2    0    0 -0.39301773167E+01  0.72301826863E+01  0.15932311720E+01  0.17140507642E+03  0.17120000000E+03 0.  0.
        998    1    1    2    0    0 -0.37672671929E+01  0.35837965683E+01  0.14335193066E+04  0.14335636150E+04  0.10000000000E+02 0. -1.
</event>
<event>
 5    1  0.1300052E-008  0.3808941E+03  0.7957747E-01  0.3447274E+00
         13   -1    0    0    0    0  0.00000000000E+00  0.00000000000E+00  0.14999999963E+04  0.15000000000E+04  0.10566000000E+00 0.  1.
        994   -1    0    0    0    0 -0.00000000000E+00 -0.00000000000E+00  0.11368683772E-12  0.17120000000E+03  0.17120000000E+03 0.  0.
         13    1    1    2    0    0 -0.69660418002E+01 -0.16897589431E+02  0.45246888061E+02  0.48799040054E+02  0.10566000000E+00 0.  1.
        994    1    1    2    0    0  0.40476681165E+01  0.33912283323E+01  0.37754228898E+01  0.17132302199E+03  0.17120000000E+03 0.  0.
        998    1    1    2    0    0  0.29183736838E+01  0.13506361099E+02  0.14509776853E+04  0.14510779380E+04  0.10000000000E+02 0.  1.
</event>
<event>
 5    1  0.1300052E-008  0.3839108E+03  0.7957747E-01  0.3434305E+00
         13   -1    0    0    0    0  0.00000000000E+00  0.00000000000E+00  0.14999999963E+04  0.15000000000E+04  0.10566000000E+00 0. -1.
        994   -1    0    0    0    0 -0.00000000000E+00 -0.00000000000E+00  0.11368683772E-12  0.17120000000E+03  0.17120000000E+03 0.  0.
         13    1    1    2    0    0 -0.24197285658E+02  0.18045059766E+02  0.18041983543E+03  0.18292747469E+03  0.10566000000E+00 0. -1.
        994    1    1    2    0    0  0.29834215012E+02 -0.17040647638E+02  0.60774981431E+01  0.17471931788E+03  0.17120000000E+03 0.  0.
        998    1    1    2    0    0 -0.56369293539E+01 -0.10044121282E+01  0.13135026627E+04  0.13135532074E+04  0.10000000000E+02 0. -1.
</event>
<event>
 5    1  0.1300052E-008  0.3763837E+03  0.7957747E-01  0.3467057E+00
         13   -1    0    0    0    0  0.00000000000E+00  0.00000000000E+00  0.14999999963E+04  0.15000000000E+04  0.10566000000E+00 0. -1.
        994   -1    0    0    0    0 -0.00000000000E+00 -0.00000000000E+00  0.11368683772E-12  0.17120000000E+03  0.17120000000E+03 0.  0.
         13    1    1    2    0    0  0.79628538942E+01 -0.62348986525E+02  0.18426426354E+03  0.19468983832E+03  0.10566000000E+00 0. -1.
        994    1    1    2    0    0  0.10845241122E+03 -0.16453999437E+02  0.58745592577E+02  0.21164390906E+03  0.17120000000E+03 0.  0.
        998    1    1    2    0    0 -0.11641526511E+03  0.78802985962E+02  0.12569901402E+04  0.12648662526E+04  0.10000000000E+02 0. -1.
</event>
<event>
 5    1  0.1300052E-008  0.3804191E+03  0.7957747E-01  0.3449336E+00
         13   -1    0    0    0    0  0.00000000000E+00  0.00000000000E+00  0.14999999963E+04  0.15000000000E+04  0.10566000000E+00 0. -1.
        994   -1    0    0    0    0 -0.00000000000E+00 -0.00000000000E+00  0.11368683772E-12  0.17120000000E+03  0.17120000000E+03 0.  0.
         13    1    1    2    0    0  0.99351982171E+01 -0.82940325777E+01  0.19519253751E+02  0.23420323889E+02  0.10566000000E+00 0. -1.
        994    1    1    2    0    0 -0.43806794696E+01  0.15043839336E+02  0.47417407686E+01  0.17198090464E+03  0.17120000000E+03 0.  0.
        998    1    1    2    0    0 -0.55545187475E+01 -0.67498067587E+01  0.14757390018E+04  0.14757987715E+04  0.10000000000E+02 0. -1.
</event>
<event>
 5    1  0.1300052E-008  0.3847323E+03  0.7957747E-01  0.3430808E+00
         13   -1    0    0    0    0  0.00000000000E+00  0.00000000000E+00  0.14999999963E+04  0.15000000000E+04  0.10566000000E+00 0. -1.
        994   -1    0    0    0    0 -0.00000000000E+00 -0.00000000000E+00  0.11368683772E-12  0.17120000000E+03  0.17120000000E+03 0.  0.
         13    1    1    2    0    0  0.17798733787E+02  0.65583447855E+01  0.96494815299E+02  0.98341585072E+02  0.10566000000E+00 0. -1.
        994    1    1    2    0    0 -0.15781305340E+02 -0.13873793755E+02  0.32177453779E+01  0.17251471136E+03  0.17120000000E+03 0.  0.
        998    1    1    2    0    0 -0.20174284471E+01  0.73154489699E+01  0.14002874356E+04  0.14003437036E+04  0.10000000000E+02 0. -1.
</event>
<event>
 5    1  0.1300052E-008  0.3685024E+03  0.7957747E-01  0.3502802E+00
         13   -1    0    0    0    0  0.00000000000E+00  0.00000000000E+00  0.14999999963E+04  0.15000000000E+04  0.10566000000E+00 0. -1.
        994   -1    0    0    0    0 -0.00000000000E+00 -0.00000000000E+00  0.11368683772E-12  0.17120000000E+03  0.17120000000E+03 0.  0.
         13    1    1    2    0    0  0.12924035026E+02  0.20130683647E+01  0.37971038229E+01  0.13620289537E+02  0.10566000000E+00 0. -1.
        994    1    1    2    0    0 -0.57224751020E+01 -0.99456685167E+01  0.10607116431E+02  0.17191164580E+03  0.17120000000E+03 0.  0.
        998    1    1    2    0    0 -0.72015599238E+01  0.79326001520E+01  0.14855957760E+04  0.14856680647E+04  0.10000000000E+02 0. -1.
</event>
<event>
 5    1  0.1300052E-008  0.3726181E+03  0.7957747E-01  0.3483945E+00
         13   -1    0    0    0    0  0.00000000000E+00  0.00000000000E+00  0.14999999963E+04  0.15000000000E+04  0.10566000000E+00 0. -1.
        994   -1    0    0    0    0 -0.00000000000E+00 -0.00000000000E+00  0.11368683772E-12  0.17120000000E+03  0.17120000000E+03 0.  0.
         13    1    1    2    0    0  0.25391363104E+01  0.17086233070E+02  0.65006247159E+01  0.18456864833E+02  0.10566000000E+00 0. -1.
        994    1    1    2    0    0  0.11634937263E+01 -0.17250690987E+02  0.13385351544E+02  0.17259069411E+03  0.17120000000E+03 0.  0.
        998    1    1    2    0    0 -0.37026300367E+01  0.16445791691E+00  0.14801140200E+04  0.14801524411E+04  0.10000000000E+02 0. -1.
</event>
<event>
 5    1  0.1300052E-008  0.3821196E+03  0.7957747E-01  0.3441981E+00
         13   -1    0    0    0    0  0.00000000000E+00  0.00000000000E+00  0.14999999963E+04  0.15000000000E+04  0.10566000000E+00 0.  1.
        994   -1    0    0    0    0 -0.00000000000E+00 -0.00000000000E+00  0.11368683772E-12  0.17120000000E+03  0.17120000000E+03 0.  0.
         13    1    1    2    0    0  0.17615504308E+02  0.12272420726E+00  0.48155577405E+02  0.51276620915E+02  0.10566000000E+00 0.  1.
        994    1    1    2    0    0 -0.19984391256E+02  0.52369889390E+02  0.13568361717E+02  0.18065304218E+03  0.17120000000E+03 0.  0.
        998    1    1    2    0    0  0.23688869478E+01 -0.52492613598E+02  0.14382760572E+04  0.14392703369E+04  0.10000000000E+02 0.  1.
</event>
<event>
 5    1  0.1300052E-008  0.3848268E+03  0.7957747E-01  0.3430407E+00
         13   -1    0    0    0    0  0.00000000000E+00  0.00000000000E+00  0.14999999963E+04  0.15000000000E+04  0.10566000000E+00 0.  1.
        994   -1    0    0    0    0 -0.00000000000E+00 -0.00000000000E+00  0.11368683772E-12  0.17120000000E+03  0.17120000000E+03 0.  0.
         13    1    1    2    0    0 -0.11467412333E+02 -0.64089765317E+01  0.48322313783E+02  0.50076278808E+02  0.10566000000E+00 0.  1.
        994    1    1    2    0    0  0.13733197211E+02  0.76219996161E+01  0.25283127472E+01  0.17193756992E+03  0.17120000000E+03 0.  0.
        998    1    1    2    0    0 -0.22657848777E+01 -0.12130230843E+01  0.14491493697E+04  0.14491861513E+04  0.10000000000E+02 0.  1.
</event>
<event>
 5    1  0.1300052E-008  0.3862788E+03  0.7957747E-01  0.3424266E+00
         13   -1    0    0    0    0  0.00000000000E+00  0.00000000000E+00  0.14999999963E+04  0.15000000000E+04  0.10566000000E+00 0.  1.
        994   -1    0    0    0    0 -0.00000000000E+00 -0.00000000000E+00  0.11368683772E-12  0.17120000000E+03  0.17120000000E+03 0.  0.
         13    1    1    2    0    0 -0.10387988333E+03 -0.12880883947E+03  0.47145536510E+03  0.49965279918E+03  0.10566000000E+00 0.  1.
        994    1    1    2    0    0  0.89857481274E+02  0.12529926307E+03  0.11440681003E+03  0.25724041371E+03  0.17120000000E+03 0.  0.
        998    1    1    2    0    0  0.14022402055E+02  0.35095764062E+01  0.91413782115E+03  0.91430678711E+03  0.10000000000E+02 0.  1.
</event>
<event>
 5    1  0.1300052E-008  0.3827280E+03  0.7957747E-01  0.3439366E+00
         13   -1    0    0    0    0  0.00000000000E+00  0.00000000000E+00  0.14999999963E+04  0.15000000000E+04  0.10566000000E+00 0.  1.
        994   -1    0    0    0    0 -0.00000000000E+00 -0.00000000000E+00  0.11368683772E-12  0.17120000000E+03  0.17120000000E+03 0.  0.
         13    1    1    2    0    0 -0.12896593487E+02  0.13254388861E+02  0.60174887037E+02  0.62952594399E+02  0.10566000000E+00 0.  1.
        994    1    1    2    0    0  0.79668442742E+01 -0.13219171696E+02  0.35519904723E+01  0.17193101449E+03  0.17120000000E+03 0.  0.
        998    1    1    2    0    0  0.49297492129E+01 -0.35217164353E-01  0.14362731188E+04  0.14363163911E+04  0.10000000000E+02 0.  1.
</event>
<event>
 5    1  0.1300052E-008  0.3796773E+03  0.7957747E-01  0.3452565E+00
         13   -1    0    0    0    0  0.00000000000E+00  0.00000000000E+00  0.14999999963E+04  0.15000000000E+04  0.10566000000E+00 0.  1.
        994   -1    0    0    0    0 -0.00000000000E+00 -0.00000000000E+00  0.11368683772E-12  0.17120000000E+03  0.17120000000E+03 0.  0.
         13    1    1    2    0    0 -0.11132859482E+03 -0.60551918643E+02  0.76551877764E+03  0.77593788473E+03  0.10566000000E+00 0.  1.
        994    1    1    2    0    0  0.13011826270E+03  0.43416199600E+02  0.70075776918E+02  0.23029499167E+03  0.17120000000E+03 0.  0.
        998    1    1    2    0    0 -0.18789667882E+02  0.17135719043E+02  0.66440544172E+03  0.66496712361E+03  0.10000000000E+02 0.  0.
</event>
<event>
 5    1  0.1300052E-008  0.3768895E+03  0.7957747E-01  0.3464815E+00
         13   -1    0    0    0    0  0.00000000000E+00  0.00000000000E+00  0.14999999963E+04  0.15000000000E+04  0.10566000000E+00 0.  1.
        994   -1    0    0    0    0 -0.00000000000E+00 -0.00000000000E+00  0.11368683772E-12  0.17120000000E+03  0.17120000000E+03 0.  0.
         13    1    1    2    0    0  0.12930651601E+03  0.13091901672E+03  0.10982655141E+04  0.11135740275E+04  0.10566000000E+00 0.  1.
        994    1    1    2    0    0 -0.10497690505E+03 -0.13538810299E+03  0.11230291356E+03  0.26696717667E+03  0.17120000000E+03 0.  0.
        998    1    1    2    0    0 -0.24329610954E+02  0.44690862665E+01  0.28943156857E+03  0.29065879582E+03  0.10000000000E+02 0.  1.
</event>
<event>
 5    1  0.1300052E-008  0.3830525E+03  0.7957747E-01  0.3437974E+00
         13   -1    0    0    0    0  0.00000000000E+00  0.00000000000E+00  0.14999999963E+04  0.15000000000E+04  0.10566000000E+00 0.  1.
        994   -1    0    0    0    0 -0.00000000000E+00 -0.00000000000E+00  0.11368683772E-12  0.17120000000E+03  0.17120000000E+03 0.  0.
         13    1    1    2    0    0  0.26420710238E+02 -0.43369100776E+01  0.15895223100E+03  0.16119145642E+03  0.10566000000E+00 0.  1.
        994    1    1    2    0    0  0.32957900428E+01  0.10210824813E+02  0.29812065221E+01  0.17156179868E+03  0.17120000000E+03 0.  0.
        998    1    1    2    0    0 -0.29716500281E+02 -0.58739147353E+01  0.13380665588E+04  0.13384467449E+04  0.10000000000E+02 0.  1.
</event>
<event>
 5    1  0.1300052E-008  0.3822456E+03  0.7957747E-01  0.3441438E+00
         13   -1    0    0    0    0  0.00000000000E+00  0.00000000000E+00  0.14999999963E+04  0.15000000000E+04  0.10566000000E+00 0.  1.
        994   -1    0    0    0    0 -0.00000000000E+00 -0.00000000000E+00  0.11368683772E-12  0.17120000000E+03  0.17120000000E+03 0.  0.
         13    1    1    2    0    0 -0.12112824646E+02  0.20861108588E+02  0.90725810404E+02  0.93878060323E+02  0.10566000000E+00 0.  1.
        994    1    1    2    0    0  0.10272964327E+02 -0.22802440904E+02  0.50821490124E+01  0.17309174835E+03  0.17120000000E+03 0.  0.
        998    1    1    2    0    0  0.18398603193E+01  0.19413323159E+01  0.14041920369E+04  0.14042301913E+04  0.10000000000E+02 0.  1.
</event>
<event>
 5    1  0.1300052E-008  0.3827611E+03  0.7957747E-01  0.3439223E+00
         13   -1    0    0    0    0  0.00000000000E+00  0.00000000000E+00  0.14999999963E+04  0.15000000000E+04  0.10566000000E+00 0. -1.
        994   -1    0    0    0    0 -0.00000000000E+00 -0.00000000000E+00  0.11368683772E-12  0.17120000000E+03  0.17120000000E+03 0.  0.
         13    1    1    2    0    0 -0.70749009959E+02  0.16258240889E+03  0.10428139136E+04  0.10577803797E+04  0.10566000000E+00 0. -1.
        994    1    1    2    0    0  0.91607824944E+02 -0.16414251368E+03  0.13027001910E+03  0.28568247455E+03  0.17120000000E+03 0.  0.
        998    1    1    2    0    0 -0.20858814985E+02  0.15601047934E+01  0.32691606357E+03  0.32773714575E+03  0.10000000000E+02 0. -1.
</event>
<event>
 5    1  0.1300052E-008  0.3806177E+03  0.7957747E-01  0.3448473E+00
         13   -1    0    0    0    0  0.00000000000E+00  0.00000000000E+00  0.14999999963E+04  0.15000000000E+04  0.10566000000E+00 0.  1.
        994   -1    0    0    0    0 -0.00000000000E+00 -0.00000000000E+00  0.11368683772E-12  0.17120000000E+03  0.17120000000E+03 0.  0.
         13    1    1    2    0    0  0.95145784514E+01  0.39178071898E+02  0.23760533112E+03  0.24100156236E+03  0.10566000000E+00 0.  1.
        994    1    1    2    0    0 -0.32438314570E+01 -0.91034644902E+01  0.41332986529E+01  0.17152235908E+03  0.17120000000E+03 0.  0.
        998    1    1    2    0    0 -0.62707469944E+01 -0.30074607408E+02  0.12582613665E+04  0.12586760786E+04  0.10000000000E+02 0.  1.
</event>
<event>
 5    1  0.1300052E-008  0.3758802E+03  0.7957747E-01  0.3469296E+00
         13   -1    0    0    0    0  0.00000000000E+00  0.00000000000E+00  0.14999999963E+04  0.15000000000E+04  0.10566000000E+00 0.  1.
        994   -1    0    0    0    0 -0.00000000000E+00 -0.00000000000E+00  0.11368683772E-12  0.17120000000E+03  0.17120000000E+03 0.  0.
         13    1    1    2    0    0  0.75683278315E+00  0.33340672387E+02  0.89689278844E+02  0.95688824502E+02  0.10566000000E+00 0.  1.
        994    1    1    2    0    0 -0.19630942700E+01 -0.13375403615E+02  0.68470460896E+01  0.17186936086E+03  0.17120000000E+03 0.  0.
        998    1    1    2    0    0  0.12062614868E+01 -0.19965268772E+02  0.14034636713E+04  0.14036418146E+04  0.10000000000E+02 0.  1.
</event>
<event>
 5    1  0.1300052E-008  0.3786231E+03  0.7957747E-01  0.3457176E+00
         13   -1    0    0    0    0  0.00000000000E+00  0.00000000000E+00  0.14999999963E+04  0.15000000000E+04  0.10566000000E+00 0.  1.
        994   -1    0    0    0    0 -0.00000000000E+00 -0.00000000000E+00  0.11368683772E-12  0.17120000000E+03  0.17120000000E+03 0.  0.
         13    1    1    2    0    0  0.14699919445E+02 -0.38720926066E+02  0.14727358995E+03  0.15298666349E+03  0.10566000000E+00 0.  1.
        994    1    1    2    0    0 -0.22980107362E+02  0.50501538291E+02  0.15238426800E+02  0.18061046580E+03  0.17120000000E+03 0.  0.
        998    1    1    2    0    0  0.82801879172E+01 -0.11780612226E+02  0.13374879795E+04  0.13376028707E+04  0.10000000000E+02 0.  1.
</event>
<event>
 5    1  0.1300052E-008  0.3812755E+03  0.7957747E-01  0.3445623E+00
         13   -1    0    0    0    0  0.00000000000E+00  0.00000000000E+00  0.14999999963E+04  0.15000000000E+04  0.10566000000E+00 0.  1.
        994   -1    0    0    0    0 -0.00000000000E+00 -0.00000000000E+00  0.11368683772E-12  0.17120000000E+03  0.17120000000E+03 0.  0.
         13    1    1    2    0    0  0.14965332489E+01  0.22342418558E+02  0.73988667457E+02  0.77303022935E+02  0.10566000000E+00 0.  1.
        994    1    1    2    0    0 -0.11705963432E+02 -0.38180267890E+01  0.39955107050E+01  0.17168870380E+03  0.17120000000E+03 0.  0.
        998    1    1    2    0    0  0.10209430183E+02 -0.18524391769E+02  0.14220158181E+04  0.14222082733E+04  0.10000000000E+02 0.  1.
</event>
<event>
 5    1  0.1912625E-008  0.3860140E+03  0.7957747E-01  0.3425383E+00
         13   -1    0    0    0    0  0.00000000000E+00  0.00000000000E+00  0.14999999963E+04  0.15000000000E+04  0.10566000000E+00 0.  1.
        994   -1    0    0    0    0 -0.00000000000E+00 -0.00000000000E+00  0.11368683772E-12  0.17120000000E+03  0.17120000000E+03 0.  0.
         13    1    1    2    0    0  0.11191515799E+02  0.49071061710E+01  0.62288555351E+02  0.63476019162E+02  0.10566000000E+00 0.  1.
        994    1    1    2    0    0 -0.16703502087E+02 -0.71082164145E+01  0.22084577678E+01  0.17217389758E+03  0.17120000000E+03 0.  0.
        998    1    1    2    0    0  0.55119862878E+01  0.22011102435E+01  0.14355029832E+04  0.14355500833E+04  0.10000000000E+02 0.  1.
</event>
<event>
 5    1  0.1300052E-008  0.3819697E+03  0.7957747E-01  0.3442627E+00
         13   -1    0    0    0    0  0.00000000000E+00  0.00000000000E+00  0.14999999963E+04  0.15000000000E+04  0.10566000000E+00 0. -1.
        994   -1    0    0    0    0 -0.00000000000E+00 -0.00000000000E+00  0.11368683772E-12  0.17120000000E+03  0.17120000000E+03 0.  0.
         13    1    1    2    0    0 -0.69297768605E+01  0.89715365213E+01  0.19234006266E+02  0.22326406697E+02  0.10566000000E+00 0. -1.
        994    1    1    2    0    0  0.51014078238E+01 -0.53328666397E+01  0.33230595370E+01  0.17139120909E+03  0.17120000000E+03 0.  0.
        998    1    1    2    0    0  0.18283690367E+01 -0.36386698816E+01  0.14774429305E+04  0.14774823842E+04  0.10000000000E+02 0. -1.
</event>
<event>
 5    1  0.1300052E-008  0.3787220E+03  0.7957747E-01  0.3456742E+00
         13   -1    0    0    0    0  0.00000000000E+00  0.00000000000E+00  0.14999999963E+04  0.15000000000E+04  0.10566000000E+00 0. -1.
        994   -1    0    0    0    0 -0.00000000000E+00 -0.00000000000E+00  0.11368683772E-12  0.17120000000E+03  0.17120000000E+03 0.  0.
         13    1    1    2    0    0 -0.33653418022E+02 -0.94453564355E+01  0.10920825931E+03  0.11466569831E+03  0.10566000000E+00 0. -1.
        994    1    1    2    0    0  0.48926396804E+02  0.10489446538E+02  0.13231622349E+02  0.17885283510E+03  0.17120000000E+03 0.  0.
        998    1    1    2    0    0 -0.15272978782E+02 -0.10440901024E+01  0.13775601146E+04  0.13776814666E+04  0.10000000000E+02 0. -1.
</event>
<event>
 5    1  0.1300052E-008  0.3858493E+03  0.7957747E-01  0.3426078E+00
         13   -1    0    0    0    0  0.00000000000E+00  0.00000000000E+00  0.14999999963E+04  0.15000000000E+04  0.10566000000E+00 0.  1.
        994   -1    0    0    0    0 -0.00000000000E+00 -0.00000000000E+00  0.11368683772E-12  0.17120000000E+03  0.17120000000E+03 0.  0.
         13    1    1    2    0    0  0.69648836395E+01  0.11282309339E+02  0.70923097142E+02  0.72151902126E+02  0.10566000000E+00 0.  1.
        994    1    1    2    0    0  0.42230071530E+01 -0.18513935553E+02  0.23925887744E+01  0.17226654951E+03  0.17120000000E+03 0.  0.
        998    1    1    2    0    0 -0.11187890792E+02  0.72316262136E+01  0.14266843104E+04  0.14267815484E+04  0.10000000000E+02 0.  1.
</event>
<event>
 5    1  0.1300052E-008  0.3708012E+03  0.7957747E-01  0.3492217E+00
         13   -1    0    0    0    0  0.00000000000E+00  0.00000000000E+00  0.14999999963E+04  0.15000000000E+04  0.10566000000E+00 0. -1.
        994   -1    0    0    0    0 -0.00000000000E+00 -0.00000000000E+00  0.11368683772E-12  0.17120000000E+03  0.17120000000E+03 0.  0.
         13    1    1    2    0    0 -0.90569211309E+01 -0.26139596410E+02  0.39669157753E+02  0.48362791087E+02  0.10566000000E+00 0. -1.
        994    1    1    2    0    0 -0.13253388938E+01  0.20760530838E+02  0.10344480708E+02  0.17276922308E+03  0.17120000000E+03 0.  0.
        998    1    1    2    0    0  0.10382260025E+02  0.53790655721E+01  0.14499863578E+04  0.14500679858E+04  0.10000000000E+02 0. -1.
</event>
<event>
 5    1  0.1300052E-008  0.3664120E+03  0.7957747E-01  0.3512545E+00
         13   -1    0    0    0    0  0.00000000000E+00  0.00000000000E+00  0.14999999963E+04  0.15000000000E+04  0.10566000000E+00 0. -1.
        994   -1    0    0    0    0 -0.00000000000E+00 -0.00000000000E+00  0.11368683772E-12  0.17120000000E+03  0.17120000000E+03 0.  0.
         13    1    1    2    0    0  0.19630604939E+03  0.15610660404E+03  0.10804457545E+04  0.11091746375E+04  0.10566000000E+00 0. -1.
        994    1    1    2    0    0 -0.18830243079E+03 -0.14587678767E+03  0.23263290822E+03  0.37438663519E+03  0.17120000000E+03 0.  0.
        998    1    1    2    0    0 -0.80036185992E+01 -0.10229816363E+02  0.18692133357E+03  0.18763872734E+03  0.10000000000E+02 0.  0.
</event>
<event>
 5    1  0.1300052E-008  0.3796106E+03  0.7957747E-01  0.3452856E+00
         13   -1    0    0    0    0  0.00000000000E+00  0.00000000000E+00  0.14999999963E+04  0.15000000000E+04  0.10566000000E+00 0. -1.
        994   -1    0    0    0    0 -0.00000000000E+00 -0.00000000000E+00  0.11368683772E-12  0.17120000000E+03  0.17120000000E+03 0.  0.
         13    1    1    2    0    0 -0.38197880198E+02 -0.35572397001E+01  0.17843620852E+03  0.18251362601E+03  0.10566000000E+00 0. -1.
        994    1    1    2    0    0  0.13851535903E+02  0.16556572196E+01  0.49814835502E+01  0.17183963869E+03  0.17120000000E+03 0.  0.
        998    1    1    2    0    0  0.24346344294E+02  0.19015824805E+01  0.13165823042E+04  0.13168467353E+04  0.10000000000E+02 0. -1.
</event>
<event>
 5    1  0.1300052E-008  0.3803638E+03  0.7957747E-01  0.3449576E+00
         13   -1    0    0    0    0  0.00000000000E+00  0.00000000000E+00  0.14999999963E+04  0.15000000000E+04  0.10566000000E+00 0. -1.
        994   -1    0    0    0    0 -0.00000000000E+00 -0.00000000000E+00  0.11368683772E-12  0.17120000000E+03  0.17120000000E+03 0.  0.
         13    1    1    2    0    0  0.21213682545E+02  0.23283811177E+02  0.12658271178E+03  0.13044290044E+03  0.10566000000E+00 0. -1.
        994    1    1    2    0    0  0.48761327257E+01 -0.26290610756E+02  0.63404966943E+01  0.17339150724E+03  0.17120000000E+03 0.  0.
        998    1    1    2    0    0 -0.26089815271E+02  0.30067995796E+01  0.13670767878E+04  0.13673655923E+04  0.10000000000E+02 0. -1.
</event>
<event>
 5    1  0.1300052E-008  0.3851461E+03  0.7957747E-01  0.3429053E+00
         13   -1    0    0    0    0  0.00000000000E+00  0.00000000000E+00  0.14999999963E+04  0.15000000000E+04  0.10566000000E+00 0.  1.
        994   -1    0    0    0    0 -0.00000000000E+00 -0.00000000000E+00  0.11368683772E-12  0.17120000000E+03  0.17120000000E+03 0.  0.
         13    1    1    2    0    0  0.96579549507E+01 -0.31398160672E+01  0.34943847306E+02  0.36389808565E+02  0.10566000000E+00 0.  1.
        994    1    1    2    0    0  0.30325530501E+01 -0.69359782043E+01  0.17460126096E+01  0.17137617317E+03  0.17120000000E+03 0.  0.
        998    1    1    2    0    0 -0.12690508001E+02  0.10075794272E+02  0.14633101364E+04  0.14634340183E+04  0.10000000000E+02 0.  1.
</event>
<event>
 5    1  0.1300052E-008  0.3716976E+03  0.7957747E-01  0.3488125E+00
         13   -1    0    0    0    0  0.00000000000E+00  0.00000000000E+00  0.14999999963E+04  0.15000000000E+04  0.10566000000E+00 0.  1.
        994   -1    0    0    0    0 -0.00000000000E+00 -0.00000000000E+00  0.11368683772E-12  0.17120000000E+03  0.17120000000E+03 0.  0.
         13    1    1    2    0    0  0.11803629821E+02 -0.25625152987E+02  0.40666128436E+02  0.49494639191E+02  0.10566000000E+00 0.  1.
        994    1    1    2    0    0 -0.25231543224E+02  0.41420898483E+02  0.16514322004E+02  0.17870222281E+03  0.17120000000E+03 0.  0.
        998    1    1    2    0    0  0.13427913403E+02 -0.15795745496E+02  0.14428195458E+04  0.14430031380E+04  0.10000000000E+02 0.  1.
</event>
<event>
 5    1  0.1300052E-008  0.3853610E+03  0.7957747E-01  0.3428143E+00
         13   -1    0    0    0    0  0.00000000000E+00  0.00000000000E+00  0.14999999963E+04  0.15000000000E+04  0.10566000000E+00 0. -1.
        994   -1    0    0    0    0 -0.00000000000E+00 -0.00000000000E+00  0.11368683772E-12  0.17120000000E+03  0.17120000000E+03 0.  0.
         13    1    1    2    0    0  0.36132215583E+01  0.12533718826E+02  0.58957990391E+02  0.60383816314E+02  0.10566000000E+00 0. -1.
        994    1    1    2    0    0 -0.67509755273E+01 -0.67560406387E+01  0.17507207762E+01  0.17147514333E+03  0.17120000000E+03 0.  0.
        998    1    1    2    0    0  0.31377539690E+01 -0.57776781876E+01  0.14392912851E+04  0.14393410404E+04  0.10000000000E+02 0. -1.
</event>
<event>
 5    1  0.1300052E-008  0.3809751E+03  0.7957747E-01  0.3446924E+00
         13   -1    0    0    0    0  0.00000000000E+00  0.00000000000E+00  0.14999999963E+04  0.15000000000E+04  0.10566000000E+00 0.  1.
        994   -1    0    0    0    0 -0.00000000000E+00 -0.00000000000E+00  0.11368683772E-12  0.17120000000E+03  0.17120000000E+03 0.  0.
         13    1    1    2    0    0  0.15836308400E+02  0.42503228109E+01  0.35144177665E+02  0.38781159028E+02  0.10566000000E+00 0.  1.
        994    1    1    2    0    0 -0.15374108747E+02  0.21579931242E+01  0.44452861463E+01  0.17195993930E+03  0.17120000000E+03 0.  0.
        998    1    1    2    0    0 -0.46219965292E+00 -0.64083159350E+01  0.14604105325E+04  0.14604589017E+04  0.10000000000E+02 0.  1.
</event>
<event>
 5    1  0.1300052E-008  0.3822953E+03  0.7957747E-01  0.3441225E+00
         13   -1    0    0    0    0  0.00000000000E+00  0.00000000000E+00  0.14999999963E+04  0.15000000000E+04  0.10566000000E+00 0. -1.
        994   -1    0    0    0    0 -0.00000000000E+00 -0.00000000000E+00  0.11368683772E-12  0.17120000000E+03  0.17120000000E+03 0.  0.
         13    1    1    2    0    0  0.11684857230E+02 -0.61145167014E+00  0.21500144694E+02  0.24478095259E+02  0.10566000000E+00 0. -1.
        994    1    1    2    0    0 -0.13273305677E+02 -0.25245334136E+00  0.35638955397E+01  0.17175094098E+03  0.17120000000E+03 0.  0.
        998    1    1    2    0    0  0.15884484462E+01  0.86390501151E+00  0.14749359560E+04  0.14749709638E+04  0.10000000000E+02 0. -1.
</event>
<event>
 5    1  0.1300052E-008  0.3812465E+03  0.7957747E-01  0.3445749E+00
         13   -1    0    0    0    0  0.00000000000E+00  0.00000000000E+00  0.14999999963E+04  0.15000000000E+04  0.10566000000E+00 0.  1.
        994   -1    0    0    0    0 -0.00000000000E+00 -0.00000000000E+00  0.11368683772E-12  0.17120000000E+03  0.17120000000E+03 0.  0.
         13    1    1    2    0    0  0.47683408979E+02 -0.20941221923E+02  0.17320920516E+03  0.18086924057E+03  0.10566000000E+00 0.  1.
        994    1    1    2    0    0 -0.12581136667E+03  0.88154236041E+02  0.86532988132E+02  0.24575814809E+03  0.17120000000E+03 0.  0.
        998    1    1    2    0    0  0.78127957695E+02 -0.67213014118E+02  0.12402578030E+04  0.12445726113E+04  0.10000000000E+02 0.  1.
</event>
<event>
 5    1  0.1300052E-008  0.3774798E+03  0.7957747E-01  0.3462206E+00
         13   -1    0    0    0    0  0.00000000000E+00  0.00000000000E+00  0.14999999963E+04  0.15000000000E+04  0.10566000000E+00 0.  1.
        994   -1    0    0    0    0 -0.00000000000E+00 -0.00000000000E+00  0.11368683772E-12  0.17120000000E+03  0.17120000000E+03 0.  0.
         13    1    1    2    0    0 -0.47953547745E+02  0.20739503048E+02  0.28497827504E+03  0.28972797265E+03  0.10566000000E+00 0.  1.
        994    1    1    2    0    0  0.93365205782E+01 -0.14227436686E+02  0.63875676845E+01  0.17216222464E+03  0.17120000000E+03 0.  0.
        998    1    1    2    0    0  0.38617027166E+02 -0.65120663618E+01  0.12086341536E+04  0.12093098027E+04  0.10000000000E+02 0.  1.
</event>
<event>
 5    1  0.1300052E-008  0.3850790E+03  0.7957747E-01  0.3429337E+00
         13   -1    0    0    0    0  0.00000000000E+00  0.00000000000E+00  0.14999999963E+04  0.15000000000E+04  0.10566000000E+00 0.  1.
        994   -1    0    0    0    0 -0.00000000000E+00 -0.00000000000E+00  0.11368683772E-12  0.17120000000E+03  0.17120000000E+03 0.  0.
         13    1    1    2    0    0 -0.64902327625E+01  0.17077350299E+02  0.10820091321E+03  0.10973243731E+03  0.10566000000E+00 0.  1.
        994    1    1    2    0    0  0.62369739940E+01 -0.62401817719E+01  0.18468947589E+01  0.17143713347E+03  0.17120000000E+03 0.  0.
        998    1    1    2    0    0  0.25325876847E+00 -0.10837168527E+02  0.13899521883E+04  0.13900304292E+04  0.10000000000E+02 0.  1.
</event>
<event>
 5    1  0.1300052E-008  0.3826629E+03  0.7957747E-01  0.3439645E+00
         13   -1    0    0    0    0  0.00000000000E+00  0.00000000000E+00  0.14999999963E+04  0.15000000000E+04  0.10566000000E+00 0. -1.
        994   -1    0    0    0    0 -0.00000000000E+00 -0.00000000000E+00  0.11368683772E-12  0.17120000000E+03  0.17120000000E+03 0.  0.
         13    1    1    2    0    0 -0.19311070378E+02 -0.14108605230E+02  0.94824684747E+02  0.97794182762E+02  0.10566000000E+00 0. -1.
        994    1    1    2    0    0  0.20087885157E+02  0.17088492718E+02  0.51032044652E+01  0.17329461160E+03  0.17120000000E+03 0.  0.
        998    1    1    2    0    0 -0.77681477888E+00 -0.29798874881E+01  0.14000721071E+04  0.14001112056E+04  0.10000000000E+02 0. -1.
</event>
<event>
 5    1  0.1300052E-008  0.3825480E+03  0.7957747E-01  0.3440138E+00
         13   -1    0    0    0    0  0.00000000000E+00  0.00000000000E+00  0.14999999963E+04  0.15000000000E+04  0.10566000000E+00 0. -1.
        994   -1    0    0    0    0 -0.00000000000E+00 -0.00000000000E+00  0.11368683772E-12  0.17120000000E+03  0.17120000000E+03 0.  0.
         13    1    1    2    0    0  0.96304080174E+00  0.29922737365E+02  0.16266475031E+03  0.16539688576E+03  0.10566000000E+00 0. -1.
        994    1    1    2    0    0 -0.51437657766E+01 -0.12464232135E+02  0.34553523888E+01  0.17176494075E+03  0.17120000000E+03 0.  0.
        998    1    1    2    0    0  0.41807249748E+01 -0.17458505230E+02  0.13338798936E+04  0.13340381735E+04  0.10000000000E+02 0. -1.
</event>
<event>
 5    1  0.1300052E-008  0.3738445E+03  0.7957747E-01  0.3478407E+00
         13   -1    0    0    0    0  0.00000000000E+00  0.00000000000E+00  0.14999999963E+04  0.15000000000E+04  0.10566000000E+00 0. -1.
        994   -1    0    0    0    0 -0.00000000000E+00 -0.00000000000E+00  0.11368683772E-12  0.17120000000E+03  0.17120000000E+03 0.  0.
         13    1    1    2    0    0  0.12835778939E+01  0.57153668774E+02  0.15279353443E+03  0.16313817687E+03  0.10566000000E+00 0. -1.
        994    1    1    2    0    0  0.22478021679E+02  0.19899919016E+02  0.16186701798E+02  0.17456436506E+03  0.17120000000E+03 0.  0.
        998    1    1    2    0    0 -0.23761599573E+02 -0.77053587790E+02  0.13310197601E+04  0.13334974581E+04  0.10000000000E+02 0. -1.
</event>
<event>
 5    1  0.1300052E-008  0.3843570E+03  0.7957747E-01  0.3432404E+00
         13   -1    0    0    0    0  0.00000000000E+00  0.00000000000E+00  0.14999999963E+04  0.15000000000E+04  0.10566000000E+00 0. -1.
        994   -1    0    0    0    0 -0.00000000000E+00 -0.00000000000E+00  0.11368683772E-12  0.17120000000E+03  0.17120000000E+03 0.  0.
         13    1    1    2    0    0  0.19629779543E+02  0.22507534033E+01  0.96813326437E+02  0.98809035395E+02  0.10566000000E+00 0. -1.
        994    1    1    2    0    0 -0.17033964106E+02  0.60528960760E+00  0.29076954909E+01  0.17207096502E+03  0.17120000000E+03 0.  0.
        998    1    1    2    0    0 -0.25958154375E+01 -0.28560430109E+01  0.14002789744E+04  0.14003199996E+04  0.10000000000E+02 0.  1.
</event>
<event>
 5    1  0.1300052E-008  0.3834289E+03  0.7957747E-01  0.3436363E+00
         13   -1    0    0    0    0  0.00000000000E+00  0.00000000000E+00  0.14999999963E+04  0.15000000000E+04  0.10566000000E+00 0. -1.
        994   -1    0    0    0    0 -0.00000000000E+00 -0.00000000000E+00  0.11368683772E-12  0.17120000000E+03  0.17120000000E+03 0.  0.
         13    1    1    2    0    0  0.57784562315E+01  0.17580730918E+02  0.71778448541E+02  0.74125768091E+02  0.10566000000E+00 0. -1.
        994    1    1    2    0    0 -0.90633600655E+01 -0.58389639917E+01  0.27964732452E+01  0.17156193709E+03  0.17120000000E+03 0.  0.
        998    1    1    2    0    0  0.32849038341E+01 -0.11741766926E+02  0.14254250745E+04  0.14255122948E+04  0.10000000000E+02 0. -1.
</event>
<event>
 5    1  0.1300052E-008  0.3823768E+03  0.7957747E-01  0.3440874E+00
         13   -1    0    0    0    0  0.00000000000E+00  0.00000000000E+00  0.14999999963E+04  0.15000000000E+04  0.10566000000E+00 0. -1.
        994   -1    0    0    0    0 -0.00000000000E+00 -0.00000000000E+00  0.11368683772E-12  0.17120000000E+03  0.17120000000E+03 0.  0.
         13    1    1    2    0    0 -0.25062060975E+02  0.94524830541E+01  0.11627074086E+03  0.11931618784E+03  0.10566000000E+00 0. -1.
        994    1    1    2    0    0  0.17934962015E+02 -0.17013233587E+02  0.49677627963E+01  0.17304690592E+03  0.17120000000E+03 0.  0.
        998    1    1    2    0    0  0.71270989597E+01  0.75607505329E+01  0.13787614926E+04  0.13788369062E+04  0.10000000000E+02 0. -1.
</event>
<event>
 5    1  0.1300052E-008  0.3736800E+03  0.7957747E-01  0.3479148E+00
         13   -1    0    0    0    0  0.00000000000E+00  0.00000000000E+00  0.14999999963E+04  0.15000000000E+04  0.10566000000E+00 0.  1.
        994   -1    0    0    0    0 -0.00000000000E+00 -0.00000000000E+00  0.11368683772E-12  0.17120000000E+03  0.17120000000E+03 0.  0.
         13    1    1    2    0    0 -0.31490987170E+02 -0.66475432532E+02  0.33406784828E+03  0.34207017383E+03  0.10566000000E+00 0.  1.
        994    1    1    2    0    0  0.13967753086E+02  0.53010942596E+02  0.17689670198E+02  0.18063117835E+03  0.17120000000E+03 0.  0.
        998    1    1    2    0    0  0.17523234083E+02  0.13464489936E+02  0.11482424778E+04  0.11484986478E+04  0.10000000000E+02 0. -1.
</event>
<event>
 5    1  0.1300052E-008  0.3834566E+03  0.7957747E-01  0.3436245E+00
         13   -1    0    0    0    0  0.00000000000E+00  0.00000000000E+00  0.14999999963E+04  0.15000000000E+04  0.10566000000E+00 0.  1.
        994   -1    0    0    0    0 -0.00000000000E+00 -0.00000000000E+00  0.11368683772E-12  0.17120000000E+03  0.17120000000E+03 0.  0.
         13    1    1    2    0    0  0.26972155124E+01 -0.20976349566E+02  0.10262791800E+03  0.10478445939E+03  0.10566000000E+00 0.  1.
        994    1    1    2    0    0  0.43537888298E+01 -0.13331942797E+01  0.24668957978E+01  0.17127830703E+03  0.17120000000E+03 0.  0.
        998    1    1    2    0    0 -0.70510043421E+01  0.22309543846E+02  0.13949051825E+04  0.13951372336E+04  0.10000000000E+02 0.  1.
</event>
<event>
 5    1  0.1300052E-008  0.3707406E+03  0.7957747E-01  0.3492494E+00
         13   -1    0    0    0    0  0.00000000000E+00  0.00000000000E+00  0.14999999963E+04  0.15000000000E+04  0.10566000000E+00 0. -1.
        994   -1    0    0    0    0 -0.00000000000E+00 -0.00000000000E+00  0.11368683772E-12  0.17120000000E+03  0.17120000000E+03 0.  0.
         13    1    1    2    0    0  0.40987386898E+02 -0.29121406173E+02  0.13383249519E+03  0.14296562564E+03  0.10566000000E+00 0. -1.
        994    1    1    2    0    0 -0.29111690300E+02  0.27612949856E+02  0.14455449141E+02  0.17643232561E+03  0.17120000000E+03 0.  0.
        998    1    1    2    0    0 -0.11875696598E+02  0.15084563170E+01  0.13517120519E+04  0.13518020487E+04  0.10000000000E+02 0. -1.
</event>
<event>
 5    1  0.1300052E-008  0.3816520E+03  0.7957747E-01  0.3443997E+00
         13   -1    0    0    0    0  0.00000000000E+00  0.00000000000E+00  0.14999999963E+04  0.15000000000E+04  0.10566000000E+00 0. -1.
        994   -1    0    0    0    0 -0.00000000000E+00 -0.00000000000E+00  0.11368683772E-12  0.17120000000E+03  0.17120000000E+03 0.  0.
         13    1    1    2    0    0 -0.26110652423E+00  0.23491657430E+02  0.88935195683E+02  0.91985902945E+02  0.10566000000E+00 0. -1.
        994    1    1    2    0    0  0.76516257007E+01 -0.71814416086E+00  0.34979437578E+01  0.17140810575E+03  0.17120000000E+03 0.  0.
        998    1    1    2    0    0 -0.73905191765E+01 -0.22773513269E+02  0.14075668568E+04  0.14078059913E+04  0.10000000000E+02 0. -1.
</event>
<event>
 5    1  0.1300052E-008  0.3855954E+03  0.7957747E-01  0.3427151E+00
         13   -1    0    0    0    0  0.00000000000E+00  0.00000000000E+00  0.14999999963E+04  0.15000000000E+04  0.10566000000E+00 0. -1.
        994   -1    0    0    0    0 -0.00000000000E+00 -0.00000000000E+00  0.11368683772E-12  0.17120000000E+03  0.17120000000E+03 0.  0.
         13    1    1    2    0    0 -0.73595879818E+01  0.69010736261E+01  0.38438218808E+02  0.39740359606E+02  0.10566000000E+00 0. -1.
        994    1    1    2    0    0  0.37043866630E+01 -0.49097634536E+01  0.14589704374E+01  0.17131665667E+03  0.17120000000E+03 0.  0.
        998    1    1    2    0    0  0.36552013188E+01 -0.19913101725E+01  0.14601028070E+04  0.14601429837E+04  0.10000000000E+02 0. -1.
</event>
<event>
 5    1  0.1300052E-008  0.4127278E+03  0.7957747E-01  0.3319965E+00
         13   -1    0    0    0    0  0.00000000000E+00  0.00000000000E+00  0.14999999963E+04  0.15000000000E+04  0.10566000000E+00 0. -1.
        994   -1    0    0    0    0 -0.00000000000E+00 -0.00000000000E+00  0.11368683772E-12  0.17120000000E+03  0.17120000000E+03 0.  0.
         13    1    1    2    0    0  0.81029417227E+02 -0.11867427346E+01  0.88155936535E+02  0.11974412355E+03  0.10566000000E+00 0. -1.
        994    1    1    2    0    0 -0.32862033600E+02  0.24408633061E+02  0.42568355392E+02  0.18109997101E+03  0.17120000000E+03 0.  0.
        998    1    1    2    0    0 -0.48167383627E+02 -0.23221890327E+02  0.13692757044E+04  0.13703559054E+04  0.10000000000E+02 0. -1.
</event>
<event>
 5    1  0.1300052E-008  0.3840618E+03  0.7957747E-01  0.3433661E+00
         13   -1    0    0    0    0  0.00000000000E+00  0.00000000000E+00  0.14999999963E+04  0.15000000000E+04  0.10566000000E+00 0. -1.
        994   -1    0    0    0    0 -0.00000000000E+00 -0.00000000000E+00  0.11368683772E-12  0.17120000000E+03  0.17120000000E+03 0.  0.
         13    1    1    2    0    0 -0.51592796222E+01  0.12709958140E+02  0.43967407280E+02  0.46057629869E+02  0.10566000000E+00 0. -1.
        994    1    1    2    0    0  0.52783014511E+01 -0.10011395888E+02  0.25193053282E+01  0.17159217760E+03  0.17120000000E+03 0.  0.
        998    1    1    2    0    0 -0.11902182887E+00 -0.26985622520E+01  0.14535132837E+04  0.14535501925E+04  0.10000000000E+02 0. -1.
</event>
<event>
 5    1  0.1300052E-008  0.3861081E+03  0.7957747E-01  0.3424986E+00
         13   -1    0    0    0    0  0.00000000000E+00  0.00000000000E+00  0.14999999963E+04  0.15000000000E+04  0.10566000000E+00 0.  1.
        994   -1    0    0    0    0 -0.00000000000E+00 -0.00000000000E+00  0.11368683772E-12  0.17120000000E+03  0.17120000000E+03 0.  0.
         13    1    1    2    0    0  0.44176618397E+01  0.10472690288E+02  0.61670044199E+02  0.62708839039E+02  0.10566000000E+00 0.  1.
        994    1    1    2    0    0 -0.16311826134E+02  0.80786028279E+00  0.19554861278E+01  0.17198834913E+03  0.17120000000E+03 0.  0.
        998    1    1    2    0    0  0.11894164294E+02 -0.11280550571E+02  0.14363744660E+04  0.14365028118E+04  0.10000000000E+02 0.  1.
</event>
<event>
 5    1  0.1300052E-008  0.3735989E+03  0.7957747E-01  0.3479513E+00
         13   -1    0    0    0    0  0.00000000000E+00  0.00000000000E+00  0.14999999963E+04  0.15000000000E+04  0.10566000000E+00 0. -1.
        994   -1    0    0    0    0 -0.00000000000E+00 -0.00000000000E+00  0.11368683772E-12  0.17120000000E+03  0.17120000000E+03 0.  0.
         13    1    1    2    0    0  0.51767032585E+02 -0.24971499246E+02  0.22734647748E+03  0.23449911177E+03  0.10566000000E+00 0. -1.
        994    1    1    2    0    0 -0.19289879803E+02  0.26167053029E+02  0.11017884482E+02  0.17460712444E+03  0.17120000000E+03 0.  0.
        998    1    1    2    0    0 -0.32477152782E+02 -0.11955537827E+01  0.12616356343E+04  0.12620937638E+04  0.10000000000E+02 0. -1.
</event>
<event>
 5    1  0.1300052E-008  0.4108875E+03  0.7957747E-01  0.3326791E+00
         13   -1    0    0    0    0  0.00000000000E+00  0.00000000000E+00  0.14999999963E+04  0.15000000000E+04  0.10566000000E+00 0. -1.
        994   -1    0    0    0    0 -0.00000000000E+00 -0.00000000000E+00  0.11368683772E-12  0.17120000000E+03  0.17120000000E+03 0.  0.
         13    1    1    2    0    0 -0.70124833288E+02 -0.28028628984E+02  0.73191477094E+02  0.10516700894E+03  0.10566000000E+00 0. -1.
        994    1    1    2    0    0  0.70137316649E+02 -0.47584971473E+02  0.64552374660E+02  0.20164330331E+03  0.17120000000E+03 0.  0.
        998    1    1    2    0    0 -0.12483360961E-01  0.75613600457E+02  0.13622561445E+04  0.13643896877E+04  0.10000000000E+02 0. -1.
</event>
<event>
 5    1  0.1300052E-008  0.4061048E+03  0.7957747E-01  0.3344816E+00
         13   -1    0    0    0    0  0.00000000000E+00  0.00000000000E+00  0.14999999963E+04  0.15000000000E+04  0.10566000000E+00 0.  1.
        994   -1    0    0    0    0 -0.00000000000E+00 -0.00000000000E+00  0.11368683772E-12  0.17120000000E+03  0.17120000000E+03 0.  0.
         13    1    1    2    0    0  0.21643054211E+00  0.81542542775E+02  0.11479483248E+03  0.14080872790E+03  0.10566000000E+00 0.  1.
        994    1    1    2    0    0  0.32186731448E+02  0.23121950888E+01  0.35670831851E+02  0.17782907572E+03  0.17120000000E+03 0.  0.
        998    1    1    2    0    0 -0.32403161991E+02 -0.83854737864E+02  0.13495343319E+04  0.13525621964E+04  0.10000000000E+02 0.  1.
</event>
<event>
 5    1  0.1300052E-008  0.3843834E+03  0.7957747E-01  0.3432291E+00
         13   -1    0    0    0    0  0.00000000000E+00  0.00000000000E+00  0.14999999963E+04  0.15000000000E+04  0.10566000000E+00 0.  1.
        994   -1    0    0    0    0 -0.00000000000E+00 -0.00000000000E+00  0.11368683772E-12  0.17120000000E+03  0.17120000000E+03 0.  0.
         13    1    1    2    0    0  0.14584033005E+03 -0.13097644436E+03  0.11725447379E+04  0.11888168086E+04  0.10566000000E+00 0.  1.
        994    1    1    2    0    0 -0.15696119624E+03  0.12554316623E+03  0.14888895900E+03  0.30310932982E+03  0.17120000000E+03 0.  0.
        998    1    1    2    0    0  0.11120866188E+02  0.54332781290E+01  0.17856629937E+03  0.17927386159E+03  0.10000000000E+02 0.  1.
</event>
<event>
 5    1  0.1300052E-008  0.3853961E+03  0.7957747E-01  0.3427994E+00
         13   -1    0    0    0    0  0.00000000000E+00  0.00000000000E+00  0.14999999963E+04  0.15000000000E+04  0.10566000000E+00 0. -1.
        994   -1    0    0    0    0 -0.00000000000E+00 -0.00000000000E+00  0.11368683772E-12  0.17120000000E+03  0.17120000000E+03 0.  0.
         13    1    1    2    0    0  0.67919612181E+01 -0.13756866005E+02  0.80588262477E+02  0.82035731926E+02  0.10566000000E+00 0. -1.
        994    1    1    2    0    0 -0.52302685058E+01  0.11936810636E+02  0.19916411574E+01  0.17170687171E+03  0.17120000000E+03 0.  0.
        998    1    1    2    0    0 -0.15616927123E+01  0.18200553697E+01  0.14174200926E+04  0.14174573964E+04  0.10000000000E+02 0. -1.
</event>
<event>
 5    1  0.1300052E-008  0.3830558E+03  0.7957747E-01  0.3437960E+00
         13   -1    0    0    0    0  0.00000000000E+00  0.00000000000E+00  0.14999999963E+04  0.15000000000E+04  0.10566000000E+00 0. -1.
        994   -1    0    0    0    0 -0.00000000000E+00 -0.00000000000E+00  0.11368683772E-12  0.17120000000E+03  0.17120000000E+03 0.  0.
         13    1    1    2    0    0  0.45248817816E+01  0.19684304806E+02  0.79765224223E+02  0.82282735554E+02  0.10566000000E+00 0. -1.
        994    1    1    2    0    0 -0.90197165058E+01 -0.65392374504E+01  0.30093732726E+01  0.17158849973E+03  0.17120000000E+03 0.  0.
        998    1    1    2    0    0  0.44948347242E+01 -0.13145067355E+02  0.14172253988E+04  0.14173287647E+04  0.10000000000E+02 0. -1.
</event>
