<LesHouchesEvents version="3.0">
<header>
<!--
#*********************************************************************
#                                                                    *
#                        MadGraph5_aMC@NLO                           *
#                                                                    *
#                           Going Beyond                             *
#                                                                    *
#                   http://madgraph.hep.uiuc.edu                     *
#                   http://madgraph.phys.ucl.ac.be                   *
#                   http://amcatnlo.cern.ch                          *
#                                                                    *
#                     The MadGraph5_aMC@NLO team                     *
#                                                                    *
#....................................................................*
#                                                                    *
# This file contains all the information necessary to reproduce      *
# the events generated:                                              *
#                                                                    *
# 1. software version                                                *
# 2. proc_card          : code generation info including model       *
# 3. param_card         : model primary parameters in the LH format  *
# 4. run_card           : running parameters (collider and cuts)     *
# 5. pythia_card        : present only if pythia has been run        *
# 6. pgs_card           : present only if pgs has been run           *
# 7. delphes_cards      : present only if delphes has been run       *
#                                                                    *
#                                                                    *
#*********************************************************************
-->
<MGVersion>
#3.5.0
</MGVersion>
<MG5ProcCard>
<![CDATA[
#************************************************************
#*                     MadGraph5_aMC@NLO                    *
#*                                                          *
#*                *                       *                 *
#*                  *        * *        *                   *
#*                    * * * * 5 * * * *                     *
#*                  *        * *        *                   *
#*                *                       *                 *
#*                                                          *
#*                                                          *
#*         VERSION 3.5.0                 2023-05-12         *
#*                                                          *
#*    The MadGraph5_aMC@NLO Development Team - Find us at   *
#*    https://server06.fynu.ucl.ac.be/projects/madgraph     *
#*                                                          *
#************************************************************
#*                                                          *
#*               Command File for MadGraph5_aMC@NLO         *
#*                                                          *
#*     run as ./bin/mg5_aMC  filename                       *
#*                                                          *
#************************************************************
set group_subprocesses Auto
set ignore_six_quark_processes False
set low_mem_multicore_nlo_generation False
set complex_mass_scheme False
set include_lepton_initiated_processes False
set gauge unitary
set loop_optimized_output True
set loop_color_flows False
set max_npoint_for_channel 0
set default_unset_couplings 99
set max_t_for_channel 99
set zerowidth_tchannel True
set nlo_mixed_expansion True
import model combined_beamdump
define l+ = e+ mu+
define l- = e- mu-
generate mu- ns > mu- ns phi
output /Users/sam/Documents/Research/BeamDumpBSM/calculations/madgraph\
/processes/test_madgraph_generation
]]>
</MG5ProcCard>
<MGProcCard>
#*********************************************************************
#                        MadGraph/MadEvent                           *
#                   http://madgraph.hep.uiuc.edu                     *
#                                                                    *
#                          proc_card.dat                             *
#*********************************************************************
#                                                                    *
#            This Files is generated by MADGRAPH 5                   *
#                                                                    *
# WARNING: This Files is generated for MADEVENT (compatibility issue)*
#          This files is NOT a valid MG4 proc_card.dat               *
#          Running this in MG4 will NEVER reproduce the result of MG5*
#                                                                    *
#*********************************************************************
#*********************************************************************
# Process(es) requested : mg2 input                                  *
#*********************************************************************
# Begin PROCESS # This is TAG. Do not modify this line
mu- ns > mu- ns phi           #Process
# Be carefull the coupling are here in MG5 convention
          
end_coup           # End the couplings input

done               # this tells MG there are no more procs
# End PROCESS  # This is TAG. Do not modify this line
#*********************************************************************
# Model information                                                  *
#*********************************************************************
# Begin MODEL  # This is TAG. Do not modify this line
combined_beamdump
# End   MODEL  # This is TAG. Do not modify this line
#*********************************************************************
# Start multiparticle definitions                                    *
#*********************************************************************
# Begin MULTIPARTICLES # This is TAG. Do not modify this line

# End  MULTIPARTICLES # This is TAG. Do not modify this line
</MGProcCard>
<MGRunCard>
<![CDATA[
#*********************************************************************
#                       MadGraph5_aMC@NLO                            *
#                                                                    *
#                     run_card.dat MadEvent                          *
#                                                                    *
#  This file is used to set the parameters of the run.               *
#                                                                    *
#  Some notation/conventions:                                        *
#                                                                    *
#   Lines starting with a '# ' are info or comments                  *
#                                                                    *
#   mind the format:   value    = variable     ! comment             *
#                                                                    *
#   To display more options, you can type the command:               *
#      update to_full                                                *
#*********************************************************************
#                                                                    
#*********************************************************************
# Tag name for the run (one word)                                    *
#*********************************************************************
  tag_1	= run_tag ! name of the run 
#*********************************************************************
# Number of events and rnd seed                                      *
# Warning: Do not generate more than 1M events in a single run       *
#*********************************************************************
  1000	= nevents ! Number of unweighted events requested 
 36 = iseed ! rnd seed (0=assigned automatically=default))
#*********************************************************************
# Collider type and energy                                           *
# lpp: 0=No PDF, 1=proton, -1=antiproton,                            *
#                2=elastic photon of proton/ion beam                 *
#             +/-3=PDF of electron/positron beam                     *
#             +/-4=PDF of muon/antimuon beam                         *
#*********************************************************************
  0	= lpp1 ! beam 1 type 
  0	= lpp2 ! beam 2 type
  500.0	= ebeam1 ! beam 1 total energy in GeV
  0.0	= ebeam2 ! beam 2 total energy in GeV
#*********************************************************************
# Beam polarization from -100 (left-handed) to 100 (right-handed)    *
#*********************************************************************
  0.0	= polbeam1 ! beam polarization for beam 1
  0.0	= polbeam2 ! beam polarization for beam 2


#*********************************************************************
# PDF CHOICE: this automatically fixes alpha_s and its evol.         *
# pdlabel: lhapdf=LHAPDF (installation needed) [1412.7420]           *
#          iww=Improved Weizsaecker-Williams Approx.[hep-ph/9310350] *
#          eva=Effective W/Z/A Approx.       [2111.02442]            *
#          edff=EDFF in gamma-UPC            [eq.(11) in 2207.03012] *
#          chff=ChFF in gamma-UPC            [eq.(13) in 2207.03012] *
#          none=No PDF, same as lhapdf with lppx=0                   *
#*********************************************************************
  none	= pdlabel1 ! PDF type for beam #1
  none	= pdlabel2 ! PDF type for beam #2
  230000	= lhaid ! if pdlabel=lhapdf, this is the lhapdf number
# To see heavy ion options: type "update ion_pdf"
#*********************************************************************
# Renormalization and factorization scales                           *
#*********************************************************************
  False	= fixed_ren_scale ! if .true. use fixed ren scale
  False	= fixed_fac_scale1 ! if .true. use fixed fac scale for beam 1
  False	= fixed_fac_scale2 ! if .true. use fixed fac scale for beam 2
  91.188	= scale ! fixed ren scale
  91.188	= dsqrt_q2fact1 ! fixed fact scale for pdf1
  91.188	= dsqrt_q2fact2 ! fixed fact scale for pdf2
  -1	= dynamical_scale_choice ! Choose one of the preselected dynamical choices
  1.0	= scalefact ! scale factor for event-by-event scales

 
#*********************************************************************
# Type and output format
#*********************************************************************
  False	= gridpack !True = setting up the grid pack
  -1.0	= time_of_flight ! threshold (in mm) below which the invariant livetime is not written (-1 means not written)
  average	= event_norm ! average/sum. Normalization of the weight in the LHEF
# To see MLM/CKKW  merging options: type "update MLM" or "update CKKW"

#*********************************************************************
#
#*********************************************************************
# Phase-Space Optimization strategy (basic options)
#*********************************************************************
  0	= nhel ! using helicities importance sampling or not.
                             ! 0: sum over helicity, 1: importance sampling
  2	= sde_strategy ! default integration strategy (hep-ph/2021.00773)
                             ! 1 is old strategy (using amp square)
			     ! 2 is new strategy (using only the denominator)
# To see advanced option for Phase-Space optimization: type "update psoptim"			     
#*********************************************************************
# Customization (custom cuts/scale/bias/...)                         *
# list of files containing fortran function that overwrite default   *
#*********************************************************************
  	= custom_fcts ! List of files containing user hook function
#*******************************                                                 
# Parton level cuts definition *
#*******************************
  0.0	= dsqrt_shat ! minimal shat for full process
#                                                                    
#
#*********************************************************************
# BW cutoff (M+/-bwcutoff*Gamma) ! Define on/off-shell for "$" and decay  
#*********************************************************************
  15.0	= bwcutoff ! (M+/-bwcutoff*Gamma)
#*********************************************************************
# Standard Cuts                                                      *
#*********************************************************************
# Minimum and maximum pt's (for max, -1 means no cut)                *
#*********************************************************************
  10.0	= ptl ! minimum pt for the charged leptons 
  -1.0	= ptlmax ! maximum pt for the charged leptons
  {}	= pt_min_pdg ! pt cut for other particles (use pdg code). Applied on particle and anti-particle
  {}	= pt_max_pdg ! pt cut for other particles (syntax e.g. {6: 100, 25: 50}) 
#
# For display option for energy cut in the partonic center of mass frame type 'update ecut'
#
#*********************************************************************
# Maximum and minimum absolute rapidity (for max, -1 means no cut)   *
#*********************************************************************
  2.5	= etal ! max rap for the charged leptons 
  0.0	= etalmin ! main rap for the charged leptons
  {}	= eta_min_pdg ! rap cut for other particles (use pdg code). Applied on particle and anti-particle
  {}	= eta_max_pdg ! rap cut for other particles (syntax e.g. {6: 2.5, 23: 5})
#*********************************************************************
# Minimum and maximum DeltaR distance                                *
#*********************************************************************
#*********************************************************************
# Minimum and maximum invariant mass for pairs                       *
#*********************************************************************
  {}	= mxx_min_pdg ! min invariant mass of a pair of particles X/X~ (e.g. {6:250})
  {'default': False}	= mxx_only_part_antipart ! if True the invariant mass is applied only 
                       ! to pairs of particle/antiparticle and not to pairs of the same pdg codes.  
#*********************************************************************
# Inclusive cuts                                                     *
#*********************************************************************
  0.0	= ptheavy ! minimum pt for at least one heavy final state
#*********************************************************************
# maximal pdg code for quark to be considered as a light jet         *
# (otherwise b cuts are applied)                                     *
#*********************************************************************
  4	= maxjetflavor ! Maximum jet pdg code
#*********************************************************************
#
#*********************************************************************
# Store info for systematics studies                                 *
# WARNING: Do not use for interference type of computation           *
#*********************************************************************
  False	= use_syst ! Enable systematics studies
#
  systematics	= systematics_program ! none, systematics [python], SysCalc [depreceted, C++]
  ['--mur=0.5,1,2', '--muf=0.5,1,2', '--pdf=errorset']	= systematics_arguments ! see: https://cp3.irmp.ucl.ac.be/projects/madgraph/wiki/Systematics#Systematicspythonmodule
]]>
</MGRunCard>
<slha>
######################################################################
## PARAM_CARD AUTOMATICALY GENERATED BY MG5                       ####
######################################################################
###################################
## INFORMATION FOR FRBLOCK
###################################
BLOCK FRBLOCK # 
      1 1.000000e+00 # alphaem
      2 1.000000e+00 # yse
      3 1.000000e+00 # ysmu
      4 1.000000e+00 # yphie
      5 1.000000e+00 # yphimu
      6 1.000000e+00 # gprimakoff
      7 1.000000e+00 # gvel
      8 1.000000e+00 # gvmu
      9 1.000000e+00 # guel
      10 1.000000e+00 # gumu
###################################
## INFORMATION FOR MASS
###################################
BLOCK MASS # 
      11 5.110000e-04 # mel
      13 1.056600e-01 # mmu
      994 1.310000e+02 # mns
      995 1.270000e+02 # mnf
      996 1.033000e+03 # ms
      997 50 # mphi
      998 1.181000e+03 # mv
      999 1.103000e+03 # mu
      22 0.000000e+00 # a : 0.0
###################################
## INFORMATION FOR DECAY
###################################
DECAY 11 0.000000e+00 # e- : 0.0
DECAY 13 0.000000e+00 # mu- : 0.0
DECAY 22 0.000000e+00 # a : 0.0
DECAY 994 0.000000e+00 # ns : 0.0
DECAY 995 0.000000e+00 # nf : 0.0
DECAY 996 0.000000e+00 # s : 0.0
DECAY 997 0.000000e+00 # phi : 0.0
DECAY 998 0.000000e+00 # v : 0.0
DECAY 999 0.000000e+00 # u : 0.0
###################################
## INFORMATION FOR QNUMBERS 994
###################################
BLOCK QNUMBERS 994 #    ns
      1 3 # 3 times electric charge
      2 1 # number of spin states (2s+1)
      3 1 # colour rep (1: singlet, 3: triplet, 8: octet)
      4 1 # particle/antiparticle distinction (0=own anti)
###################################
## INFORMATION FOR QNUMBERS 995
###################################
BLOCK QNUMBERS 995 #    nf
      1 3 # 3 times electric charge
      2 2 # number of spin states (2s+1)
      3 1 # colour rep (1: singlet, 3: triplet, 8: octet)
      4 1 # particle/antiparticle distinction (0=own anti)
###################################
## INFORMATION FOR QNUMBERS 996
###################################
BLOCK QNUMBERS 996 #    s
      1 0 # 3 times electric charge
      2 1 # number of spin states (2s+1)
      3 1 # colour rep (1: singlet, 3: triplet, 8: octet)
      4 0 # particle/antiparticle distinction (0=own anti)
###################################
## INFORMATION FOR QNUMBERS 997
###################################
BLOCK QNUMBERS 997 #    phi
      1 0 # 3 times electric charge
      2 1 # number of spin states (2s+1)
      3 1 # colour rep (1: singlet, 3: triplet, 8: octet)
      4 0 # particle/antiparticle distinction (0=own anti)
###################################
## INFORMATION FOR QNUMBERS 998
###################################
BLOCK QNUMBERS 998 #    v
      1 0 # 3 times electric charge
      2 3 # number of spin states (2s+1)
      3 1 # colour rep (1: singlet, 3: triplet, 8: octet)
      4 0 # particle/antiparticle distinction (0=own anti)
###################################
## INFORMATION FOR QNUMBERS 999
###################################
BLOCK QNUMBERS 999 #    u
      1 0 # 3 times electric charge
      2 3 # number of spin states (2s+1)
      3 1 # colour rep (1: singlet, 3: triplet, 8: octet)
      4 0 # particle/antiparticle distinction (0=own anti)
</slha>
<MGGenerationInfo>
#  Number of Events        :       1000
#  Integrated weight (pb)  :       5.62672e-07
</MGGenerationInfo>
</header>
<init>
13 994 5.000000e+02 0.000000e+00 0 0 0 0 -4 1
5.626720e-07 4.745301e-09 5.626720e-07 1
<generator name='MadGraph5_aMC@NLO' version='3.5.0'>please cite 1405.0301 </generator>
</init>
<event>
 5      1 +5.6267200e-07 2.07817200e+02 7.95774700e-02 4.90094100e-01
       13 -1    0    0    0    0 +0.0000000000e+00 +0.0000000000e+00 +4.9999998884e+02 5.0000000000e+02 1.0566000000e-01 0.0000e+00 -1.0000e+00
      994 -1    0    0    0    0 -0.0000000000e+00 -0.0000000000e+00 +0.0000000000e+00 1.3100000000e+02 1.3100000000e+02 0.0000e+00 0.0000e+00
       13  1    1    2    0    0 +6.2959853723e+00 -1.4473100925e+01 +4.9284570385e+01 5.1750266901e+01 1.0566000000e-01 0.0000e+00 1.0000e+00
      994  1    1    2    0    0 +6.3313578302e+00 +8.5007804287e+00 +6.0533993376e+00 1.3156744659e+02 1.3100000000e+02 0.0000e+00 0.0000e+00
      997  1    1    2    0    0 -1.2627343202e+01 +5.9723204961e+00 +4.4466201911e+02 4.4768228650e+02 5.0000000000e+01 0.0000e+00 0.0000e+00
</event>
<event>
 5      1 +5.6267200e-07 1.97729600e+02 7.95774700e-02 5.08246600e-01
       13 -1    0    0    0    0 +0.0000000000e+00 +0.0000000000e+00 +4.9999998884e+02 5.0000000000e+02 1.0566000000e-01 0.0000e+00 1.0000e+00
      994 -1    0    0    0    0 -0.0000000000e+00 -0.0000000000e+00 +0.0000000000e+00 1.3100000000e+02 1.3100000000e+02 0.0000e+00 0.0000e+00
       13  1    1    2    0    0 -6.4223602652e+00 -3.2814779375e+01 +5.4940739560e+01 6.4316035981e+01 1.0566000000e-01 0.0000e+00 -1.0000e+00
      994  1    1    2    0    0 -1.5998127140e+01 +6.6778388110e+00 +1.5720378042e+01 1.3307390386e+02 1.3100000000e+02 0.0000e+00 0.0000e+00
      997  1    1    2    0    0 +2.2420487405e+01 +2.6136940564e+01 +4.2933887123e+02 4.3361006016e+02 5.0000000000e+01 0.0000e+00 0.0000e+00
</event>
<event>
 5      1 +5.6267200e-07 2.06961800e+02 7.95774700e-02 4.91545400e-01
       13 -1    0    0    0    0 +0.0000000000e+00 +0.0000000000e+00 +4.9999998884e+02 5.0000000000e+02 1.0566000000e-01 0.0000e+00 1.0000e+00
      994 -1    0    0    0    0 -0.0000000000e+00 -0.0000000000e+00 +0.0000000000e+00 1.3100000000e+02 1.3100000000e+02 0.0000e+00 0.0000e+00
       13  1    1    2    0    0 +1.6851766293e+01 +7.9368947189e+00 +6.1768177632e+01 6.4515852757e+01 1.0566000000e-01 0.0000e+00 -1.0000e+00
      994  1    1    2    0    0 -3.6782322571e+00 +7.5492924817e+00 +6.5406773196e+00 1.3143173768e+02 1.3100000000e+02 0.0000e+00 0.0000e+00
      997  1    1    2    0    0 -1.3173534036e+01 -1.5486187201e+01 +4.3169113388e+02 4.3505240956e+02 5.0000000000e+01 0.0000e+00 0.0000e+00
</event>
<event>
 5      1 +5.6267200e-07 2.09581900e+02 7.95774700e-02 4.87147700e-01
       13 -1    0    0    0    0 +0.0000000000e+00 +0.0000000000e+00 +4.9999998884e+02 5.0000000000e+02 1.0566000000e-01 0.0000e+00 1.0000e+00
      994 -1    0    0    0    0 -0.0000000000e+00 -0.0000000000e+00 +0.0000000000e+00 1.3100000000e+02 1.3100000000e+02 0.0000e+00 0.0000e+00
       13  1    1    2    0    0 -3.3872729863e+00 +1.0673580549e+01 +3.2870186268e+01 3.4725484148e+01 1.0566000000e-01 0.0000e+00 -1.0000e+00
      994  1    1    2    0    0 -5.6979497062e+00 -3.4923617753e+01 +1.0406673663e+01 1.3609344056e+02 1.3100000000e+02 0.0000e+00 0.0000e+00
      997  1    1    2    0    0 +9.0852226925e+00 +2.4250037204e+01 +4.5672312891e+02 4.6018107529e+02 5.0000000000e+01 0.0000e+00 0.0000e+00
</event>
<event>
 5      1 +5.6267200e-07 2.05217600e+02 7.95774700e-02 4.94552600e-01
       13 -1    0    0    0    0 +0.0000000000e+00 +0.0000000000e+00 +4.9999998884e+02 5.0000000000e+02 1.0566000000e-01 0.0000e+00 -1.0000e+00
      994 -1    0    0    0    0 -0.0000000000e+00 -0.0000000000e+00 +0.0000000000e+00 1.3100000000e+02 1.3100000000e+02 0.0000e+00 0.0000e+00
       13  1    1    2    0    0 -1.8159509073e+01 +6.7189598427e+00 +3.8345657426e+01 4.2957104169e+01 1.0566000000e-01 0.0000e+00 1.0000e+00
      994  1    1    2    0    0 +5.3242702287e+00 -1.1284365098e+01 +8.4269741580e+00 1.3186242316e+02 1.3100000000e+02 0.0000e+00 0.0000e+00
      997  1    1    2    0    0 +1.2835238844e+01 +4.5654052552e+00 +4.5322735725e+02 4.5618047267e+02 5.0000000000e+01 0.0000e+00 0.0000e+00
</event>
<event>
 5      1 +5.6267200e-07 2.08452100e+02 7.95774700e-02 4.89026700e-01
       13 -1    0    0    0    0 +0.0000000000e+00 +0.0000000000e+00 +4.9999998884e+02 5.0000000000e+02 1.0566000000e-01 0.0000e+00 -1.0000e+00
      994 -1    0    0    0    0 -0.0000000000e+00 -0.0000000000e+00 +0.0000000000e+00 1.3100000000e+02 1.3100000000e+02 0.0000e+00 0.0000e+00
       13  1    1    2    0    0 +6.8582930980e+00 -8.9008735637e+00 +2.8235765254e+01 3.0389658405e+01 1.0566000000e-01 0.0000e+00 1.0000e+00
      994  1    1    2    0    0 -1.4487977760e+01 -6.0775725590e+00 +6.2180569262e+00 1.3208520969e+02 1.3100000000e+02 0.0000e+00 0.0000e+00
      997  1    1    2    0    0 +7.6296846620e+00 +1.4978446123e+01 +4.6554616666e+02 4.6852513190e+02 5.0000000000e+01 0.0000e+00 0.0000e+00
</event>
<event>
 5      1 +5.6267200e-07 2.00617500e+02 7.95774700e-02 5.02807900e-01
       13 -1    0    0    0    0 +0.0000000000e+00 +0.0000000000e+00 +4.9999998884e+02 5.0000000000e+02 1.0566000000e-01 0.0000e+00 1.0000e+00
      994 -1    0    0    0    0 -0.0000000000e+00 -0.0000000000e+00 +0.0000000000e+00 1.3100000000e+02 1.3100000000e+02 0.0000e+00 0.0000e+00
       13  1    1    2    0    0 +8.4298860596e+00 +1.3428264903e+01 +1.2918769110e+01 2.0452066806e+01 1.0566000000e-01 0.0000e+00 -1.0000e+00
      994  1    1    2    0    0 +3.4249992135e+01 +1.2828256485e+00 +1.7937368975e+01 1.3659230143e+02 1.3100000000e+02 0.0000e+00 0.0000e+00
      997  1    1    2    0    0 -4.2679878195e+01 -1.4711090551e+01 +4.6914385075e+02 4.7395563177e+02 5.0000000000e+01 0.0000e+00 0.0000e+00
</event>
<event>
 5      1 +5.6267200e-07 2.03878000e+02 7.95774700e-02 4.96907000e-01
       13 -1    0    0    0    0 +0.0000000000e+00 +0.0000000000e+00 +4.9999998884e+02 5.0000000000e+02 1.0566000000e-01 0.0000e+00 1.0000e+00
      994 -1    0    0    0    0 -0.0000000000e+00 -0.0000000000e+00 +0.0000000000e+00 1.3100000000e+02 1.3100000000e+02 0.0000e+00 0.0000e+00
       13  1    1    2    0    0 -2.9020841804e+01 +9.1094950079e+00 +3.8927818406e+01 4.9402210155e+01 1.0566000000e-01 0.0000e+00 -1.0000e+00
      994  1    1    2    0    0 +6.4140557698e+01 -8.2579057561e+01 +7.4560678155e+01 1.8344919356e+02 1.3100000000e+02 0.0000e+00 0.0000e+00
      997  1    1    2    0    0 -3.5119715893e+01 +7.3469562553e+01 +3.8651149228e+02 3.9814859629e+02 5.0000000000e+01 0.0000e+00 0.0000e+00
</event>
<event>
 5      1 +5.6267200e-07 2.00822300e+02 7.95774700e-02 5.02429900e-01
       13 -1    0    0    0    0 +0.0000000000e+00 +0.0000000000e+00 +4.9999998884e+02 5.0000000000e+02 1.0566000000e-01 0.0000e+00 -1.0000e+00
      994 -1    0    0    0    0 -0.0000000000e+00 -0.0000000000e+00 +0.0000000000e+00 1.3100000000e+02 1.3100000000e+02 0.0000e+00 0.0000e+00
       13  1    1    2    0    0 +1.1437582182e+01 +7.2237431394e+01 +2.1994457417e+02 2.3178587458e+02 1.0566000000e-01 0.0000e+00 1.0000e+00
      994  1    1    2    0    0 -2.1261199371e+01 -7.0112490320e+01 +4.2147668237e+01 1.5590133366e+02 1.3100000000e+02 0.0000e+00 0.0000e+00
      997  1    1    2    0    0 +9.8236171890e+00 -2.1249410738e+00 +2.3790774643e+02 2.4331279177e+02 5.0000000000e+01 0.0000e+00 0.0000e+00
</event>
<event>
 5      1 +5.6267200e-07 1.93148100e+02 7.95774700e-02 5.17315200e-01
       13 -1    0    0    0    0 +0.0000000000e+00 +0.0000000000e+00 +4.9999998884e+02 5.0000000000e+02 1.0566000000e-01 0.0000e+00 1.0000e+00
      994 -1    0    0    0    0 -0.0000000000e+00 -0.0000000000e+00 +0.0000000000e+00 1.3100000000e+02 1.3100000000e+02 0.0000e+00 0.0000e+00
       13  1    1    2    0    0 -3.7076703984e+01 -1.7610714086e+01 +5.8957513479e+01 7.1838838998e+01 1.0566000000e-01 0.0000e+00 -1.0000e+00
      994  1    1    2    0    0 +1.7771564824e+01 -1.6613686932e+01 +2.1665035128e+01 1.3498969167e+02 1.3100000000e+02 0.0000e+00 0.0000e+00
      997  1    1    2    0    0 +1.9305139160e+01 +3.4224401019e+01 +4.1937744023e+02 4.2417146933e+02 5.0000000000e+01 0.0000e+00 0.0000e+00
</event>
<event>
 5      1 +5.6267200e-07 1.97470700e+02 7.95774700e-02 5.08744300e-01
       13 -1    0    0    0    0 +0.0000000000e+00 +0.0000000000e+00 +4.9999998884e+02 5.0000000000e+02 1.0566000000e-01 0.0000e+00 -1.0000e+00
      994 -1    0    0    0    0 -0.0000000000e+00 -0.0000000000e+00 +0.0000000000e+00 1.3100000000e+02 1.3100000000e+02 0.0000e+00 0.0000e+00
       13  1    1    2    0    0 +4.0182456486e+01 +2.8276179991e+01 +9.4109262250e+01 1.0616372530e+02 1.0566000000e-01 0.0000e+00 1.0000e+00
      994  1    1    2    0    0 +1.9203811224e+01 +1.4842873054e+01 +2.7335809496e+01 1.3600494008e+02 1.3100000000e+02 0.0000e+00 0.0000e+00
      997  1    1    2    0    0 -5.9386267710e+01 -4.3119053045e+01 +3.7855491709e+02 3.8883133462e+02 5.0000000000e+01 0.0000e+00 0.0000e+00
</event>
<event>
 5      1 +5.6267200e-07 2.09449900e+02 7.95774700e-02 4.87365900e-01
       13 -1    0    0    0    0 +0.0000000000e+00 +0.0000000000e+00 +4.9999998884e+02 5.0000000000e+02 1.0566000000e-01 0.0000e+00 1.0000e+00
      994 -1    0    0    0    0 -0.0000000000e+00 -0.0000000000e+00 +0.0000000000e+00 1.3100000000e+02 1.3100000000e+02 0.0000e+00 0.0000e+00
       13  1    1    2    0    0 -1.0631562931e+01 +1.4595480661e+00 +3.9767826399e+01 4.1190430824e+01 1.0566000000e-01 0.0000e+00 -1.0000e+00
      994  1    1    2    0    0 +7.1788450623e+00 -8.1054051546e+00 +4.7525147922e+00 1.3153258078e+02 1.3100000000e+02 0.0000e+00 0.0000e+00
      997  1    1    2    0    0 +3.4527178687e+00 +6.6458570885e+00 +4.5547964764e+02 4.5827698840e+02 5.0000000000e+01 0.0000e+00 0.0000e+00
</event>
<event>
 5      1 +5.6267200e-07 2.07732000e+02 7.95774700e-02 4.90237900e-01
       13 -1    0    0    0    0 +0.0000000000e+00 +0.0000000000e+00 +4.9999998884e+02 5.0000000000e+02 1.0566000000e-01 0.0000e+00 -1.0000e+00
      994 -1    0    0    0    0 -0.0000000000e+00 -0.0000000000e+00 +0.0000000000e+00 1.3100000000e+02 1.3100000000e+02 0.0000e+00 0.0000e+00
       13  1    1    2    0    0 +4.4589317694e+00 -1.7336366943e+01 +5.2436097477e+01 5.5407464966e+01 1.0566000000e-01 0.0000e+00 1.0000e+00
      994  1    1    2    0    0 -3.3680934358e+01 +1.3032337378e+01 +1.2267519269e+01 1.3643950742e+02 1.3100000000e+02 0.0000e+00 0.0000e+00
      997  1    1    2    0    0 +2.9222002588e+01 +4.3040295647e+00 +4.3529637209e+02 4.3915302761e+02 5.0000000000e+01 0.0000e+00 0.0000e+00
</event>
<event>
 5      1 +5.6267200e-07 2.05912900e+02 7.95774700e-02 4.93346000e-01
       13 -1    0    0    0    0 +0.0000000000e+00 +0.0000000000e+00 +4.9999998884e+02 5.0000000000e+02 1.0566000000e-01 0.0000e+00 1.0000e+00
      994 -1    0    0    0    0 -0.0000000000e+00 -0.0000000000e+00 +0.0000000000e+00 1.3100000000e+02 1.3100000000e+02 0.0000e+00 0.0000e+00
       13  1    1    2    0    0 -1.5843430296e+01 -4.7806742729e+00 +3.5326454238e+01 3.9010750609e+01 1.0566000000e-01 0.0000e+00 -1.0000e+00
      994  1    1    2    0    0 +4.4545967683e+00 -2.5741182669e+01 +1.0587159611e+01 1.3399828307e+02 1.3100000000e+02 0.0000e+00 0.0000e+00
      997  1    1    2    0    0 +1.1388833528e+01 +3.0521856942e+01 +4.5408637499e+02 4.5799096632e+02 5.0000000000e+01 0.0000e+00 0.0000e+00
</event>
<event>
 5      1 +5.6267200e-07 1.99449900e+02 7.95774700e-02 5.04982000e-01
       13 -1    0    0    0    0 +0.0000000000e+00 +0.0000000000e+00 +4.9999998884e+02 5.0000000000e+02 1.0566000000e-01 0.0000e+00 1.0000e+00
      994 -1    0    0    0    0 -0.0000000000e+00 -0.0000000000e+00 +0.0000000000e+00 1.3100000000e+02 1.3100000000e+02 0.0000e+00 0.0000e+00
       13  1    1    2    0    0 -4.8048340268e+00 -5.7697852903e+01 +1.2303445267e+02 1.3597652874e+02 1.0566000000e-01 0.0000e+00 -1.0000e+00
      994  1    1    2    0    0 -1.8789629353e+01 +6.5775922461e+01 +3.9513029379e+01 1.5297647413e+02 1.3100000000e+02 0.0000e+00 0.0000e+00
      997  1    1    2    0    0 +2.3594463380e+01 -8.0780695583e+00 +3.3745250679e+02 3.4204699713e+02 5.0000000000e+01 0.0000e+00 0.0000e+00
</event>
<event>
 5      1 +5.6267200e-07 2.09481700e+02 7.95774700e-02 4.87313400e-01
       13 -1    0    0    0    0 +0.0000000000e+00 +0.0000000000e+00 +4.9999998884e+02 5.0000000000e+02 1.0566000000e-01 0.0000e+00 1.0000e+00
      994 -1    0    0    0    0 -0.0000000000e+00 -0.0000000000e+00 +0.0000000000e+00 1.3100000000e+02 1.3100000000e+02 0.0000e+00 0.0000e+00
       13  1    1    2    0    0 +1.2240825277e-01 -1.2844543362e+01 +6.7658906935e+01 6.8867525944e+01 1.0566000000e-01 0.0000e+00 -1.0000e+00
      994  1    1    2    0    0 +4.7281651817e+00 +8.4522397617e+00 +4.6091481826e+00 1.3143835114e+02 1.3100000000e+02 0.0000e+00 0.0000e+00
      997  1    1    2    0    0 -4.8505734344e+00 +4.3923036001e+00 +4.2773193372e+02 4.3069412292e+02 5.0000000000e+01 0.0000e+00 0.0000e+00
</event>
<event>
 5      1 +5.6267200e-07 2.07989900e+02 7.95774700e-02 4.89803000e-01
       13 -1    0    0    0    0 +0.0000000000e+00 +0.0000000000e+00 +4.9999998884e+02 5.0000000000e+02 1.0566000000e-01 0.0000e+00 1.0000e+00
      994 -1    0    0    0    0 -0.0000000000e+00 -0.0000000000e+00 +0.0000000000e+00 1.3100000000e+02 1.3100000000e+02 0.0000e+00 0.0000e+00
       13  1    1    2    0    0 -1.1476764199e+01 +1.5482598300e+01 +8.7141095163e+01 8.9246896847e+01 1.0566000000e-01 0.0000e+00 -1.0000e+00
      994  1    1    2    0    0 +7.2082673348e+00 -5.1879425157e+00 +5.7422474605e+00 1.3142620466e+02 1.3100000000e+02 0.0000e+00 0.0000e+00
      997  1    1    2    0    0 +4.2684968641e+00 -1.0294655784e+01 +4.0711664621e+02 4.1032689849e+02 5.0000000000e+01 0.0000e+00 0.0000e+00
</event>
<event>
 5      1 +5.6267200e-07 2.08330200e+02 7.95774700e-02 4.89231100e-01
       13 -1    0    0    0    0 +0.0000000000e+00 +0.0000000000e+00 +4.9999998884e+02 5.0000000000e+02 1.0566000000e-01 0.0000e+00 1.0000e+00
      994 -1    0    0    0    0 -0.0000000000e+00 -0.0000000000e+00 +0.0000000000e+00 1.3100000000e+02 1.3100000000e+02 0.0000e+00 0.0000e+00
       13  1    1    2    0    0 +5.5952129501e+00 -1.6420114243e+01 +7.8236818734e+01 8.0136992265e+01 1.0566000000e-01 0.0000e+00 -1.0000e+00
      994  1    1    2    0    0 -2.4048830198e+01 +1.6065338871e+00 +8.0218851342e+00 1.3344016572e+02 1.3100000000e+02 0.0000e+00 0.0000e+00
      997  1    1    2    0    0 +1.8453617248e+01 +1.4813580356e+01 +4.1374128497e+02 4.1742284202e+02 5.0000000000e+01 0.0000e+00 0.0000e+00
</event>
<event>
 5      1 +5.6267200e-07 2.08335100e+02 7.95774700e-02 4.89222800e-01
       13 -1    0    0    0    0 +0.0000000000e+00 +0.0000000000e+00 +4.9999998884e+02 5.0000000000e+02 1.0566000000e-01 0.0000e+00 1.0000e+00
      994 -1    0    0    0    0 -0.0000000000e+00 -0.0000000000e+00 +0.0000000000e+00 1.3100000000e+02 1.3100000000e+02 0.0000e+00 0.0000e+00
       13  1    1    2    0    0 -1.1983177050e+01 -1.0778460505e+01 +5.1243992387e+01 5.3718987917e+01 1.0566000000e-01 0.0000e+00 -1.0000e+00
      994  1    1    2    0    0 +1.1475613809e+01 +1.3827768723e+01 +6.7008046737e+00 1.3239636582e+02 1.3100000000e+02 0.0000e+00 0.0000e+00
      997  1    1    2    0    0 +5.0756324157e-01 -3.0493082179e+00 +4.4205519178e+02 4.4488464626e+02 5.0000000000e+01 0.0000e+00 0.0000e+00
</event>
<event>
 5      1 +5.6267200e-07 1.98075800e+02 7.95774700e-02 5.07583600e-01
       13 -1    0    0    0    0 +0.0000000000e+00 +0.0000000000e+00 +4.9999998884e+02 5.0000000000e+02 1.0566000000e-01 0.0000e+00 1.0000e+00
      994 -1    0    0    0    0 -0.0000000000e+00 -0.0000000000e+00 +0.0000000000e+00 1.3100000000e+02 1.3100000000e+02 0.0000e+00 0.0000e+00
       13  1    1    2    0    0 -1.0489524854e+01 +6.3917763040e+00 -1.6170658966e+00 1.2389955695e+01 1.0566000000e-01 0.0000e+00 -1.0000e+00
      994  1    1    2    0    0 +1.0402035434e+02 +1.7175396854e+01 +8.5694237756e+01 1.8873190181e+02 1.3100000000e+02 0.0000e+00 0.0000e+00
      997  1    1    2    0    0 -9.3530829490e+01 -2.3567173159e+01 +4.1592281698e+02 4.2987814250e+02 5.0000000000e+01 0.0000e+00 0.0000e+00
</event>
<event>
 5      1 +5.6267200e-07 2.03188200e+02 7.95774700e-02 4.98135000e-01
       13 -1    0    0    0    0 +0.0000000000e+00 +0.0000000000e+00 +4.9999998884e+02 5.0000000000e+02 1.0566000000e-01 0.0000e+00 -1.0000e+00
      994 -1    0    0    0    0 -0.0000000000e+00 -0.0000000000e+00 +0.0000000000e+00 1.3100000000e+02 1.3100000000e+02 0.0000e+00 0.0000e+00
       13  1    1    2    0    0 -1.5678381436e+01 +2.3062628839e+01 +6.8776898537e+01 7.4215695306e+01 1.0566000000e-01 0.0000e+00 1.0000e+00
      994  1    1    2    0    0 -5.6503107001e+00 -1.0009668751e+01 +1.0016769861e+01 1.3188424909e+02 1.3100000000e+02 0.0000e+00 0.0000e+00
      997  1    1    2    0    0 +2.1328692136e+01 -1.3052960088e+01 +4.2120632044e+02 4.2490005560e+02 5.0000000000e+01 0.0000e+00 0.0000e+00
</event>
<event>
 5      1 +5.6267200e-07 2.09516500e+02 7.95774700e-02 4.87255800e-01
       13 -1    0    0    0    0 +0.0000000000e+00 +0.0000000000e+00 +4.9999998884e+02 5.0000000000e+02 1.0566000000e-01 0.0000e+00 1.0000e+00
      994 -1    0    0    0    0 -0.0000000000e+00 -0.0000000000e+00 +0.0000000000e+00 1.3100000000e+02 1.3100000000e+02 0.0000e+00 0.0000e+00
       13  1    1    2    0    0 +4.0646873976e+00 -1.3179505325e+01 +5.1668890054e+01 5.3478092783e+01 1.0566000000e-01 0.0000e+00 -1.0000e+00
      994  1    1    2    0    0 -7.0248294071e+00 +2.7102095411e+01 +8.0691549661e+00 1.3420127818e+02 1.3100000000e+02 0.0000e+00 0.0000e+00
      997  1    1    2    0    0 +2.9601420095e+00 -1.3922590087e+01 +4.4026194382e+02 4.4332062903e+02 5.0000000000e+01 0.0000e+00 0.0000e+00
</event>
<event>
 5      1 +5.6267200e-07 2.08134500e+02 7.95774700e-02 4.89559700e-01
       13 -1    0    0    0    0 +0.0000000000e+00 +0.0000000000e+00 +4.9999998884e+02 5.0000000000e+02 1.0566000000e-01 0.0000e+00 -1.0000e+00
      994 -1    0    0    0    0 -0.0000000000e+00 -0.0000000000e+00 +0.0000000000e+00 1.3100000000e+02 1.3100000000e+02 0.0000e+00 0.0000e+00
       13  1    1    2    0    0 +1.7825912574e+01 -4.8156693485e+00 +5.0266917160e+01 5.3551171371e+01 1.0566000000e-01 0.0000e+00 1.0000e+00
      994  1    1    2    0    0 -3.2939670499e+01 +1.3869697392e+01 +1.1779106848e+01 1.3629797415e+02 1.3100000000e+02 0.0000e+00 0.0000e+00
      997  1    1    2    0    0 +1.5113757925e+01 -9.0540280439e+00 +4.3795396483e+02 4.4115085448e+02 5.0000000000e+01 0.0000e+00 0.0000e+00
</event>
<event>
 5      1 +5.6267200e-07 2.07015500e+02 7.95774700e-02 4.91453700e-01
       13 -1    0    0    0    0 +0.0000000000e+00 +0.0000000000e+00 +4.9999998884e+02 5.0000000000e+02 1.0566000000e-01 0.0000e+00 1.0000e+00
      994 -1    0    0    0    0 -0.0000000000e+00 -0.0000000000e+00 +0.0000000000e+00 1.3100000000e+02 1.3100000000e+02 0.0000e+00 0.0000e+00
       13  1    1    2    0    0 -6.4651552873e+00 -2.5033356187e+01 +1.0291612901e+02 1.0611412690e+02 1.0566000000e-01 0.0000e+00 -1.0000e+00
      994  1    1    2    0    0 +1.5823089575e+01 +1.7569430594e+01 +9.0100911603e+00 1.3342127566e+02 1.3100000000e+02 0.0000e+00 0.0000e+00
      997  1    1    2    0    0 -9.3579342877e+00 +7.4639255927e+00 +3.8807376867e+02 3.9146459744e+02 5.0000000000e+01 0.0000e+00 0.0000e+00
</event>
<event>
 5      1 +5.6267200e-07 2.06543500e+02 7.95774700e-02 4.92260600e-01
       13 -1    0    0    0    0 +0.0000000000e+00 +0.0000000000e+00 +4.9999998884e+02 5.0000000000e+02 1.0566000000e-01 0.0000e+00 -1.0000e+00
      994 -1    0    0    0    0 -0.0000000000e+00 -0.0000000000e+00 +0.0000000000e+00 1.3100000000e+02 1.3100000000e+02 0.0000e+00 0.0000e+00
       13  1    1    2    0    0 -1.4692684675e+01 +5.9133620155e+00 +4.5496509229e+01 4.8174540468e+01 1.0566000000e-01 0.0000e+00 1.0000e+00
      994  1    1    2    0    0 -2.5229481125e+01 -2.2528028241e+01 +1.2462338599e+01 1.3586886567e+02 1.3100000000e+02 0.0000e+00 0.0000e+00
      997  1    1    2    0    0 +3.9922165800e+01 +1.6614666225e+01 +4.4204114101e+02 4.4695659386e+02 5.0000000000e+01 0.0000e+00 0.0000e+00
</event>
<event>
 5      1 +5.6267200e-07 2.06687100e+02 7.95774700e-02 4.92014700e-01
       13 -1    0    0    0    0 +0.0000000000e+00 +0.0000000000e+00 +4.9999998884e+02 5.0000000000e+02 1.0566000000e-01 0.0000e+00 -1.0000e+00
      994 -1    0    0    0    0 -0.0000000000e+00 -0.0000000000e+00 +0.0000000000e+00 1.3100000000e+02 1.3100000000e+02 0.0000e+00 0.0000e+00
       13  1    1    2    0    0 +4.3387220748e+01 -4.2669762985e+00 +1.9823377006e+02 2.0297117226e+02 1.0566000000e-01 0.0000e+00 1.0000e+00
      994  1    1    2    0    0 -5.2571753076e+01 +1.5555103435e+01 +2.2297130911e+01 1.4374947830e+02 1.3100000000e+02 0.0000e+00 0.0000e+00
      997  1    1    2    0    0 +9.1845323289e+00 -1.1288127136e+01 +2.7946908786e+02 2.8427934944e+02 5.0000000000e+01 0.0000e+00 0.0000e+00
</event>
<event>
 5      1 +5.6267200e-07 1.60324500e+02 7.95774700e-02 6.04280800e-01
       13 -1    0    0    0    0 +0.0000000000e+00 +0.0000000000e+00 +4.9999998884e+02 5.0000000000e+02 1.0566000000e-01 0.0000e+00 1.0000e+00
      994 -1    0    0    0    0 -0.0000000000e+00 -0.0000000000e+00 +0.0000000000e+00 1.3100000000e+02 1.3100000000e+02 0.0000e+00 0.0000e+00
       13  1    1    2    0    0 -2.7214340163e+00 -9.3923683319e+01 +1.3109891301e+02 1.6129476324e+02 1.0566000000e-01 0.0000e+00 -1.0000e+00
      994  1    1    2    0    0 +4.6285085263e+01 +6.3693815334e+01 +8.1509756287e+01 1.7321677632e+02 1.3100000000e+02 0.0000e+00 0.0000e+00
      997  1    1    2    0    0 -4.3563651246e+01 +3.0229867985e+01 +2.8739131954e+02 2.9648846044e+02 5.0000000000e+01 0.0000e+00 0.0000e+00
</event>
<event>
 5      1 +5.6267200e-07 2.05696400e+02 7.95774700e-02 4.93720600e-01
       13 -1    0    0    0    0 +0.0000000000e+00 +0.0000000000e+00 +4.9999998884e+02 5.0000000000e+02 1.0566000000e-01 0.0000e+00 1.0000e+00
      994 -1    0    0    0    0 -0.0000000000e+00 -0.0000000000e+00 +0.0000000000e+00 1.3100000000e+02 1.3100000000e+02 0.0000e+00 0.0000e+00
       13  1    1    2    0    0 +1.9969301802e+01 -2.3449259184e+00 +4.6745430117e+01 5.0886325205e+01 1.0566000000e-01 0.0000e+00 -1.0000e+00
      994  1    1    2    0    0 -7.0058774749e+00 +1.2824231480e+01 +8.3270050938e+00 1.3207529007e+02 1.3100000000e+02 0.0000e+00 0.0000e+00
      997  1    1    2    0    0 -1.2963424327e+01 -1.0479305562e+01 +4.4492755362e+02 4.4803838473e+02 5.0000000000e+01 0.0000e+00 0.0000e+00
</event>
<event>
 5      1 +5.6267200e-07 2.06025600e+02 7.95774700e-02 4.93151400e-01
       13 -1    0    0    0    0 +0.0000000000e+00 +0.0000000000e+00 +4.9999998884e+02 5.0000000000e+02 1.0566000000e-01 0.0000e+00 -1.0000e+00
      994 -1    0    0    0    0 -0.0000000000e+00 -0.0000000000e+00 +0.0000000000e+00 1.3100000000e+02 1.3100000000e+02 0.0000e+00 0.0000e+00
       13  1    1    2    0    0 -3.1775777322e+01 -9.4449622625e+00 +1.1791059648e+02 1.2248194668e+02 1.0566000000e-01 0.0000e+00 1.0000e+00
      994  1    1    2    0    0 +2.8408231472e+01 +2.2964689356e+01 +1.3920550948e+01 1.3670839883e+02 1.3100000000e+02 0.0000e+00 0.0000e+00
      997  1    1    2    0    0 +3.3675458502e+00 -1.3519727093e+01 +3.6816884141e+02 3.7180965449e+02 5.0000000000e+01 0.0000e+00 0.0000e+00
</event>
<event>
 5      1 +5.6267200e-07 2.08676300e+02 7.95774700e-02 4.88651900e-01
       13 -1    0    0    0    0 +0.0000000000e+00 +0.0000000000e+00 +4.9999998884e+02 5.0000000000e+02 1.0566000000e-01 0.0000e+00 1.0000e+00
      994 -1    0    0    0    0 -0.0000000000e+00 -0.0000000000e+00 +0.0000000000e+00 1.3100000000e+02 1.3100000000e+02 0.0000e+00 0.0000e+00
       13  1    1    2    0    0 +4.4769297327e+00 -1.9142323336e+01 +9.6009349770e+01 9.8001417591e+01 1.0566000000e-01 0.0000e+00 -1.0000e+00
      994  1    1    2    0    0 +2.3524587249e+01 +3.2008069877e+01 +1.2871377858e+01 1.3749398209e+02 1.3100000000e+02 0.0000e+00 0.0000e+00
      997  1    1    2    0    0 -2.8001516982e+01 -1.2865746541e+01 +3.9111926121e+02 3.9550460032e+02 5.0000000000e+01 0.0000e+00 0.0000e+00
</event>
<event>
 5      1 +5.6267200e-07 2.02975300e+02 7.95774700e-02 4.98516200e-01
       13 -1    0    0    0    0 +0.0000000000e+00 +0.0000000000e+00 +4.9999998884e+02 5.0000000000e+02 1.0566000000e-01 0.0000e+00 -1.0000e+00
      994 -1    0    0    0    0 -0.0000000000e+00 -0.0000000000e+00 +0.0000000000e+00 1.3100000000e+02 1.3100000000e+02 0.0000e+00 0.0000e+00
       13  1    1    2    0    0 -1.2019049220e+01 +1.6048723014e+01 +2.9673229395e+01 3.5812438640e+01 1.0566000000e-01 0.0000e+00 1.0000e+00
      994  1    1    2    0    0 -8.4091974277e+00 -9.9068483335e+00 +1.0393065843e+01 1.3205255038e+02 1.3100000000e+02 0.0000e+00 0.0000e+00
      997  1    1    2    0    0 +2.0428246648e+01 -6.1418746809e+00 +4.5993369360e+02 4.6313501098e+02 5.0000000000e+01 0.0000e+00 0.0000e+00
</event>
<event>
 5      1 +5.6267200e-07 1.92635700e+02 7.95774700e-02 5.18365000e-01
       13 -1    0    0    0    0 +0.0000000000e+00 +0.0000000000e+00 +4.9999998884e+02 5.0000000000e+02 1.0566000000e-01 0.0000e+00 1.0000e+00
      994 -1    0    0    0    0 -0.0000000000e+00 -0.0000000000e+00 +0.0000000000e+00 1.3100000000e+02 1.3100000000e+02 0.0000e+00 0.0000e+00
       13  1    1    2    0    0 -1.1312868753e+01 +4.9852883897e+01 +1.0061421696e+02 1.1285620431e+02 1.0566000000e-01 0.0000e+00 -1.0000e+00
      994  1    1    2    0    0 -2.5490643212e+01 -1.8958337803e+01 +2.4633335565e+01 1.3702916728e+02 1.3100000000e+02 0.0000e+00 0.0000e+00
      997  1    1    2    0    0 +3.6803511965e+01 -3.0894546094e+01 +3.7475243631e+02 3.8111462841e+02 5.0000000000e+01 0.0000e+00 0.0000e+00
</event>
<event>
 5      1 +5.6267200e-07 2.02226200e+02 7.95774700e-02 4.99865800e-01
       13 -1    0    0    0    0 +0.0000000000e+00 +0.0000000000e+00 +4.9999998884e+02 5.0000000000e+02 1.0566000000e-01 0.0000e+00 1.0000e+00
      994 -1    0    0    0    0 -0.0000000000e+00 -0.0000000000e+00 +0.0000000000e+00 1.3100000000e+02 1.3100000000e+02 0.0000e+00 0.0000e+00
       13  1    1    2    0    0 +1.4567861710e+01 +1.4325882420e+01 +2.1136648279e+01 2.9397662602e+01 1.0566000000e-01 0.0000e+00 -1.0000e+00
      994  1    1    2    0    0 -2.4758774247e+01 -2.6958435129e+01 +1.7367083113e+01 1.3712173315e+02 1.3100000000e+02 0.0000e+00 0.0000e+00
      997  1    1    2    0    0 +1.0190912538e+01 +1.2632552709e+01 +4.6149625744e+02 4.6448060425e+02 5.0000000000e+01 0.0000e+00 0.0000e+00
</event>
<event>
 5      1 +5.6267200e-07 2.08149400e+02 7.95774700e-02 4.89534600e-01
       13 -1    0    0    0    0 +0.0000000000e+00 +0.0000000000e+00 +4.9999998884e+02 5.0000000000e+02 1.0566000000e-01 0.0000e+00 -1.0000e+00
      994 -1    0    0    0    0 -0.0000000000e+00 -0.0000000000e+00 +0.0000000000e+00 1.3100000000e+02 1.3100000000e+02 0.0000e+00 0.0000e+00
       13  1    1    2    0    0 +1.1443631311e+01 -1.0734418982e+01 +5.1838393003e+01 5.4161006284e+01 1.0566000000e-01 0.0000e+00 1.0000e+00
      994  1    1    2    0    0 +8.2050286659e+00 +2.4074780134e+01 +8.5109672955e+00 1.3371744126e+02 1.3100000000e+02 0.0000e+00 0.0000e+00
      997  1    1    2    0    0 -1.9648659977e+01 -1.3340361152e+01 +4.3965062854e+02 4.4312155245e+02 5.0000000000e+01 0.0000e+00 0.0000e+00
</event>
<event>
 5      1 +5.6267200e-07 2.02844500e+02 7.95774700e-02 4.98750900e-01
       13 -1    0    0    0    0 +0.0000000000e+00 +0.0000000000e+00 +4.9999998884e+02 5.0000000000e+02 1.0566000000e-01 0.0000e+00 -1.0000e+00
      994 -1    0    0    0    0 -0.0000000000e+00 -0.0000000000e+00 +0.0000000000e+00 1.3100000000e+02 1.3100000000e+02 0.0000e+00 0.0000e+00
       13  1    1    2    0    0 +2.5912589963e+01 +2.5191158484e+01 +8.6786365427e+01 9.4010324818e+01 1.0566000000e-01 0.0000e+00 1.0000e+00
      994  1    1    2    0    0 -5.2318365968e+01 +3.6188466173e+00 +2.4608788044e+01 1.4323721555e+02 1.3100000000e+02 0.0000e+00 0.0000e+00
      997  1    1    2    0    0 +2.6405776005e+01 -2.8810005101e+01 +3.8860483537e+02 3.9375245964e+02 5.0000000000e+01 0.0000e+00 0.0000e+00
</event>
<event>
 5      1 +5.6267200e-07 2.06470600e+02 7.95774700e-02 4.92385600e-01
       13 -1    0    0    0    0 +0.0000000000e+00 +0.0000000000e+00 +4.9999998884e+02 5.0000000000e+02 1.0566000000e-01 0.0000e+00 1.0000e+00
      994 -1    0    0    0    0 -0.0000000000e+00 -0.0000000000e+00 +0.0000000000e+00 1.3100000000e+02 1.3100000000e+02 0.0000e+00 0.0000e+00
       13  1    1    2    0    0 +5.1210814754e+00 -1.9289966246e+01 +5.7643507617e+01 6.1000929564e+01 1.0566000000e-01 0.0000e+00 -1.0000e+00
      994  1    1    2    0    0 +5.9022399549e+00 +7.5536192843e+00 +7.0549133657e+00 1.3153959633e+02 1.3100000000e+02 0.0000e+00 0.0000e+00
      997  1    1    2    0    0 -1.1023321430e+01 +1.1736346962e+01 +4.3530156785e+02 4.3845947410e+02 5.0000000000e+01 0.0000e+00 0.0000e+00
</event>
<event>
 5      1 +5.6267200e-07 2.03720500e+02 7.95774700e-02 4.97186400e-01
       13 -1    0    0    0    0 +0.0000000000e+00 +0.0000000000e+00 +4.9999998884e+02 5.0000000000e+02 1.0566000000e-01 0.0000e+00 1.0000e+00
      994 -1    0    0    0    0 -0.0000000000e+00 -0.0000000000e+00 +0.0000000000e+00 1.3100000000e+02 1.3100000000e+02 0.0000e+00 0.0000e+00
       13  1    1    2    0    0 +4.0196166298e+01 +2.3835469039e+01 +2.0548192446e+02 2.1072895818e+02 1.0566000000e-01 0.0000e+00 -1.0000e+00
      994  1    1    2    0    0 -2.5712137558e+01 -2.6647991961e+01 +1.6177966301e+01 1.3709105035e+02 1.3100000000e+02 0.0000e+00 0.0000e+00
      997  1    1    2    0    0 -1.4484028740e+01 +2.8125229217e+00 +2.7834009807e+02 2.8317999147e+02 5.0000000000e+01 0.0000e+00 0.0000e+00
</event>
<event>
 5      1 +5.6267200e-07 2.21407900e+02 7.95774700e-02 4.68913100e-01
       13 -1    0    0    0    0 +0.0000000000e+00 +0.0000000000e+00 +4.9999998884e+02 5.0000000000e+02 1.0566000000e-01 0.0000e+00 -1.0000e+00
      994 -1    0    0    0    0 -0.0000000000e+00 -0.0000000000e+00 +0.0000000000e+00 1.3100000000e+02 1.3100000000e+02 0.0000e+00 0.0000e+00
       13  1    1    2    0    0 +1.6013934694e+01 +5.7959676098e+01 +4.1299963741e+01 7.2948394957e+01 1.0566000000e-01 0.0000e+00 1.0000e+00
      994  1    1    2    0    0 +7.9598409266e+01 +1.9985614327e+01 +1.2505095930e+02 1.9883177301e+02 1.3100000000e+02 0.0000e+00 0.0000e+00
      997  1    1    2    0    0 -9.5612343960e+01 -7.7945290425e+01 +3.3364906580e+02 3.5921983203e+02 5.0000000000e+01 0.0000e+00 0.0000e+00
</event>
<event>
 5      1 +5.6267200e-07 2.05012500e+02 7.95774700e-02 4.94910500e-01
       13 -1    0    0    0    0 +0.0000000000e+00 +0.0000000000e+00 +4.9999998884e+02 5.0000000000e+02 1.0566000000e-01 0.0000e+00 1.0000e+00
      994 -1    0    0    0    0 -0.0000000000e+00 -0.0000000000e+00 +0.0000000000e+00 1.3100000000e+02 1.3100000000e+02 0.0000e+00 0.0000e+00
       13  1    1    2    0    0 +4.4472462261e+00 -1.4021883057e+01 +2.2525696781e+01 2.6903705748e+01 1.0566000000e-01 0.0000e+00 -1.0000e+00
      994  1    1    2    0    0 +2.0647755325e+01 -3.2408356249e+00 +1.0068923439e+01 1.3303840060e+02 1.3100000000e+02 0.0000e+00 0.0000e+00
      997  1    1    2    0    0 -2.5095001551e+01 +1.7262718682e+01 +4.6740536862e+02 4.7105789365e+02 5.0000000000e+01 0.0000e+00 0.0000e+00
</event>
<event>
 5      1 +5.6267200e-07 2.07780600e+02 7.95774700e-02 4.90155800e-01
       13 -1    0    0    0    0 +0.0000000000e+00 +0.0000000000e+00 +4.9999998884e+02 5.0000000000e+02 1.0566000000e-01 0.0000e+00 1.0000e+00
      994 -1    0    0    0    0 -0.0000000000e+00 -0.0000000000e+00 +0.0000000000e+00 1.3100000000e+02 1.3100000000e+02 0.0000e+00 0.0000e+00
       13  1    1    2    0    0 +1.8795938009e+01 -2.4411630635e+01 +8.7788540835e+01 9.3037917335e+01 1.0566000000e-01 0.0000e+00 -1.0000e+00
      994  1    1    2    0    0 -5.1366492847e+01 +4.2199923898e+01 +2.9016287204e+01 1.4974075961e+02 1.3100000000e+02 0.0000e+00 0.0000e+00
      997  1    1    2    0    0 +3.2570554838e+01 -1.7788293262e+01 +3.8319516080e+02 3.8822132306e+02 5.0000000000e+01 0.0000e+00 0.0000e+00
</event>
<event>
 5      1 +5.6267200e-07 1.41677600e+02 7.95774700e-02 6.82530700e-01
       13 -1    0    0    0    0 +0.0000000000e+00 +0.0000000000e+00 +4.9999998884e+02 5.0000000000e+02 1.0566000000e-01 0.0000e+00 -1.0000e+00
      994 -1    0    0    0    0 -0.0000000000e+00 -0.0000000000e+00 +0.0000000000e+00 1.3100000000e+02 1.3100000000e+02 0.0000e+00 0.0000e+00
       13  1    1    2    0    0 +6.4370554491e+01 +2.5696350125e+01 +2.3068516773e+01 7.3048191801e+01 1.0566000000e-01 0.0000e+00 1.0000e+00
      994  1    1    2    0    0 +1.0183425803e+01 -4.1676469410e+01 +1.0038964944e+02 1.7052774548e+02 1.3100000000e+02 0.0000e+00 0.0000e+00
      997  1    1    2    0    0 -7.4553980294e+01 +1.5980119285e+01 +3.7654182262e+02 3.8742406272e+02 5.0000000000e+01 0.0000e+00 0.0000e+00
</event>
<event>
 5      1 +5.6267200e-07 2.07967600e+02 7.95774700e-02 4.89840500e-01
       13 -1    0    0    0    0 +0.0000000000e+00 +0.0000000000e+00 +4.9999998884e+02 5.0000000000e+02 1.0566000000e-01 0.0000e+00 1.0000e+00
      994 -1    0    0    0    0 -0.0000000000e+00 -0.0000000000e+00 +0.0000000000e+00 1.3100000000e+02 1.3100000000e+02 0.0000e+00 0.0000e+00
       13  1    1    2    0    0 -3.1721502144e+01 +5.8437416614e+00 +8.3851617467e+01 8.9841571283e+01 1.0566000000e-01 0.0000e+00 -1.0000e+00
      994  1    1    2    0    0 +7.9755701510e+01 +3.1203015273e+00 +3.9947430763e+01 1.5851657777e+02 1.3100000000e+02 0.0000e+00 0.0000e+00
      997  1    1    2    0    0 -4.8034199366e+01 -8.9640431887e+00 +3.7620094061e+02 3.8264185094e+02 5.0000000000e+01 0.0000e+00 0.0000e+00
</event>
<event>
 5      1 +5.6267200e-07 2.06615200e+02 7.95774700e-02 4.92137800e-01
       13 -1    0    0    0    0 +0.0000000000e+00 +0.0000000000e+00 +4.9999998884e+02 5.0000000000e+02 1.0566000000e-01 0.0000e+00 1.0000e+00
      994 -1    0    0    0    0 -0.0000000000e+00 -0.0000000000e+00 +0.0000000000e+00 1.3100000000e+02 1.3100000000e+02 0.0000e+00 0.0000e+00
       13  1    1    2    0    0 -1.9692536978e+01 +2.9550484878e+00 +2.3719687780e+01 3.0970358031e+01 1.0566000000e-01 0.0000e+00 -1.0000e+00
      994  1    1    2    0    0 +8.8180121896e+01 -3.8129716304e+01 +5.9100597427e+01 1.7286841753e+02 1.3100000000e+02 0.0000e+00 0.0000e+00
      997  1    1    2    0    0 -6.8487584918e+01 +3.5174667816e+01 +4.1717970363e+02 4.2716122444e+02 5.0000000000e+01 0.0000e+00 0.0000e+00
</event>
<event>
 5      1 +5.6267200e-07 2.04573600e+02 7.95774700e-02 4.95679600e-01
       13 -1    0    0    0    0 +0.0000000000e+00 +0.0000000000e+00 +4.9999998884e+02 5.0000000000e+02 1.0566000000e-01 0.0000e+00 -1.0000e+00
      994 -1    0    0    0    0 -0.0000000000e+00 -0.0000000000e+00 +0.0000000000e+00 1.3100000000e+02 1.3100000000e+02 0.0000e+00 0.0000e+00
       13  1    1    2    0    0 -3.5552312484e+01 -1.4850845438e+01 +1.4208502445e+02 1.4721643886e+02 1.0566000000e-01 0.0000e+00 1.0000e+00
      994  1    1    2    0    0 +3.4755377303e+01 +9.9560734420e+01 +7.4779520205e+01 1.8404687645e+02 1.3100000000e+02 0.0000e+00 0.0000e+00
      997  1    1    2    0    0 +7.9693518135e-01 -8.4709888982e+01 +2.8313544418e+02 2.9973668468e+02 5.0000000000e+01 0.0000e+00 0.0000e+00
</event>
<event>
 5      1 +5.6267200e-07 2.02192100e+02 7.95774700e-02 4.99927500e-01
       13 -1    0    0    0    0 +0.0000000000e+00 +0.0000000000e+00 +4.9999998884e+02 5.0000000000e+02 1.0566000000e-01 0.0000e+00 1.0000e+00
      994 -1    0    0    0    0 -0.0000000000e+00 -0.0000000000e+00 +0.0000000000e+00 1.3100000000e+02 1.3100000000e+02 0.0000e+00 0.0000e+00
       13  1    1    2    0    0 -2.1951064766e+01 +5.3965292723e+00 +3.8261497568e+01 4.4440129756e+01 1.0566000000e-01 0.0000e+00 -1.0000e+00
      994  1    1    2    0    0 -4.2783852147e+00 +5.2753150169e+00 +1.0410267228e+01 1.3158840068e+02 1.3100000000e+02 0.0000e+00 0.0000e+00
      997  1    1    2    0    0 +2.6229449980e+01 -1.0671844289e+01 +4.5132822404e+02 4.5497146957e+02 5.0000000000e+01 0.0000e+00 0.0000e+00
</event>
<event>
 5      1 +5.6267200e-07 2.09324700e+02 7.95774700e-02 4.87573300e-01
       13 -1    0    0    0    0 +0.0000000000e+00 +0.0000000000e+00 +4.9999998884e+02 5.0000000000e+02 1.0566000000e-01 0.0000e+00 1.0000e+00
      994 -1    0    0    0    0 -0.0000000000e+00 -0.0000000000e+00 +0.0000000000e+00 1.3100000000e+02 1.3100000000e+02 0.0000e+00 0.0000e+00
       13  1    1    2    0    0 +1.1907226682e+01 -2.0869843804e+00 +6.0054034432e+01 6.1258760734e+01 1.0566000000e-01 0.0000e+00 -1.0000e+00
      994  1    1    2    0    0 +8.9469281207e-02 +1.2214284094e+01 +5.0144553352e+00 1.3166374407e+02 1.3100000000e+02 0.0000e+00 0.0000e+00
      997  1    1    2    0    0 -1.1996695963e+01 -1.0127299714e+01 +4.3493149907e+02 4.3807749519e+02 5.0000000000e+01 0.0000e+00 0.0000e+00
</event>
<event>
 5      1 +5.6267200e-07 2.05997100e+02 7.95774700e-02 4.93200600e-01
       13 -1    0    0    0    0 +0.0000000000e+00 +0.0000000000e+00 +4.9999998884e+02 5.0000000000e+02 1.0566000000e-01 0.0000e+00 1.0000e+00
      994 -1    0    0    0    0 -0.0000000000e+00 -0.0000000000e+00 +0.0000000000e+00 1.3100000000e+02 1.3100000000e+02 0.0000e+00 0.0000e+00
       13  1    1    2    0    0 -4.9481653132e+00 -9.1919847649e+00 +1.1309154678e+01 1.5391071030e+01 1.0566000000e-01 0.0000e+00 -1.0000e+00
      994  1    1    2    0    0 +6.2234685104e+00 -3.6270183768e+00 +7.2401717629e+00 1.3139751485e+02 1.3100000000e+02 0.0000e+00 0.0000e+00
      997  1    1    2    0    0 -1.2753031972e+00 +1.2819003142e+01 +4.8145066239e+02 4.8421141412e+02 5.0000000000e+01 0.0000e+00 0.0000e+00
</event>
<event>
 5      1 +5.6267200e-07 2.00021300e+02 7.95774700e-02 5.03914000e-01
       13 -1    0    0    0    0 +0.0000000000e+00 +0.0000000000e+00 +4.9999998884e+02 5.0000000000e+02 1.0566000000e-01 0.0000e+00 1.0000e+00
      994 -1    0    0    0    0 -0.0000000000e+00 -0.0000000000e+00 +0.0000000000e+00 1.3100000000e+02 1.3100000000e+02 0.0000e+00 0.0000e+00
       13  1    1    2    0    0 -2.2071551606e+00 +2.3665837601e+01 +3.0957069121e+01 3.9029408090e+01 1.0566000000e-01 0.0000e+00 -1.0000e+00
      994  1    1    2    0    0 +7.6997755307e+00 +2.0796394856e+00 +1.2380257343e+01 1.3182519568e+02 1.3100000000e+02 0.0000e+00 0.0000e+00
      997  1    1    2    0    0 -5.4926203701e+00 -2.5745477086e+01 +4.5666266237e+02 4.6014539623e+02 5.0000000000e+01 0.0000e+00 0.0000e+00
</event>
<event>
 5      1 +5.6267200e-07 2.03601700e+02 7.95774700e-02 4.97397700e-01
       13 -1    0    0    0    0 +0.0000000000e+00 +0.0000000000e+00 +4.9999998884e+02 5.0000000000e+02 1.0566000000e-01 0.0000e+00 1.0000e+00
      994 -1    0    0    0    0 -0.0000000000e+00 -0.0000000000e+00 +0.0000000000e+00 1.3100000000e+02 1.3100000000e+02 0.0000e+00 0.0000e+00
       13  1    1    2    0    0 -5.3357687833e+00 -2.3427140810e+01 +4.4091124988e+01 5.0212944763e+01 1.0566000000e-01 0.0000e+00 -1.0000e+00
      994  1    1    2    0    0 -2.1189003434e+00 +1.7857211101e+01 +1.0675915193e+01 1.3265875355e+02 1.3100000000e+02 0.0000e+00 0.0000e+00
      997  1    1    2    0    0 +7.4546691268e+00 +5.5699297090e+00 +4.4523294866e+02 4.4812830169e+02 5.0000000000e+01 0.0000e+00 0.0000e+00
</event>
<event>
 5      1 +5.6267200e-07 2.07794300e+02 7.95774700e-02 4.90132700e-01
       13 -1    0    0    0    0 +0.0000000000e+00 +0.0000000000e+00 +4.9999998884e+02 5.0000000000e+02 1.0566000000e-01 0.0000e+00 -1.0000e+00
      994 -1    0    0    0    0 -0.0000000000e+00 -0.0000000000e+00 +0.0000000000e+00 1.3100000000e+02 1.3100000000e+02 0.0000e+00 0.0000e+00
       13  1    1    2    0    0 +1.4118267156e+01 -3.8611944707e+00 +3.0348407907e+01 3.3693787510e+01 1.0566000000e-01 0.0000e+00 1.0000e+00
      994  1    1    2    0    0 -2.7139524688e+01 +1.0616082421e+01 +9.8519463286e+00 1.3456342688e+02 1.3100000000e+02 0.0000e+00 0.0000e+00
      997  1    1    2    0    0 +1.3021257531e+01 -6.7548879501e+00 +4.5979963460e+02 4.6274278561e+02 5.0000000000e+01 0.0000e+00 0.0000e+00
</event>
<event>
 5      1 +5.6267200e-07 1.96808200e+02 7.95774700e-02 5.10025800e-01
       13 -1    0    0    0    0 +0.0000000000e+00 +0.0000000000e+00 +4.9999998884e+02 5.0000000000e+02 1.0566000000e-01 0.0000e+00 -1.0000e+00
      994 -1    0    0    0    0 -0.0000000000e+00 -0.0000000000e+00 +0.0000000000e+00 1.3100000000e+02 1.3100000000e+02 0.0000e+00 0.0000e+00
       13  1    1    2    0    0 -1.0813776553e+01 +8.1693938740e+00 +2.8844610463e+00 1.3856696546e+01 1.0566000000e-01 0.0000e+00 1.0000e+00
      994  1    1    2    0    0 +2.6263065440e+00 +2.3618224657e+01 +1.8047146173e+01 1.3435556374e+02 1.3100000000e+02 0.0000e+00 0.0000e+00
      997  1    1    2    0    0 +8.1874700087e+00 -3.1787618531e+01 +4.7906838162e+02 4.8278773972e+02 5.0000000000e+01 0.0000e+00 0.0000e+00
</event>
<event>
 5      1 +5.6267200e-07 2.05880200e+02 7.95774700e-02 4.93402500e-01
       13 -1    0    0    0    0 +0.0000000000e+00 +0.0000000000e+00 +4.9999998884e+02 5.0000000000e+02 1.0566000000e-01 0.0000e+00 -1.0000e+00
      994 -1    0    0    0    0 -0.0000000000e+00 -0.0000000000e+00 +0.0000000000e+00 1.3100000000e+02 1.3100000000e+02 0.0000e+00 0.0000e+00
       13  1    1    2    0    0 +3.6623912914e+00 -1.2164332284e+01 +2.3968823816e+01 2.7127472589e+01 1.0566000000e-01 0.0000e+00 1.0000e+00
      994  1    1    2    0    0 +6.7783211548e+00 -3.1444133666e+01 +1.2464624593e+01 1.3546603281e+02 1.3100000000e+02 0.0000e+00 0.0000e+00
      997  1    1    2    0    0 -1.0440712446e+01 +4.3608465950e+01 +4.6356654043e+02 4.6840649460e+02 5.0000000000e+01 0.0000e+00 0.0000e+00
</event>
<event>
 5      1 +5.6267200e-07 2.05552000e+02 7.95774700e-02 4.93971000e-01
       13 -1    0    0    0    0 +0.0000000000e+00 +0.0000000000e+00 +4.9999998884e+02 5.0000000000e+02 1.0566000000e-01 0.0000e+00 1.0000e+00
      994 -1    0    0    0    0 -0.0000000000e+00 -0.0000000000e+00 +0.0000000000e+00 1.3100000000e+02 1.3100000000e+02 0.0000e+00 0.0000e+00
       13  1    1    2    0    0 -4.8219640206e+00 -1.4782077568e+01 +2.4871989330e+01 2.9332374120e+01 1.0566000000e-01 0.0000e+00 -1.0000e+00
      994  1    1    2    0    0 +1.7442279588e+01 +2.3448417222e+00 +8.9482088564e+00 1.3247943932e+02 1.3100000000e+02 0.0000e+00 0.0000e+00
      997  1    1    2    0    0 -1.2620315567e+01 +1.2437235846e+01 +4.6617979065e+02 4.6918818656e+02 5.0000000000e+01 0.0000e+00 0.0000e+00
</event>
<event>
 5      1 +5.6267200e-07 2.26823700e+02 7.95774700e-02 4.61343300e-01
       13 -1    0    0    0    0 +0.0000000000e+00 +0.0000000000e+00 +4.9999998884e+02 5.0000000000e+02 1.0566000000e-01 0.0000e+00 -1.0000e+00
      994 -1    0    0    0    0 -0.0000000000e+00 -0.0000000000e+00 +0.0000000000e+00 1.3100000000e+02 1.3100000000e+02 0.0000e+00 0.0000e+00
       13  1    1    2    0    0 -5.8272457369e+01 +3.5190629321e+01 +5.0313777377e+01 8.4649554268e+01 1.0566000000e-01 0.0000e+00 1.0000e+00
      994  1    1    2    0    0 -3.6265655055e+01 +7.4760334963e+01 +2.5530236260e+02 2.9873835002e+02 1.3100000000e+02 0.0000e+00 0.0000e+00
      997  1    1    2    0    0 +9.4538112425e+01 -1.0995096428e+02 +1.9438384886e+02 2.4761209572e+02 5.0000000000e+01 0.0000e+00 0.0000e+00
</event>
<event>
 5      1 +5.6267200e-07 2.07880000e+02 7.95774700e-02 4.89988200e-01
       13 -1    0    0    0    0 +0.0000000000e+00 +0.0000000000e+00 +4.9999998884e+02 5.0000000000e+02 1.0566000000e-01 0.0000e+00 1.0000e+00
      994 -1    0    0    0    0 -0.0000000000e+00 -0.0000000000e+00 +0.0000000000e+00 1.3100000000e+02 1.3100000000e+02 0.0000e+00 0.0000e+00
       13  1    1    2    0    0 +2.7010316167e+01 +3.3312262973e+00 +8.7027502314e+01 9.1183614597e+01 1.0566000000e-01 0.0000e+00 -1.0000e+00
      994  1    1    2    0    0 -4.8579738344e+01 -5.1430885585e+00 +1.7840625029e+01 1.4094584151e+02 1.3100000000e+02 0.0000e+00 0.0000e+00
      997  1    1    2    0    0 +2.1569422178e+01 +1.8118622612e+00 +3.9513186149e+02 3.9887054389e+02 5.0000000000e+01 0.0000e+00 0.0000e+00
</event>
<event>
 5      1 +5.6267200e-07 2.07075000e+02 7.95774700e-02 4.91352400e-01
       13 -1    0    0    0    0 +0.0000000000e+00 +0.0000000000e+00 +4.9999998884e+02 5.0000000000e+02 1.0566000000e-01 0.0000e+00 -1.0000e+00
      994 -1    0    0    0    0 -0.0000000000e+00 -0.0000000000e+00 +0.0000000000e+00 1.3100000000e+02 1.3100000000e+02 0.0000e+00 0.0000e+00
       13  1    1    2    0    0 +2.0026489464e+01 +3.3052403439e+00 +6.0073118242e+01 6.3409585974e+01 1.0566000000e-01 0.0000e+00 1.0000e+00
      994  1    1    2    0    0 -1.6974636290e+01 +1.4308177648e+00 +7.5743830319e+00 1.3231990325e+02 1.3100000000e+02 0.0000e+00 0.0000e+00
      997  1    1    2    0    0 -3.0518531741e+00 -4.7360581087e+00 +4.3235248756e+02 4.3527051078e+02 5.0000000000e+01 0.0000e+00 0.0000e+00
</event>
<event>
 5      1 +5.6267200e-07 2.14356500e+02 7.95774700e-02 4.79482300e-01
       13 -1    0    0    0    0 +0.0000000000e+00 +0.0000000000e+00 +4.9999998884e+02 5.0000000000e+02 1.0566000000e-01 0.0000e+00 1.0000e+00
      994 -1    0    0    0    0 -0.0000000000e+00 -0.0000000000e+00 +0.0000000000e+00 1.3100000000e+02 1.3100000000e+02 0.0000e+00 0.0000e+00
       13  1    1    2    0    0 +2.3738894806e+01 -2.7661912806e+01 -4.7847723014e+00 3.6764408831e+01 1.0566000000e-01 0.0000e+00 -1.0000e+00
      994  1    1    2    0    0 -6.5748720040e+01 +4.2328907431e+01 +9.6544746684e+01 1.8054506004e+02 1.3100000000e+02 0.0000e+00 0.0000e+00
      997  1    1    2    0    0 +4.2009825234e+01 -1.4666994625e+01 +4.0824001445e+02 4.1369053113e+02 5.0000000000e+01 0.0000e+00 0.0000e+00
</event>
<event>
 5      1 +5.6267200e-07 2.00966100e+02 7.95774700e-02 5.02165200e-01
       13 -1    0    0    0    0 +0.0000000000e+00 +0.0000000000e+00 +4.9999998884e+02 5.0000000000e+02 1.0566000000e-01 0.0000e+00 -1.0000e+00
      994 -1    0    0    0    0 -0.0000000000e+00 -0.0000000000e+00 +0.0000000000e+00 1.3100000000e+02 1.3100000000e+02 0.0000e+00 0.0000e+00
       13  1    1    2    0    0 +1.1429498279e+01 -4.3757377961e+00 +5.0994483879e+00 1.3258810281e+01 1.0566000000e-01 0.0000e+00 1.0000e+00
      994  1    1    2    0    0 +8.6701419078e-01 +1.7339348175e+01 +1.2842720993e+01 1.3276799385e+02 1.3100000000e+02 0.0000e+00 0.0000e+00
      997  1    1    2    0    0 -1.2296512469e+01 -1.2963610378e+01 +4.8205781946e+02 4.8497319587e+02 5.0000000000e+01 0.0000e+00 0.0000e+00
</event>
<event>
 5      1 +5.6267200e-07 1.99626600e+02 7.95774700e-02 5.04650900e-01
       13 -1    0    0    0    0 +0.0000000000e+00 +0.0000000000e+00 +4.9999998884e+02 5.0000000000e+02 1.0566000000e-01 0.0000e+00 1.0000e+00
      994 -1    0    0    0    0 -0.0000000000e+00 -0.0000000000e+00 +0.0000000000e+00 1.3100000000e+02 1.3100000000e+02 0.0000e+00 0.0000e+00
       13  1    1    2    0    0 +1.7957194699e+01 -3.2757435439e+01 +6.7431852503e+01 7.7088107474e+01 1.0566000000e-01 0.0000e+00 -1.0000e+00
      994  1    1    2    0    0 -5.2774585983e+01 +6.0922526371e+00 +2.8246349410e+01 1.4415661179e+02 1.3100000000e+02 0.0000e+00 0.0000e+00
      997  1    1    2    0    0 +3.4817391284e+01 +2.6665182802e+01 +4.0432178692e+02 4.0975528074e+02 5.0000000000e+01 0.0000e+00 0.0000e+00
</event>
<event>
 5      1 +5.6267200e-07 2.06923400e+02 7.95774700e-02 4.91610900e-01
       13 -1    0    0    0    0 +0.0000000000e+00 +0.0000000000e+00 +4.9999998884e+02 5.0000000000e+02 1.0566000000e-01 0.0000e+00 1.0000e+00
      994 -1    0    0    0    0 -0.0000000000e+00 -0.0000000000e+00 +0.0000000000e+00 1.3100000000e+02 1.3100000000e+02 0.0000e+00 0.0000e+00
       13  1    1    2    0    0 +1.0482593859e+01 +9.8811292148e+00 +2.7088495027e+01 3.0680925922e+01 1.0566000000e-01 0.0000e+00 -1.0000e+00
      994  1    1    2    0    0 -6.7541544941e-01 -1.9812568131e+01 +8.2299114668e+00 1.3274684736e+02 1.3100000000e+02 0.0000e+00 0.0000e+00
      997  1    1    2    0    0 -9.8071784098e+00 +9.9314389162e+00 +4.6468158234e+02 4.6757222672e+02 5.0000000000e+01 0.0000e+00 0.0000e+00
</event>
<event>
 5      1 +5.6267200e-07 2.03459500e+02 7.95774700e-02 4.97650800e-01
       13 -1    0    0    0    0 +0.0000000000e+00 +0.0000000000e+00 +4.9999998884e+02 5.0000000000e+02 1.0566000000e-01 0.0000e+00 -1.0000e+00
      994 -1    0    0    0    0 -0.0000000000e+00 -0.0000000000e+00 +0.0000000000e+00 1.3100000000e+02 1.3100000000e+02 0.0000e+00 0.0000e+00
       13  1    1    2    0    0 -2.1584287249e+00 +3.2245615429e+01 +7.2581787875e+01 7.9451655893e+01 1.0566000000e-01 0.0000e+00 1.0000e+00
      994  1    1    2    0    0 +1.3147102416e+00 -3.1705248441e+01 +1.4447522377e+01 1.3556062166e+02 1.3100000000e+02 0.0000e+00 0.0000e+00
      997  1    1    2    0    0 +8.4371848322e-01 -5.4036698850e-01 +4.1297067858e+02 4.1598772245e+02 5.0000000000e+01 0.0000e+00 0.0000e+00
</event>
<event>
 5      1 +5.6267200e-07 2.07369700e+02 7.95774700e-02 4.90851400e-01
       13 -1    0    0    0    0 +0.0000000000e+00 +0.0000000000e+00 +4.9999998884e+02 5.0000000000e+02 1.0566000000e-01 0.0000e+00 -1.0000e+00
      994 -1    0    0    0    0 -0.0000000000e+00 -0.0000000000e+00 +0.0000000000e+00 1.3100000000e+02 1.3100000000e+02 0.0000e+00 0.0000e+00
       13  1    1    2    0    0 -1.2259626261e+01 -1.5817815683e+00 +1.5644079984e+01 1.9938627624e+01 1.0566000000e-01 0.0000e+00 1.0000e+00
      994  1    1    2    0    0 +5.0988074783e+01 +1.1321907220e+01 +2.0143847965e+01 1.4245962222e+02 1.3100000000e+02 0.0000e+00 0.0000e+00
      997  1    1    2    0    0 -3.8728448522e+01 -9.7401256517e+00 +4.6421206089e+02 4.6860175015e+02 5.0000000000e+01 0.0000e+00 0.0000e+00
</event>
<event>
 5      1 +5.6267200e-07 2.06168300e+02 7.95774700e-02 4.92905400e-01
       13 -1    0    0    0    0 +0.0000000000e+00 +0.0000000000e+00 +4.9999998884e+02 5.0000000000e+02 1.0566000000e-01 0.0000e+00 1.0000e+00
      994 -1    0    0    0    0 -0.0000000000e+00 -0.0000000000e+00 +0.0000000000e+00 1.3100000000e+02 1.3100000000e+02 0.0000e+00 0.0000e+00
       13  1    1    2    0    0 -5.3647016640e+00 -1.9293291361e+01 +2.9189222713e+01 3.5398206199e+01 1.0566000000e-01 0.0000e+00 -1.0000e+00
      994  1    1    2    0    0 +3.1951485954e+01 +5.6963791386e+01 +2.9805404375e+01 1.4938250605e+02 1.3100000000e+02 0.0000e+00 0.0000e+00
      997  1    1    2    0    0 -2.6586784290e+01 -3.7670500025e+01 +4.4100536175e+02 4.4621928775e+02 5.0000000000e+01 0.0000e+00 0.0000e+00
</event>
<event>
 5      1 +5.6267200e-07 2.05474000e+02 7.95774700e-02 4.94106400e-01
       13 -1    0    0    0    0 +0.0000000000e+00 +0.0000000000e+00 +4.9999998884e+02 5.0000000000e+02 1.0566000000e-01 0.0000e+00 1.0000e+00
      994 -1    0    0    0    0 -0.0000000000e+00 -0.0000000000e+00 +0.0000000000e+00 1.3100000000e+02 1.3100000000e+02 0.0000e+00 0.0000e+00
       13  1    1    2    0    0 +1.2971818508e+01 +3.8212361575e+01 +2.0341422743e+02 2.0737842640e+02 1.0566000000e-01 0.0000e+00 -1.0000e+00
      994  1    1    2    0    0 -1.4678753151e+01 -3.0623189760e+01 +1.3446853378e+01 1.3599655661e+02 1.3100000000e+02 0.0000e+00 0.0000e+00
      997  1    1    2    0    0 +1.7069346429e+00 -7.5891718152e+00 +2.8313890803e+02 2.8762501698e+02 5.0000000000e+01 0.0000e+00 0.0000e+00
</event>
<event>
 5      1 +5.6267200e-07 1.99481900e+02 7.95774700e-02 5.04921900e-01
       13 -1    0    0    0    0 +0.0000000000e+00 +0.0000000000e+00 +4.9999998884e+02 5.0000000000e+02 1.0566000000e-01 0.0000e+00 1.0000e+00
      994 -1    0    0    0    0 -0.0000000000e+00 -0.0000000000e+00 +0.0000000000e+00 1.3100000000e+02 1.3100000000e+02 0.0000e+00 0.0000e+00
       13  1    1    2    0    0 -1.1239658755e+01 -1.4599555778e+01 +1.3690126448e+01 2.2954469805e+01 1.0566000000e-01 0.0000e+00 -1.0000e+00
      994  1    1    2    0    0 +1.6320708823e+01 -1.8774231878e+00 +1.3980540267e+01 1.3276424880e+02 1.3100000000e+02 0.0000e+00 0.0000e+00
      997  1    1    2    0    0 -5.0810500678e+00 +1.6476978965e+01 +4.7232932212e+02 4.7528128139e+02 5.0000000000e+01 0.0000e+00 0.0000e+00
</event>
<event>
 5      1 +5.6267200e-07 2.09178400e+02 7.95774700e-02 4.87815900e-01
       13 -1    0    0    0    0 +0.0000000000e+00 +0.0000000000e+00 +4.9999998884e+02 5.0000000000e+02 1.0566000000e-01 0.0000e+00 1.0000e+00
      994 -1    0    0    0    0 -0.0000000000e+00 -0.0000000000e+00 +0.0000000000e+00 1.3100000000e+02 1.3100000000e+02 0.0000e+00 0.0000e+00
       13  1    1    2    0    0 +1.1516942842e+01 +1.1131966871e+01 +5.5406638607e+01 5.7675535755e+01 1.0566000000e-01 0.0000e+00 -1.0000e+00
      994  1    1    2    0    0 -3.4172231892e+01 -1.3618181525e+01 +1.1272042972e+01 1.3653298229e+02 1.3100000000e+02 0.0000e+00 0.0000e+00
      997  1    1    2    0    0 +2.2655289050e+01 +2.4862146540e+00 +4.3332130726e+02 4.3679148195e+02 5.0000000000e+01 0.0000e+00 0.0000e+00
</event>
<event>
 5      1 +5.6267200e-07 2.06917200e+02 7.95774700e-02 4.91621400e-01
       13 -1    0    0    0    0 +0.0000000000e+00 +0.0000000000e+00 +4.9999998884e+02 5.0000000000e+02 1.0566000000e-01 0.0000e+00 -1.0000e+00
      994 -1    0    0    0    0 -0.0000000000e+00 -0.0000000000e+00 +0.0000000000e+00 1.3100000000e+02 1.3100000000e+02 0.0000e+00 0.0000e+00
       13  1    1    2    0    0 +1.1271463519e+01 -2.2216809781e+01 +8.0618574279e+01 8.4380081830e+01 1.0566000000e-01 0.0000e+00 1.0000e+00
      994  1    1    2    0    0 -3.9138619798e+00 +2.7720574312e+01 +1.0258092819e+01 1.3435020292e+02 1.3100000000e+02 0.0000e+00 0.0000e+00
      997  1    1    2    0    0 -7.3576015391e+00 -5.5037645316e+00 +4.0912332174e+02 4.1226971525e+02 5.0000000000e+01 0.0000e+00 0.0000e+00
</event>
<event>
 5      1 +5.6267200e-07 2.00572100e+02 7.95774700e-02 5.02891900e-01
       13 -1    0    0    0    0 +0.0000000000e+00 +0.0000000000e+00 +4.9999998884e+02 5.0000000000e+02 1.0566000000e-01 0.0000e+00 1.0000e+00
      994 -1    0    0    0    0 -0.0000000000e+00 -0.0000000000e+00 +0.0000000000e+00 1.3100000000e+02 1.3100000000e+02 0.0000e+00 0.0000e+00
       13  1    1    2    0    0 -1.9561252074e+01 -3.0921899601e+01 +5.0806624841e+01 6.2610947520e+01 1.0566000000e-01 0.0000e+00 -1.0000e+00
      994  1    1    2    0    0 +3.7021083392e+01 +5.0193612864e+01 +3.3518340204e+01 1.4891084083e+02 1.3100000000e+02 0.0000e+00 0.0000e+00
      997  1    1    2    0    0 -1.7459831318e+01 -1.9271713263e+01 +4.1567502379e+02 4.1947821165e+02 5.0000000000e+01 0.0000e+00 0.0000e+00
</event>
<event>
 5      1 +5.6267200e-07 2.09187400e+02 7.95774700e-02 4.87800800e-01
       13 -1    0    0    0    0 +0.0000000000e+00 +0.0000000000e+00 +4.9999998884e+02 5.0000000000e+02 1.0566000000e-01 0.0000e+00 -1.0000e+00
      994 -1    0    0    0    0 -0.0000000000e+00 -0.0000000000e+00 +0.0000000000e+00 1.3100000000e+02 1.3100000000e+02 0.0000e+00 0.0000e+00
       13  1    1    2    0    0 +1.0567562440e+01 -3.3730473755e+00 +3.2815958695e+01 3.4640281951e+01 1.0566000000e-01 0.0000e+00 1.0000e+00
      994  1    1    2    0    0 -1.2077824625e+01 +1.2623033554e+01 +5.9129743938e+00 1.3229201824e+02 1.3100000000e+02 0.0000e+00 0.0000e+00
      997  1    1    2    0    0 +1.5102621850e+00 -9.2499861784e+00 +4.6127105575e+02 4.6406769981e+02 5.0000000000e+01 0.0000e+00 0.0000e+00
</event>
<event>
 5      1 +5.6267200e-07 2.08888500e+02 7.95774700e-02 4.88297800e-01
       13 -1    0    0    0    0 +0.0000000000e+00 +0.0000000000e+00 +4.9999998884e+02 5.0000000000e+02 1.0566000000e-01 0.0000e+00 -1.0000e+00
      994 -1    0    0    0    0 -0.0000000000e+00 -0.0000000000e+00 +0.0000000000e+00 1.3100000000e+02 1.3100000000e+02 0.0000e+00 0.0000e+00
       13  1    1    2    0    0 -1.7532780303e+01 -5.1590376048e+00 +7.2242920685e+01 7.4518888930e+01 1.0566000000e-01 0.0000e+00 1.0000e+00
      994  1    1    2    0    0 +2.8130993779e+01 +3.8439738604e+00 +8.7075064205e+00 1.3432404704e+02 1.3100000000e+02 0.0000e+00 0.0000e+00
      997  1    1    2    0    0 -1.0598213476e+01 +1.3150637444e+00 +4.1904956173e+02 4.2215706403e+02 5.0000000000e+01 0.0000e+00 0.0000e+00
</event>
<event>
 5      1 +5.6267200e-07 2.09831100e+02 7.95774700e-02 4.86736700e-01
       13 -1    0    0    0    0 +0.0000000000e+00 +0.0000000000e+00 +4.9999998884e+02 5.0000000000e+02 1.0566000000e-01 0.0000e+00 -1.0000e+00
      994 -1    0    0    0    0 -0.0000000000e+00 -0.0000000000e+00 +0.0000000000e+00 1.3100000000e+02 1.3100000000e+02 0.0000e+00 0.0000e+00
       13  1    1    2    0    0 -8.8608625863e+00 +7.0458487596e+00 +5.4144473801e+01 5.5315405428e+01 1.0566000000e-01 0.0000e+00 1.0000e+00
      994  1    1    2    0    0 +9.6541157110e+00 -1.0292114187e+01 +4.8562295631e+00 1.3184730763e+02 1.3100000000e+02 0.0000e+00 0.0000e+00
      997  1    1    2    0    0 -7.9325312465e-01 +3.2462654277e+00 +4.4099928547e+02 4.4383728694e+02 5.0000000000e+01 0.0000e+00 0.0000e+00
</event>
<event>
 5      1 +5.6267200e-07 2.02199600e+02 7.95774700e-02 4.99914000e-01
       13 -1    0    0    0    0 +0.0000000000e+00 +0.0000000000e+00 +4.9999998884e+02 5.0000000000e+02 1.0566000000e-01 0.0000e+00 1.0000e+00
      994 -1    0    0    0    0 -0.0000000000e+00 -0.0000000000e+00 +0.0000000000e+00 1.3100000000e+02 1.3100000000e+02 0.0000e+00 0.0000e+00
       13  1    1    2    0    0 +7.8903096075e-01 -4.3589117975e+01 +9.5210974948e+01 1.0471759494e+02 1.0566000000e-01 0.0000e+00 -1.0000e+00
      994  1    1    2    0    0 +4.4048960812e+01 +5.7203302354e+01 +3.9615507093e+01 1.5473499007e+02 1.3100000000e+02 0.0000e+00 0.0000e+00
      997  1    1    2    0    0 -4.4837991772e+01 -1.3614184379e+01 +3.6517350679e+02 3.7154741499e+02 5.0000000000e+01 0.0000e+00 0.0000e+00
</event>
<event>
 5      1 +5.6267200e-07 1.99430300e+02 7.95774700e-02 5.05018800e-01
       13 -1    0    0    0    0 +0.0000000000e+00 +0.0000000000e+00 +4.9999998884e+02 5.0000000000e+02 1.0566000000e-01 0.0000e+00 1.0000e+00
      994 -1    0    0    0    0 -0.0000000000e+00 -0.0000000000e+00 +0.0000000000e+00 1.3100000000e+02 1.3100000000e+02 0.0000e+00 0.0000e+00
       13  1    1    2    0    0 +2.3526016399e+01 -5.2902044076e+00 +4.4443824585e+00 2.4519857458e+01 1.0566000000e-01 0.0000e+00 -1.0000e+00
      994  1    1    2    0    0 +1.7401120324e+00 +1.7025729313e+01 +2.7509089124e+01 1.3494685411e+02 1.3100000000e+02 0.0000e+00 0.0000e+00
      997  1    1    2    0    0 -2.5266128432e+01 -1.1735524905e+01 +4.6804651725e+02 4.7153328844e+02 5.0000000000e+01 0.0000e+00 0.0000e+00
</event>
<event>
 5      1 +5.6267200e-07 1.96890200e+02 7.95774700e-02 5.09866600e-01
       13 -1    0    0    0    0 +0.0000000000e+00 +0.0000000000e+00 +4.9999998884e+02 5.0000000000e+02 1.0566000000e-01 0.0000e+00 -1.0000e+00
      994 -1    0    0    0    0 -0.0000000000e+00 -0.0000000000e+00 +0.0000000000e+00 1.3100000000e+02 1.3100000000e+02 0.0000e+00 0.0000e+00
       13  1    1    2    0    0 +2.6293382646e+01 -3.3516706808e+01 +9.3016973401e+01 1.0230777151e+02 1.0566000000e-01 0.0000e+00 1.0000e+00
      994  1    1    2    0    0 -3.3732634245e+01 -1.4428030139e+01 +2.2428118999e+01 1.3787704373e+02 1.3100000000e+02 0.0000e+00 0.0000e+00
      997  1    1    2    0    0 +7.4392515992e+00 +4.7944736947e+01 +3.8455489644e+02 3.9081518476e+02 5.0000000000e+01 0.0000e+00 0.0000e+00
</event>
<event>
 5      1 +5.6267200e-07 2.06368000e+02 7.95774700e-02 4.92561900e-01
       13 -1    0    0    0    0 +0.0000000000e+00 +0.0000000000e+00 +4.9999998884e+02 5.0000000000e+02 1.0566000000e-01 0.0000e+00 -1.0000e+00
      994 -1    0    0    0    0 -0.0000000000e+00 -0.0000000000e+00 +0.0000000000e+00 1.3100000000e+02 1.3100000000e+02 0.0000e+00 0.0000e+00
       13  1    1    2    0    0 -2.4012256846e+00 +1.8280897798e+01 +4.1285154932e+01 4.5215398824e+01 1.0566000000e-01 0.0000e+00 1.0000e+00
      994  1    1    2    0    0 +2.8968782059e+01 -1.1722932984e+01 +1.1736174677e+01 1.3518637242e+02 1.3100000000e+02 0.0000e+00 0.0000e+00
      997  1    1    2    0    0 -2.6567556374e+01 -6.5579648134e+00 +4.4697865923e+02 4.5059822876e+02 5.0000000000e+01 0.0000e+00 0.0000e+00
</event>
<event>
 5      1 +5.6267200e-07 1.70291400e+02 7.95774700e-02 5.72795200e-01
       13 -1    0    0    0    0 +0.0000000000e+00 +0.0000000000e+00 +4.9999998884e+02 5.0000000000e+02 1.0566000000e-01 0.0000e+00 -1.0000e+00
      994 -1    0    0    0    0 -0.0000000000e+00 -0.0000000000e+00 +0.0000000000e+00 1.3100000000e+02 1.3100000000e+02 0.0000e+00 0.0000e+00
       13  1    1    2    0    0 +5.2218913039e+01 +3.1180688560e+01 +2.3930257035e+02 2.4691047275e+02 1.0566000000e-01 0.0000e+00 1.0000e+00
      994  1    1    2    0    0 -1.3609286181e+01 -3.3824125683e+01 +2.2729961663e+01 1.3786564222e+02 1.3100000000e+02 0.0000e+00 0.0000e+00
      997  1    1    2    0    0 -3.8609626858e+01 +2.6434371229e+00 +2.3796745683e+02 2.4622388502e+02 5.0000000000e+01 0.0000e+00 0.0000e+00
</event>
<event>
 5      1 +5.6267200e-07 2.00173300e+02 7.95774700e-02 5.03631200e-01
       13 -1    0    0    0    0 +0.0000000000e+00 +0.0000000000e+00 +4.9999998884e+02 5.0000000000e+02 1.0566000000e-01 0.0000e+00 1.0000e+00
      994 -1    0    0    0    0 -0.0000000000e+00 -0.0000000000e+00 +0.0000000000e+00 1.3100000000e+02 1.3100000000e+02 0.0000e+00 0.0000e+00
       13  1    1    2    0    0 +1.1058313535e+00 -1.1919281753e+01 +3.4724969389e+00 1.2464410917e+01 1.0566000000e-01 0.0000e+00 -1.0000e+00
      994  1    1    2    0    0 -1.9523836450e+01 +1.0953926078e+01 +1.4631945625e+01 1.3370214104e+02 1.3100000000e+02 0.0000e+00 0.0000e+00
      997  1    1    2    0    0 +1.8418005097e+01 +9.6535567514e-01 +4.8189554627e+02 4.8483344804e+02 5.0000000000e+01 0.0000e+00 0.0000e+00
</event>
<event>
 5      1 +5.6267200e-07 2.08851800e+02 7.95774700e-02 4.88359100e-01
       13 -1    0    0    0    0 +0.0000000000e+00 +0.0000000000e+00 +4.9999998884e+02 5.0000000000e+02 1.0566000000e-01 0.0000e+00 -1.0000e+00
      994 -1    0    0    0    0 -0.0000000000e+00 -0.0000000000e+00 +0.0000000000e+00 1.3100000000e+02 1.3100000000e+02 0.0000e+00 0.0000e+00
       13  1    1    2    0    0 -3.9272932390e+00 -1.0825490611e+01 +2.9926600012e+01 3.2065985584e+01 1.0566000000e-01 0.0000e+00 1.0000e+00
      994  1    1    2    0    0 -1.9676462397e+01 +2.6612952676e+01 +1.0222969960e+01 1.3550247798e+02 1.3100000000e+02 0.0000e+00 0.0000e+00
      997  1    1    2    0    0 +2.3603755636e+01 -1.5787462065e+01 +4.5985041886e+02 4.6343153644e+02 5.0000000000e+01 0.0000e+00 0.0000e+00
</event>
<event>
 5      1 +5.6267200e-07 2.01431700e+02 7.95774700e-02 5.01311200e-01
       13 -1    0    0    0    0 +0.0000000000e+00 +0.0000000000e+00 +4.9999998884e+02 5.0000000000e+02 1.0566000000e-01 0.0000e+00 -1.0000e+00
      994 -1    0    0    0    0 -0.0000000000e+00 -0.0000000000e+00 +0.0000000000e+00 1.3100000000e+02 1.3100000000e+02 0.0000e+00 0.0000e+00
       13  1    1    2    0    0 +1.1731890286e+01 -7.1676991458e+00 +7.3133049589e+00 1.5572692580e+01 1.0566000000e-01 0.0000e+00 1.0000e+00
      994  1    1    2    0    0 -1.2341831689e+01 +2.2664712968e+01 +1.4408906584e+01 1.3429306241e+02 1.3100000000e+02 0.0000e+00 0.0000e+00
      997  1    1    2    0    0 +6.0994140245e-01 -1.5497013822e+01 +4.7827777729e+02 4.8113424501e+02 5.0000000000e+01 0.0000e+00 0.0000e+00
</event>
<event>
 5      1 +5.6267200e-07 2.28624400e+02 7.95774700e-02 4.58923300e-01
       13 -1    0    0    0    0 +0.0000000000e+00 +0.0000000000e+00 +4.9999998884e+02 5.0000000000e+02 1.0566000000e-01 0.0000e+00 -1.0000e+00
      994 -1    0    0    0    0 -0.0000000000e+00 -0.0000000000e+00 +0.0000000000e+00 1.3100000000e+02 1.3100000000e+02 0.0000e+00 0.0000e+00
       13  1    1    2    0    0 -3.0350951287e+01 -3.2028487959e+01 +2.0539631645e+00 4.4172776839e+01 1.0566000000e-01 0.0000e+00 1.0000e+00
      994  1    1    2    0    0 -6.1475743020e+01 -4.6901285500e+01 +1.4420309314e+02 2.0960565268e+02 1.3100000000e+02 0.0000e+00 0.0000e+00
      997  1    1    2    0    0 +9.1826694307e+01 +7.8929773458e+01 +3.5374293253e+02 3.7722157049e+02 5.0000000000e+01 0.0000e+00 0.0000e+00
</event>
<event>
 5      1 +5.6267200e-07 2.00953700e+02 7.95774700e-02 5.02187900e-01
       13 -1    0    0    0    0 +0.0000000000e+00 +0.0000000000e+00 +4.9999998884e+02 5.0000000000e+02 1.0566000000e-01 0.0000e+00 -1.0000e+00
      994 -1    0    0    0    0 -0.0000000000e+00 -0.0000000000e+00 +0.0000000000e+00 1.3100000000e+02 1.3100000000e+02 0.0000e+00 0.0000e+00
       13  1    1    2    0    0 -2.4055383827e+01 -1.0608723209e+01 +4.8665365078e+01 5.5313067366e+01 1.0566000000e-01 0.0000e+00 1.0000e+00
      994  1    1    2    0    0 -9.2540684828e+00 +7.5283850019e-01 +1.1691173111e+01 1.3184797336e+02 1.3100000000e+02 0.0000e+00 0.0000e+00
      997  1    1    2    0    0 +3.3309452310e+01 +9.8558847086e+00 +4.3964345065e+02 4.4383895928e+02 5.0000000000e+01 0.0000e+00 0.0000e+00
</event>
<event>
 5      1 +5.6267200e-07 2.05067900e+02 7.95774700e-02 4.94813800e-01
       13 -1    0    0    0    0 +0.0000000000e+00 +0.0000000000e+00 +4.9999998884e+02 5.0000000000e+02 1.0566000000e-01 0.0000e+00 1.0000e+00
      994 -1    0    0    0    0 -0.0000000000e+00 -0.0000000000e+00 +0.0000000000e+00 1.3100000000e+02 1.3100000000e+02 0.0000e+00 0.0000e+00
       13  1    1    2    0    0 +1.4193508955e+00 +1.3827389795e+01 +2.0123090379e+01 2.4457334195e+01 1.0566000000e-01 0.0000e+00 -1.0000e+00
      994  1    1    2    0    0 +1.7067749838e+01 +9.6824381804e+00 +9.7505818203e+00 1.3281992147e+02 1.3100000000e+02 0.0000e+00 0.0000e+00
      997  1    1    2    0    0 -1.8487100733e+01 -2.3509827975e+01 +4.7012631664e+02 4.7372274433e+02 5.0000000000e+01 0.0000e+00 0.0000e+00
</event>
<event>
 5      1 +5.6267200e-07 2.06329500e+02 7.95774700e-02 4.92627900e-01
       13 -1    0    0    0    0 +0.0000000000e+00 +0.0000000000e+00 +4.9999998884e+02 5.0000000000e+02 1.0566000000e-01 0.0000e+00 -1.0000e+00
      994 -1    0    0    0    0 -0.0000000000e+00 -0.0000000000e+00 +0.0000000000e+00 1.3100000000e+02 1.3100000000e+02 0.0000e+00 0.0000e+00
       13  1    1    2    0    0 +1.5046125716e+01 +1.1124074653e+01 +3.7006391368e+01 4.1468242090e+01 1.0566000000e-01 0.0000e+00 1.0000e+00
      994  1    1    2    0    0 -1.5231724119e+01 -2.4163296674e+01 +1.0927875335e+01 1.3452244714e+02 1.3100000000e+02 0.0000e+00 0.0000e+00
      997  1    1    2    0    0 +1.8559840318e-01 +1.3039222021e+01 +4.5206572213e+02 4.5500931077e+02 5.0000000000e+01 0.0000e+00 0.0000e+00
</event>
<event>
 5      1 +5.6267200e-07 1.95706000e+02 7.95774700e-02 5.12183100e-01
       13 -1    0    0    0    0 +0.0000000000e+00 +0.0000000000e+00 +4.9999998884e+02 5.0000000000e+02 1.0566000000e-01 0.0000e+00 -1.0000e+00
      994 -1    0    0    0    0 -0.0000000000e+00 -0.0000000000e+00 +0.0000000000e+00 1.3100000000e+02 1.3100000000e+02 0.0000e+00 0.0000e+00
       13  1    1    2    0    0 -1.2829643639e+01 -6.9888121480e+00 -2.9197707550e+00 1.4898975684e+01 1.0566000000e-01 0.0000e+00 1.0000e+00
      994  1    1    2    0    0 +2.2824302956e+01 -1.9436588146e+01 +2.7432171910e+01 1.3715776981e+02 1.3100000000e+02 0.0000e+00 0.0000e+00
      997  1    1    2    0    0 -9.9946593171e+00 +2.6425400294e+01 +4.7548758768e+02 4.7894325450e+02 5.0000000000e+01 0.0000e+00 0.0000e+00
</event>
<event>
 5      1 +5.6267200e-07 2.03263200e+02 7.95774700e-02 4.98001000e-01
       13 -1    0    0    0    0 +0.0000000000e+00 +0.0000000000e+00 +4.9999998884e+02 5.0000000000e+02 1.0566000000e-01 0.0000e+00 -1.0000e+00
      994 -1    0    0    0    0 -0.0000000000e+00 -0.0000000000e+00 +0.0000000000e+00 1.3100000000e+02 1.3100000000e+02 0.0000e+00 0.0000e+00
       13  1    1    2    0    0 +2.4407309824e+01 +1.0109475134e+01 +5.7351865244e+01 6.3144008990e+01 1.0566000000e-01 0.0000e+00 1.0000e+00
      994  1    1    2    0    0 -3.4076549622e+00 -1.6014143764e+01 +1.0672873959e+01 1.3244989676e+02 1.3100000000e+02 0.0000e+00 0.0000e+00
      997  1    1    2    0    0 -2.0999654862e+01 +5.9046686304e+00 +4.3197524963e+02 4.3540609425e+02 5.0000000000e+01 0.0000e+00 0.0000e+00
</event>
<event>
 5      1 +5.6267200e-07 2.08224400e+02 7.95774700e-02 4.89408600e-01
       13 -1    0    0    0    0 +0.0000000000e+00 +0.0000000000e+00 +4.9999998884e+02 5.0000000000e+02 1.0566000000e-01 0.0000e+00 -1.0000e+00
      994 -1    0    0    0    0 -0.0000000000e+00 -0.0000000000e+00 +0.0000000000e+00 1.3100000000e+02 1.3100000000e+02 0.0000e+00 0.0000e+00
       13  1    1    2    0    0 +1.9576071844e+01 -7.3346609049e+00 +1.1337194070e+02 1.1528325092e+02 1.0566000000e-01 0.0000e+00 1.0000e+00
      994  1    1    2    0    0 -1.1529858740e+01 +8.6820432032e+00 +6.2086603844e+00 1.3193886077e+02 1.3100000000e+02 0.0000e+00 0.0000e+00
      997  1    1    2    0    0 -8.0462131038e+00 -1.3473822983e+00 +3.8041938775e+02 3.8377788831e+02 5.0000000000e+01 0.0000e+00 0.0000e+00
</event>
<event>
 5      1 +5.6267200e-07 2.01795800e+02 7.95774700e-02 5.00647000e-01
       13 -1    0    0    0    0 +0.0000000000e+00 +0.0000000000e+00 +4.9999998884e+02 5.0000000000e+02 1.0566000000e-01 0.0000e+00 1.0000e+00
      994 -1    0    0    0    0 -0.0000000000e+00 -0.0000000000e+00 +0.0000000000e+00 1.3100000000e+02 1.3100000000e+02 0.0000e+00 0.0000e+00
       13  1    1    2    0    0 +1.8945553463e+01 -4.7528633484e+00 +1.7337600774e+01 2.6117566324e+01 1.0566000000e-01 0.0000e+00 -1.0000e+00
      994  1    1    2    0    0 -4.1092651718e+01 +3.1868587615e+00 +1.9744377967e+01 1.3874293696e+02 1.3100000000e+02 0.0000e+00 0.0000e+00
      997  1    1    2    0    0 +2.2147098255e+01 +1.5660045869e+00 +4.6291801010e+02 4.6613949672e+02 5.0000000000e+01 0.0000e+00 0.0000e+00
</event>
<event>
 5      1 +5.6267200e-07 1.66965100e+02 7.95774700e-02 5.82691500e-01
       13 -1    0    0    0    0 +0.0000000000e+00 +0.0000000000e+00 +4.9999998884e+02 5.0000000000e+02 1.0566000000e-01 0.0000e+00 -1.0000e+00
      994 -1    0    0    0    0 -0.0000000000e+00 -0.0000000000e+00 +0.0000000000e+00 1.3100000000e+02 1.3100000000e+02 0.0000e+00 0.0000e+00
       13  1    1    2    0    0 +5.0653640770e+01 -4.2088769060e+01 +2.5328618197e+02 2.6170815223e+02 1.0566000000e-01 0.0000e+00 1.0000e+00
      994  1    1    2    0    0 -4.7040814772e+00 -9.0939414592e+00 +2.7615062014e+01 1.3426995123e+02 1.3100000000e+02 0.0000e+00 0.0000e+00
      997  1    1    2    0    0 -4.5949559293e+01 +5.1182710519e+01 +2.1909874485e+02 2.3502189654e+02 5.0000000000e+01 0.0000e+00 0.0000e+00
</event>
<event>
 5      1 +5.6267200e-07 2.05100100e+02 7.95774700e-02 4.94757500e-01
       13 -1    0    0    0    0 +0.0000000000e+00 +0.0000000000e+00 +4.9999998884e+02 5.0000000000e+02 1.0566000000e-01 0.0000e+00 1.0000e+00
      994 -1    0    0    0    0 -0.0000000000e+00 -0.0000000000e+00 +0.0000000000e+00 1.3100000000e+02 1.3100000000e+02 0.0000e+00 0.0000e+00
       13  1    1    2    0    0 +2.4940981604e+01 -3.3962715585e+01 +1.5581814221e+02 1.6141506503e+02 1.0566000000e-01 0.0000e+00 -1.0000e+00
      994  1    1    2    0    0 +6.5132940103e-02 +6.0375559701e+01 +2.7396823057e+01 1.4682233606e+02 1.3100000000e+02 0.0000e+00 0.0000e+00
      997  1    1    2    0    0 -2.5006114544e+01 -2.6412844116e+01 +3.1678502357e+02 3.2276259891e+02 5.0000000000e+01 0.0000e+00 0.0000e+00
</event>
<event>
 5      1 +5.6267200e-07 2.07080100e+02 7.95774700e-02 4.91343700e-01
       13 -1    0    0    0    0 +0.0000000000e+00 +0.0000000000e+00 +4.9999998884e+02 5.0000000000e+02 1.0566000000e-01 0.0000e+00 1.0000e+00
      994 -1    0    0    0    0 -0.0000000000e+00 -0.0000000000e+00 +0.0000000000e+00 1.3100000000e+02 1.3100000000e+02 0.0000e+00 0.0000e+00
       13  1    1    2    0    0 +1.0004334428e+01 -1.3442807557e+01 +5.1411489684e+01 5.4073544529e+01 1.0566000000e-01 0.0000e+00 -1.0000e+00
      994  1    1    2    0    0 +1.1747687247e+01 +4.3261276964e+00 +6.8850425198e+00 1.3177680884e+02 1.3100000000e+02 0.0000e+00 0.0000e+00
      997  1    1    2    0    0 -2.1752021675e+01 +9.1166798605e+00 +4.4170345663e+02 4.4514964664e+02 5.0000000000e+01 0.0000e+00 0.0000e+00
</event>
<event>
 5      1 +5.6267200e-07 2.00116700e+02 7.95774700e-02 5.03736400e-01
       13 -1    0    0    0    0 +0.0000000000e+00 +0.0000000000e+00 +4.9999998884e+02 5.0000000000e+02 1.0566000000e-01 0.0000e+00 -1.0000e+00
      994 -1    0    0    0    0 -0.0000000000e+00 -0.0000000000e+00 +0.0000000000e+00 1.3100000000e+02 1.3100000000e+02 0.0000e+00 0.0000e+00
       13  1    1    2    0    0 +6.7055877166e+00 +1.3610097564e+01 +8.2131590622e+00 1.7253023160e+01 1.0566000000e-01 0.0000e+00 1.0000e+00
      994  1    1    2    0    0 -3.5999958585e+01 +4.0249517145e+00 +1.9166672962e+01 1.3726091434e+02 1.3100000000e+02 0.0000e+00 0.0000e+00
      997  1    1    2    0    0 +2.9294370868e+01 -1.7635049279e+01 +4.7262015681e+02 4.7648606250e+02 5.0000000000e+01 0.0000e+00 0.0000e+00
</event>
<event>
 5      1 +5.6267200e-07 2.07337600e+02 7.95774700e-02 4.90906000e-01
       13 -1    0    0    0    0 +0.0000000000e+00 +0.0000000000e+00 +4.9999998884e+02 5.0000000000e+02 1.0566000000e-01 0.0000e+00 -1.0000e+00
      994 -1    0    0    0    0 -0.0000000000e+00 -0.0000000000e+00 +0.0000000000e+00 1.3100000000e+02 1.3100000000e+02 0.0000e+00 0.0000e+00
       13  1    1    2    0    0 +1.4136054052e+01 -5.1551210049e+00 +3.6639706879e+01 3.9609122447e+01 1.0566000000e-01 0.0000e+00 1.0000e+00
      994  1    1    2    0    0 -3.7179213246e+00 +7.9302121435e+00 +6.2641183983e+00 1.3144181368e+02 1.3100000000e+02 0.0000e+00 0.0000e+00
      997  1    1    2    0    0 -1.0418132728e+01 -2.7750911385e+00 +4.5709616356e+02 4.5994906388e+02 5.0000000000e+01 0.0000e+00 0.0000e+00
</event>
<event>
 5      1 +5.6267200e-07 2.06079700e+02 7.95774700e-02 4.93058000e-01
       13 -1    0    0    0    0 +0.0000000000e+00 +0.0000000000e+00 +4.9999998884e+02 5.0000000000e+02 1.0566000000e-01 0.0000e+00 1.0000e+00
      994 -1    0    0    0    0 -0.0000000000e+00 -0.0000000000e+00 +0.0000000000e+00 1.3100000000e+02 1.3100000000e+02 0.0000e+00 0.0000e+00
       13  1    1    2    0    0 -4.7621409340e+00 +1.2859778975e+01 +2.1489163167e+01 2.5492100722e+01 1.0566000000e-01 0.0000e+00 -1.0000e+00
      994  1    1    2    0    0 +4.7067136863e+00 -2.7631347120e+00 +7.0578646934e+00 1.3130347109e+02 1.3100000000e+02 0.0000e+00 0.0000e+00
      997  1    1    2    0    0 +5.5427247766e-02 -1.0096644263e+01 +4.7145296098e+02 4.7420442818e+02 5.0000000000e+01 0.0000e+00 0.0000e+00
</event>
<event>
 5      1 +5.6267200e-07 2.07500400e+02 7.95774700e-02 4.90629800e-01
       13 -1    0    0    0    0 +0.0000000000e+00 +0.0000000000e+00 +4.9999998884e+02 5.0000000000e+02 1.0566000000e-01 0.0000e+00 1.0000e+00
      994 -1    0    0    0    0 -0.0000000000e+00 -0.0000000000e+00 +0.0000000000e+00 1.3100000000e+02 1.3100000000e+02 0.0000e+00 0.0000e+00
       13  1    1    2    0    0 -7.5064159370e+00 +1.0624944302e+01 +2.8324367189e+01 3.1169162041e+01 1.0566000000e-01 0.0000e+00 -1.0000e+00
      994  1    1    2    0    0 -5.4594752624e+00 -7.8224711694e+00 +6.2037116307e+00 1.3149328106e+02 1.3100000000e+02 0.0000e+00 0.0000e+00
      997  1    1    2    0    0 +1.2965891199e+01 -2.8024731322e+00 +4.6547191002e+02 4.6833755690e+02 5.0000000000e+01 0.0000e+00 0.0000e+00
</event>
<event>
 5      1 +5.6267200e-07 2.08982500e+02 7.95774700e-02 4.88141400e-01
       13 -1    0    0    0    0 +0.0000000000e+00 +0.0000000000e+00 +4.9999998884e+02 5.0000000000e+02 1.0566000000e-01 0.0000e+00 1.0000e+00
      994 -1    0    0    0    0 -0.0000000000e+00 -0.0000000000e+00 +0.0000000000e+00 1.3100000000e+02 1.3100000000e+02 0.0000e+00 0.0000e+00
       13  1    1    2    0    0 +1.2910014525e+01 +2.7280023494e+00 +4.8348812646e+01 5.0117155946e+01 1.0566000000e-01 0.0000e+00 -1.0000e+00
      994  1    1    2    0    0 -1.0147724074e+01 -1.1476213817e+00 +5.0649406965e+00 1.3149504539e+02 1.3100000000e+02 0.0000e+00 0.0000e+00
      997  1    1    2    0    0 -2.7622904512e+00 -1.5803809677e+00 +4.4658623549e+02 4.4938779866e+02 5.0000000000e+01 0.0000e+00 0.0000e+00
</event>
<event>
 5      1 +5.6267200e-07 2.02179700e+02 7.95774700e-02 4.99950000e-01
       13 -1    0    0    0    0 +0.0000000000e+00 +0.0000000000e+00 +4.9999998884e+02 5.0000000000e+02 1.0566000000e-01 0.0000e+00 1.0000e+00
      994 -1    0    0    0    0 -0.0000000000e+00 -0.0000000000e+00 +0.0000000000e+00 1.3100000000e+02 1.3100000000e+02 0.0000e+00 0.0000e+00
       13  1    1    2    0    0 -9.2462786781e+00 -1.6095762891e+01 +1.7019861711e+01 2.5184402100e+01 1.0566000000e-01 0.0000e+00 -1.0000e+00
      994  1    1    2    0    0 +3.5456936017e+01 +1.8848706620e+01 +1.8908635946e+01 1.3831487471e+02 1.3100000000e+02 0.0000e+00 0.0000e+00
      997  1    1    2    0    0 -2.6210657339e+01 -2.7529437293e+00 +4.6407149118e+02 4.6750072319e+02 5.0000000000e+01 0.0000e+00 0.0000e+00
</event>
<event>
 5      1 +5.6267200e-07 2.08720400e+02 7.95774700e-02 4.88578200e-01
       13 -1    0    0    0    0 +0.0000000000e+00 +0.0000000000e+00 +4.9999998884e+02 5.0000000000e+02 1.0566000000e-01 0.0000e+00 1.0000e+00
      994 -1    0    0    0    0 -0.0000000000e+00 -0.0000000000e+00 +0.0000000000e+00 1.3100000000e+02 1.3100000000e+02 0.0000e+00 0.0000e+00
       13  1    1    2    0    0 +1.9002845008e+01 +4.0083920078e+00 +7.6596129309e+01 7.9019956429e+01 1.0566000000e-01 0.0000e+00 -1.0000e+00
      994  1    1    2    0    0 -2.6661292877e+01 -1.3869856945e+01 +9.3463485701e+00 1.3472769463e+02 1.3100000000e+02 0.0000e+00 0.0000e+00
      997  1    1    2    0    0 +7.6584478688e+00 +9.8614649376e+00 +4.1405751096e+02 4.1725234894e+02 5.0000000000e+01 0.0000e+00 0.0000e+00
</event>
<event>
 5      1 +5.6267200e-07 2.00116300e+02 7.95774700e-02 5.03737200e-01
       13 -1    0    0    0    0 +0.0000000000e+00 +0.0000000000e+00 +4.9999998884e+02 5.0000000000e+02 1.0566000000e-01 0.0000e+00 -1.0000e+00
      994 -1    0    0    0    0 -0.0000000000e+00 -0.0000000000e+00 +0.0000000000e+00 1.3100000000e+02 1.3100000000e+02 0.0000e+00 0.0000e+00
       13  1    1    2    0    0 +1.3004219610e+01 +7.6635452368e+00 +9.9232666921e+00 1.8064385933e+01 1.0566000000e-01 0.0000e+00 1.0000e+00
      994  1    1    2    0    0 +3.6086982888e+01 -2.8038132737e+01 +2.3538404505e+01 1.4072478001e+02 1.3100000000e+02 0.0000e+00 0.0000e+00
      997  1    1    2    0    0 -4.9091202497e+01 +2.0374587500e+01 +4.6653831764e+02 4.7221083406e+02 5.0000000000e+01 0.0000e+00 0.0000e+00
</event>
<event>
 5      1 +5.6267200e-07 1.97393800e+02 7.95774700e-02 5.08892400e-01
       13 -1    0    0    0    0 +0.0000000000e+00 +0.0000000000e+00 +4.9999998884e+02 5.0000000000e+02 1.0566000000e-01 0.0000e+00 1.0000e+00
      994 -1    0    0    0    0 -0.0000000000e+00 -0.0000000000e+00 +0.0000000000e+00 1.3100000000e+02 1.3100000000e+02 0.0000e+00 0.0000e+00
       13  1    1    2    0    0 -1.7120121756e+01 -9.7861136592e+00 +1.2946748343e+01 2.3590168422e+01 1.0566000000e-01 0.0000e+00 -1.0000e+00
      994  1    1    2    0    0 +1.6079138060e+01 -2.5107953632e+01 +1.9336486029e+01 1.3573447502e+02 1.3100000000e+02 0.0000e+00 0.0000e+00
      997  1    1    2    0    0 +1.0409836963e+00 +3.4894067291e+01 +4.6771675446e+02 4.7167535656e+02 5.0000000000e+01 0.0000e+00 0.0000e+00
</event>
<event>
 5      1 +5.6267200e-07 2.04478300e+02 7.95774700e-02 4.95847000e-01
       13 -1    0    0    0    0 +0.0000000000e+00 +0.0000000000e+00 +4.9999998884e+02 5.0000000000e+02 1.0566000000e-01 0.0000e+00 1.0000e+00
      994 -1    0    0    0    0 -0.0000000000e+00 -0.0000000000e+00 +0.0000000000e+00 1.3100000000e+02 1.3100000000e+02 0.0000e+00 0.0000e+00
       13  1    1    2    0    0 -7.0322570576e+00 +1.0288545076e+01 +1.4296558756e+01 1.8966010529e+01 1.0566000000e-01 0.0000e+00 -1.0000e+00
      994  1    1    2    0    0 -4.9163218336e+01 -7.7466883531e+00 +2.1507813734e+01 1.4177665276e+02 1.3100000000e+02 0.0000e+00 0.0000e+00
      997  1    1    2    0    0 +5.6195475394e+01 -2.5418567227e+00 +4.6419561635e+02 4.7025733671e+02 5.0000000000e+01 0.0000e+00 0.0000e+00
</event>
<event>
 5      1 +5.6267200e-07 2.08609000e+02 7.95774700e-02 4.88764300e-01
       13 -1    0    0    0    0 +0.0000000000e+00 +0.0000000000e+00 +4.9999998884e+02 5.0000000000e+02 1.0566000000e-01 0.0000e+00 1.0000e+00
      994 -1    0    0    0    0 -0.0000000000e+00 -0.0000000000e+00 +0.0000000000e+00 1.3100000000e+02 1.3100000000e+02 0.0000e+00 0.0000e+00
       13  1    1    2    0    0 -9.4851221289e+00 +9.3966056152e+00 +3.9632629342e+01 4.1821288974e+01 1.0566000000e-01 0.0000e+00 -1.0000e+00
      994  1    1    2    0    0 +1.8405293139e+01 -5.4566765448e-01 +6.5579140628e+00 1.3245021255e+02 1.3100000000e+02 0.0000e+00 0.0000e+00
      997  1    1    2    0    0 -8.9201710100e+00 -8.8509379607e+00 +4.5380944543e+02 4.5672849847e+02 5.0000000000e+01 0.0000e+00 0.0000e+00
</event>
<event>
 5      1 +5.6267200e-07 2.08899600e+02 7.95774700e-02 4.88279300e-01
       13 -1    0    0    0    0 +0.0000000000e+00 +0.0000000000e+00 +4.9999998884e+02 5.0000000000e+02 1.0566000000e-01 0.0000e+00 -1.0000e+00
      994 -1    0    0    0    0 -0.0000000000e+00 -0.0000000000e+00 +0.0000000000e+00 1.3100000000e+02 1.3100000000e+02 0.0000e+00 0.0000e+00
       13  1    1    2    0    0 -8.0856802521e+00 +1.2704480467e+01 +5.7137816177e+01 5.9089112792e+01 1.0566000000e-01 0.0000e+00 1.0000e+00
      994  1    1    2    0    0 -3.9002583955e+00 -2.2980496904e+01 +7.3571401315e+00 1.3326080731e+02 1.3100000000e+02 0.0000e+00 0.0000e+00
      997  1    1    2    0    0 +1.1985938648e+01 +1.0276016436e+01 +4.3550503253e+02 4.3865007990e+02 5.0000000000e+01 0.0000e+00 0.0000e+00
</event>
<event>
 5      1 +5.6267200e-07 2.01218700e+02 7.95774700e-02 5.01701300e-01
       13 -1    0    0    0    0 +0.0000000000e+00 +0.0000000000e+00 +4.9999998884e+02 5.0000000000e+02 1.0566000000e-01 0.0000e+00 1.0000e+00
      994 -1    0    0    0    0 -0.0000000000e+00 -0.0000000000e+00 +0.0000000000e+00 1.3100000000e+02 1.3100000000e+02 0.0000e+00 0.0000e+00
       13  1    1    2    0    0 -1.8881024840e+01 +2.2759590233e+01 +1.7125640259e+01 3.4172953705e+01 1.0566000000e-01 0.0000e+00 -1.0000e+00
      994  1    1    2    0    0 +8.4516093107e+01 -9.1742477168e+01 +1.1689349890e+02 2.1537117309e+02 1.3100000000e+02 0.0000e+00 0.0000e+00
      997  1    1    2    0    0 -6.5635068266e+01 +6.8982886935e+01 +3.6598084968e+02 3.8145587321e+02 5.0000000000e+01 0.0000e+00 0.0000e+00
</event>
<event>
 5      1 +5.6267200e-07 1.65857200e+02 7.95774700e-02 5.86116700e-01
       13 -1    0    0    0    0 +0.0000000000e+00 +0.0000000000e+00 +4.9999998884e+02 5.0000000000e+02 1.0566000000e-01 0.0000e+00 1.0000e+00
      994 -1    0    0    0    0 -0.0000000000e+00 -0.0000000000e+00 +0.0000000000e+00 1.3100000000e+02 1.3100000000e+02 0.0000e+00 0.0000e+00
       13  1    1    2    0    0 -5.2962198685e+01 -6.0402017008e+01 +2.4144385297e+02 2.5445735094e+02 1.0566000000e-01 0.0000e+00 -1.0000e+00
      994  1    1    2    0    0 +4.1596936744e+01 -1.4505060554e+01 +4.6412912676e+01 1.4579389696e+02 1.3100000000e+02 0.0000e+00 0.0000e+00
      997  1    1    2    0    0 +1.1365261941e+01 +7.4907077562e+01 +2.1214322319e+02 2.3074875210e+02 5.0000000000e+01 0.0000e+00 0.0000e+00
</event>
<event>
 5      1 +5.6267200e-07 2.08814500e+02 7.95774700e-02 4.88421200e-01
       13 -1    0    0    0    0 +0.0000000000e+00 +0.0000000000e+00 +4.9999998884e+02 5.0000000000e+02 1.0566000000e-01 0.0000e+00 1.0000e+00
      994 -1    0    0    0    0 -0.0000000000e+00 -0.0000000000e+00 +0.0000000000e+00 1.3100000000e+02 1.3100000000e+02 0.0000e+00 0.0000e+00
       13  1    1    2    0    0 +9.4697739425e+00 -1.9079228855e+01 +9.2065052675e+01 9.4496977096e+01 1.0566000000e-01 0.0000e+00 -1.0000e+00
      994  1    1    2    0    0 -3.2167831036e-01 +3.8202930789e+01 +1.2136252929e+01 1.3699582487e+02 1.3100000000e+02 0.0000e+00 0.0000e+00
      997  1    1    2    0    0 -9.1480956321e+00 -1.9123701934e+01 +3.9579868323e+02 3.9950719803e+02 5.0000000000e+01 0.0000e+00 0.0000e+00
</event>
<event>
 5      1 +5.6267200e-07 2.06815000e+02 7.95774700e-02 4.91795900e-01
       13 -1    0    0    0    0 +0.0000000000e+00 +0.0000000000e+00 +4.9999998884e+02 5.0000000000e+02 1.0566000000e-01 0.0000e+00 1.0000e+00
      994 -1    0    0    0    0 -0.0000000000e+00 -0.0000000000e+00 +0.0000000000e+00 1.3100000000e+02 1.3100000000e+02 0.0000e+00 0.0000e+00
       13  1    1    2    0    0 -2.5762815014e+01 -1.9504150405e+01 +1.0583000928e+02 1.1065322656e+02 1.0566000000e-01 0.0000e+00 -1.0000e+00
      994  1    1    2    0    0 +3.0003997529e+01 +3.5263946527e+01 +1.7519659284e+01 1.4004186608e+02 1.3100000000e+02 0.0000e+00 0.0000e+00
      997  1    1    2    0    0 -4.2411825145e+00 -1.5759796123e+01 +3.7665032027e+02 3.8030490736e+02 5.0000000000e+01 0.0000e+00 0.0000e+00
</event>
<event>
 5      1 +5.6267200e-07 2.07382300e+02 7.95774700e-02 4.90830100e-01
       13 -1    0    0    0    0 +0.0000000000e+00 +0.0000000000e+00 +4.9999998884e+02 5.0000000000e+02 1.0566000000e-01 0.0000e+00 -1.0000e+00
      994 -1    0    0    0    0 -0.0000000000e+00 -0.0000000000e+00 +0.0000000000e+00 1.3100000000e+02 1.3100000000e+02 0.0000e+00 0.0000e+00
       13  1    1    2    0    0 -4.2656340124e+00 -1.1721186229e+01 +2.4347869006e+01 2.7357114784e+01 1.0566000000e-01 0.0000e+00 1.0000e+00
      994  1    1    2    0    0 -2.0449687433e+01 +1.2998370444e+01 +8.8468146950e+00 1.3351559265e+02 1.3100000000e+02 0.0000e+00 0.0000e+00
      997  1    1    2    0    0 +2.4715321445e+01 -1.2771842153e+00 +4.6680530514e+02 4.7012729257e+02 5.0000000000e+01 0.0000e+00 0.0000e+00
</event>
<event>
 5      1 +5.6267200e-07 2.02809500e+02 7.95774700e-02 4.98813900e-01
       13 -1    0    0    0    0 +0.0000000000e+00 +0.0000000000e+00 +4.9999998884e+02 5.0000000000e+02 1.0566000000e-01 0.0000e+00 -1.0000e+00
      994 -1    0    0    0    0 -0.0000000000e+00 -0.0000000000e+00 +0.0000000000e+00 1.3100000000e+02 1.3100000000e+02 0.0000e+00 0.0000e+00
       13  1    1    2    0    0 +1.4921501525e+01 -1.3585632053e+01 -3.3041888865e+00 2.0448702508e+01 1.0566000000e-01 0.0000e+00 1.0000e+00
      994  1    1    2    0    0 -1.9874494167e+01 +3.7526315993e+00 +3.1849531191e+01 1.3632487080e+02 1.3100000000e+02 0.0000e+00 0.0000e+00
      997  1    1    2    0    0 +4.9529926422e+00 +9.8330004535e+00 +4.7145464653e+02 4.7422642669e+02 5.0000000000e+01 0.0000e+00 0.0000e+00
</event>
<event>
 5      1 +5.6267200e-07 1.92932000e+02 7.95774700e-02 5.17757200e-01
       13 -1    0    0    0    0 +0.0000000000e+00 +0.0000000000e+00 +4.9999998884e+02 5.0000000000e+02 1.0566000000e-01 0.0000e+00 -1.0000e+00
      994 -1    0    0    0    0 -0.0000000000e+00 -0.0000000000e+00 +0.0000000000e+00 1.3100000000e+02 1.3100000000e+02 0.0000e+00 0.0000e+00
       13  1    1    2    0    0 +1.2855507237e+01 -1.6825851848e+01 +6.0955154272e+00 2.2034968325e+01 1.0566000000e-01 0.0000e+00 1.0000e+00
      994  1    1    2    0    0 +1.4292015984e+00 +2.9832457522e+01 +2.4582319392e+01 1.3659175878e+02 1.3100000000e+02 0.0000e+00 0.0000e+00
      997  1    1    2    0    0 -1.4284708835e+01 -1.3006605674e+01 +4.6932215402e+02 4.7237327290e+02 5.0000000000e+01 0.0000e+00 0.0000e+00
</event>
<event>
 5      1 +5.6267200e-07 2.07276200e+02 7.95774700e-02 4.91010100e-01
       13 -1    0    0    0    0 +0.0000000000e+00 +0.0000000000e+00 +4.9999998884e+02 5.0000000000e+02 1.0566000000e-01 0.0000e+00 -1.0000e+00
      994 -1    0    0    0    0 -0.0000000000e+00 -0.0000000000e+00 +0.0000000000e+00 1.3100000000e+02 1.3100000000e+02 0.0000e+00 0.0000e+00
       13  1    1    2    0    0 -9.5398991755e+00 +1.3655869032e+01 +5.3313811788e+01 5.5855761804e+01 1.0566000000e-01 0.0000e+00 1.0000e+00
      994  1    1    2    0    0 +6.6173097320e+00 +7.7589817584e+00 +6.4538178974e+00 1.3155471239e+02 1.3100000000e+02 0.0000e+00 0.0000e+00
      997  1    1    2    0    0 +2.9225894435e+00 -2.1414850790e+01 +4.4023235915e+02 4.4358952581e+02 5.0000000000e+01 0.0000e+00 0.0000e+00
</event>
<event>
 5      1 +5.6267200e-07 2.07158300e+02 7.95774700e-02 4.91210700e-01
       13 -1    0    0    0    0 +0.0000000000e+00 +0.0000000000e+00 +4.9999998884e+02 5.0000000000e+02 1.0566000000e-01 0.0000e+00 1.0000e+00
      994 -1    0    0    0    0 -0.0000000000e+00 -0.0000000000e+00 +0.0000000000e+00 1.3100000000e+02 1.3100000000e+02 0.0000e+00 0.0000e+00
       13  1    1    2    0    0 +1.2184699714e+00 -1.5628965132e+01 +3.6787235573e+01 3.9988261844e+01 1.0566000000e-01 0.0000e+00 -1.0000e+00
      994  1    1    2    0    0 +1.3754771390e+01 +1.0804509615e+01 +7.5862206042e+00 1.3238006612e+02 1.3100000000e+02 0.0000e+00 0.0000e+00
      997  1    1    2    0    0 -1.4973241362e+01 +4.8244555165e+00 +4.5562653266e+02 4.5863167203e+02 5.0000000000e+01 0.0000e+00 0.0000e+00
</event>
<event>
 5      1 +5.6267200e-07 2.09158000e+02 7.95774700e-02 4.87849800e-01
       13 -1    0    0    0    0 +0.0000000000e+00 +0.0000000000e+00 +4.9999998884e+02 5.0000000000e+02 1.0566000000e-01 0.0000e+00 -1.0000e+00
      994 -1    0    0    0    0 -0.0000000000e+00 -0.0000000000e+00 +0.0000000000e+00 1.3100000000e+02 1.3100000000e+02 0.0000e+00 0.0000e+00
       13  1    1    2    0    0 -1.0921956988e+01 +1.1174009431e+01 +9.3770561975e+01 9.5063542373e+01 1.0566000000e-01 0.0000e+00 1.0000e+00
      994  1    1    2    0    0 +1.4576956664e+01 -8.8840234052e-01 +5.4725900474e+00 1.3192507785e+02 1.3100000000e+02 0.0000e+00 0.0000e+00
      997  1    1    2    0    0 -3.6549996762e+00 -1.0285607091e+01 +4.0075683681e+02 4.0401137978e+02 5.0000000000e+01 0.0000e+00 0.0000e+00
</event>
<event>
 5      1 +5.6267200e-07 2.06797800e+02 7.95774700e-02 4.91825300e-01
       13 -1    0    0    0    0 +0.0000000000e+00 +0.0000000000e+00 +4.9999998884e+02 5.0000000000e+02 1.0566000000e-01 0.0000e+00 1.0000e+00
      994 -1    0    0    0    0 -0.0000000000e+00 -0.0000000000e+00 +0.0000000000e+00 1.3100000000e+02 1.3100000000e+02 0.0000e+00 0.0000e+00
       13  1    1    2    0    0 -1.4801459885e+01 +1.5895054171e+01 +6.4755009926e+01 6.8300500996e+01 1.0566000000e-01 0.0000e+00 -1.0000e+00
      994  1    1    2    0    0 +1.2846519481e+01 -1.1738254800e+01 +7.8697542088e+00 1.3238486590e+02 1.3100000000e+02 0.0000e+00 0.0000e+00
      997  1    1    2    0    0 +1.9549404038e+00 -4.1567993711e+00 +4.2737522470e+02 4.3031463310e+02 5.0000000000e+01 0.0000e+00 0.0000e+00
</event>
<event>
 5      1 +5.6267200e-07 2.00868700e+02 7.95774700e-02 5.02344400e-01
       13 -1    0    0    0    0 +0.0000000000e+00 +0.0000000000e+00 +4.9999998884e+02 5.0000000000e+02 1.0566000000e-01 0.0000e+00 1.0000e+00
      994 -1    0    0    0    0 -0.0000000000e+00 -0.0000000000e+00 +0.0000000000e+00 1.3100000000e+02 1.3100000000e+02 0.0000e+00 0.0000e+00
       13  1    1    2    0    0 -1.1845021008e+01 -1.3108401020e+01 +1.4517093502e+01 2.2866828984e+01 1.0566000000e-01 0.0000e+00 -1.0000e+00
      994  1    1    2    0    0 +1.6619519671e+01 +2.4564210143e+00 +1.2824334797e+01 1.3269403152e+02 1.3100000000e+02 0.0000e+00 0.0000e+00
      997  1    1    2    0    0 -4.7744986632e+00 +1.0651980006e+01 +4.7265856054e+02 4.7543913950e+02 5.0000000000e+01 0.0000e+00 0.0000e+00
</event>
<event>
 5      1 +5.6267200e-07 1.98420300e+02 7.95774700e-02 5.06927000e-01
       13 -1    0    0    0    0 +0.0000000000e+00 +0.0000000000e+00 +4.9999998884e+02 5.0000000000e+02 1.0566000000e-01 0.0000e+00 1.0000e+00
      994 -1    0    0    0    0 -0.0000000000e+00 -0.0000000000e+00 +0.0000000000e+00 1.3100000000e+02 1.3100000000e+02 0.0000e+00 0.0000e+00
       13  1    1    2    0    0 -2.7236990893e+00 +2.0721944687e+01 +1.3554105765e+01 2.4910689984e+01 1.0566000000e-01 0.0000e+00 -1.0000e+00
      994  1    1    2    0    0 +1.0017572701e+01 -3.5400762424e+01 +2.1000659312e+01 1.3767931375e+02 1.3100000000e+02 0.0000e+00 0.0000e+00
      997  1    1    2    0    0 -7.2938736120e+00 +1.4678817738e+01 +4.6544522376e+02 4.6840999627e+02 5.0000000000e+01 0.0000e+00 0.0000e+00
</event>
<event>
 5      1 +5.6267200e-07 2.05609700e+02 7.95774700e-02 4.93870900e-01
       13 -1    0    0    0    0 +0.0000000000e+00 +0.0000000000e+00 +4.9999998884e+02 5.0000000000e+02 1.0566000000e-01 0.0000e+00 -1.0000e+00
      994 -1    0    0    0    0 -0.0000000000e+00 -0.0000000000e+00 +0.0000000000e+00 1.3100000000e+02 1.3100000000e+02 0.0000e+00 0.0000e+00
       13  1    1    2    0    0 +2.0634475997e+01 -5.6835628353e+01 +2.8084411137e+02 2.8727947421e+02 1.0566000000e-01 0.0000e+00 1.0000e+00
      994  1    1    2    0    0 -3.0024068953e+01 +7.3702641019e+01 +4.2426412777e+01 1.5904252422e+02 1.3100000000e+02 0.0000e+00 0.0000e+00
      997  1    1    2    0    0 +9.3895929558e+00 -1.6867012666e+01 +1.7672946469e+02 1.8467800157e+02 5.0000000000e+01 0.0000e+00 0.0000e+00
</event>
<event>
 5      1 +5.6267200e-07 1.94679400e+02 7.95774700e-02 5.14221500e-01
       13 -1    0    0    0    0 +0.0000000000e+00 +0.0000000000e+00 +4.9999998884e+02 5.0000000000e+02 1.0566000000e-01 0.0000e+00 1.0000e+00
      994 -1    0    0    0    0 -0.0000000000e+00 -0.0000000000e+00 +0.0000000000e+00 1.3100000000e+02 1.3100000000e+02 0.0000e+00 0.0000e+00
       13  1    1    2    0    0 -2.3624518381e+01 +5.0506363641e+01 +1.8722132029e+02 1.9534800888e+02 1.0566000000e-01 0.0000e+00 -1.0000e+00
      994  1    1    2    0    0 +4.0691235572e+01 +2.1094690128e+01 +3.3824181823e+01 1.4284900378e+02 1.3100000000e+02 0.0000e+00 0.0000e+00
      997  1    1    2    0    0 -1.7066717190e+01 -7.1601053769e+01 +2.7895448672e+02 2.9280298735e+02 5.0000000000e+01 0.0000e+00 0.0000e+00
</event>
<event>
 5      1 +5.6267200e-07 2.03402500e+02 7.95774700e-02 4.97752500e-01
       13 -1    0    0    0    0 +0.0000000000e+00 +0.0000000000e+00 +4.9999998884e+02 5.0000000000e+02 1.0566000000e-01 0.0000e+00 1.0000e+00
      994 -1    0    0    0    0 -0.0000000000e+00 -0.0000000000e+00 +0.0000000000e+00 1.3100000000e+02 1.3100000000e+02 0.0000e+00 0.0000e+00
       13  1    1    2    0    0 +5.7520922747e+00 +1.5644560419e+01 +1.7788770672e+01 2.4378071341e+01 1.0566000000e-01 0.0000e+00 -1.0000e+00
      994  1    1    2    0    0 -1.7955725052e+01 -1.4313009027e+01 +1.1930393966e+01 1.3353128693e+02 1.3100000000e+02 0.0000e+00 0.0000e+00
      997  1    1    2    0    0 +1.2203632778e+01 -1.3315513917e+00 +4.7028082420e+02 4.7309064173e+02 5.0000000000e+01 0.0000e+00 0.0000e+00
</event>
<event>
 5      1 +5.6267200e-07 1.96834800e+02 7.95774700e-02 5.09974100e-01
       13 -1    0    0    0    0 +0.0000000000e+00 +0.0000000000e+00 +4.9999998884e+02 5.0000000000e+02 1.0566000000e-01 0.0000e+00 -1.0000e+00
      994 -1    0    0    0    0 -0.0000000000e+00 -0.0000000000e+00 +0.0000000000e+00 1.3100000000e+02 1.3100000000e+02 0.0000e+00 0.0000e+00
       13  1    1    2    0    0 +1.3566094498e+01 +4.2385111753e+01 +3.9420728496e+01 5.9452011046e+01 1.0566000000e-01 0.0000e+00 1.0000e+00
      994  1    1    2    0    0 -2.9668858730e+01 -3.0683907272e+01 +3.4430842342e+01 1.4201488038e+02 1.3100000000e+02 0.0000e+00 0.0000e+00
      997  1    1    2    0    0 +1.6102764231e+01 -1.1701204481e+01 +4.2614841800e+02 4.2953310858e+02 5.0000000000e+01 0.0000e+00 0.0000e+00
</event>
<event>
 5      1 +5.6267200e-07 2.08867500e+02 7.95774700e-02 4.88332800e-01
       13 -1    0    0    0    0 +0.0000000000e+00 +0.0000000000e+00 +4.9999998884e+02 5.0000000000e+02 1.0566000000e-01 0.0000e+00 -1.0000e+00
      994 -1    0    0    0    0 -0.0000000000e+00 -0.0000000000e+00 +0.0000000000e+00 1.3100000000e+02 1.3100000000e+02 0.0000e+00 0.0000e+00
       13  1    1    2    0    0 -7.6380229968e+00 -9.8838523181e+00 +3.4617207985e+01 3.6802067668e+01 1.0566000000e-01 0.0000e+00 1.0000e+00
      994  1    1    2    0    0 -3.2616517601e+00 +2.8670153370e+01 +8.8606901763e+00 1.3443261471e+02 1.3100000000e+02 0.0000e+00 0.0000e+00
      997  1    1    2    0    0 +1.0899674757e+01 -1.8786301052e+01 +4.5652209067e+02 4.5976531763e+02 5.0000000000e+01 0.0000e+00 0.0000e+00
</event>
<event>
 5      1 +5.6267200e-07 2.09025600e+02 7.95774700e-02 4.88069700e-01
       13 -1    0    0    0    0 +0.0000000000e+00 +0.0000000000e+00 +4.9999998884e+02 5.0000000000e+02 1.0566000000e-01 0.0000e+00 1.0000e+00
      994 -1    0    0    0    0 -0.0000000000e+00 -0.0000000000e+00 +0.0000000000e+00 1.3100000000e+02 1.3100000000e+02 0.0000e+00 0.0000e+00
       13  1    1    2    0    0 +3.0264635900e+00 +1.2465602705e+01 +5.2505041040e+01 5.4049433219e+01 1.0566000000e-01 0.0000e+00 -1.0000e+00
      994  1    1    2    0    0 -1.2687359931e+01 -1.6525570505e+00 +5.3297772218e+00 1.3173119058e+02 1.3100000000e+02 0.0000e+00 0.0000e+00
      997  1    1    2    0    0 +9.6608963411e+00 -1.0813045654e+01 +4.4216517057e+02 4.4521937620e+02 5.0000000000e+01 0.0000e+00 0.0000e+00
</event>
<event>
 5      1 +5.6267200e-07 1.58888900e+02 7.95774700e-02 6.09305800e-01
       13 -1    0    0    0    0 +0.0000000000e+00 +0.0000000000e+00 +4.9999998884e+02 5.0000000000e+02 1.0566000000e-01 0.0000e+00 -1.0000e+00
      994 -1    0    0    0    0 -0.0000000000e+00 -0.0000000000e+00 +0.0000000000e+00 1.3100000000e+02 1.3100000000e+02 0.0000e+00 0.0000e+00
       13  1    1    2    0    0 +8.2185229800e+01 -6.8305924004e+01 +1.0212950307e+02 1.4781934181e+02 1.0566000000e-01 0.0000e+00 1.0000e+00
      994  1    1    2    0    0 -3.0808549481e+01 +2.5183751480e+00 +3.4949459162e+02 3.7451699361e+02 1.3100000000e+02 0.0000e+00 0.0000e+00
      997  1    1    2    0    0 -5.1376680319e+01 +6.5787548856e+01 +4.8375894148e+01 1.0866366458e+02 5.0000000000e+01 0.0000e+00 0.0000e+00
</event>
<event>
 5      1 +5.6267200e-07 2.08789800e+02 7.95774700e-02 4.88462400e-01
       13 -1    0    0    0    0 +0.0000000000e+00 +0.0000000000e+00 +4.9999998884e+02 5.0000000000e+02 1.0566000000e-01 0.0000e+00 1.0000e+00
      994 -1    0    0    0    0 -0.0000000000e+00 -0.0000000000e+00 +0.0000000000e+00 1.3100000000e+02 1.3100000000e+02 0.0000e+00 0.0000e+00
       13  1    1    2    0    0 -1.1650742546e+01 +9.9117449470e+00 +4.8940658354e+01 5.1275546744e+01 1.0566000000e-01 0.0000e+00 -1.0000e+00
      994  1    1    2    0    0 +8.8041036713e+00 -2.8652718494e+01 +9.2636538954e+00 1.3470451292e+02 1.3100000000e+02 0.0000e+00 0.0000e+00
      997  1    1    2    0    0 +2.8466388745e+00 +1.8740973547e+01 +4.4179567659e+02 4.4501994033e+02 5.0000000000e+01 0.0000e+00 0.0000e+00
</event>
<event>
 5      1 +5.6267200e-07 2.02561600e+02 7.95774700e-02 4.99259800e-01
       13 -1    0    0    0    0 +0.0000000000e+00 +0.0000000000e+00 +4.9999998884e+02 5.0000000000e+02 1.0566000000e-01 0.0000e+00 1.0000e+00
      994 -1    0    0    0    0 -0.0000000000e+00 -0.0000000000e+00 +0.0000000000e+00 1.3100000000e+02 1.3100000000e+02 0.0000e+00 0.0000e+00
       13  1    1    2    0    0 -1.9556047372e+01 -1.1487241771e+01 +3.1912726752e+01 3.9151360195e+01 1.0566000000e-01 0.0000e+00 -1.0000e+00
      994  1    1    2    0    0 +8.8029784346e+00 +2.6919328316e+01 +1.4141786171e+01 1.3477066737e+02 1.3100000000e+02 0.0000e+00 0.0000e+00
      997  1    1    2    0    0 +1.0753068938e+01 -1.5432086545e+01 +4.5394547591e+02 4.5707797244e+02 5.0000000000e+01 0.0000e+00 0.0000e+00
</event>
<event>
 5      1 +5.6267200e-07 1.58431400e+02 7.95774700e-02 6.10936200e-01
       13 -1    0    0    0    0 +0.0000000000e+00 +0.0000000000e+00 +4.9999998884e+02 5.0000000000e+02 1.0566000000e-01 0.0000e+00 -1.0000e+00
      994 -1    0    0    0    0 -0.0000000000e+00 -0.0000000000e+00 +0.0000000000e+00 1.3100000000e+02 1.3100000000e+02 0.0000e+00 0.0000e+00
       13  1    1    2    0    0 -3.6713455347e+01 +7.2042596473e+01 +6.3900564603e+01 1.0305972458e+02 1.0566000000e-01 0.0000e+00 1.0000e+00
      994  1    1    2    0    0 +1.0015301890e+02 -5.8472205656e+01 +1.5035543133e+02 2.3068892856e+02 1.3100000000e+02 0.0000e+00 0.0000e+00
      997  1    1    2    0    0 -6.3439563551e+01 -1.3570390817e+01 +2.8574399290e+02 2.9725134686e+02 5.0000000000e+01 0.0000e+00 0.0000e+00
</event>
<event>
 5      1 +5.6267200e-07 2.08155500e+02 7.95774700e-02 4.89524300e-01
       13 -1    0    0    0    0 +0.0000000000e+00 +0.0000000000e+00 +4.9999998884e+02 5.0000000000e+02 1.0566000000e-01 0.0000e+00 -1.0000e+00
      994 -1    0    0    0    0 -0.0000000000e+00 -0.0000000000e+00 +0.0000000000e+00 1.3100000000e+02 1.3100000000e+02 0.0000e+00 0.0000e+00
       13  1    1    2    0    0 -8.7225854419e+00 +1.5076074391e+01 +8.7322633656e+01 8.9042826934e+01 1.0566000000e-01 0.0000e+00 1.0000e+00
      994  1    1    2    0    0 +7.3224740969e+00 +2.7526792585e+00 +5.5176887877e+00 1.3134930818e+02 1.3100000000e+02 0.0000e+00 0.0000e+00
      997  1    1    2    0    0 +1.4001113450e+00 -1.7828753650e+01 +4.0715966639e+02 4.1060786488e+02 5.0000000000e+01 0.0000e+00 0.0000e+00
</event>
<event>
 5      1 +5.6267200e-07 2.31917600e+02 7.95774700e-02 4.54615100e-01
       13 -1    0    0    0    0 +0.0000000000e+00 +0.0000000000e+00 +4.9999998884e+02 5.0000000000e+02 1.0566000000e-01 0.0000e+00 -1.0000e+00
      994 -1    0    0    0    0 -0.0000000000e+00 -0.0000000000e+00 +0.0000000000e+00 1.3100000000e+02 1.3100000000e+02 0.0000e+00 0.0000e+00
       13  1    1    2    0    0 +7.0902319595e+00 +4.9890180372e+01 +4.2762874463e+00 5.0572712851e+01 1.0566000000e-01 0.0000e+00 1.0000e+00
      994  1    1    2    0    0 -4.1866077152e+01 +5.7804459168e+01 +1.4306309722e+02 2.0669342927e+02 1.3100000000e+02 0.0000e+00 0.0000e+00
      997  1    1    2    0    0 +3.4775845192e+01 -1.0769463954e+02 +3.5266060417e+02 3.7373385788e+02 5.0000000000e+01 0.0000e+00 0.0000e+00
</event>
<event>
 5      1 +5.6267200e-07 2.06768300e+02 7.95774700e-02 4.91875800e-01
       13 -1    0    0    0    0 +0.0000000000e+00 +0.0000000000e+00 +4.9999998884e+02 5.0000000000e+02 1.0566000000e-01 0.0000e+00 -1.0000e+00
      994 -1    0    0    0    0 -0.0000000000e+00 -0.0000000000e+00 +0.0000000000e+00 1.3100000000e+02 1.3100000000e+02 0.0000e+00 0.0000e+00
       13  1    1    2    0    0 -6.8341981918e-01 -1.7395894866e+01 +3.9337798014e+01 4.3018109413e+01 1.0566000000e-01 0.0000e+00 1.0000e+00
      994  1    1    2    0    0 +8.7338592098e+00 +1.5103165109e+01 +7.9024084694e+00 1.3239272621e+02 1.3100000000e+02 0.0000e+00 0.0000e+00
      997  1    1    2    0    0 -8.0504393906e+00 +2.2927297568e+00 +4.5275978235e+02 4.5558916438e+02 5.0000000000e+01 0.0000e+00 0.0000e+00
</event>
<event>
 5      1 +5.6267200e-07 2.06130500e+02 7.95774700e-02 4.92970500e-01
       13 -1    0    0    0    0 +0.0000000000e+00 +0.0000000000e+00 +4.9999998884e+02 5.0000000000e+02 1.0566000000e-01 0.0000e+00 -1.0000e+00
      994 -1    0    0    0    0 -0.0000000000e+00 -0.0000000000e+00 +0.0000000000e+00 1.3100000000e+02 1.3100000000e+02 0.0000e+00 0.0000e+00
       13  1    1    2    0    0 -5.9391941533e+00 +1.9117391505e+01 +4.1922786957e+01 4.6457291305e+01 1.0566000000e-01 0.0000e+00 1.0000e+00
      994  1    1    2    0    0 +2.2716600190e+01 -1.9211738972e+01 +1.1461652547e+01 1.3482397531e+02 1.3100000000e+02 0.0000e+00 0.0000e+00
      997  1    1    2    0    0 -1.6777406037e+01 +9.4347466823e-02 +4.4661554933e+02 4.4971873339e+02 5.0000000000e+01 0.0000e+00 0.0000e+00
</event>
<event>
 5      1 +5.6267200e-07 1.98221900e+02 7.95774700e-02 5.07304700e-01
       13 -1    0    0    0    0 +0.0000000000e+00 +0.0000000000e+00 +4.9999998884e+02 5.0000000000e+02 1.0566000000e-01 0.0000e+00 1.0000e+00
      994 -1    0    0    0    0 -0.0000000000e+00 -0.0000000000e+00 +0.0000000000e+00 1.3100000000e+02 1.3100000000e+02 0.0000e+00 0.0000e+00
       13  1    1    2    0    0 +1.1194134122e+01 -7.5706703553e+00 +3.9370017086e+00 1.4076037612e+01 1.0566000000e-01 0.0000e+00 -1.0000e+00
      994  1    1    2    0    0 -1.6402686648e+00 -2.3160468707e+00 +1.3658851873e+01 1.3174072563e+02 1.3100000000e+02 0.0000e+00 0.0000e+00
      997  1    1    2    0    0 -9.5538654573e+00 +9.8867172260e+00 +4.8240413525e+02 4.8518323676e+02 5.0000000000e+01 0.0000e+00 0.0000e+00
</event>
<event>
 5      1 +5.6267200e-07 2.05662500e+02 7.95774700e-02 4.93779200e-01
       13 -1    0    0    0    0 +0.0000000000e+00 +0.0000000000e+00 +4.9999998884e+02 5.0000000000e+02 1.0566000000e-01 0.0000e+00 1.0000e+00
      994 -1    0    0    0    0 -0.0000000000e+00 -0.0000000000e+00 +0.0000000000e+00 1.3100000000e+02 1.3100000000e+02 0.0000e+00 0.0000e+00
       13  1    1    2    0    0 -1.3773877423e+01 -1.6205729169e+01 +5.1966685925e+01 5.6150627487e+01 1.0566000000e-01 0.0000e+00 -1.0000e+00
      994  1    1    2    0    0 +9.0714953105e+00 +5.4785436308e+00 +7.8302263026e+00 1.3166099996e+02 1.3100000000e+02 0.0000e+00 0.0000e+00
      997  1    1    2    0    0 +4.7023821129e+00 +1.0727185538e+01 +4.4020307661e+02 4.4318837255e+02 5.0000000000e+01 0.0000e+00 0.0000e+00
</event>
<event>
 5      1 +5.6267200e-07 2.03780300e+02 7.95774700e-02 4.97080300e-01
       13 -1    0    0    0    0 +0.0000000000e+00 +0.0000000000e+00 +4.9999998884e+02 5.0000000000e+02 1.0566000000e-01 0.0000e+00 -1.0000e+00
      994 -1    0    0    0    0 -0.0000000000e+00 -0.0000000000e+00 +0.0000000000e+00 1.3100000000e+02 1.3100000000e+02 0.0000e+00 0.0000e+00
       13  1    1    2    0    0 +2.0109535830e+01 -1.0545870186e+00 +2.8384410726e+01 3.4802176963e+01 1.0566000000e-01 0.0000e+00 1.0000e+00
      994  1    1    2    0    0 -2.4477365808e+01 -1.2026202102e+01 +1.2755091252e+01 1.3441526449e+02 1.3100000000e+02 0.0000e+00 0.0000e+00
      997  1    1    2    0    0 +4.3678299787e+00 +1.3080789121e+01 +4.5886048686e+02 4.6178255855e+02 5.0000000000e+01 0.0000e+00 0.0000e+00
</event>
<event>
 5      1 +5.6267200e-07 1.94614200e+02 7.95774700e-02 5.14351900e-01
       13 -1    0    0    0    0 +0.0000000000e+00 +0.0000000000e+00 +4.9999998884e+02 5.0000000000e+02 1.0566000000e-01 0.0000e+00 -1.0000e+00
      994 -1    0    0    0    0 -0.0000000000e+00 -0.0000000000e+00 +0.0000000000e+00 1.3100000000e+02 1.3100000000e+02 0.0000e+00 0.0000e+00
       13  1    1    2    0    0 +1.7065793876e+01 +6.1616044854e+00 +4.7540455307e-01 1.8150588529e+01 1.0566000000e-01 0.0000e+00 1.0000e+00
      994  1    1    2    0    0 -3.7426951532e+01 +2.4734715623e+01 +3.3198217410e+01 1.4239278246e+02 1.3100000000e+02 0.0000e+00 0.0000e+00
      997  1    1    2    0    0 +2.0361157656e+01 -3.0896320108e+01 +4.6632636687e+02 4.7045662901e+02 5.0000000000e+01 0.0000e+00 0.0000e+00
</event>
<event>
 5      1 +5.6267200e-07 2.02628300e+02 7.95774700e-02 4.99139800e-01
       13 -1    0    0    0    0 +0.0000000000e+00 +0.0000000000e+00 +4.9999998884e+02 5.0000000000e+02 1.0566000000e-01 0.0000e+00 1.0000e+00
      994 -1    0    0    0    0 -0.0000000000e+00 -0.0000000000e+00 +0.0000000000e+00 1.3100000000e+02 1.3100000000e+02 0.0000e+00 0.0000e+00
       13  1    1    2    0    0 +2.3689843722e+01 -1.0661730796e+00 +3.3853436376e+01 4.1332937702e+01 1.0566000000e-01 0.0000e+00 -1.0000e+00
      994  1    1    2    0    0 -2.7256519390e+01 -1.0497767519e+00 +1.3769408333e+01 1.3451623131e+02 1.3100000000e+02 0.0000e+00 0.0000e+00
      997  1    1    2    0    0 +3.5666756679e+00 +2.1159498315e+00 +4.5237714413e+02 4.5515083099e+02 5.0000000000e+01 0.0000e+00 0.0000e+00
</event>
<event>
 5      1 +5.6267200e-07 2.05641500e+02 7.95774700e-02 4.93815700e-01
       13 -1    0    0    0    0 +0.0000000000e+00 +0.0000000000e+00 +4.9999998884e+02 5.0000000000e+02 1.0566000000e-01 0.0000e+00 1.0000e+00
      994 -1    0    0    0    0 -0.0000000000e+00 -0.0000000000e+00 +0.0000000000e+00 1.3100000000e+02 1.3100000000e+02 0.0000e+00 0.0000e+00
       13  1    1    2    0    0 -3.0599730127e+01 -6.9122481519e+00 +8.0060036940e+01 8.5986878867e+01 1.0566000000e-01 0.0000e+00 -1.0000e+00
      994  1    1    2    0    0 +4.6046969971e+01 -5.3124101650e-01 +1.8473297789e+01 1.4008164902e+02 1.3100000000e+02 0.0000e+00 0.0000e+00
      997  1    1    2    0    0 -1.5447239844e+01 +7.4434891684e+00 +4.0146665411e+02 4.0493147211e+02 5.0000000000e+01 0.0000e+00 0.0000e+00
</event>
<event>
 5      1 +5.6267200e-07 2.02870900e+02 7.95774700e-02 4.98703600e-01
       13 -1    0    0    0    0 +0.0000000000e+00 +0.0000000000e+00 +4.9999998884e+02 5.0000000000e+02 1.0566000000e-01 0.0000e+00 1.0000e+00
      994 -1    0    0    0    0 -0.0000000000e+00 -0.0000000000e+00 +0.0000000000e+00 1.3100000000e+02 1.3100000000e+02 0.0000e+00 0.0000e+00
       13  1    1    2    0    0 +8.9486358717e+00 -1.9297608418e+01 +3.3306489367e+01 3.9519731434e+01 1.0566000000e-01 0.0000e+00 -1.0000e+00
      994  1    1    2    0    0 +4.8392344346e+00 +6.9215940886e+00 +9.9649845269e+00 1.3164963946e+02 1.3100000000e+02 0.0000e+00 0.0000e+00
      997  1    1    2    0    0 -1.3787870306e+01 +1.2376014330e+01 +4.5672851494e+02 4.5983062910e+02 5.0000000000e+01 0.0000e+00 0.0000e+00
</event>
<event>
 5      1 +5.6267200e-07 2.03186500e+02 7.95774700e-02 4.98138100e-01
       13 -1    0    0    0    0 +0.0000000000e+00 +0.0000000000e+00 +4.9999998884e+02 5.0000000000e+02 1.0566000000e-01 0.0000e+00 -1.0000e+00
      994 -1    0    0    0    0 -0.0000000000e+00 -0.0000000000e+00 +0.0000000000e+00 1.3100000000e+02 1.3100000000e+02 0.0000e+00 0.0000e+00
       13  1    1    2    0    0 -2.9437617409e+01 +3.9714645996e+01 +1.1158041582e+02 1.2204108646e+02 1.0566000000e-01 0.0000e+00 1.0000e+00
      994  1    1    2    0    0 +4.2751136069e+01 -5.4610750817e+01 +3.6113476381e+01 1.5256204284e+02 1.3100000000e+02 0.0000e+00 0.0000e+00
      997  1    1    2    0    0 -1.3313518660e+01 +1.4896104821e+01 +3.5230609664e+02 3.5639687070e+02 5.0000000000e+01 0.0000e+00 0.0000e+00
</event>
<event>
 5      1 +5.6267200e-07 2.03089300e+02 7.95774700e-02 4.98312000e-01
       13 -1    0    0    0    0 +0.0000000000e+00 +0.0000000000e+00 +4.9999998884e+02 5.0000000000e+02 1.0566000000e-01 0.0000e+00 1.0000e+00
      994 -1    0    0    0    0 -0.0000000000e+00 -0.0000000000e+00 +0.0000000000e+00 1.3100000000e+02 1.3100000000e+02 0.0000e+00 0.0000e+00
       13  1    1    2    0    0 +5.6269091422e+00 -1.8980232182e+01 +4.3176355867e+01 4.7498633561e+01 1.0566000000e-01 0.0000e+00 -1.0000e+00
      994  1    1    2    0    0 -8.2194254813e+01 -4.5445707969e+01 +6.1282185626e+01 1.7244626459e+02 1.3100000000e+02 0.0000e+00 0.0000e+00
      997  1    1    2    0    0 +7.6567345671e+01 +6.4425940150e+01 +3.9554144734e+02 4.1105510185e+02 5.0000000000e+01 0.0000e+00 0.0000e+00
</event>
<event>
 5      1 +5.6267200e-07 2.08885300e+02 7.95774700e-02 4.88303100e-01
       13 -1    0    0    0    0 +0.0000000000e+00 +0.0000000000e+00 +4.9999998884e+02 5.0000000000e+02 1.0566000000e-01 0.0000e+00 1.0000e+00
      994 -1    0    0    0    0 -0.0000000000e+00 -0.0000000000e+00 +0.0000000000e+00 1.3100000000e+02 1.3100000000e+02 0.0000e+00 0.0000e+00
       13  1    1    2    0    0 +8.8465388515e+00 -1.2157520045e+01 +6.4360947458e+01 6.6093942726e+01 1.0566000000e-01 0.0000e+00 -1.0000e+00
      994  1    1    2    0    0 -2.1420986513e+00 +1.1529755715e+01 +5.3113946068e+00 1.3163105548e+02 1.3100000000e+02 0.0000e+00 0.0000e+00
      997  1    1    2    0    0 -6.7044402002e+00 +6.2776432972e-01 +4.3032764677e+02 4.3327500180e+02 5.0000000000e+01 0.0000e+00 0.0000e+00
</event>
<event>
 5      1 +5.6267200e-07 2.09690800e+02 7.95774700e-02 4.86968000e-01
       13 -1    0    0    0    0 +0.0000000000e+00 +0.0000000000e+00 +4.9999998884e+02 5.0000000000e+02 1.0566000000e-01 0.0000e+00 1.0000e+00
      994 -1    0    0    0    0 -0.0000000000e+00 -0.0000000000e+00 +0.0000000000e+00 1.3100000000e+02 1.3100000000e+02 0.0000e+00 0.0000e+00
       13  1    1    2    0    0 -1.0450133116e+01 -1.4805206458e+00 +4.0692151877e+01 4.2038786994e+01 1.0566000000e-01 0.0000e+00 -1.0000e+00
      994  1    1    2    0    0 +1.3909876813e+01 -2.1255896352e+00 +4.9639271494e+00 1.3184704539e+02 1.3100000000e+02 0.0000e+00 0.0000e+00
      997  1    1    2    0    0 -3.4597436965e+00 +3.6061102810e+00 +4.5434390981e+02 4.5711416762e+02 5.0000000000e+01 0.0000e+00 0.0000e+00
</event>
<event>
 5      1 +5.6267200e-07 2.02878500e+02 7.95774700e-02 4.98689900e-01
       13 -1    0    0    0    0 +0.0000000000e+00 +0.0000000000e+00 +4.9999998884e+02 5.0000000000e+02 1.0566000000e-01 0.0000e+00 1.0000e+00
      994 -1    0    0    0    0 -0.0000000000e+00 -0.0000000000e+00 +0.0000000000e+00 1.3100000000e+02 1.3100000000e+02 0.0000e+00 0.0000e+00
       13  1    1    2    0    0 +2.6085427687e+00 +2.5627102628e+01 +5.8505214160e+01 6.3925144759e+01 1.0566000000e-01 0.0000e+00 -1.0000e+00
      994  1    1    2    0    0 +6.1820793022e+00 +2.0924236400e+00 +9.8063045616e+00 1.3152855184e+02 1.3100000000e+02 0.0000e+00 0.0000e+00
      997  1    1    2    0    0 -8.7906220709e+00 -2.7719526268e+01 +4.3168847011e+02 4.3554630340e+02 5.0000000000e+01 0.0000e+00 0.0000e+00
</event>
<event>
 5      1 +5.6267200e-07 1.94838900e+02 7.95774700e-02 5.13902900e-01
       13 -1    0    0    0    0 +0.0000000000e+00 +0.0000000000e+00 +4.9999998884e+02 5.0000000000e+02 1.0566000000e-01 0.0000e+00 1.0000e+00
      994 -1    0    0    0    0 -0.0000000000e+00 -0.0000000000e+00 +0.0000000000e+00 1.3100000000e+02 1.3100000000e+02 0.0000e+00 0.0000e+00
       13  1    1    2    0    0 -2.9813221467e+01 -4.6460999068e+01 +1.0277701800e+02 1.1666438703e+02 1.0566000000e-01 0.0000e+00 -1.0000e+00
      994  1    1    2    0    0 -9.1926755431e+00 +2.1046074419e+01 +2.4291479821e+01 1.3519807145e+02 1.3100000000e+02 0.0000e+00 0.0000e+00
      997  1    1    2    0    0 +3.9005897010e+01 +2.5414924649e+01 +3.7293149102e+02 3.7913754152e+02 5.0000000000e+01 0.0000e+00 0.0000e+00
</event>
<event>
 5      1 +5.6267200e-07 1.61130200e+02 7.95774700e-02 6.01519600e-01
       13 -1    0    0    0    0 +0.0000000000e+00 +0.0000000000e+00 +4.9999998884e+02 5.0000000000e+02 1.0566000000e-01 0.0000e+00 -1.0000e+00
      994 -1    0    0    0    0 -0.0000000000e+00 -0.0000000000e+00 +0.0000000000e+00 1.3100000000e+02 1.3100000000e+02 0.0000e+00 0.0000e+00
       13  1    1    2    0    0 -9.2523060616e+01 +2.8913521698e+01 +1.4998135003e+02 1.7858030407e+02 1.0566000000e-01 0.0000e+00 1.0000e+00
      994  1    1    2    0    0 +4.5912232588e+01 -3.6497057487e+01 +6.2078819737e+01 1.5638013994e+02 1.3100000000e+02 0.0000e+00 0.0000e+00
      997  1    1    2    0    0 +4.6610828028e+01 +7.5835357890e+00 +2.8793981907e+02 2.9603955599e+02 5.0000000000e+01 0.0000e+00 0.0000e+00
</event>
<event>
 5      1 +5.6267200e-07 1.94881800e+02 7.95774700e-02 5.13817300e-01
       13 -1    0    0    0    0 +0.0000000000e+00 +0.0000000000e+00 +4.9999998884e+02 5.0000000000e+02 1.0566000000e-01 0.0000e+00 -1.0000e+00
      994 -1    0    0    0    0 -0.0000000000e+00 -0.0000000000e+00 +0.0000000000e+00 1.3100000000e+02 1.3100000000e+02 0.0000e+00 0.0000e+00
       13  1    1    2    0    0 -2.5088208821e+01 -2.7765807601e+01 +6.6759822542e+01 7.6532629404e+01 1.0566000000e-01 0.0000e+00 1.0000e+00
      994  1    1    2    0    0 +1.2421253406e+01 -2.7438472225e+01 +2.1831576420e+01 1.3617920187e+02 1.3100000000e+02 0.0000e+00 0.0000e+00
      997  1    1    2    0    0 +1.2666955415e+01 +5.5204279825e+01 +4.1140858987e+02 4.1828816872e+02 5.0000000000e+01 0.0000e+00 0.0000e+00
</event>
<event>
 5      1 +5.6267200e-07 2.09069300e+02 7.95774700e-02 4.87997100e-01
       13 -1    0    0    0    0 +0.0000000000e+00 +0.0000000000e+00 +4.9999998884e+02 5.0000000000e+02 1.0566000000e-01 0.0000e+00 1.0000e+00
      994 -1    0    0    0    0 -0.0000000000e+00 -0.0000000000e+00 +0.0000000000e+00 1.3100000000e+02 1.3100000000e+02 0.0000e+00 0.0000e+00
       13  1    1    2    0    0 -1.2582224426e+01 -1.5620850991e+00 +4.3417388417e+01 4.5230888366e+01 1.0566000000e-01 0.0000e+00 -1.0000e+00
      994  1    1    2    0    0 +1.3805097343e+01 -3.4127884691e+00 +5.4888550681e+00 1.3188387076e+02 1.3100000000e+02 0.0000e+00 0.0000e+00
      997  1    1    2    0    0 -1.2228729177e+00 +4.9748735681e+00 +4.5109374535e+02 4.5388524087e+02 5.0000000000e+01 0.0000e+00 0.0000e+00
</event>
<event>
 5      1 +5.6267200e-07 2.08171900e+02 7.95774700e-02 4.89496800e-01
       13 -1    0    0    0    0 +0.0000000000e+00 +0.0000000000e+00 +4.9999998884e+02 5.0000000000e+02 1.0566000000e-01 0.0000e+00 -1.0000e+00
      994 -1    0    0    0    0 -0.0000000000e+00 -0.0000000000e+00 +0.0000000000e+00 1.3100000000e+02 1.3100000000e+02 0.0000e+00 0.0000e+00
       13  1    1    2    0    0 -2.1083425750e+01 -4.7853654277e-02 +1.0568131090e+02 1.0776392610e+02 1.0566000000e-01 0.0000e+00 1.0000e+00
      994  1    1    2    0    0 +1.6183561138e+01 +1.3129334317e+01 +7.4035973930e+00 1.3285368013e+02 1.3100000000e+02 0.0000e+00 0.0000e+00
      997  1    1    2    0    0 +4.8998646113e+00 -1.3081480663e+01 +3.8691508055e+02 3.9038239377e+02 5.0000000000e+01 0.0000e+00 0.0000e+00
</event>
<event>
 5      1 +5.6267200e-07 1.99555200e+02 7.95774700e-02 5.04784600e-01
       13 -1    0    0    0    0 +0.0000000000e+00 +0.0000000000e+00 +4.9999998884e+02 5.0000000000e+02 1.0566000000e-01 0.0000e+00 1.0000e+00
      994 -1    0    0    0    0 -0.0000000000e+00 -0.0000000000e+00 +0.0000000000e+00 1.3100000000e+02 1.3100000000e+02 0.0000e+00 0.0000e+00
       13  1    1    2    0    0 +1.2455194281e+01 -7.2242988243e+00 +6.7074883455e+00 1.5884707175e+01 1.0566000000e-01 0.0000e+00 -1.0000e+00
      994  1    1    2    0    0 -2.7628102482e+01 -5.8006042102e+01 +3.6047255453e+01 1.5029443633e+02 1.3100000000e+02 0.0000e+00 0.0000e+00
      997  1    1    2    0    0 +1.5172908201e+01 +6.5230340926e+01 +4.5724524504e+02 4.6482085649e+02 5.0000000000e+01 0.0000e+00 0.0000e+00
</event>
<event>
 5      1 +5.6267200e-07 2.00272400e+02 7.95774700e-02 5.03447100e-01
       13 -1    0    0    0    0 +0.0000000000e+00 +0.0000000000e+00 +4.9999998884e+02 5.0000000000e+02 1.0566000000e-01 0.0000e+00 1.0000e+00
      994 -1    0    0    0    0 -0.0000000000e+00 -0.0000000000e+00 +0.0000000000e+00 1.3100000000e+02 1.3100000000e+02 0.0000e+00 0.0000e+00
       13  1    1    2    0    0 +1.1035832658e+01 +4.4066109862e+01 +1.2745045418e+02 1.3530425372e+02 1.0566000000e-01 0.0000e+00 -1.0000e+00
      994  1    1    2    0    0 +2.3881625832e+01 -3.3896006981e+01 +2.1300494185e+01 1.3904669142e+02 1.3100000000e+02 0.0000e+00 0.0000e+00
      997  1    1    2    0    0 -3.4917458490e+01 -1.0170102882e+01 +3.5124904048e+02 3.5664905486e+02 5.0000000000e+01 0.0000e+00 0.0000e+00
</event>
<event>
 5      1 +5.6267200e-07 2.06317600e+02 7.95774700e-02 4.92648500e-01
       13 -1    0    0    0    0 +0.0000000000e+00 +0.0000000000e+00 +4.9999998884e+02 5.0000000000e+02 1.0566000000e-01 0.0000e+00 1.0000e+00
      994 -1    0    0    0    0 -0.0000000000e+00 -0.0000000000e+00 +0.0000000000e+00 1.3100000000e+02 1.3100000000e+02 0.0000e+00 0.0000e+00
       13  1    1    2    0    0 +1.6730857906e+01 -5.6446614343e+00 +4.1160658914e+01 4.4788333473e+01 1.0566000000e-01 0.0000e+00 -1.0000e+00
      994  1    1    2    0    0 -2.2563524236e+00 +9.0662704139e+00 +7.1576448431e+00 1.3152764069e+02 1.3100000000e+02 0.0000e+00 0.0000e+00
      997  1    1    2    0    0 -1.4474505483e+01 -3.4216089796e+00 +4.5168168508e+02 4.5468402584e+02 5.0000000000e+01 0.0000e+00 0.0000e+00
</event>
<event>
 5      1 +5.6267200e-07 2.05849000e+02 7.95774700e-02 4.93456400e-01
       13 -1    0    0    0    0 +0.0000000000e+00 +0.0000000000e+00 +4.9999998884e+02 5.0000000000e+02 1.0566000000e-01 0.0000e+00 1.0000e+00
      994 -1    0    0    0    0 -0.0000000000e+00 -0.0000000000e+00 +0.0000000000e+00 1.3100000000e+02 1.3100000000e+02 0.0000e+00 0.0000e+00
       13  1    1    2    0    0 +1.3955093990e+01 -4.3147532163e+01 +2.2336113837e+01 5.0550641196e+01 1.0566000000e-01 0.0000e+00 -1.0000e+00
      994  1    1    2    0    0 -1.8257628267e+00 +4.3718089355e+01 +4.5769256197e+01 1.4550061704e+02 1.3100000000e+02 0.0000e+00 0.0000e+00
      997  1    1    2    0    0 -1.2129331163e+01 -5.7055719220e-01 +4.3189461880e+02 4.3494874176e+02 5.0000000000e+01 0.0000e+00 0.0000e+00
</event>
<event>
 5      1 +5.6267200e-07 2.05388100e+02 7.95774700e-02 4.94255600e-01
       13 -1    0    0    0    0 +0.0000000000e+00 +0.0000000000e+00 +4.9999998884e+02 5.0000000000e+02 1.0566000000e-01 0.0000e+00 1.0000e+00
      994 -1    0    0    0    0 -0.0000000000e+00 -0.0000000000e+00 +0.0000000000e+00 1.3100000000e+02 1.3100000000e+02 0.0000e+00 0.0000e+00
       13  1    1    2    0    0 -9.6093729437e+00 +3.1409082831e+00 +7.5216885719e+00 1.2601282324e+01 1.0566000000e-01 0.0000e+00 -1.0000e+00
      994  1    1    2    0    0 +2.3596533664e+01 -1.8335271216e+00 +1.0395207378e+01 1.3352609692e+02 1.3100000000e+02 0.0000e+00 0.0000e+00
      997  1    1    2    0    0 -1.3987160721e+01 -1.3073811615e+00 +4.8208309289e+02 4.8487262075e+02 5.0000000000e+01 0.0000e+00 0.0000e+00
</event>
<event>
 5      1 +5.6267200e-07 1.99071300e+02 7.95774700e-02 5.05694100e-01
       13 -1    0    0    0    0 +0.0000000000e+00 +0.0000000000e+00 +4.9999998884e+02 5.0000000000e+02 1.0566000000e-01 0.0000e+00 1.0000e+00
      994 -1    0    0    0    0 -0.0000000000e+00 -0.0000000000e+00 +0.0000000000e+00 1.3100000000e+02 1.3100000000e+02 0.0000e+00 0.0000e+00
       13  1    1    2    0    0 +4.4461193408e+01 -1.2669721459e+01 +6.6572198359e+01 8.1050529421e+01 1.0566000000e-01 0.0000e+00 -1.0000e+00
      994  1    1    2    0    0 +3.3850503234e+01 +3.0642370771e+01 +3.8685890853e+01 1.4402225386e+02 1.3100000000e+02 0.0000e+00 0.0000e+00
      997  1    1    2    0    0 -7.8311696643e+01 -1.7972649313e+01 +3.9474189962e+02 4.0592721672e+02 5.0000000000e+01 0.0000e+00 0.0000e+00
</event>
<event>
 5      1 +5.6267200e-07 2.06426200e+02 7.95774700e-02 4.92461900e-01
       13 -1    0    0    0    0 +0.0000000000e+00 +0.0000000000e+00 +4.9999998884e+02 5.0000000000e+02 1.0566000000e-01 0.0000e+00 -1.0000e+00
      994 -1    0    0    0    0 -0.0000000000e+00 -0.0000000000e+00 +0.0000000000e+00 1.3100000000e+02 1.3100000000e+02 0.0000e+00 0.0000e+00
       13  1    1    2    0    0 +2.7627748758e+01 +3.1920145383e+01 +1.4981274871e+02 1.5564722620e+02 1.0566000000e-01 0.0000e+00 1.0000e+00
      994  1    1    2    0    0 -4.1450206035e+01 -3.8725876105e+01 +2.3710196274e+01 1.4471000818e+02 1.3100000000e+02 0.0000e+00 0.0000e+00
      997  1    1    2    0    0 +1.3822457277e+01 +6.8057307227e+00 +3.2647704385e+02 3.3064276562e+02 5.0000000000e+01 0.0000e+00 0.0000e+00
</event>
<event>
 5      1 +5.6267200e-07 2.06610500e+02 7.95774700e-02 4.92145800e-01
       13 -1    0    0    0    0 +0.0000000000e+00 +0.0000000000e+00 +4.9999998884e+02 5.0000000000e+02 1.0566000000e-01 0.0000e+00 1.0000e+00
      994 -1    0    0    0    0 -0.0000000000e+00 -0.0000000000e+00 +0.0000000000e+00 1.3100000000e+02 1.3100000000e+02 0.0000e+00 0.0000e+00
       13  1    1    2    0    0 +1.7836387479e+01 -3.9595629519e+00 +4.4375532218e+01 4.7989726825e+01 1.0566000000e-01 0.0000e+00 -1.0000e+00
      994  1    1    2    0    0 -1.7154639677e+01 -2.0133841407e+01 +1.0081902591e+01 1.3402349791e+02 1.3100000000e+02 0.0000e+00 0.0000e+00
      997  1    1    2    0    0 -6.8174780139e-01 +2.4093404359e+01 +4.4554255403e+02 4.4898677526e+02 5.0000000000e+01 0.0000e+00 0.0000e+00
</event>
<event>
 5      1 +5.6267200e-07 2.07305700e+02 7.95774700e-02 4.90960100e-01
       13 -1    0    0    0    0 +0.0000000000e+00 +0.0000000000e+00 +4.9999998884e+02 5.0000000000e+02 1.0566000000e-01 0.0000e+00 1.0000e+00
      994 -1    0    0    0    0 -0.0000000000e+00 -0.0000000000e+00 +0.0000000000e+00 1.3100000000e+02 1.3100000000e+02 0.0000e+00 0.0000e+00
       13  1    1    2    0    0 +1.4031291437e+01 +1.0245663294e+01 +5.6973417020e+01 5.9563681608e+01 1.0566000000e-01 0.0000e+00 -1.0000e+00
      994  1    1    2    0    0 +8.2788942900e+00 -1.3287950427e+01 +7.1520279697e+00 1.3212592941e+02 1.3100000000e+02 0.0000e+00 0.0000e+00
      997  1    1    2    0    0 -2.2310185727e+01 +3.0422871336e+00 +4.3587454385e+02 4.3931038899e+02 5.0000000000e+01 0.0000e+00 0.0000e+00
</event>
<event>
 5      1 +5.6267200e-07 2.01068900e+02 7.95774700e-02 5.01976300e-01
       13 -1    0    0    0    0 +0.0000000000e+00 +0.0000000000e+00 +4.9999998884e+02 5.0000000000e+02 1.0566000000e-01 0.0000e+00 -1.0000e+00
      994 -1    0    0    0    0 -0.0000000000e+00 -0.0000000000e+00 +0.0000000000e+00 1.3100000000e+02 1.3100000000e+02 0.0000e+00 0.0000e+00
       13  1    1    2    0    0 -2.1150274787e+00 -2.5633299926e+01 +3.1435827049e+01 4.0617259787e+01 1.0566000000e-01 0.0000e+00 1.0000e+00
      994  1    1    2    0    0 -6.2103087333e+00 +3.5615802101e+01 +1.8252718634e+01 1.3711752270e+02 1.3100000000e+02 0.0000e+00 0.0000e+00
      997  1    1    2    0    0 +8.3253362120e+00 -9.9825021752e+00 +4.5031144315e+02 4.5326521751e+02 5.0000000000e+01 0.0000e+00 0.0000e+00
</event>
<event>
 5      1 +5.6267200e-07 1.99797900e+02 7.95774700e-02 5.04330700e-01
       13 -1    0    0    0    0 +0.0000000000e+00 +0.0000000000e+00 +4.9999998884e+02 5.0000000000e+02 1.0566000000e-01 0.0000e+00 1.0000e+00
      994 -1    0    0    0    0 -0.0000000000e+00 -0.0000000000e+00 +0.0000000000e+00 1.3100000000e+02 1.3100000000e+02 0.0000e+00 0.0000e+00
       13  1    1    2    0    0 +2.0530580411e+01 +1.6175908447e+01 +4.4639613533e+01 5.1728821817e+01 1.0566000000e-01 0.0000e+00 -1.0000e+00
      994  1    1    2    0    0 +2.5088048043e+01 -5.1812837742e+00 +1.5821437949e+01 1.3441567526e+02 1.3100000000e+02 0.0000e+00 0.0000e+00
      997  1    1    2    0    0 -4.5618628454e+01 -1.0994624673e+01 +4.3953893735e+02 4.4485550293e+02 5.0000000000e+01 0.0000e+00 0.0000e+00
</event>
<event>
 5      1 +5.6267200e-07 1.95043500e+02 7.95774700e-02 5.13495300e-01
       13 -1    0    0    0    0 +0.0000000000e+00 +0.0000000000e+00 +4.9999998884e+02 5.0000000000e+02 1.0566000000e-01 0.0000e+00 -1.0000e+00
      994 -1    0    0    0    0 -0.0000000000e+00 -0.0000000000e+00 +0.0000000000e+00 1.3100000000e+02 1.3100000000e+02 0.0000e+00 0.0000e+00
       13  1    1    2    0    0 -1.8813717412e+01 -9.5815893421e-01 +7.2917000870e+00 2.0200348651e+01 1.0566000000e-01 0.0000e+00 1.0000e+00
      994  1    1    2    0    0 +1.1391857199e+01 -1.5936665086e+01 +1.8659735428e+01 1.3376448494e+02 1.3100000000e+02 0.0000e+00 0.0000e+00
      997  1    1    2    0    0 +7.4218602135e+00 +1.6894824020e+01 +4.7404855332e+02 4.7703516641e+02 5.0000000000e+01 0.0000e+00 0.0000e+00
</event>
<event>
 5      1 +5.6267200e-07 2.05570900e+02 7.95774700e-02 4.93938100e-01
       13 -1    0    0    0    0 +0.0000000000e+00 +0.0000000000e+00 +4.9999998884e+02 5.0000000000e+02 1.0566000000e-01 0.0000e+00 -1.0000e+00
      994 -1    0    0    0    0 -0.0000000000e+00 -0.0000000000e+00 +0.0000000000e+00 1.3100000000e+02 1.3100000000e+02 0.0000e+00 0.0000e+00
       13  1    1    2    0    0 +3.8174291044e+00 -1.2440156725e+01 +1.7424466810e+01 2.1747493463e+01 1.0566000000e-01 0.0000e+00 1.0000e+00
      994  1    1    2    0    0 -1.4172109711e+01 -4.2186728870e+00 +8.4584967359e+00 1.3210296008e+02 1.3100000000e+02 0.0000e+00 0.0000e+00
      997  1    1    2    0    0 +1.0354680606e+01 +1.6658829612e+01 +4.7411702529e+02 4.7714954646e+02 5.0000000000e+01 0.0000e+00 0.0000e+00
</event>
<event>
 5      1 +5.6267200e-07 2.02322200e+02 7.95774700e-02 4.99692000e-01
       13 -1    0    0    0    0 +0.0000000000e+00 +0.0000000000e+00 +4.9999998884e+02 5.0000000000e+02 1.0566000000e-01 0.0000e+00 1.0000e+00
      994 -1    0    0    0    0 -0.0000000000e+00 -0.0000000000e+00 +0.0000000000e+00 1.3100000000e+02 1.3100000000e+02 0.0000e+00 0.0000e+00
       13  1    1    2    0    0 -2.0798705818e+01 +8.5841987070e-02 +3.0713115363e+01 3.7093128095e+01 1.0566000000e-01 0.0000e+00 -1.0000e+00
      994  1    1    2    0    0 -2.2440258883e+00 -2.6072255827e+01 +1.3720690291e+01 1.3429093610e+02 1.3100000000e+02 0.0000e+00 0.0000e+00
      997  1    1    2    0    0 +2.3042731706e+01 +2.5986413840e+01 +4.5556618318e+02 4.5961593581e+02 5.0000000000e+01 0.0000e+00 0.0000e+00
</event>
<event>
 5      1 +5.6267200e-07 2.09125700e+02 7.95774700e-02 4.87903300e-01
       13 -1    0    0    0    0 +0.0000000000e+00 +0.0000000000e+00 +4.9999998884e+02 5.0000000000e+02 1.0566000000e-01 0.0000e+00 -1.0000e+00
      994 -1    0    0    0    0 -0.0000000000e+00 -0.0000000000e+00 +0.0000000000e+00 1.3100000000e+02 1.3100000000e+02 0.0000e+00 0.0000e+00
       13  1    1    2    0    0 +1.4099568526e+01 -3.5260617763e+00 +5.1511179207e+01 5.3522366274e+01 1.0566000000e-01 0.0000e+00 1.0000e+00
      994  1    1    2    0    0 -2.1732846889e+01 +9.6742693125e+00 +7.2850512821e+00 1.3334159176e+02 1.3100000000e+02 0.0000e+00 0.0000e+00
      997  1    1    2    0    0 +7.6332783626e+00 -6.1482075363e+00 +4.4120375835e+02 4.4413604197e+02 5.0000000000e+01 0.0000e+00 0.0000e+00
</event>
<event>
 5      1 +5.6267200e-07 2.07980600e+02 7.95774700e-02 4.89818600e-01
       13 -1    0    0    0    0 +0.0000000000e+00 +0.0000000000e+00 +4.9999998884e+02 5.0000000000e+02 1.0566000000e-01 0.0000e+00 -1.0000e+00
      994 -1    0    0    0    0 -0.0000000000e+00 -0.0000000000e+00 +0.0000000000e+00 1.3100000000e+02 1.3100000000e+02 0.0000e+00 0.0000e+00
       13  1    1    2    0    0 -5.1309394449e+00 +2.6138956577e+01 +1.1324617256e+02 1.1633691741e+02 1.0566000000e-01 0.0000e+00 1.0000e+00
      994  1    1    2    0    0 -4.9813716566e+00 -3.6563157339e+01 +1.2351062251e+01 1.3665733525e+02 1.3100000000e+02 0.0000e+00 0.0000e+00
      997  1    1    2    0    0 +1.0112311102e+01 +1.0424200762e+01 +3.7440275403e+02 3.7800574734e+02 5.0000000000e+01 0.0000e+00 0.0000e+00
</event>
<event>
 5      1 +5.6267200e-07 2.05307400e+02 7.95774700e-02 4.94396100e-01
       13 -1    0    0    0    0 +0.0000000000e+00 +0.0000000000e+00 +4.9999998884e+02 5.0000000000e+02 1.0566000000e-01 0.0000e+00 -1.0000e+00
      994 -1    0    0    0    0 -0.0000000000e+00 -0.0000000000e+00 +0.0000000000e+00 1.3100000000e+02 1.3100000000e+02 0.0000e+00 0.0000e+00
       13  1    1    2    0    0 -1.7267839303e+01 -2.5625582173e+01 +8.7464820674e+01 9.2762895360e+01 1.0566000000e-01 0.0000e+00 1.0000e+00
      994  1    1    2    0    0 +8.7155503326e+00 +3.2669490676e+01 +1.3540461003e+01 1.3596911606e+02 1.3100000000e+02 0.0000e+00 0.0000e+00
      997  1    1    2    0    0 +8.5522889707e+00 -7.0439085036e+00 +3.9899470716e+02 4.0226798858e+02 5.0000000000e+01 0.0000e+00 0.0000e+00
</event>
<event>
 5      1 +5.6267200e-07 2.02463400e+02 7.95774700e-02 4.99437000e-01
       13 -1    0    0    0    0 +0.0000000000e+00 +0.0000000000e+00 +4.9999998884e+02 5.0000000000e+02 1.0566000000e-01 0.0000e+00 -1.0000e+00
      994 -1    0    0    0    0 -0.0000000000e+00 -0.0000000000e+00 +0.0000000000e+00 1.3100000000e+02 1.3100000000e+02 0.0000e+00 0.0000e+00
       13  1    1    2    0    0 +9.6325737675e+00 -2.7249783903e+01 +6.1154839576e+01 6.7640688699e+01 1.0566000000e-01 0.0000e+00 1.0000e+00
      994  1    1    2    0    0 -1.0137211433e+01 +9.3783264161e+00 +1.0948112782e+01 1.3218009395e+02 1.3100000000e+02 0.0000e+00 0.0000e+00
      997  1    1    2    0    0 +5.0463766580e-01 +1.7871457487e+01 +4.2789703648e+02 4.3117921736e+02 5.0000000000e+01 0.0000e+00 0.0000e+00
</event>
<event>
 5      1 +5.6267200e-07 2.02947400e+02 7.95774700e-02 4.98566300e-01
       13 -1    0    0    0    0 +0.0000000000e+00 +0.0000000000e+00 +4.9999998884e+02 5.0000000000e+02 1.0566000000e-01 0.0000e+00 1.0000e+00
      994 -1    0    0    0    0 -0.0000000000e+00 -0.0000000000e+00 +0.0000000000e+00 1.3100000000e+02 1.3100000000e+02 0.0000e+00 0.0000e+00
       13  1    1    2    0    0 -3.7953623640e+01 -4.1599042438e+01 +1.7328799092e+02 1.8220783968e+02 1.0566000000e-01 0.0000e+00 -1.0000e+00
      994  1    1    2    0    0 +7.2459209709e+01 +2.2737651888e+01 +4.2109227167e+01 1.5716718773e+02 1.3100000000e+02 0.0000e+00 0.0000e+00
      997  1    1    2    0    0 -3.4505586070e+01 +1.8861390550e+01 +2.8460277075e+02 2.9162497259e+02 5.0000000000e+01 0.0000e+00 0.0000e+00
</event>
<event>
 5      1 +5.6267200e-07 2.00802100e+02 7.95774700e-02 5.02467200e-01
       13 -1    0    0    0    0 +0.0000000000e+00 +0.0000000000e+00 +4.9999998884e+02 5.0000000000e+02 1.0566000000e-01 0.0000e+00 -1.0000e+00
      994 -1    0    0    0    0 -0.0000000000e+00 -0.0000000000e+00 +0.0000000000e+00 1.3100000000e+02 1.3100000000e+02 0.0000e+00 0.0000e+00
       13  1    1    2    0    0 +8.7706154184e+00 +3.2546285564e+01 +7.6705061853e+01 8.3784617185e+01 1.0566000000e-01 0.0000e+00 1.0000e+00
      994  1    1    2    0    0 -9.5799231118e+00 -5.3338688852e+00 +1.2006327269e+01 1.3200521572e+02 1.3100000000e+02 0.0000e+00 0.0000e+00
      997  1    1    2    0    0 +8.0930769341e-01 -2.7212416679e+01 +4.1128859971e+02 4.1521016709e+02 5.0000000000e+01 0.0000e+00 0.0000e+00
</event>
<event>
 5      1 +5.6267200e-07 1.96573200e+02 7.95774700e-02 5.10483100e-01
       13 -1    0    0    0    0 +0.0000000000e+00 +0.0000000000e+00 +4.9999998884e+02 5.0000000000e+02 1.0566000000e-01 0.0000e+00 -1.0000e+00
      994 -1    0    0    0    0 -0.0000000000e+00 -0.0000000000e+00 +0.0000000000e+00 1.3100000000e+02 1.3100000000e+02 0.0000e+00 0.0000e+00
       13  1    1    2    0    0 +1.5815855604e+01 -3.5824527405e+00 +5.8048131132e+00 1.7224467348e+01 1.0566000000e-01 0.0000e+00 1.0000e+00
      994  1    1    2    0    0 +1.1828891482e+01 +4.0228956880e+01 +2.5129319092e+01 1.3982408349e+02 1.3100000000e+02 0.0000e+00 0.0000e+00
      997  1    1    2    0    0 -2.7644747086e+01 -3.6646504140e+01 +4.6906585663e+02 4.7395144916e+02 5.0000000000e+01 0.0000e+00 0.0000e+00
</event>
<event>
 5      1 +5.6267200e-07 1.96751200e+02 7.95774700e-02 5.10136500e-01
       13 -1    0    0    0    0 +0.0000000000e+00 +0.0000000000e+00 +4.9999998884e+02 5.0000000000e+02 1.0566000000e-01 0.0000e+00 1.0000e+00
      994 -1    0    0    0    0 -0.0000000000e+00 -0.0000000000e+00 +0.0000000000e+00 1.3100000000e+02 1.3100000000e+02 0.0000e+00 0.0000e+00
       13  1    1    2    0    0 +3.2175854531e+01 -1.5468418651e+01 +8.3270787295e+01 9.0601284600e+01 1.0566000000e-01 0.0000e+00 -1.0000e+00
      994  1    1    2    0    0 +1.4163296347e+01 -2.2355980517e+01 +1.8868827151e+01 1.3497192844e+02 1.3100000000e+02 0.0000e+00 0.0000e+00
      997  1    1    2    0    0 -4.6339150878e+01 +3.7824399168e+01 +3.9786037439e+02 4.0542678696e+02 5.0000000000e+01 0.0000e+00 0.0000e+00
</event>
<event>
 5      1 +5.6267200e-07 2.06869800e+02 7.95774700e-02 4.91702400e-01
       13 -1    0    0    0    0 +0.0000000000e+00 +0.0000000000e+00 +4.9999998884e+02 5.0000000000e+02 1.0566000000e-01 0.0000e+00 -1.0000e+00
      994 -1    0    0    0    0 -0.0000000000e+00 -0.0000000000e+00 +0.0000000000e+00 1.3100000000e+02 1.3100000000e+02 0.0000e+00 0.0000e+00
       13  1    1    2    0    0 -2.4833797839e+01 +1.1821626997e+01 +9.6696733378e+01 1.0053227238e+02 1.0566000000e-01 0.0000e+00 1.0000e+00
      994  1    1    2    0    0 +1.5415740167e+01 -4.8487385316e+01 +1.9860227464e+01 1.4192991304e+02 1.3100000000e+02 0.0000e+00 0.0000e+00
      997  1    1    2    0    0 +9.4180576716e+00 +3.6665758319e+01 +3.8344302799e+02 3.8853781458e+02 5.0000000000e+01 0.0000e+00 0.0000e+00
</event>
<event>
 5      1 +5.6267200e-07 2.08606800e+02 7.95774700e-02 4.88767900e-01
       13 -1    0    0    0    0 +0.0000000000e+00 +0.0000000000e+00 +4.9999998884e+02 5.0000000000e+02 1.0566000000e-01 0.0000e+00 -1.0000e+00
      994 -1    0    0    0    0 -0.0000000000e+00 -0.0000000000e+00 +0.0000000000e+00 1.3100000000e+02 1.3100000000e+02 0.0000e+00 0.0000e+00
       13  1    1    2    0    0 +2.0512854025e+01 -5.6824432104e+00 +9.1958927923e+01 9.4390269254e+01 1.0566000000e-01 0.0000e+00 1.0000e+00
      994  1    1    2    0    0 -2.5330008189e+01 +1.8154382481e+01 +9.7917802363e+00 1.3501136944e+02 1.3100000000e+02 0.0000e+00 0.0000e+00
      997  1    1    2    0    0 +4.8171541633e+00 -1.2471939270e+01 +3.9824928068e+02 4.0159836131e+02 5.0000000000e+01 0.0000e+00 0.0000e+00
</event>
<event>
 5      1 +5.6267200e-07 2.01891400e+02 7.95774700e-02 5.00473000e-01
       13 -1    0    0    0    0 +0.0000000000e+00 +0.0000000000e+00 +4.9999998884e+02 5.0000000000e+02 1.0566000000e-01 0.0000e+00 -1.0000e+00
      994 -1    0    0    0    0 -0.0000000000e+00 -0.0000000000e+00 +0.0000000000e+00 1.3100000000e+02 1.3100000000e+02 0.0000e+00 0.0000e+00
       13  1    1    2    0    0 -4.0061178015e+01 +5.1403821474e+00 +7.2656319671e+01 8.3128054619e+01 1.0566000000e-01 0.0000e+00 1.0000e+00
      994  1    1    2    0    0 +5.9084347509e+01 -4.7492920743e+00 +2.9923345456e+01 1.4686702318e+02 1.3100000000e+02 0.0000e+00 0.0000e+00
      997  1    1    2    0    0 -1.9023169493e+01 -3.9109007306e-01 +3.9742032371e+02 4.0100492220e+02 5.0000000000e+01 0.0000e+00 0.0000e+00
</event>
<event>
 5      1 +5.6267200e-07 2.05246500e+02 7.95774700e-02 4.94502200e-01
       13 -1    0    0    0    0 +0.0000000000e+00 +0.0000000000e+00 +4.9999998884e+02 5.0000000000e+02 1.0566000000e-01 0.0000e+00 -1.0000e+00
      994 -1    0    0    0    0 -0.0000000000e+00 -0.0000000000e+00 +0.0000000000e+00 1.3100000000e+02 1.3100000000e+02 0.0000e+00 0.0000e+00
       13  1    1    2    0    0 -3.1749136732e+01 +1.7642431740e+01 +5.2398227330e+01 6.3756164191e+01 1.0566000000e-01 0.0000e+00 1.0000e+00
      994  1    1    2    0    0 +8.7227931550e+01 -5.7026904161e+01 +7.1923631282e+01 1.8219437032e+02 1.3100000000e+02 0.0000e+00 0.0000e+00
      997  1    1    2    0    0 -5.5478794818e+01 +3.9384472421e+01 +3.7567813022e+02 3.8504946549e+02 5.0000000000e+01 0.0000e+00 0.0000e+00
</event>
<event>
 5      1 +5.6267200e-07 2.04267800e+02 7.95774700e-02 4.96217800e-01
       13 -1    0    0    0    0 +0.0000000000e+00 +0.0000000000e+00 +4.9999998884e+02 5.0000000000e+02 1.0566000000e-01 0.0000e+00 -1.0000e+00
      994 -1    0    0    0    0 -0.0000000000e+00 -0.0000000000e+00 +0.0000000000e+00 1.3100000000e+02 1.3100000000e+02 0.0000e+00 0.0000e+00
       13  1    1    2    0    0 +5.7146647991e+00 +1.7647969343e+01 +2.9203844366e+01 3.4597455188e+01 1.0566000000e-01 0.0000e+00 1.0000e+00
      994  1    1    2    0    0 +2.9178516759e+01 -1.8487116226e+01 +1.4727631591e+01 1.3627568543e+02 1.3100000000e+02 0.0000e+00 0.0000e+00
      997  1    1    2    0    0 -3.4893181558e+01 +8.3914688237e-01 +4.5606851288e+02 4.6012685938e+02 5.0000000000e+01 0.0000e+00 0.0000e+00
</event>
<event>
 5      1 +5.6267200e-07 1.96174500e+02 7.95774700e-02 5.11262100e-01
       13 -1    0    0    0    0 +0.0000000000e+00 +0.0000000000e+00 +4.9999998884e+02 5.0000000000e+02 1.0566000000e-01 0.0000e+00 1.0000e+00
      994 -1    0    0    0    0 -0.0000000000e+00 -0.0000000000e+00 +0.0000000000e+00 1.3100000000e+02 1.3100000000e+02 0.0000e+00 0.0000e+00
       13  1    1    2    0    0 +3.7975112337e+01 -2.1399063333e+01 +1.5865447297e+02 1.6453352858e+02 1.0566000000e-01 0.0000e+00 -1.0000e+00
      994  1    1    2    0    0 +6.3548613568e+00 -1.7067721398e+01 +1.7314469200e+01 1.3338846360e+02 1.3100000000e+02 0.0000e+00 0.0000e+00
      997  1    1    2    0    0 -4.4329973694e+01 +3.8466784731e+01 +3.2403104667e+02 3.3307800783e+02 5.0000000000e+01 0.0000e+00 0.0000e+00
</event>
<event>
 5      1 +5.6267200e-07 2.05673400e+02 7.95774700e-02 4.93760300e-01
       13 -1    0    0    0    0 +0.0000000000e+00 +0.0000000000e+00 +4.9999998884e+02 5.0000000000e+02 1.0566000000e-01 0.0000e+00 1.0000e+00
      994 -1    0    0    0    0 -0.0000000000e+00 -0.0000000000e+00 +0.0000000000e+00 1.3100000000e+02 1.3100000000e+02 0.0000e+00 0.0000e+00
       13  1    1    2    0    0 -1.7688633637e+01 -7.9966700746e+00 +5.0052946201e+01 5.3685594713e+01 1.0566000000e-01 0.0000e+00 -1.0000e+00
      994  1    1    2    0    0 -4.7877142801e+00 +1.2222041842e+00 +7.3661851829e+00 1.3129994926e+02 1.3100000000e+02 0.0000e+00 0.0000e+00
      997  1    1    2    0    0 +2.2476347917e+01 +6.7744658904e+00 +4.4258085745e+02 4.4601445603e+02 5.0000000000e+01 0.0000e+00 0.0000e+00
</event>
<event>
 5      1 +5.6267200e-07 2.02917400e+02 7.95774700e-02 4.98620100e-01
       13 -1    0    0    0    0 +0.0000000000e+00 +0.0000000000e+00 +4.9999998884e+02 5.0000000000e+02 1.0566000000e-01 0.0000e+00 1.0000e+00
      994 -1    0    0    0    0 -0.0000000000e+00 -0.0000000000e+00 +0.0000000000e+00 1.3100000000e+02 1.3100000000e+02 0.0000e+00 0.0000e+00
       13  1    1    2    0    0 -7.0023568553e+00 +1.5802260405e+01 -4.4732562268e+00 1.7854008534e+01 1.0566000000e-01 0.0000e+00 -1.0000e+00
      994  1    1    2    0    0 -3.3999253196e+01 +2.1929893847e+01 +4.0202722249e+01 1.4287801909e+02 1.3100000000e+02 0.0000e+00 0.0000e+00
      997  1    1    2    0    0 +4.1001610052e+01 -3.7732154252e+01 +4.6427052281e+02 4.7026797238e+02 5.0000000000e+01 0.0000e+00 0.0000e+00
</event>
<event>
 5      1 +5.6267200e-07 2.06324800e+02 7.95774700e-02 4.92636100e-01
       13 -1    0    0    0    0 +0.0000000000e+00 +0.0000000000e+00 +4.9999998884e+02 5.0000000000e+02 1.0566000000e-01 0.0000e+00 -1.0000e+00
      994 -1    0    0    0    0 -0.0000000000e+00 -0.0000000000e+00 +0.0000000000e+00 1.3100000000e+02 1.3100000000e+02 0.0000e+00 0.0000e+00
       13  1    1    2    0    0 +2.0642843731e+01 +1.2091914594e+01 +6.1436913010e+01 6.5930621414e+01 1.0566000000e-01 0.0000e+00 1.0000e+00
      994  1    1    2    0    0 -4.0590153131e+01 +8.3582491936e+00 +1.5688082443e+01 1.3829149212e+02 1.3100000000e+02 0.0000e+00 0.0000e+00
      997  1    1    2    0    0 +1.9947309400e+01 -2.0450163788e+01 +4.2287499338e+02 4.2677788647e+02 5.0000000000e+01 0.0000e+00 0.0000e+00
</event>
<event>
 5      1 +5.6267200e-07 2.01666200e+02 7.95774700e-02 5.00883000e-01
       13 -1    0    0    0    0 +0.0000000000e+00 +0.0000000000e+00 +4.9999998884e+02 5.0000000000e+02 1.0566000000e-01 0.0000e+00 -1.0000e+00
      994 -1    0    0    0    0 -0.0000000000e+00 -0.0000000000e+00 +0.0000000000e+00 1.3100000000e+02 1.3100000000e+02 0.0000e+00 0.0000e+00
       13  1    1    2    0    0 -1.7873511357e+01 +1.5313350245e+01 +2.5132531568e+01 3.4432781052e+01 1.0566000000e-01 0.0000e+00 1.0000e+00
      994  1    1    2    0    0 +4.9309606620e+01 -1.3296303621e+01 +2.4967513695e+01 1.4280268112e+02 1.3100000000e+02 0.0000e+00 0.0000e+00
      997  1    1    2    0    0 -3.1436095263e+01 -2.0170466233e+00 +4.4989994357e+02 4.5376453783e+02 5.0000000000e+01 0.0000e+00 0.0000e+00
</event>
<event>
 5      1 +5.6267200e-07 2.09060000e+02 7.95774700e-02 4.88012600e-01
       13 -1    0    0    0    0 +0.0000000000e+00 +0.0000000000e+00 +4.9999998884e+02 5.0000000000e+02 1.0566000000e-01 0.0000e+00 -1.0000e+00
      994 -1    0    0    0    0 -0.0000000000e+00 -0.0000000000e+00 +0.0000000000e+00 1.3100000000e+02 1.3100000000e+02 0.0000e+00 0.0000e+00
       13  1    1    2    0    0 -1.4105169216e+01 -1.4246252715e+00 +6.9130297631e+01 7.0569076587e+01 1.0566000000e-01 0.0000e+00 1.0000e+00
      994  1    1    2    0    0 +5.6834085351e+00 +4.6372903374e+00 +4.7479298492e+00 1.3129108284e+02 1.3100000000e+02 0.0000e+00 0.0000e+00
      997  1    1    2    0    0 +8.4217606814e+00 -3.2126650659e+00 +4.2612176136e+02 4.2913984058e+02 5.0000000000e+01 0.0000e+00 0.0000e+00
</event>
<event>
 5      1 +5.6267200e-07 2.02124300e+02 7.95774700e-02 5.00050300e-01
       13 -1    0    0    0    0 +0.0000000000e+00 +0.0000000000e+00 +4.9999998884e+02 5.0000000000e+02 1.0566000000e-01 0.0000e+00 -1.0000e+00
      994 -1    0    0    0    0 -0.0000000000e+00 -0.0000000000e+00 +0.0000000000e+00 1.3100000000e+02 1.3100000000e+02 0.0000e+00 0.0000e+00
       13  1    1    2    0    0 +1.2223922753e+01 -3.8066354051e+00 +4.7220543124e+00 1.3646381262e+01 1.0566000000e-01 0.0000e+00 1.0000e+00
      994  1    1    2    0    0 -6.6345593705e+01 -2.1925493339e+01 +3.7719899328e+01 1.5318699640e+02 1.3100000000e+02 0.0000e+00 0.0000e+00
      997  1    1    2    0    0 +5.4121670951e+01 +2.5732128744e+01 +4.5755803520e+02 4.6416662233e+02 5.0000000000e+01 0.0000e+00 0.0000e+00
</event>
<event>
 5      1 +5.6267200e-07 2.01856400e+02 7.95774700e-02 5.00536700e-01
       13 -1    0    0    0    0 +0.0000000000e+00 +0.0000000000e+00 +4.9999998884e+02 5.0000000000e+02 1.0566000000e-01 0.0000e+00 -1.0000e+00
      994 -1    0    0    0    0 -0.0000000000e+00 -0.0000000000e+00 +0.0000000000e+00 1.3100000000e+02 1.3100000000e+02 0.0000e+00 0.0000e+00
       13  1    1    2    0    0 +4.6164931628e+00 -1.9997042039e+01 +2.2278465252e+01 3.0290838176e+01 1.0566000000e-01 0.0000e+00 1.0000e+00
      994  1    1    2    0    0 -1.5155892281e+01 +2.1844115716e+01 +1.4252858233e+01 1.3442845841e+02 1.3100000000e+02 0.0000e+00 0.0000e+00
      997  1    1    2    0    0 +1.0539399118e+01 -1.8470736768e+00 +4.6346866535e+02 4.6628070342e+02 5.0000000000e+01 0.0000e+00 0.0000e+00
</event>
<event>
 5      1 +5.6267200e-07 2.08130000e+02 7.95774700e-02 4.89567200e-01
       13 -1    0    0    0    0 +0.0000000000e+00 +0.0000000000e+00 +4.9999998884e+02 5.0000000000e+02 1.0566000000e-01 0.0000e+00 -1.0000e+00
      994 -1    0    0    0    0 -0.0000000000e+00 -0.0000000000e+00 +0.0000000000e+00 1.3100000000e+02 1.3100000000e+02 0.0000e+00 0.0000e+00
       13  1    1    2    0    0 +5.6641008273e+00 +1.5189447480e+01 +4.9667939663e+01 5.2246691257e+01 1.0566000000e-01 0.0000e+00 1.0000e+00
      994  1    1    2    0    0 -8.4934270731e-01 -1.6599084019e+01 +6.6318665030e+00 1.3221661252e+02 1.3100000000e+02 0.0000e+00 0.0000e+00
      997  1    1    2    0    0 -4.8147581200e+00 +1.4096365388e+00 +4.4370018267e+02 4.4653669622e+02 5.0000000000e+01 0.0000e+00 0.0000e+00
</event>
<event>
 5      1 +5.6267200e-07 2.01513300e+02 7.95774700e-02 5.01162000e-01
       13 -1    0    0    0    0 +0.0000000000e+00 +0.0000000000e+00 +4.9999998884e+02 5.0000000000e+02 1.0566000000e-01 0.0000e+00 -1.0000e+00
      994 -1    0    0    0    0 -0.0000000000e+00 -0.0000000000e+00 +0.0000000000e+00 1.3100000000e+02 1.3100000000e+02 0.0000e+00 0.0000e+00
       13  1    1    2    0    0 -3.2209983687e+01 +2.0945753914e+01 +8.5783016693e+01 9.3994386924e+01 1.0566000000e-01 0.0000e+00 1.0000e+00
      994  1    1    2    0    0 -6.9540487448e-01 -7.0972601261e+01 +3.9340077376e+01 1.5409813563e+02 1.3100000000e+02 0.0000e+00 0.0000e+00
      997  1    1    2    0    0 +3.2905388562e+01 +5.0026847347e+01 +3.7487689477e+02 3.8290747744e+02 5.0000000000e+01 0.0000e+00 0.0000e+00
</event>
<event>
 5      1 +5.6267200e-07 2.05247800e+02 7.95774700e-02 4.94500000e-01
       13 -1    0    0    0    0 +0.0000000000e+00 +0.0000000000e+00 +4.9999998884e+02 5.0000000000e+02 1.0566000000e-01 0.0000e+00 1.0000e+00
      994 -1    0    0    0    0 -0.0000000000e+00 -0.0000000000e+00 +0.0000000000e+00 1.3100000000e+02 1.3100000000e+02 0.0000e+00 0.0000e+00
       13  1    1    2    0    0 +1.3813352393e+01 +8.7505059085e+00 +2.3930986635e+01 2.8984191266e+01 1.0566000000e-01 0.0000e+00 -1.0000e+00
      994  1    1    2    0    0 -9.0769802131e+00 -1.9565673687e+01 +1.0017417281e+01 1.3314111238e+02 1.3100000000e+02 0.0000e+00 0.0000e+00
      997  1    1    2    0    0 -4.7363721797e+00 +1.0815167779e+01 +4.6605158492e+02 4.6887469635e+02 5.0000000000e+01 0.0000e+00 0.0000e+00
</event>
<event>
 5      1 +5.6267200e-07 2.09275300e+02 7.95774700e-02 4.87655100e-01
       13 -1    0    0    0    0 +0.0000000000e+00 +0.0000000000e+00 +4.9999998884e+02 5.0000000000e+02 1.0566000000e-01 0.0000e+00 -1.0000e+00
      994 -1    0    0    0    0 -0.0000000000e+00 -0.0000000000e+00 +0.0000000000e+00 1.3100000000e+02 1.3100000000e+02 0.0000e+00 0.0000e+00
       13  1    1    2    0    0 -1.0987260021e+01 +1.7989392434e+00 +6.0180540056e+01 6.1201835190e+01 1.0566000000e-01 0.0000e+00 1.0000e+00
      994  1    1    2    0    0 +2.3138514564e-01 +2.7587425741e+01 +8.1543084396e+00 1.3412163265e+02 1.3100000000e+02 0.0000e+00 0.0000e+00
      997  1    1    2    0    0 +1.0755874876e+01 -2.9386364984e+01 +4.3166514034e+02 4.3567653216e+02 5.0000000000e+01 0.0000e+00 0.0000e+00
</event>
<event>
 5      1 +5.6267200e-07 1.96523900e+02 7.95774700e-02 5.10579200e-01
       13 -1    0    0    0    0 +0.0000000000e+00 +0.0000000000e+00 +4.9999998884e+02 5.0000000000e+02 1.0566000000e-01 0.0000e+00 -1.0000e+00
      994 -1    0    0    0    0 -0.0000000000e+00 -0.0000000000e+00 +0.0000000000e+00 1.3100000000e+02 1.3100000000e+02 0.0000e+00 0.0000e+00
       13  1    1    2    0    0 +3.8172592049e+01 +1.8215477188e+01 +6.7455123558e+01 7.9618812169e+01 1.0566000000e-01 0.0000e+00 1.0000e+00
      994  1    1    2    0    0 -3.2739582556e+01 -2.4362325477e+00 +2.1238556062e+01 1.3671097892e+02 1.3100000000e+02 0.0000e+00 0.0000e+00
      997  1    1    2    0    0 -5.4330094926e+00 -1.5779244641e+01 +4.1130630922e+02 4.1467020891e+02 5.0000000000e+01 0.0000e+00 0.0000e+00
</event>
<event>
 5      1 +5.6267200e-07 2.03730800e+02 7.95774700e-02 4.97168200e-01
       13 -1    0    0    0    0 +0.0000000000e+00 +0.0000000000e+00 +4.9999998884e+02 5.0000000000e+02 1.0566000000e-01 0.0000e+00 -1.0000e+00
      994 -1    0    0    0    0 -0.0000000000e+00 -0.0000000000e+00 +0.0000000000e+00 1.3100000000e+02 1.3100000000e+02 0.0000e+00 0.0000e+00
       13  1    1    2    0    0 -3.7472274801e+01 +2.5028320087e+01 +1.0177851656e+02 1.1130797718e+02 1.0566000000e-01 0.0000e+00 1.0000e+00
      994  1    1    2    0    0 +7.8576476129e+01 -6.9442688688e+00 +4.3956715209e+01 1.5910901383e+02 1.3100000000e+02 0.0000e+00 0.0000e+00
      997  1    1    2    0    0 -4.1104201328e+01 -1.8084051218e+01 +3.5426475706e+02 3.6058300899e+02 5.0000000000e+01 0.0000e+00 0.0000e+00
</event>
<event>
 5      1 +5.6267200e-07 2.01905200e+02 7.95774700e-02 5.00448000e-01
       13 -1    0    0    0    0 +0.0000000000e+00 +0.0000000000e+00 +4.9999998884e+02 5.0000000000e+02 1.0566000000e-01 0.0000e+00 -1.0000e+00
      994 -1    0    0    0    0 -0.0000000000e+00 -0.0000000000e+00 +0.0000000000e+00 1.3100000000e+02 1.3100000000e+02 0.0000e+00 0.0000e+00
       13  1    1    2    0    0 +1.8321689189e+01 +1.4955569129e+00 +1.4980500845e+01 2.3713868407e+01 1.0566000000e-01 0.0000e+00 1.0000e+00
      994  1    1    2    0    0 -4.3193955934e+01 +5.8787086880e+01 +4.0611355069e+01 1.5534452541e+02 1.3100000000e+02 0.0000e+00 0.0000e+00
      997  1    1    2    0    0 +2.4872266744e+01 -6.0282643793e+01 +4.4440813292e+02 4.5194160619e+02 5.0000000000e+01 0.0000e+00 0.0000e+00
</event>
<event>
 5      1 +5.6267200e-07 2.09120600e+02 7.95774700e-02 4.87911800e-01
       13 -1    0    0    0    0 +0.0000000000e+00 +0.0000000000e+00 +4.9999998884e+02 5.0000000000e+02 1.0566000000e-01 0.0000e+00 -1.0000e+00
      994 -1    0    0    0    0 -0.0000000000e+00 -0.0000000000e+00 +0.0000000000e+00 1.3100000000e+02 1.3100000000e+02 0.0000e+00 0.0000e+00
       13  1    1    2    0    0 +1.4394625760e+01 +9.8341785597e+00 +7.2652316273e+01 7.4714700981e+01 1.0566000000e-01 0.0000e+00 1.0000e+00
      994  1    1    2    0    0 -2.9088004407e+01 -7.4375545059e+00 +9.0002330012e+00 1.3469756275e+02 1.3100000000e+02 0.0000e+00 0.0000e+00
      997  1    1    2    0    0 +1.4693378647e+01 -2.3966240538e+00 +4.1834743956e+02 4.2158773627e+02 5.0000000000e+01 0.0000e+00 0.0000e+00
</event>
<event>
 5      1 +5.6267200e-07 1.63301700e+02 7.95774700e-02 5.94279300e-01
       13 -1    0    0    0    0 +0.0000000000e+00 +0.0000000000e+00 +4.9999998884e+02 5.0000000000e+02 1.0566000000e-01 0.0000e+00 -1.0000e+00
      994 -1    0    0    0    0 -0.0000000000e+00 -0.0000000000e+00 +0.0000000000e+00 1.3100000000e+02 1.3100000000e+02 0.0000e+00 0.0000e+00
       13  1    1    2    0    0 +8.1044613757e+01 +4.1269258117e+01 +6.3379474426e+01 1.1085283049e+02 1.0566000000e-01 0.0000e+00 1.0000e+00
      994  1    1    2    0    0 -9.6216260959e+01 -4.9871529605e+01 +1.4409034113e+02 2.2286265893e+02 1.3100000000e+02 0.0000e+00 0.0000e+00
      997  1    1    2    0    0 +1.5171647202e+01 +8.6022714876e+00 +2.9253017328e+02 2.9728451058e+02 5.0000000000e+01 0.0000e+00 0.0000e+00
</event>
<event>
 5      1 +5.6267200e-07 2.07674100e+02 7.95774700e-02 4.90335800e-01
       13 -1    0    0    0    0 +0.0000000000e+00 +0.0000000000e+00 +4.9999998884e+02 5.0000000000e+02 1.0566000000e-01 0.0000e+00 -1.0000e+00
      994 -1    0    0    0    0 -0.0000000000e+00 -0.0000000000e+00 +0.0000000000e+00 1.3100000000e+02 1.3100000000e+02 0.0000e+00 0.0000e+00
       13  1    1    2    0    0 -3.0901661624e+00 +1.1843933227e+01 +2.5055362940e+01 2.7885664010e+01 1.0566000000e-01 0.0000e+00 1.0000e+00
      994  1    1    2    0    0 -1.4257125497e+01 -1.0739870333e+01 +7.2239837915e+00 1.3240769005e+02 1.3100000000e+02 0.0000e+00 0.0000e+00
      997  1    1    2    0    0 +1.7347291659e+01 -1.1040628942e+00 +4.6772064210e+02 4.7070664594e+02 5.0000000000e+01 0.0000e+00 0.0000e+00
</event>
<event>
 5      1 +5.6267200e-07 2.07074800e+02 7.95774700e-02 4.91352700e-01
       13 -1    0    0    0    0 +0.0000000000e+00 +0.0000000000e+00 +4.9999998884e+02 5.0000000000e+02 1.0566000000e-01 0.0000e+00 1.0000e+00
      994 -1    0    0    0    0 -0.0000000000e+00 -0.0000000000e+00 +0.0000000000e+00 1.3100000000e+02 1.3100000000e+02 0.0000e+00 0.0000e+00
       13  1    1    2    0    0 -9.8502784930e+00 -1.9143313916e+01 +8.8125191835e+01 9.0716895087e+01 1.0566000000e-01 0.0000e+00 -1.0000e+00
      994  1    1    2    0    0 -6.1618147728e+00 +9.7589070220e+00 +6.7688809182e+00 1.3168151722e+02 1.3100000000e+02 0.0000e+00 0.0000e+00
      997  1    1    2    0    0 +1.6012093266e+01 +9.3844068941e+00 +4.0510591608e+02 4.0860158770e+02 5.0000000000e+01 0.0000e+00 0.0000e+00
</event>
<event>
 5      1 +5.6267200e-07 2.09261200e+02 7.95774700e-02 4.87678400e-01
       13 -1    0    0    0    0 +0.0000000000e+00 +0.0000000000e+00 +4.9999998884e+02 5.0000000000e+02 1.0566000000e-01 0.0000e+00 1.0000e+00
      994 -1    0    0    0    0 -0.0000000000e+00 -0.0000000000e+00 +0.0000000000e+00 1.3100000000e+02 1.3100000000e+02 0.0000e+00 0.0000e+00
       13  1    1    2    0    0 +1.5163379058e+01 +4.0929295355e-01 +8.9608226186e+01 9.0883116966e+01 1.0566000000e-01 0.0000e+00 -1.0000e+00
      994  1    1    2    0    0 -1.1011454391e+01 -6.9097075252e+00 +5.1655218179e+00 1.3174474867e+02 1.3100000000e+02 0.0000e+00 0.0000e+00
      997  1    1    2    0    0 -4.1519246670e+00 +6.5004145717e+00 +4.0522624083e+02 4.0837213437e+02 5.0000000000e+01 0.0000e+00 0.0000e+00
</event>
<event>
 5      1 +5.6267200e-07 2.05992000e+02 7.95774700e-02 4.93209400e-01
       13 -1    0    0    0    0 +0.0000000000e+00 +0.0000000000e+00 +4.9999998884e+02 5.0000000000e+02 1.0566000000e-01 0.0000e+00 -1.0000e+00
      994 -1    0    0    0    0 -0.0000000000e+00 -0.0000000000e+00 +0.0000000000e+00 1.3100000000e+02 1.3100000000e+02 0.0000e+00 0.0000e+00
       13  1    1    2    0    0 -8.5581992898e+00 +7.2479099354e+00 +1.2336701064e+01 1.6672742147e+01 1.0566000000e-01 0.0000e+00 1.0000e+00
      994  1    1    2    0    0 -3.7470790958e-02 -1.7753306570e+01 +8.6068783961e+00 1.3247739299e+02 1.3100000000e+02 0.0000e+00 0.0000e+00
      997  1    1    2    0    0 +8.5956700808e+00 +1.0505396635e+01 +4.7905640938e+02 4.8184986486e+02 5.0000000000e+01 0.0000e+00 0.0000e+00
</event>
<event>
 5      1 +5.6267200e-07 2.08013300e+02 7.95774700e-02 4.89763600e-01
       13 -1    0    0    0    0 +0.0000000000e+00 +0.0000000000e+00 +4.9999998884e+02 5.0000000000e+02 1.0566000000e-01 0.0000e+00 1.0000e+00
      994 -1    0    0    0    0 -0.0000000000e+00 -0.0000000000e+00 +0.0000000000e+00 1.3100000000e+02 1.3100000000e+02 0.0000e+00 0.0000e+00
       13  1    1    2    0    0 -1.2828410594e+01 -5.6974585520e-01 +3.6811116980e+01 3.8986692935e+01 1.0566000000e-01 0.0000e+00 -1.0000e+00
      994  1    1    2    0    0 -4.9832059788e+00 +1.9488230726e+00 +5.4680376511e+00 1.3122320560e+02 1.3100000000e+02 0.0000e+00 0.0000e+00
      997  1    1    2    0    0 +1.7811616572e+01 -1.3790772174e+00 +4.5772083421e+02 4.6079010146e+02 5.0000000000e+01 0.0000e+00 0.0000e+00
</event>
<event>
 5      1 +5.6267200e-07 2.06959000e+02 7.95774700e-02 4.91550100e-01
       13 -1    0    0    0    0 +0.0000000000e+00 +0.0000000000e+00 +4.9999998884e+02 5.0000000000e+02 1.0566000000e-01 0.0000e+00 1.0000e+00
      994 -1    0    0    0    0 -0.0000000000e+00 -0.0000000000e+00 +0.0000000000e+00 1.3100000000e+02 1.3100000000e+02 0.0000e+00 0.0000e+00
       13  1    1    2    0    0 +1.0636780412e+01 +6.9106767009e+00 +2.0575927409e+01 2.4171853524e+01 1.0566000000e-01 0.0000e+00 -1.0000e+00
      994  1    1    2    0    0 -5.9083500906e+00 -1.6203473300e+01 +7.7081033200e+00 1.3235511325e+02 1.3100000000e+02 0.0000e+00 0.0000e+00
      997  1    1    2    0    0 -4.7284303216e+00 +9.2927965993e+00 +4.7171595811e+02 4.7447303322e+02 5.0000000000e+01 0.0000e+00 0.0000e+00
</event>
<event>
 5      1 +5.6267200e-07 2.05218000e+02 7.95774700e-02 4.94551900e-01
       13 -1    0    0    0    0 +0.0000000000e+00 +0.0000000000e+00 +4.9999998884e+02 5.0000000000e+02 1.0566000000e-01 0.0000e+00 -1.0000e+00
      994 -1    0    0    0    0 -0.0000000000e+00 -0.0000000000e+00 +0.0000000000e+00 1.3100000000e+02 1.3100000000e+02 0.0000e+00 0.0000e+00
       13  1    1    2    0    0 +2.0180425722e+01 +8.4632360614e+00 +4.3329569645e+01 4.8542133416e+01 1.0566000000e-01 0.0000e+00 1.0000e+00
      994  1    1    2    0    0 -2.5290227599e+01 -1.4648472815e+00 +1.0969097351e+01 1.3387704242e+02 1.3100000000e+02 0.0000e+00 0.0000e+00
      997  1    1    2    0    0 +5.1098018777e+00 -6.9983887799e+00 +4.4570132184e+02 4.4858082417e+02 5.0000000000e+01 0.0000e+00 0.0000e+00
</event>
<event>
 5      1 +5.6267200e-07 1.92664100e+02 7.95774700e-02 5.18306700e-01
       13 -1    0    0    0    0 +0.0000000000e+00 +0.0000000000e+00 +4.9999998884e+02 5.0000000000e+02 1.0566000000e-01 0.0000e+00 1.0000e+00
      994 -1    0    0    0    0 -0.0000000000e+00 -0.0000000000e+00 +0.0000000000e+00 1.3100000000e+02 1.3100000000e+02 0.0000e+00 0.0000e+00
       13  1    1    2    0    0 +3.2293408576e+01 -4.7120744446e+01 +1.1300082078e+02 1.2661921440e+02 1.0566000000e-01 0.0000e+00 -1.0000e+00
      994  1    1    2    0    0 +6.0157846042e+00 +3.8361296209e+01 +2.7593629743e+01 1.3939220607e+02 1.3100000000e+02 0.0000e+00 0.0000e+00
      997  1    1    2    0    0 -3.8309193180e+01 +8.7594482369e+00 +3.5940553831e+02 3.6498857952e+02 5.0000000000e+01 0.0000e+00 0.0000e+00
</event>
<event>
 5      1 +5.6267200e-07 2.06443900e+02 7.95774700e-02 4.92431500e-01
       13 -1    0    0    0    0 +0.0000000000e+00 +0.0000000000e+00 +4.9999998884e+02 5.0000000000e+02 1.0566000000e-01 0.0000e+00 -1.0000e+00
      994 -1    0    0    0    0 -0.0000000000e+00 -0.0000000000e+00 +0.0000000000e+00 1.3100000000e+02 1.3100000000e+02 0.0000e+00 0.0000e+00
       13  1    1    2    0    0 +1.5344843491e+00 +1.6509218073e+01 +3.0940124934e+01 3.5102869093e+01 1.0566000000e-01 0.0000e+00 1.0000e+00
      994  1    1    2    0    0 -1.4539779107e+01 -1.9368913894e+01 +9.6352765016e+00 1.3356795482e+02 1.3100000000e+02 0.0000e+00 0.0000e+00
      997  1    1    2    0    0 +1.3005294758e+01 +2.8596958210e+00 +4.5942458740e+02 4.6232917609e+02 5.0000000000e+01 0.0000e+00 0.0000e+00
</event>
<event>
 5      1 +5.6267200e-07 2.03983700e+02 7.95774700e-02 4.96719900e-01
       13 -1    0    0    0    0 +0.0000000000e+00 +0.0000000000e+00 +4.9999998884e+02 5.0000000000e+02 1.0566000000e-01 0.0000e+00 1.0000e+00
      994 -1    0    0    0    0 -0.0000000000e+00 -0.0000000000e+00 +0.0000000000e+00 1.3100000000e+02 1.3100000000e+02 0.0000e+00 0.0000e+00
       13  1    1    2    0    0 -4.9945526420e+01 -1.8054580424e+01 +1.4086198827e+02 1.5054113852e+02 1.0566000000e-01 0.0000e+00 -1.0000e+00
      994  1    1    2    0    0 +6.3209389496e+01 +3.0625751130e+01 +3.5965313156e+01 1.5293092331e+02 1.3100000000e+02 0.0000e+00 0.0000e+00
      997  1    1    2    0    0 -1.3263863077e+01 -1.2571170707e+01 +3.2317268741e+02 3.2752793818e+02 5.0000000000e+01 0.0000e+00 0.0000e+00
</event>
<event>
 5      1 +5.6267200e-07 2.02003000e+02 7.95774700e-02 5.00270400e-01
       13 -1    0    0    0    0 +0.0000000000e+00 +0.0000000000e+00 +4.9999998884e+02 5.0000000000e+02 1.0566000000e-01 0.0000e+00 -1.0000e+00
      994 -1    0    0    0    0 -0.0000000000e+00 -0.0000000000e+00 +0.0000000000e+00 1.3100000000e+02 1.3100000000e+02 0.0000e+00 0.0000e+00
       13  1    1    2    0    0 +1.2983456757e+01 -8.2589473650e+00 +1.3440668574e+01 2.0431424246e+01 1.0566000000e-01 0.0000e+00 1.0000e+00
      994  1    1    2    0    0 -9.8139843336e+00 -2.0044406587e+01 +1.2995324048e+01 1.3352142514e+02 1.3100000000e+02 0.0000e+00 0.0000e+00
      997  1    1    2    0    0 -3.1694724238e+00 +2.8303353952e+01 +4.7356399621e+02 4.7704715062e+02 5.0000000000e+01 0.0000e+00 0.0000e+00
</event>
<event>
 5      1 +5.6267200e-07 2.02601800e+02 7.95774700e-02 4.99187500e-01
       13 -1    0    0    0    0 +0.0000000000e+00 +0.0000000000e+00 +4.9999998884e+02 5.0000000000e+02 1.0566000000e-01 0.0000e+00 1.0000e+00
      994 -1    0    0    0    0 -0.0000000000e+00 -0.0000000000e+00 +0.0000000000e+00 1.3100000000e+02 1.3100000000e+02 0.0000e+00 0.0000e+00
       13  1    1    2    0    0 -3.3003863036e+01 -1.9639892565e+01 +6.1275114666e+01 7.2316189036e+01 1.0566000000e-01 0.0000e+00 -1.0000e+00
      994  1    1    2    0    0 +4.2662452599e+01 +7.2468645496e+01 +5.0603601618e+01 1.6368724428e+02 1.3100000000e+02 0.0000e+00 0.0000e+00
      997  1    1    2    0    0 -9.6585895636e+00 -5.2828752931e+01 +3.8812127255e+02 3.9499656669e+02 5.0000000000e+01 0.0000e+00 0.0000e+00
</event>
<event>
 5      1 +5.6267200e-07 1.94557800e+02 7.95774700e-02 5.14464800e-01
       13 -1    0    0    0    0 +0.0000000000e+00 +0.0000000000e+00 +4.9999998884e+02 5.0000000000e+02 1.0566000000e-01 0.0000e+00 1.0000e+00
      994 -1    0    0    0    0 -0.0000000000e+00 -0.0000000000e+00 +0.0000000000e+00 1.3100000000e+02 1.3100000000e+02 0.0000e+00 0.0000e+00
       13  1    1    2    0    0 -3.9773131876e+01 +7.0375635583e+00 +9.1017134295e+01 9.9576901033e+01 1.0566000000e-01 0.0000e+00 -1.0000e+00
      994  1    1    2    0    0 -2.3713384395e+01 -4.9921271763e+01 +3.5017124530e+01 1.4642969980e+02 1.3100000000e+02 0.0000e+00 0.0000e+00
      997  1    1    2    0    0 +6.3486516271e+01 +4.2883708205e+01 +3.7396573001e+02 3.8499339916e+02 5.0000000000e+01 0.0000e+00 0.0000e+00
</event>
<event>
 5      1 +5.6267200e-07 2.07369200e+02 7.95774700e-02 4.90852300e-01
       13 -1    0    0    0    0 +0.0000000000e+00 +0.0000000000e+00 +4.9999998884e+02 5.0000000000e+02 1.0566000000e-01 0.0000e+00 -1.0000e+00
      994 -1    0    0    0    0 -0.0000000000e+00 -0.0000000000e+00 +0.0000000000e+00 1.3100000000e+02 1.3100000000e+02 0.0000e+00 0.0000e+00
       13  1    1    2    0    0 +1.3579161197e+01 -1.0501511556e+01 +3.4326214186e+01 3.8379363050e+01 1.0566000000e-01 0.0000e+00 1.0000e+00
      994  1    1    2    0    0 -3.0736190054e+01 +2.3218611675e+01 +1.3524509678e+01 1.3721417445e+02 1.3100000000e+02 0.0000e+00 0.0000e+00
      997  1    1    2    0    0 +1.7157028857e+01 -1.2717100119e+01 +4.5214926497e+02 4.5540646250e+02 5.0000000000e+01 0.0000e+00 0.0000e+00
</event>
<event>
 5      1 +5.6267200e-07 2.04624600e+02 7.95774700e-02 4.95589900e-01
       13 -1    0    0    0    0 +0.0000000000e+00 +0.0000000000e+00 +4.9999998884e+02 5.0000000000e+02 1.0566000000e-01 0.0000e+00 -1.0000e+00
      994 -1    0    0    0    0 -0.0000000000e+00 -0.0000000000e+00 +0.0000000000e+00 1.3100000000e+02 1.3100000000e+02 0.0000e+00 0.0000e+00
       13  1    1    2    0    0 +8.0332029939e+00 +4.2822930563e+01 +1.9481291908e+02 1.9962570059e+02 1.0566000000e-01 0.0000e+00 1.0000e+00
      994  1    1    2    0    0 -4.1637053851e+01 -3.6374425749e+01 +2.4576420645e+01 1.4429741354e+02 1.3100000000e+02 0.0000e+00 0.0000e+00
      997  1    1    2    0    0 +3.3603850857e+01 -6.4485048139e+00 +2.8061064911e+02 2.8707688587e+02 5.0000000000e+01 0.0000e+00 0.0000e+00
</event>
<event>
 5      1 +5.6267200e-07 1.96073000e+02 7.95774700e-02 5.11461300e-01
       13 -1    0    0    0    0 +0.0000000000e+00 +0.0000000000e+00 +4.9999998884e+02 5.0000000000e+02 1.0566000000e-01 0.0000e+00 -1.0000e+00
      994 -1    0    0    0    0 -0.0000000000e+00 -0.0000000000e+00 +0.0000000000e+00 1.3100000000e+02 1.3100000000e+02 0.0000e+00 0.0000e+00
       13  1    1    2    0    0 -2.8331622237e+01 -3.1362791802e+01 +1.7760029533e+02 1.8256007667e+02 1.0566000000e-01 0.0000e+00 1.0000e+00
      994  1    1    2    0    0 +6.0004436587e+00 -2.8146186154e+01 +2.0236502671e+01 1.3564191520e+02 1.3100000000e+02 0.0000e+00 0.0000e+00
      997  1    1    2    0    0 +2.2331178578e+01 +5.9508977956e+01 +3.0216319083e+02 3.1279800813e+02 5.0000000000e+01 0.0000e+00 0.0000e+00
</event>
<event>
 5      1 +5.6267200e-07 2.09369500e+02 7.95774700e-02 4.87499000e-01
       13 -1    0    0    0    0 +0.0000000000e+00 +0.0000000000e+00 +4.9999998884e+02 5.0000000000e+02 1.0566000000e-01 0.0000e+00 -1.0000e+00
      994 -1    0    0    0    0 -0.0000000000e+00 -0.0000000000e+00 +0.0000000000e+00 1.3100000000e+02 1.3100000000e+02 0.0000e+00 0.0000e+00
       13  1    1    2    0    0 -2.9832020402e+01 +1.2692375496e+01 +3.8067478085e+00 3.2642737782e+01 1.0566000000e-01 0.0000e+00 1.0000e+00
      994  1    1    2    0    0 +2.3706787213e+01 +3.1846250919e+01 +4.7859617772e+01 1.4500944270e+02 1.3100000000e+02 0.0000e+00 0.0000e+00
      997  1    1    2    0    0 +6.1252331893e+00 -4.4538626415e+01 +4.4833362326e+02 4.5334781952e+02 5.0000000000e+01 0.0000e+00 0.0000e+00
</event>
<event>
 5      1 +5.6267200e-07 2.09056100e+02 7.95774700e-02 4.88019000e-01
       13 -1    0    0    0    0 +0.0000000000e+00 +0.0000000000e+00 +4.9999998884e+02 5.0000000000e+02 1.0566000000e-01 0.0000e+00 -1.0000e+00
      994 -1    0    0    0    0 -0.0000000000e+00 -0.0000000000e+00 +0.0000000000e+00 1.3100000000e+02 1.3100000000e+02 0.0000e+00 0.0000e+00
       13  1    1    2    0    0 -1.0571504691e+01 +1.4659915414e+00 +3.4885278517e+01 3.6481497555e+01 1.0566000000e-01 0.0000e+00 1.0000e+00
      994  1    1    2    0    0 +1.4886521101e-02 -7.8628488732e+00 +4.7914239176e+00 1.3132319809e+02 1.3100000000e+02 0.0000e+00 0.0000e+00
      997  1    1    2    0    0 +1.0556618170e+01 +6.3968573317e+00 +4.6032328640e+02 4.6319530435e+02 5.0000000000e+01 0.0000e+00 0.0000e+00
</event>
<event>
 5      1 +5.6267200e-07 2.00872000e+02 7.95774700e-02 5.02338500e-01
       13 -1    0    0    0    0 +0.0000000000e+00 +0.0000000000e+00 +4.9999998884e+02 5.0000000000e+02 1.0566000000e-01 0.0000e+00 1.0000e+00
      994 -1    0    0    0    0 -0.0000000000e+00 -0.0000000000e+00 +0.0000000000e+00 1.3100000000e+02 1.3100000000e+02 0.0000e+00 0.0000e+00
       13  1    1    2    0    0 +7.9953135695e+01 -3.5690406926e+01 +1.4995055213e+02 1.7364183914e+02 1.0566000000e-01 0.0000e+00 -1.0000e+00
      994  1    1    2    0    0 -9.9160799106e+01 +7.8506233142e+01 +1.2190143614e+02 2.1912793719e+02 1.3100000000e+02 0.0000e+00 0.0000e+00
      997  1    1    2    0    0 +1.9207663411e+01 -4.2815826217e+01 +2.2814800056e+02 2.3823022367e+02 5.0000000000e+01 0.0000e+00 0.0000e+00
</event>
<event>
 5      1 +5.6267200e-07 1.95693800e+02 7.95774700e-02 5.12207000e-01
       13 -1    0    0    0    0 +0.0000000000e+00 +0.0000000000e+00 +4.9999998884e+02 5.0000000000e+02 1.0566000000e-01 0.0000e+00 -1.0000e+00
      994 -1    0    0    0    0 -0.0000000000e+00 -0.0000000000e+00 +0.0000000000e+00 1.3100000000e+02 1.3100000000e+02 0.0000e+00 0.0000e+00
       13  1    1    2    0    0 +3.7487751210e+01 +1.7234520878e+01 +8.5340175589e+01 9.4790911665e+01 1.0566000000e-01 0.0000e+00 1.0000e+00
      994  1    1    2    0    0 +7.2940877115e+00 -1.0905672836e+01 +1.6853106858e+01 1.3272966747e+02 1.3100000000e+02 0.0000e+00 0.0000e+00
      997  1    1    2    0    0 -4.4781838922e+01 -6.3288480422e+00 +3.9780670639e+02 4.0347942087e+02 5.0000000000e+01 0.0000e+00 0.0000e+00
</event>
<event>
 5      1 +5.6267200e-07 2.08759700e+02 7.95774700e-02 4.88512600e-01
       13 -1    0    0    0    0 +0.0000000000e+00 +0.0000000000e+00 +4.9999998884e+02 5.0000000000e+02 1.0566000000e-01 0.0000e+00 -1.0000e+00
      994 -1    0    0    0    0 -0.0000000000e+00 -0.0000000000e+00 +0.0000000000e+00 1.3100000000e+02 1.3100000000e+02 0.0000e+00 0.0000e+00
       13  1    1    2    0    0 -3.5330954089e+00 +1.1575501360e+01 +2.6818855883e+01 2.9423412273e+01 1.0566000000e-01 0.0000e+00 1.0000e+00
      994  1    1    2    0    0 +1.5455588514e+01 -2.8947348332e+01 +1.0205619832e+01 1.3543256207e+02 1.3100000000e+02 0.0000e+00 0.0000e+00
      997  1    1    2    0    0 -1.1922493105e+01 +1.7371846973e+01 +4.6297551312e+02 4.6614402566e+02 5.0000000000e+01 0.0000e+00 0.0000e+00
</event>
<event>
 5      1 +5.6267200e-07 2.02232400e+02 7.95774700e-02 4.99854400e-01
       13 -1    0    0    0    0 +0.0000000000e+00 +0.0000000000e+00 +4.9999998884e+02 5.0000000000e+02 1.0566000000e-01 0.0000e+00 -1.0000e+00
      994 -1    0    0    0    0 -0.0000000000e+00 -0.0000000000e+00 +0.0000000000e+00 1.3100000000e+02 1.3100000000e+02 0.0000e+00 0.0000e+00
       13  1    1    2    0    0 -1.7946415093e+01 +3.7499569514e-01 +2.1201054796e+01 2.7779674673e+01 1.0566000000e-01 0.0000e+00 1.0000e+00
      994  1    1    2    0    0 -5.9773559629e+00 -5.2547027596e+01 +2.5476323492e+01 1.4355125200e+02 1.3100000000e+02 0.0000e+00 0.0000e+00
      997  1    1    2    0    0 +2.3923771056e+01 +5.2172031901e+01 +4.5332261055e+02 4.5966907332e+02 5.0000000000e+01 0.0000e+00 0.0000e+00
</event>
<event>
 5      1 +5.6267200e-07 2.05491800e+02 7.95774700e-02 4.94075500e-01
       13 -1    0    0    0    0 +0.0000000000e+00 +0.0000000000e+00 +4.9999998884e+02 5.0000000000e+02 1.0566000000e-01 0.0000e+00 1.0000e+00
      994 -1    0    0    0    0 -0.0000000000e+00 -0.0000000000e+00 +0.0000000000e+00 1.3100000000e+02 1.3100000000e+02 0.0000e+00 0.0000e+00
       13  1    1    2    0    0 -2.3760261816e+00 -1.5534887476e+01 +2.5630541087e+01 3.0065163059e+01 1.0566000000e-01 0.0000e+00 -1.0000e+00
      994  1    1    2    0    0 -1.1280060146e+01 +7.4171794701e+00 +8.3356339909e+00 1.3195733061e+02 1.3100000000e+02 0.0000e+00 0.0000e+00
      997  1    1    2    0    0 +1.3656086328e+01 +8.1177080055e+00 +4.6603381376e+02 4.6897750633e+02 5.0000000000e+01 0.0000e+00 0.0000e+00
</event>
<event>
 5      1 +5.6267200e-07 2.04084300e+02 7.95774700e-02 4.96541800e-01
       13 -1    0    0    0    0 +0.0000000000e+00 +0.0000000000e+00 +4.9999998884e+02 5.0000000000e+02 1.0566000000e-01 0.0000e+00 -1.0000e+00
      994 -1    0    0    0    0 -0.0000000000e+00 -0.0000000000e+00 +0.0000000000e+00 1.3100000000e+02 1.3100000000e+02 0.0000e+00 0.0000e+00
       13  1    1    2    0    0 +3.3294113140e+01 -1.3954998812e+01 +1.2020877482e+02 1.2551255184e+02 1.0566000000e-01 0.0000e+00 1.0000e+00
      994  1    1    2    0    0 -3.4498753062e+01 -1.4561134896e+01 +1.6016431320e+01 1.3718497252e+02 1.3100000000e+02 0.0000e+00 0.0000e+00
      997  1    1    2    0    0 +1.2046399214e+00 +2.8516133708e+01 +3.6377478270e+02 3.6830247564e+02 5.0000000000e+01 0.0000e+00 0.0000e+00
</event>
<event>
 5      1 +5.6267200e-07 2.03901500e+02 7.95774700e-02 4.96865500e-01
       13 -1    0    0    0    0 +0.0000000000e+00 +0.0000000000e+00 +4.9999998884e+02 5.0000000000e+02 1.0566000000e-01 0.0000e+00 1.0000e+00
      994 -1    0    0    0    0 -0.0000000000e+00 -0.0000000000e+00 +0.0000000000e+00 1.3100000000e+02 1.3100000000e+02 0.0000e+00 0.0000e+00
       13  1    1    2    0    0 +1.9339101208e+01 -1.7414311162e+01 +7.8725466265e+01 8.2915434458e+01 1.0566000000e-01 0.0000e+00 -1.0000e+00
      994  1    1    2    0    0 -3.1670342766e+00 -1.2544082079e+01 +9.5969766403e+00 1.3198668896e+02 1.3100000000e+02 0.0000e+00 0.0000e+00
      997  1    1    2    0    0 -1.6172066931e+01 +2.9958393240e+01 +4.1167754593e+02 4.1609787658e+02 5.0000000000e+01 0.0000e+00 0.0000e+00
</event>
<event>
 5      1 +5.6267200e-07 2.01506400e+02 7.95774700e-02 5.01174600e-01
       13 -1    0    0    0    0 +0.0000000000e+00 +0.0000000000e+00 +4.9999998884e+02 5.0000000000e+02 1.0566000000e-01 0.0000e+00 1.0000e+00
      994 -1    0    0    0    0 -0.0000000000e+00 -0.0000000000e+00 +0.0000000000e+00 1.3100000000e+02 1.3100000000e+02 0.0000e+00 0.0000e+00
       13  1    1    2    0    0 -1.1727975639e+01 +5.0627099862e+00 +6.6110138348e+00 1.4383779509e+01 1.0566000000e-01 0.0000e+00 -1.0000e+00
      994  1    1    2    0    0 +1.1747801607e+01 +7.8119828276e+00 +1.1819173689e+01 1.3228654801e+02 1.3100000000e+02 0.0000e+00 0.0000e+00
      997  1    1    2    0    0 -1.9825967900e-02 -1.2874692814e+01 +4.8156980131e+02 4.8432967248e+02 5.0000000000e+01 0.0000e+00 0.0000e+00
</event>
<event>
 5      1 +5.6267200e-07 2.06088800e+02 7.95774700e-02 4.93042400e-01
       13 -1    0    0    0    0 +0.0000000000e+00 +0.0000000000e+00 +4.9999998884e+02 5.0000000000e+02 1.0566000000e-01 0.0000e+00 1.0000e+00
      994 -1    0    0    0    0 -0.0000000000e+00 -0.0000000000e+00 +0.0000000000e+00 1.3100000000e+02 1.3100000000e+02 0.0000e+00 0.0000e+00
       13  1    1    2    0    0 +9.5632994212e+00 -4.4730117784e+00 +1.1048965826e+01 1.5282517464e+01 1.0566000000e-01 0.0000e+00 -1.0000e+00
      994  1    1    2    0    0 -1.4705195941e+01 -8.0327940997e+00 +8.3474194909e+00 1.3233082778e+02 1.3100000000e+02 0.0000e+00 0.0000e+00
      997  1    1    2    0    0 +5.1418965203e+00 +1.2505805878e+01 +4.8060360352e+02 4.8338665476e+02 5.0000000000e+01 0.0000e+00 0.0000e+00
</event>
<event>
 5      1 +5.6267200e-07 1.95574800e+02 7.95774700e-02 5.12442000e-01
       13 -1    0    0    0    0 +0.0000000000e+00 +0.0000000000e+00 +4.9999998884e+02 5.0000000000e+02 1.0566000000e-01 0.0000e+00 1.0000e+00
      994 -1    0    0    0    0 -0.0000000000e+00 -0.0000000000e+00 +0.0000000000e+00 1.3100000000e+02 1.3100000000e+02 0.0000e+00 0.0000e+00
       13  1    1    2    0    0 +4.4010635251e+01 +2.9507205442e+01 +9.3407824730e+01 1.0739014886e+02 1.0566000000e-01 0.0000e+00 -1.0000e+00
      994  1    1    2    0    0 -5.8751952670e+01 +5.6135406411e+00 +3.6536283144e+01 1.4825384908e+02 1.3100000000e+02 0.0000e+00 0.0000e+00
      997  1    1    2    0    0 +1.4741317419e+01 -3.5120746083e+01 +3.7005588096e+02 3.7535600206e+02 5.0000000000e+01 0.0000e+00 0.0000e+00
</event>
<event>
 5      1 +5.6267200e-07 2.06959800e+02 7.95774700e-02 4.91548700e-01
       13 -1    0    0    0    0 +0.0000000000e+00 +0.0000000000e+00 +4.9999998884e+02 5.0000000000e+02 1.0566000000e-01 0.0000e+00 -1.0000e+00
      994 -1    0    0    0    0 -0.0000000000e+00 -0.0000000000e+00 +0.0000000000e+00 1.3100000000e+02 1.3100000000e+02 0.0000e+00 0.0000e+00
       13  1    1    2    0    0 -2.1539457841e+01 -3.1621775630e+01 +2.0853027741e+02 2.1201125607e+02 1.0566000000e-01 0.0000e+00 1.0000e+00
      994  1    1    2    0    0 +5.7434860213e+00 +6.2695980703e+01 +2.7308596298e+01 1.4788689279e+02 1.3100000000e+02 0.0000e+00 0.0000e+00
      997  1    1    2    0    0 +1.5795971819e+01 -3.1074205073e+01 +2.6416111513e+02 2.7110185114e+02 5.0000000000e+01 0.0000e+00 0.0000e+00
</event>
<event>
 5      1 +5.6267200e-07 2.06006800e+02 7.95774700e-02 4.93183800e-01
       13 -1    0    0    0    0 +0.0000000000e+00 +0.0000000000e+00 +4.9999998884e+02 5.0000000000e+02 1.0566000000e-01 0.0000e+00 1.0000e+00
      994 -1    0    0    0    0 -0.0000000000e+00 -0.0000000000e+00 +0.0000000000e+00 1.3100000000e+02 1.3100000000e+02 0.0000e+00 0.0000e+00
       13  1    1    2    0    0 +1.4726664545e+01 +3.8680197661e+01 +1.3273898804e+02 1.3904201685e+02 1.0566000000e-01 0.0000e+00 -1.0000e+00
      994  1    1    2    0    0 -2.2746613440e+01 -5.1067099429e+01 +2.3607817729e+01 1.4437307964e+02 1.3100000000e+02 0.0000e+00 0.0000e+00
      997  1    1    2    0    0 +8.0199488954e+00 +1.2386901768e+01 +3.4365318307e+02 3.4758490351e+02 5.0000000000e+01 0.0000e+00 0.0000e+00
</event>
<event>
 5      1 +5.6267200e-07 2.10770900e+02 7.95774700e-02 4.85197800e-01
       13 -1    0    0    0    0 +0.0000000000e+00 +0.0000000000e+00 +4.9999998884e+02 5.0000000000e+02 1.0566000000e-01 0.0000e+00 1.0000e+00
      994 -1    0    0    0    0 -0.0000000000e+00 -0.0000000000e+00 +0.0000000000e+00 1.3100000000e+02 1.3100000000e+02 0.0000e+00 0.0000e+00
       13  1    1    2    0    0 +1.2369237072e+01 +5.6284940792e+00 +7.3487136543e+01 7.4733181202e+01 1.0566000000e-01 0.0000e+00 -1.0000e+00
      994  1    1    2    0    0 -5.6981621519e+01 -4.3128587664e+01 +2.9775122789e+01 1.5216615327e+02 1.3100000000e+02 0.0000e+00 0.0000e+00
      997  1    1    2    0    0 +4.4612384447e+01 +3.7500093585e+01 +3.9673772950e+02 4.0410066552e+02 5.0000000000e+01 0.0000e+00 0.0000e+00
</event>
<event>
 5      1 +5.6267200e-07 2.04786900e+02 7.95774700e-02 4.95305200e-01
       13 -1    0    0    0    0 +0.0000000000e+00 +0.0000000000e+00 +4.9999998884e+02 5.0000000000e+02 1.0566000000e-01 0.0000e+00 -1.0000e+00
      994 -1    0    0    0    0 -0.0000000000e+00 -0.0000000000e+00 +0.0000000000e+00 1.3100000000e+02 1.3100000000e+02 0.0000e+00 0.0000e+00
       13  1    1    2    0    0 +6.6352201770e+00 +2.2263146722e+01 +8.1890181895e+01 8.5121600687e+01 1.0566000000e-01 0.0000e+00 1.0000e+00
      994  1    1    2    0    0 +1.7282027486e+00 +1.3946270925e+01 +9.0067106480e+00 1.3205910038e+02 1.3100000000e+02 0.0000e+00 0.0000e+00
      997  1    1    2    0    0 -8.3634229256e+00 -3.6209417647e+01 +4.0910309629e+02 4.1381929893e+02 5.0000000000e+01 0.0000e+00 0.0000e+00
</event>
<event>
 5      1 +5.6267200e-07 2.02964800e+02 7.95774700e-02 4.98535100e-01
       13 -1    0    0    0    0 +0.0000000000e+00 +0.0000000000e+00 +4.9999998884e+02 5.0000000000e+02 1.0566000000e-01 0.0000e+00 -1.0000e+00
      994 -1    0    0    0    0 -0.0000000000e+00 -0.0000000000e+00 +0.0000000000e+00 1.3100000000e+02 1.3100000000e+02 0.0000e+00 0.0000e+00
       13  1    1    2    0    0 +1.6571326805e+01 +3.0670642994e+00 +1.8376543944e+01 2.4934399669e+01 1.0566000000e-01 0.0000e+00 1.0000e+00
      994  1    1    2    0    0 -6.6445077757e+00 -1.5164678472e+01 +1.0961135027e+01 1.3249627707e+02 1.3100000000e+02 0.0000e+00 0.0000e+00
      997  1    1    2    0    0 -9.9268190291e+00 +1.2097614173e+01 +4.7066230987e+02 4.7356932326e+02 5.0000000000e+01 0.0000e+00 0.0000e+00
</event>
<event>
 5      1 +5.6267200e-07 2.00166600e+02 7.95774700e-02 5.03643600e-01
       13 -1    0    0    0    0 +0.0000000000e+00 +0.0000000000e+00 +4.9999998884e+02 5.0000000000e+02 1.0566000000e-01 0.0000e+00 1.0000e+00
      994 -1    0    0    0    0 -0.0000000000e+00 -0.0000000000e+00 +0.0000000000e+00 1.3100000000e+02 1.3100000000e+02 0.0000e+00 0.0000e+00
       13  1    1    2    0    0 +1.3978434286e+01 -3.1234844687e+01 +6.5296132418e+01 7.3719795310e+01 1.0566000000e-01 0.0000e+00 -1.0000e+00
      994  1    1    2    0    0 +6.6607513940e+00 +2.2400411948e+01 +1.4884340217e+01 1.3389804946e+02 1.3100000000e+02 0.0000e+00 0.0000e+00
      997  1    1    2    0    0 -2.0639185680e+01 +8.8344327393e+00 +4.1981951620e+02 4.2338215523e+02 5.0000000000e+01 0.0000e+00 0.0000e+00
</event>
<event>
 5      1 +5.6267200e-07 1.96788400e+02 7.95774700e-02 5.10064200e-01
       13 -1    0    0    0    0 +0.0000000000e+00 +0.0000000000e+00 +4.9999998884e+02 5.0000000000e+02 1.0566000000e-01 0.0000e+00 1.0000e+00
      994 -1    0    0    0    0 -0.0000000000e+00 -0.0000000000e+00 +0.0000000000e+00 1.3100000000e+02 1.3100000000e+02 0.0000e+00 0.0000e+00
       13  1    1    2    0    0 +2.2346442624e+01 +5.7344835415e+01 +1.2469243528e+02 1.3905397595e+02 1.0566000000e-01 0.0000e+00 -1.0000e+00
      994  1    1    2    0    0 -9.3203820904e+00 -5.8295743973e+01 +3.5202709259e+01 1.4793746661e+02 1.3100000000e+02 0.0000e+00 0.0000e+00
      997  1    1    2    0    0 -1.3026060534e+01 +9.5090855895e-01 +3.4010484429e+02 3.4400855744e+02 5.0000000000e+01 0.0000e+00 0.0000e+00
</event>
<event>
 5      1 +5.6267200e-07 1.97283100e+02 7.95774700e-02 5.09105900e-01
       13 -1    0    0    0    0 +0.0000000000e+00 +0.0000000000e+00 +4.9999998884e+02 5.0000000000e+02 1.0566000000e-01 0.0000e+00 -1.0000e+00
      994 -1    0    0    0    0 -0.0000000000e+00 -0.0000000000e+00 +0.0000000000e+00 1.3100000000e+02 1.3100000000e+02 0.0000e+00 0.0000e+00
       13  1    1    2    0    0 +2.0792183146e+01 +2.7055898327e+01 +4.8454131897e+01 5.9263399972e+01 1.0566000000e-01 0.0000e+00 1.0000e+00
      994  1    1    2    0    0 +1.2435989849e+00 -2.2710883600e+01 +1.7341288817e+01 1.3408598387e+02 1.3100000000e+02 0.0000e+00 0.0000e+00
      997  1    1    2    0    0 -2.2035782131e+01 -4.3450147268e+00 +4.3420456812e+02 4.3765061616e+02 5.0000000000e+01 0.0000e+00 0.0000e+00
</event>
<event>
 5      1 +5.6267200e-07 2.08479700e+02 7.95774700e-02 4.88980600e-01
       13 -1    0    0    0    0 +0.0000000000e+00 +0.0000000000e+00 +4.9999998884e+02 5.0000000000e+02 1.0566000000e-01 0.0000e+00 1.0000e+00
      994 -1    0    0    0    0 -0.0000000000e+00 -0.0000000000e+00 +0.0000000000e+00 1.3100000000e+02 1.3100000000e+02 0.0000e+00 0.0000e+00
       13  1    1    2    0    0 -8.8863024407e+00 +4.7649977344e+00 +2.1797738535e+01 2.4017163524e+01 1.0566000000e-01 0.0000e+00 -1.0000e+00
      994  1    1    2    0    0 +1.3034615503e+01 +1.2518982068e+01 +6.6009710900e+00 1.3240543392e+02 1.3100000000e+02 0.0000e+00 0.0000e+00
      997  1    1    2    0    0 -4.1483130626e+00 -1.7283979802e+01 +4.7160127921e+02 4.7457740255e+02 5.0000000000e+01 0.0000e+00 0.0000e+00
</event>
<event>
 5      1 +5.6267200e-07 2.07621700e+02 7.95774700e-02 4.90424400e-01
       13 -1    0    0    0    0 +0.0000000000e+00 +0.0000000000e+00 +4.9999998884e+02 5.0000000000e+02 1.0566000000e-01 0.0000e+00 1.0000e+00
      994 -1    0    0    0    0 -0.0000000000e+00 -0.0000000000e+00 +0.0000000000e+00 1.3100000000e+02 1.3100000000e+02 0.0000e+00 0.0000e+00
       13  1    1    2    0    0 +6.2973573444e+00 -8.6611767953e+00 +1.9176816729e+01 2.1964383827e+01 1.0566000000e-01 0.0000e+00 -1.0000e+00
      994  1    1    2    0    0 -1.8838159156e+01 -1.2539445740e+01 +8.2599395811e+00 1.3319662361e+02 1.3100000000e+02 0.0000e+00 0.0000e+00
      997  1    1    2    0    0 +1.2540801811e+01 +2.1200622535e+01 +4.7256323253e+02 4.7583899256e+02 5.0000000000e+01 0.0000e+00 0.0000e+00
</event>
<event>
 5      1 +5.6267200e-07 2.04623000e+02 7.95774700e-02 4.95592600e-01
       13 -1    0    0    0    0 +0.0000000000e+00 +0.0000000000e+00 +4.9999998884e+02 5.0000000000e+02 1.0566000000e-01 0.0000e+00 1.0000e+00
      994 -1    0    0    0    0 -0.0000000000e+00 -0.0000000000e+00 +0.0000000000e+00 1.3100000000e+02 1.3100000000e+02 0.0000e+00 0.0000e+00
       13  1    1    2    0    0 -1.5928759359e+01 -2.2378036848e+01 +1.5297680238e+02 1.5542334168e+02 1.0566000000e-01 0.0000e+00 -1.0000e+00
      994  1    1    2    0    0 -4.1352639872e+01 +5.0420438638e+01 +3.1331818705e+01 1.4964940468e+02 1.3100000000e+02 0.0000e+00 0.0000e+00
      997  1    1    2    0    0 +5.7281399232e+01 -2.8042401790e+01 +3.1569136775e+02 3.2592725364e+02 5.0000000000e+01 0.0000e+00 0.0000e+00
</event>
<event>
 5      1 +5.6267200e-07 2.02810300e+02 7.95774700e-02 4.98812400e-01
       13 -1    0    0    0    0 +0.0000000000e+00 +0.0000000000e+00 +4.9999998884e+02 5.0000000000e+02 1.0566000000e-01 0.0000e+00 1.0000e+00
      994 -1    0    0    0    0 -0.0000000000e+00 -0.0000000000e+00 +0.0000000000e+00 1.3100000000e+02 1.3100000000e+02 0.0000e+00 0.0000e+00
       13  1    1    2    0    0 +3.6166336749e+00 -1.4409303928e+01 +1.1971914594e+01 1.9079989044e+01 1.0566000000e-01 0.0000e+00 -1.0000e+00
      994  1    1    2    0    0 -2.2734208876e+01 +1.5398631282e+01 +1.3662105116e+01 1.3454224324e+02 1.3100000000e+02 0.0000e+00 0.0000e+00
      997  1    1    2    0    0 +1.9117575201e+01 -9.8932735475e-01 +4.7436596913e+02 4.7737776772e+02 5.0000000000e+01 0.0000e+00 0.0000e+00
</event>
<event>
 5      1 +5.6267200e-07 1.92586700e+02 7.95774700e-02 5.18465800e-01
       13 -1    0    0    0    0 +0.0000000000e+00 +0.0000000000e+00 +4.9999998884e+02 5.0000000000e+02 1.0566000000e-01 0.0000e+00 -1.0000e+00
      994 -1    0    0    0    0 -0.0000000000e+00 -0.0000000000e+00 +0.0000000000e+00 1.3100000000e+02 1.3100000000e+02 0.0000e+00 0.0000e+00
       13  1    1    2    0    0 -3.2249659264e+01 -6.7121833526e+00 +2.9536119367e+01 4.4243501661e+01 1.0566000000e-01 0.0000e+00 1.0000e+00
      994  1    1    2    0    0 +1.7804692539e+01 -1.8015875417e+01 +2.2752348489e+01 1.3535231141e+02 1.3100000000e+02 0.0000e+00 0.0000e+00
      997  1    1    2    0    0 +1.4444966725e+01 +2.4728058770e+01 +4.4771152098e+02 4.5140418692e+02 5.0000000000e+01 0.0000e+00 0.0000e+00
</event>
<event>
 5      1 +5.6267200e-07 2.05197600e+02 7.95774700e-02 4.94587400e-01
       13 -1    0    0    0    0 +0.0000000000e+00 +0.0000000000e+00 +4.9999998884e+02 5.0000000000e+02 1.0566000000e-01 0.0000e+00 -1.0000e+00
      994 -1    0    0    0    0 -0.0000000000e+00 -0.0000000000e+00 +0.0000000000e+00 1.3100000000e+02 1.3100000000e+02 0.0000e+00 0.0000e+00
       13  1    1    2    0    0 +1.1231144973e+01 -1.4935389131e+01 +4.0817751478e+01 4.4892142582e+01 1.0566000000e-01 0.0000e+00 1.0000e+00
      994  1    1    2    0    0 +8.0723659782e+00 +2.8742902913e-01 +7.9732829849e+00 1.3149075614e+02 1.3100000000e+02 0.0000e+00 0.0000e+00
      997  1    1    2    0    0 -1.9303510951e+01 +1.4647960102e+01 +4.5120895437e+02 4.5461710128e+02 5.0000000000e+01 0.0000e+00 0.0000e+00
</event>
<event>
 5      1 +5.6267200e-07 2.03229700e+02 7.95774700e-02 4.98060900e-01
       13 -1    0    0    0    0 +0.0000000000e+00 +0.0000000000e+00 +4.9999998884e+02 5.0000000000e+02 1.0566000000e-01 0.0000e+00 1.0000e+00
      994 -1    0    0    0    0 -0.0000000000e+00 -0.0000000000e+00 +0.0000000000e+00 1.3100000000e+02 1.3100000000e+02 0.0000e+00 0.0000e+00
       13  1    1    2    0    0 +2.0612089506e+01 -9.2876071953e+00 +1.7072901908e+01 2.8330425779e+01 1.0566000000e-01 0.0000e+00 -1.0000e+00
      994  1    1    2    0    0 -6.6878701739e+01 +8.7433318354e+01 +8.4234463798e+01 1.9071914114e+02 1.3100000000e+02 0.0000e+00 0.0000e+00
      997  1    1    2    0    0 +4.6266612234e+01 -7.8145711159e+01 +3.9869262313e+02 4.1195043308e+02 5.0000000000e+01 0.0000e+00 0.0000e+00
</event>
<event>
 5      1 +5.6267200e-07 2.08038300e+02 7.95774700e-02 4.89721500e-01
       13 -1    0    0    0    0 +0.0000000000e+00 +0.0000000000e+00 +4.9999998884e+02 5.0000000000e+02 1.0566000000e-01 0.0000e+00 1.0000e+00
      994 -1    0    0    0    0 -0.0000000000e+00 -0.0000000000e+00 +0.0000000000e+00 1.3100000000e+02 1.3100000000e+02 0.0000e+00 0.0000e+00
       13  1    1    2    0    0 -8.3457152958e+00 -5.9930317550e+00 +3.4454846749e+01 3.5954346356e+01 1.0566000000e-01 0.0000e+00 -1.0000e+00
      994  1    1    2    0    0 -3.0390581463e+01 -1.8738757630e+01 +1.1848416288e+01 1.3629421649e+02 1.3100000000e+02 0.0000e+00 0.0000e+00
      997  1    1    2    0    0 +3.8736296759e+01 +2.4731789385e+01 +4.5369672580e+02 4.5875143716e+02 5.0000000000e+01 0.0000e+00 0.0000e+00
</event>
<event>
 5      1 +5.6267200e-07 1.98096600e+02 7.95774700e-02 5.07543900e-01
       13 -1    0    0    0    0 +0.0000000000e+00 +0.0000000000e+00 +4.9999998884e+02 5.0000000000e+02 1.0566000000e-01 0.0000e+00 1.0000e+00
      994 -1    0    0    0    0 -0.0000000000e+00 -0.0000000000e+00 +0.0000000000e+00 1.3100000000e+02 1.3100000000e+02 0.0000e+00 0.0000e+00
       13  1    1    2    0    0 -5.0731752319e+01 +4.0309652367e+01 +2.0135617485e+02 2.1152517364e+02 1.0566000000e-01 0.0000e+00 -1.0000e+00
      994  1    1    2    0    0 +1.8275193913e+01 -5.7463599021e+01 +3.4683334866e+01 1.4832390786e+02 1.3100000000e+02 0.0000e+00 0.0000e+00
      997  1    1    2    0    0 +3.2456558406e+01 +1.7153946655e+01 +2.6396047912e+02 2.7115091851e+02 5.0000000000e+01 0.0000e+00 0.0000e+00
</event>
<event>
 5      1 +5.6267200e-07 2.05599400e+02 7.95774700e-02 4.93888600e-01
       13 -1    0    0    0    0 +0.0000000000e+00 +0.0000000000e+00 +4.9999998884e+02 5.0000000000e+02 1.0566000000e-01 0.0000e+00 -1.0000e+00
      994 -1    0    0    0    0 -0.0000000000e+00 -0.0000000000e+00 +0.0000000000e+00 1.3100000000e+02 1.3100000000e+02 0.0000e+00 0.0000e+00
       13  1    1    2    0    0 +2.6486266296e+00 -1.9164823266e+01 +4.6810984944e+01 5.0651605595e+01 1.0566000000e-01 0.0000e+00 1.0000e+00
      994  1    1    2    0    0 -3.5808998328e+00 -1.5384032240e+00 +7.3797519834e+00 1.3126557152e+02 1.3100000000e+02 0.0000e+00 0.0000e+00
      997  1    1    2    0    0 +9.3227320323e-01 +2.0703226490e+01 +4.4580925191e+02 4.4908282288e+02 5.0000000000e+01 0.0000e+00 0.0000e+00
</event>
<event>
 5      1 +5.6267200e-07 1.97508100e+02 7.95774700e-02 5.08672300e-01
       13 -1    0    0    0    0 +0.0000000000e+00 +0.0000000000e+00 +4.9999998884e+02 5.0000000000e+02 1.0566000000e-01 0.0000e+00 1.0000e+00
      994 -1    0    0    0    0 -0.0000000000e+00 -0.0000000000e+00 +0.0000000000e+00 1.3100000000e+02 1.3100000000e+02 0.0000e+00 0.0000e+00
       13  1    1    2    0    0 +3.2852020971e+01 -4.0826554398e+01 +8.6809477709e+01 1.0139999709e+02 1.0566000000e-01 0.0000e+00 -1.0000e+00
      994  1    1    2    0    0 -1.2448729370e+01 -1.2992667658e+01 +2.5730675389e+01 1.3471023692e+02 1.3100000000e+02 0.0000e+00 0.0000e+00
      997  1    1    2    0    0 -2.0403291602e+01 +5.3819222056e+01 +3.8745983574e+02 3.9488976599e+02 5.0000000000e+01 0.0000e+00 0.0000e+00
</event>
<event>
 5      1 +5.6267200e-07 1.98452000e+02 7.95774700e-02 5.06866700e-01
       13 -1    0    0    0    0 +0.0000000000e+00 +0.0000000000e+00 +4.9999998884e+02 5.0000000000e+02 1.0566000000e-01 0.0000e+00 -1.0000e+00
      994 -1    0    0    0    0 -0.0000000000e+00 -0.0000000000e+00 +0.0000000000e+00 1.3100000000e+02 1.3100000000e+02 0.0000e+00 0.0000e+00
       13  1    1    2    0    0 +1.1818819226e+01 -3.7192108901e+01 +5.4079585071e+01 6.6689955299e+01 1.0566000000e-01 0.0000e+00 1.0000e+00
      994  1    1    2    0    0 -1.0208679953e+01 +4.9979921226e+01 +2.8164462043e+01 1.4337519518e+02 1.3100000000e+02 0.0000e+00 0.0000e+00
      997  1    1    2    0    0 -1.6101392734e+00 -1.2787812325e+01 +4.1775594172e+02 4.2093484952e+02 5.0000000000e+01 0.0000e+00 0.0000e+00
</event>
<event>
 5      1 +5.6267200e-07 1.92995300e+02 7.95774700e-02 5.17627500e-01
       13 -1    0    0    0    0 +0.0000000000e+00 +0.0000000000e+00 +4.9999998884e+02 5.0000000000e+02 1.0566000000e-01 0.0000e+00 1.0000e+00
      994 -1    0    0    0    0 -0.0000000000e+00 -0.0000000000e+00 +0.0000000000e+00 1.3100000000e+02 1.3100000000e+02 0.0000e+00 0.0000e+00
       13  1    1    2    0    0 +3.6616770709e+01 -2.7190451284e+01 +7.5029932141e+01 8.7804387244e+01 1.0566000000e-01 0.0000e+00 -1.0000e+00
      994  1    1    2    0    0 -2.2825160200e+01 -2.2929978841e+01 +2.5572913357e+01 1.3733807107e+02 1.3100000000e+02 0.0000e+00 0.0000e+00
      997  1    1    2    0    0 -1.3791610509e+01 +5.0120430125e+01 +3.9939714334e+02 4.0585754169e+02 5.0000000000e+01 0.0000e+00 0.0000e+00
</event>
<event>
 5      1 +5.6267200e-07 1.98255900e+02 7.95774700e-02 5.07239900e-01
       13 -1    0    0    0    0 +0.0000000000e+00 +0.0000000000e+00 +4.9999998884e+02 5.0000000000e+02 1.0566000000e-01 0.0000e+00 -1.0000e+00
      994 -1    0    0    0    0 -0.0000000000e+00 -0.0000000000e+00 +0.0000000000e+00 1.3100000000e+02 1.3100000000e+02 0.0000e+00 0.0000e+00
       13  1    1    2    0    0 -1.9437642518e+01 +2.1673194436e+00 +1.1260176182e+01 2.2568162351e+01 1.0566000000e-01 0.0000e+00 1.0000e+00
      994  1    1    2    0    0 +3.3450608729e+01 -2.7355753926e-01 +1.9827932416e+01 1.3664978947e+02 1.3100000000e+02 0.0000e+00 0.0000e+00
      997  1    1    2    0    0 -1.4012966211e+01 -1.8937619043e+00 +4.6891188024e+02 4.7178204818e+02 5.0000000000e+01 0.0000e+00 0.0000e+00
</event>
<event>
 5      1 +5.6267200e-07 2.04909700e+02 7.95774700e-02 4.95090300e-01
       13 -1    0    0    0    0 +0.0000000000e+00 +0.0000000000e+00 +4.9999998884e+02 5.0000000000e+02 1.0566000000e-01 0.0000e+00 1.0000e+00
      994 -1    0    0    0    0 -0.0000000000e+00 -0.0000000000e+00 +0.0000000000e+00 1.3100000000e+02 1.3100000000e+02 0.0000e+00 0.0000e+00
       13  1    1    2    0    0 -7.0027250688e+00 -2.3283132731e+01 +2.9690737439e+01 3.8375688683e+01 1.0566000000e-01 0.0000e+00 -1.0000e+00
      994  1    1    2    0    0 -1.0160903777e+01 +8.8810772432e+01 +5.3464505275e+01 1.6736203449e+02 1.3100000000e+02 0.0000e+00 0.0000e+00
      997  1    1    2    0    0 +1.7163628845e+01 -6.5527639701e+01 +4.1684474612e+02 4.2526227682e+02 5.0000000000e+01 0.0000e+00 0.0000e+00
</event>
<event>
 5      1 +5.6267200e-07 2.06317200e+02 7.95774700e-02 4.92649100e-01
       13 -1    0    0    0    0 +0.0000000000e+00 +0.0000000000e+00 +4.9999998884e+02 5.0000000000e+02 1.0566000000e-01 0.0000e+00 -1.0000e+00
      994 -1    0    0    0    0 -0.0000000000e+00 -0.0000000000e+00 +0.0000000000e+00 1.3100000000e+02 1.3100000000e+02 0.0000e+00 0.0000e+00
       13  1    1    2    0    0 +9.8508516623e+00 +1.2328481395e+01 +3.0062004437e+01 3.3952407967e+01 1.0566000000e-01 0.0000e+00 1.0000e+00
      994  1    1    2    0    0 +3.1167322295e+00 -1.4545697138e+01 +7.8491359058e+00 1.3207535826e+02 1.3100000000e+02 0.0000e+00 0.0000e+00
      997  1    1    2    0    0 -1.2967583892e+01 +2.2172157424e+00 +4.6208884849e+02 4.6497223377e+02 5.0000000000e+01 0.0000e+00 0.0000e+00
</event>
<event>
 5      1 +5.6267200e-07 2.00492300e+02 7.95774700e-02 5.03039500e-01
       13 -1    0    0    0    0 +0.0000000000e+00 +0.0000000000e+00 +4.9999998884e+02 5.0000000000e+02 1.0566000000e-01 0.0000e+00 -1.0000e+00
      994 -1    0    0    0    0 -0.0000000000e+00 -0.0000000000e+00 +0.0000000000e+00 1.3100000000e+02 1.3100000000e+02 0.0000e+00 0.0000e+00
       13  1    1    2    0    0 -1.4803139174e+01 +3.9721277930e+01 +9.9017499590e+01 1.0770974533e+02 1.0566000000e-01 0.0000e+00 1.0000e+00
      994  1    1    2    0    0 +5.2186964943e+01 -1.6624231961e+01 +2.8391310724e+01 1.4479955429e+02 1.3100000000e+02 0.0000e+00 0.0000e+00
      997  1    1    2    0    0 -3.7383825769e+01 -2.3097045970e+01 +3.7259117852e+02 3.7849070038e+02 5.0000000000e+01 0.0000e+00 0.0000e+00
</event>
<event>
 5      1 +5.6267200e-07 1.97146100e+02 7.95774700e-02 5.09370700e-01
       13 -1    0    0    0    0 +0.0000000000e+00 +0.0000000000e+00 +4.9999998884e+02 5.0000000000e+02 1.0566000000e-01 0.0000e+00 -1.0000e+00
      994 -1    0    0    0    0 -0.0000000000e+00 -0.0000000000e+00 +0.0000000000e+00 1.3100000000e+02 1.3100000000e+02 0.0000e+00 0.0000e+00
       13  1    1    2    0    0 +3.6091819876e+01 -2.0224895193e+01 +5.3550359631e+01 6.7670658547e+01 1.0566000000e-01 0.0000e+00 1.0000e+00
      994  1    1    2    0    0 -4.0102340022e+01 +4.0097322722e+01 +3.3180966812e+01 1.4655364043e+02 1.3100000000e+02 0.0000e+00 0.0000e+00
      997  1    1    2    0    0 +4.0105201460e+00 -1.9872427529e+01 +4.1326866239e+02 4.1677570102e+02 5.0000000000e+01 0.0000e+00 0.0000e+00
</event>
<event>
 5      1 +5.6267200e-07 2.01895400e+02 7.95774700e-02 5.00465700e-01
       13 -1    0    0    0    0 +0.0000000000e+00 +0.0000000000e+00 +4.9999998884e+02 5.0000000000e+02 1.0566000000e-01 0.0000e+00 -1.0000e+00
      994 -1    0    0    0    0 -0.0000000000e+00 -0.0000000000e+00 +0.0000000000e+00 1.3100000000e+02 1.3100000000e+02 0.0000e+00 0.0000e+00
       13  1    1    2    0    0 -1.7936834509e+01 +5.5114939530e-01 +2.1256282031e+01 2.7818599671e+01 1.0566000000e-01 0.0000e+00 1.0000e+00
      994  1    1    2    0    0 -1.1872958148e+01 -9.2015813624e+00 +1.1624791983e+01 1.3236983049e+02 1.3100000000e+02 0.0000e+00 0.0000e+00
      997  1    1    2    0    0 +2.9809792656e+01 +8.6504319671e+00 +4.6711891482e+02 4.7081156984e+02 5.0000000000e+01 0.0000e+00 0.0000e+00
</event>
<event>
 5      1 +5.6267200e-07 2.10547900e+02 7.95774700e-02 4.85561400e-01
       13 -1    0    0    0    0 +0.0000000000e+00 +0.0000000000e+00 +4.9999998884e+02 5.0000000000e+02 1.0566000000e-01 0.0000e+00 1.0000e+00
      994 -1    0    0    0    0 -0.0000000000e+00 -0.0000000000e+00 +0.0000000000e+00 1.3100000000e+02 1.3100000000e+02 0.0000e+00 0.0000e+00
       13  1    1    2    0    0 -3.2768059705e+01 +3.5676839866e+01 +4.5011226758e+01 6.6125670794e+01 1.0566000000e-01 0.0000e+00 -1.0000e+00
      994  1    1    2    0    0 -4.3431812207e+01 +3.1519033479e+01 +5.9615543289e+01 1.5360593994e+02 1.3100000000e+02 0.0000e+00 0.0000e+00
      997  1    1    2    0    0 +7.6199871912e+01 -6.7195873345e+01 +3.9537321879e+02 4.1126838927e+02 5.0000000000e+01 0.0000e+00 0.0000e+00
</event>
<event>
 5      1 +5.6267200e-07 2.09343800e+02 7.95774700e-02 4.87541600e-01
       13 -1    0    0    0    0 +0.0000000000e+00 +0.0000000000e+00 +4.9999998884e+02 5.0000000000e+02 1.0566000000e-01 0.0000e+00 1.0000e+00
      994 -1    0    0    0    0 -0.0000000000e+00 -0.0000000000e+00 +0.0000000000e+00 1.3100000000e+02 1.3100000000e+02 0.0000e+00 0.0000e+00
       13  1    1    2    0    0 +1.7048011587e-01 -1.6527627514e+01 +9.4334529820e+01 9.5771635754e+01 1.0566000000e-01 0.0000e+00 -1.0000e+00
      994  1    1    2    0    0 +5.7703448054e+00 +1.9412432817e+01 +6.3157418163e+00 1.3270654853e+02 1.3100000000e+02 0.0000e+00 0.0000e+00
      997  1    1    2    0    0 -5.9408249213e+00 -2.8848053024e+00 +3.9934971720e+02 4.0252181572e+02 5.0000000000e+01 0.0000e+00 0.0000e+00
</event>
<event>
 5      1 +5.6267200e-07 2.07554800e+02 7.95774700e-02 4.90537600e-01
       13 -1    0    0    0    0 +0.0000000000e+00 +0.0000000000e+00 +4.9999998884e+02 5.0000000000e+02 1.0566000000e-01 0.0000e+00 1.0000e+00
      994 -1    0    0    0    0 -0.0000000000e+00 -0.0000000000e+00 +0.0000000000e+00 1.3100000000e+02 1.3100000000e+02 0.0000e+00 0.0000e+00
       13  1    1    2    0    0 -1.3473978961e+01 +8.2782031512e+00 +8.0005061932e+01 8.1553037070e+01 1.0566000000e-01 0.0000e+00 -1.0000e+00
      994  1    1    2    0    0 -2.6818082351e+00 +2.5584430871e+01 +9.0864609909e+00 1.3381075806e+02 1.3100000000e+02 0.0000e+00 0.0000e+00
      997  1    1    2    0    0 +1.6155787196e+01 -3.3862634023e+01 +4.1090846591e+02 4.1563620487e+02 5.0000000000e+01 0.0000e+00 0.0000e+00
</event>
<event>
 5      1 +5.6267200e-07 2.00324500e+02 7.95774700e-02 5.03350500e-01
       13 -1    0    0    0    0 +0.0000000000e+00 +0.0000000000e+00 +4.9999998884e+02 5.0000000000e+02 1.0566000000e-01 0.0000e+00 -1.0000e+00
      994 -1    0    0    0    0 -0.0000000000e+00 -0.0000000000e+00 +0.0000000000e+00 1.3100000000e+02 1.3100000000e+02 0.0000e+00 0.0000e+00
       13  1    1    2    0    0 +3.5415581110e+01 -8.9443264578e+00 +3.7246838543e+01 5.2168980310e+01 1.0566000000e-01 0.0000e+00 1.0000e+00
      994  1    1    2    0    0 -9.1544681248e+01 +1.2974997883e+01 +6.3362702303e+01 1.7240826917e+02 1.3100000000e+02 0.0000e+00 0.0000e+00
      997  1    1    2    0    0 +5.6129100138e+01 -4.0306714253e+00 +3.9939044799e+02 4.0642275052e+02 5.0000000000e+01 0.0000e+00 0.0000e+00
</event>
<event>
 5      1 +5.6267200e-07 1.70036800e+02 7.95774700e-02 5.73533000e-01
       13 -1    0    0    0    0 +0.0000000000e+00 +0.0000000000e+00 +4.9999998884e+02 5.0000000000e+02 1.0566000000e-01 0.0000e+00 1.0000e+00
      994 -1    0    0    0    0 -0.0000000000e+00 -0.0000000000e+00 +0.0000000000e+00 1.3100000000e+02 1.3100000000e+02 0.0000e+00 0.0000e+00
       13  1    1    2    0    0 +7.1553432675e+01 +1.3508219872e+01 +2.1537830042e+02 2.2735476505e+02 1.0566000000e-01 0.0000e+00 -1.0000e+00
      994  1    1    2    0    0 -5.2905780512e+01 -1.6498445554e+01 +3.2480355584e+01 1.4590131533e+02 1.3100000000e+02 0.0000e+00 0.0000e+00
      997  1    1    2    0    0 -1.8647652163e+01 +2.9902256824e+00 +2.5214133283e+02 2.5774391962e+02 5.0000000000e+01 0.0000e+00 0.0000e+00
</event>
<event>
 5      1 +5.6267200e-07 2.08376100e+02 7.95774700e-02 4.89154100e-01
       13 -1    0    0    0    0 +0.0000000000e+00 +0.0000000000e+00 +4.9999998884e+02 5.0000000000e+02 1.0566000000e-01 0.0000e+00 1.0000e+00
      994 -1    0    0    0    0 -0.0000000000e+00 -0.0000000000e+00 +0.0000000000e+00 1.3100000000e+02 1.3100000000e+02 0.0000e+00 0.0000e+00
       13  1    1    2    0    0 +7.9362133156e+00 +6.3695202560e+00 +1.6596366046e+01 1.9468045614e+01 1.0566000000e-01 0.0000e+00 -1.0000e+00
      994  1    1    2    0    0 -3.6679361274e+01 -4.8665579711e+00 +1.2046367712e+01 1.3665713997e+02 1.3100000000e+02 0.0000e+00 0.0000e+00
      997  1    1    2    0    0 +2.8743147959e+01 -1.5029622850e+00 +4.7135725508e+02 4.7487481441e+02 5.0000000000e+01 0.0000e+00 0.0000e+00
</event>
<event>
 5      1 +5.6267200e-07 1.98177900e+02 7.95774700e-02 5.07388700e-01
       13 -1    0    0    0    0 +0.0000000000e+00 +0.0000000000e+00 +4.9999998884e+02 5.0000000000e+02 1.0566000000e-01 0.0000e+00 1.0000e+00
      994 -1    0    0    0    0 -0.0000000000e+00 -0.0000000000e+00 +0.0000000000e+00 1.3100000000e+02 1.3100000000e+02 0.0000e+00 0.0000e+00
       13  1    1    2    0    0 +1.6910008344e+01 +2.5230394097e+01 +3.9384030437e+01 4.9735643014e+01 1.0566000000e-01 0.0000e+00 -1.0000e+00
      994  1    1    2    0    0 -1.5175937072e+00 -2.0749862691e+01 +1.6051152835e+01 1.3360950340e+02 1.3100000000e+02 0.0000e+00 0.0000e+00
      997  1    1    2    0    0 -1.5392414637e+01 -4.4805314059e+00 +4.4456480556e+02 4.4765485358e+02 5.0000000000e+01 0.0000e+00 0.0000e+00
</event>
<event>
 5      1 +5.6267200e-07 1.99606900e+02 7.95774700e-02 5.04687700e-01
       13 -1    0    0    0    0 +0.0000000000e+00 +0.0000000000e+00 +4.9999998884e+02 5.0000000000e+02 1.0566000000e-01 0.0000e+00 1.0000e+00
      994 -1    0    0    0    0 -0.0000000000e+00 -0.0000000000e+00 +0.0000000000e+00 1.3100000000e+02 1.3100000000e+02 0.0000e+00 0.0000e+00
       13  1    1    2    0    0 -3.8317085665e+01 +4.7513379908e+01 +1.1787850993e+02 1.3274439570e+02 1.0566000000e-01 0.0000e+00 -1.0000e+00
      994  1    1    2    0    0 +3.0522880433e+01 -7.4886799106e+01 +5.1007275274e+01 1.6218021162e+02 1.3100000000e+02 0.0000e+00 0.0000e+00
      997  1    1    2    0    0 +7.7942052316e+00 +2.7373419197e+01 +3.3111420363e+02 3.3607539268e+02 5.0000000000e+01 0.0000e+00 0.0000e+00
</event>
<event>
 5      1 +5.6267200e-07 2.03649900e+02 7.95774700e-02 4.97311900e-01
       13 -1    0    0    0    0 +0.0000000000e+00 +0.0000000000e+00 +4.9999998884e+02 5.0000000000e+02 1.0566000000e-01 0.0000e+00 -1.0000e+00
      994 -1    0    0    0    0 -0.0000000000e+00 -0.0000000000e+00 +0.0000000000e+00 1.3100000000e+02 1.3100000000e+02 0.0000e+00 0.0000e+00
       13  1    1    2    0    0 +1.6205613436e+01 -2.2158772181e+01 +6.8418478038e+01 7.3720637494e+01 1.0566000000e-01 0.0000e+00 1.0000e+00
      994  1    1    2    0    0 -9.5199925700e+00 +3.0618788533e+00 +9.4552518329e+00 1.3172094423e+02 1.3100000000e+02 0.0000e+00 0.0000e+00
      997  1    1    2    0    0 -6.6856208657e+00 +1.9096893328e+01 +4.2212625897e+02 4.2555841828e+02 5.0000000000e+01 0.0000e+00 0.0000e+00
</event>
<event>
 5      1 +5.6267200e-07 1.97646100e+02 7.95774700e-02 5.08406900e-01
       13 -1    0    0    0    0 +0.0000000000e+00 +0.0000000000e+00 +4.9999998884e+02 5.0000000000e+02 1.0566000000e-01 0.0000e+00 -1.0000e+00
      994 -1    0    0    0    0 -0.0000000000e+00 -0.0000000000e+00 +0.0000000000e+00 1.3100000000e+02 1.3100000000e+02 0.0000e+00 0.0000e+00
       13  1    1    2    0    0 -1.5701030278e+01 +3.5004026792e+00 +5.6599264362e+00 1.7053477710e+01 1.0566000000e-01 0.0000e+00 1.0000e+00
      994  1    1    2    0    0 +2.0065761656e+01 +9.2241731452e+01 +6.9886965292e+01 1.7594419493e+02 1.3100000000e+02 0.0000e+00 0.0000e+00
      997  1    1    2    0    0 -4.3647313786e+00 -9.5742134131e+01 +4.2445309711e+02 4.3800232736e+02 5.0000000000e+01 0.0000e+00 0.0000e+00
</event>
<event>
 5      1 +5.6267200e-07 1.95033900e+02 7.95774700e-02 5.13514300e-01
       13 -1    0    0    0    0 +0.0000000000e+00 +0.0000000000e+00 +4.9999998884e+02 5.0000000000e+02 1.0566000000e-01 0.0000e+00 -1.0000e+00
      994 -1    0    0    0    0 -0.0000000000e+00 -0.0000000000e+00 +0.0000000000e+00 1.3100000000e+02 1.3100000000e+02 0.0000e+00 0.0000e+00
       13  1    1    2    0    0 -3.0035705429e+01 +3.3654600337e+01 +4.7809730442e+01 6.5730945630e+01 1.0566000000e-01 0.0000e+00 1.0000e+00
      994  1    1    2    0    0 +7.6146197591e+01 -2.6223873591e+01 +5.6687196795e+01 1.6389134582e+02 1.3100000000e+02 0.0000e+00 0.0000e+00
      997  1    1    2    0    0 -4.6110492162e+01 -7.4307267461e+00 +3.9550306160e+02 4.0137770855e+02 5.0000000000e+01 0.0000e+00 0.0000e+00
</event>
<event>
 5      1 +5.6267200e-07 2.01723000e+02 7.95774700e-02 5.00779500e-01
       13 -1    0    0    0    0 +0.0000000000e+00 +0.0000000000e+00 +4.9999998884e+02 5.0000000000e+02 1.0566000000e-01 0.0000e+00 1.0000e+00
      994 -1    0    0    0    0 -0.0000000000e+00 -0.0000000000e+00 +0.0000000000e+00 1.3100000000e+02 1.3100000000e+02 0.0000e+00 0.0000e+00
       13  1    1    2    0    0 +5.1672098311e+01 -9.0322143414e+00 +1.5276448222e+02 1.6151961129e+02 1.0566000000e-01 0.0000e+00 -1.0000e+00
      994  1    1    2    0    0 +3.4814813448e+01 -4.3711007754e+01 +4.9079189768e+01 1.5064026787e+02 1.3100000000e+02 0.0000e+00 0.0000e+00
      997  1    1    2    0    0 -8.6486911759e+01 +5.2743222096e+01 +2.9815631685e+02 3.1884012084e+02 5.0000000000e+01 0.0000e+00 0.0000e+00
</event>
<event>
 5      1 +5.6267200e-07 1.98641800e+02 7.95774700e-02 5.06506400e-01
       13 -1    0    0    0    0 +0.0000000000e+00 +0.0000000000e+00 +4.9999998884e+02 5.0000000000e+02 1.0566000000e-01 0.0000e+00 1.0000e+00
      994 -1    0    0    0    0 -0.0000000000e+00 -0.0000000000e+00 +0.0000000000e+00 1.3100000000e+02 1.3100000000e+02 0.0000e+00 0.0000e+00
       13  1    1    2    0    0 +3.7182665559e+01 -2.8391476066e+01 +2.2211763935e+02 2.2699093243e+02 1.0566000000e-01 0.0000e+00 -1.0000e+00
      994  1    1    2    0    0 -3.3294560308e+01 -2.0991041145e+01 +2.1900108425e+01 1.3852713201e+02 1.3100000000e+02 0.0000e+00 0.0000e+00
      997  1    1    2    0    0 -3.8881052511e+00 +4.9382517212e+01 +2.5598224106e+02 2.6548193556e+02 5.0000000000e+01 0.0000e+00 0.0000e+00
</event>
<event>
 5      1 +5.6267200e-07 2.01673800e+02 7.95774700e-02 5.00869200e-01
       13 -1    0    0    0    0 +0.0000000000e+00 +0.0000000000e+00 +4.9999998884e+02 5.0000000000e+02 1.0566000000e-01 0.0000e+00 1.0000e+00
      994 -1    0    0    0    0 -0.0000000000e+00 -0.0000000000e+00 +0.0000000000e+00 1.3100000000e+02 1.3100000000e+02 0.0000e+00 0.0000e+00
       13  1    1    2    0    0 +3.2457893522e+01 +1.7843184409e+01 +9.3047583483e+01 1.0014867966e+02 1.0566000000e-01 0.0000e+00 -1.0000e+00
      994  1    1    2    0    0 +1.1226412607e+00 -5.4507099175e+01 +2.7033044424e+01 1.4444400186e+02 1.3100000000e+02 0.0000e+00 0.0000e+00
      997  1    1    2    0    0 -3.3580534783e+01 +3.6663914766e+01 +3.7991936093e+02 3.8640731847e+02 5.0000000000e+01 0.0000e+00 0.0000e+00
</event>
<event>
 5      1 +5.6267200e-07 1.97634100e+02 7.95774700e-02 5.08429900e-01
       13 -1    0    0    0    0 +0.0000000000e+00 +0.0000000000e+00 +4.9999998884e+02 5.0000000000e+02 1.0566000000e-01 0.0000e+00 1.0000e+00
      994 -1    0    0    0    0 -0.0000000000e+00 -0.0000000000e+00 +0.0000000000e+00 1.3100000000e+02 1.3100000000e+02 0.0000e+00 0.0000e+00
       13  1    1    2    0    0 +2.7233498635e+00 -2.1466908589e+01 -2.2591109797e-01 2.1640402000e+01 1.0566000000e-01 0.0000e+00 -1.0000e+00
      994  1    1    2    0    0 +7.8474889001e+01 +3.9130493573e+01 +7.7516828545e+01 1.7566833078e+02 1.3100000000e+02 0.0000e+00 0.0000e+00
      997  1    1    2    0    0 -8.1198238865e+01 -1.7663584983e+01 +4.2270907139e+02 4.3369126722e+02 5.0000000000e+01 0.0000e+00 0.0000e+00
</event>
<event>
 5      1 +5.6267200e-07 2.04240600e+02 7.95774700e-02 4.96265900e-01
       13 -1    0    0    0    0 +0.0000000000e+00 +0.0000000000e+00 +4.9999998884e+02 5.0000000000e+02 1.0566000000e-01 0.0000e+00 1.0000e+00
      994 -1    0    0    0    0 -0.0000000000e+00 -0.0000000000e+00 +0.0000000000e+00 1.3100000000e+02 1.3100000000e+02 0.0000e+00 0.0000e+00
       13  1    1    2    0    0 -4.6896710850e+01 +1.4044578891e+01 +2.1266277877e+01 5.3374314268e+01 1.0566000000e-01 0.0000e+00 -1.0000e+00
      994  1    1    2    0    0 +7.5389577731e+01 -1.4452476730e+01 +7.4155577526e+01 1.6897488628e+02 1.3100000000e+02 0.0000e+00 0.0000e+00
      997  1    1    2    0    0 -2.8492866881e+01 +4.0789783955e-01 +4.0457813343e+02 4.0865079946e+02 5.0000000000e+01 0.0000e+00 0.0000e+00
</event>
<event>
 5      1 +5.6267200e-07 1.93139800e+02 7.95774700e-02 5.17332200e-01
       13 -1    0    0    0    0 +0.0000000000e+00 +0.0000000000e+00 +4.9999998884e+02 5.0000000000e+02 1.0566000000e-01 0.0000e+00 -1.0000e+00
      994 -1    0    0    0    0 -0.0000000000e+00 -0.0000000000e+00 +0.0000000000e+00 1.3100000000e+02 1.3100000000e+02 0.0000e+00 0.0000e+00
       13  1    1    2    0    0 -1.0117017546e+01 -6.4458146920e+01 +1.9667031251e+02 2.0721107532e+02 1.0566000000e-01 0.0000e+00 1.0000e+00
      994  1    1    2    0    0 -3.9642569180e+00 +2.6382844656e+01 +2.2377206149e+01 1.3554891803e+02 1.3100000000e+02 0.0000e+00 0.0000e+00
      997  1    1    2    0    0 +1.4081274464e+01 +3.8075302264e+01 +2.8095247018e+02 2.8824000665e+02 5.0000000000e+01 0.0000e+00 0.0000e+00
</event>
<event>
 5      1 +5.6267200e-07 2.08997700e+02 7.95774700e-02 4.88116200e-01
       13 -1    0    0    0    0 +0.0000000000e+00 +0.0000000000e+00 +4.9999998884e+02 5.0000000000e+02 1.0566000000e-01 0.0000e+00 -1.0000e+00
      994 -1    0    0    0    0 -0.0000000000e+00 -0.0000000000e+00 +0.0000000000e+00 1.3100000000e+02 1.3100000000e+02 0.0000e+00 0.0000e+00
       13  1    1    2    0    0 -6.3718376837e+00 -1.2179087336e+01 +5.4449898394e+01 5.6158107901e+01 1.0566000000e-01 0.0000e+00 1.0000e+00
      994  1    1    2    0    0 +1.6370466556e+01 +3.4221655708e+00 +5.9387933555e+00 1.3219671955e+02 1.3100000000e+02 0.0000e+00 0.0000e+00
      997  1    1    2    0    0 -9.9986288722e+00 +8.7569217650e+00 +4.3961129709e+02 4.4264517255e+02 5.0000000000e+01 0.0000e+00 0.0000e+00
</event>
<event>
 5      1 +5.6267200e-07 2.02901900e+02 7.95774700e-02 4.98647800e-01
       13 -1    0    0    0    0 +0.0000000000e+00 +0.0000000000e+00 +4.9999998884e+02 5.0000000000e+02 1.0566000000e-01 0.0000e+00 1.0000e+00
      994 -1    0    0    0    0 -0.0000000000e+00 -0.0000000000e+00 +0.0000000000e+00 1.3100000000e+02 1.3100000000e+02 0.0000e+00 0.0000e+00
       13  1    1    2    0    0 -2.3383304368e+01 -1.5398566213e+01 +5.3948824141e+01 6.0781424423e+01 1.0566000000e-01 0.0000e+00 -1.0000e+00
      994  1    1    2    0    0 -2.4662322972e+00 +4.7296977062e+01 +2.1717716927e+01 1.4098136604e+02 1.3100000000e+02 0.0000e+00 0.0000e+00
      997  1    1    2    0    0 +2.5849536665e+01 -3.1898410849e+01 +4.2433344777e+02 4.2923720954e+02 5.0000000000e+01 0.0000e+00 0.0000e+00
</event>
<event>
 5      1 +5.6267200e-07 2.15166300e+02 7.95774700e-02 4.78224500e-01
       13 -1    0    0    0    0 +0.0000000000e+00 +0.0000000000e+00 +4.9999998884e+02 5.0000000000e+02 1.0566000000e-01 0.0000e+00 -1.0000e+00
      994 -1    0    0    0    0 -0.0000000000e+00 -0.0000000000e+00 +0.0000000000e+00 1.3100000000e+02 1.3100000000e+02 0.0000e+00 0.0000e+00
       13  1    1    2    0    0 +5.1520326459e+01 +4.7087059540e+01 +7.5295043681e+01 1.0266883647e+02 1.0566000000e-01 0.0000e+00 1.0000e+00
      994  1    1    2    0    0 +3.3297425167e+01 -3.7446716915e+01 +6.3750803125e+01 1.5406537583e+02 1.3100000000e+02 0.0000e+00 0.0000e+00
      997  1    1    2    0    0 -8.4817751626e+01 -9.6403426249e+00 +3.6095414203e+02 3.7426578770e+02 5.0000000000e+01 0.0000e+00 0.0000e+00
</event>
<event>
 5      1 +5.6267200e-07 1.99207400e+02 7.95774700e-02 5.05437900e-01
       13 -1    0    0    0    0 +0.0000000000e+00 +0.0000000000e+00 +4.9999998884e+02 5.0000000000e+02 1.0566000000e-01 0.0000e+00 -1.0000e+00
      994 -1    0    0    0    0 -0.0000000000e+00 -0.0000000000e+00 +0.0000000000e+00 1.3100000000e+02 1.3100000000e+02 0.0000e+00 0.0000e+00
       13  1    1    2    0    0 -3.9170055230e+01 -6.8464286416e+00 +6.1722531363e+01 7.3422400218e+01 1.0566000000e-01 0.0000e+00 1.0000e+00
      994  1    1    2    0    0 +5.1535376967e+01 -1.4971804144e+01 +2.9013812655e+01 1.4450900084e+02 1.3100000000e+02 0.0000e+00 0.0000e+00
      997  1    1    2    0    0 -1.2365321738e+01 +2.1818232786e+01 +4.0926364482e+02 4.1306859894e+02 5.0000000000e+01 0.0000e+00 0.0000e+00
</event>
<event>
 5      1 +5.6267200e-07 1.99879400e+02 7.95774700e-02 5.04178400e-01
       13 -1    0    0    0    0 +0.0000000000e+00 +0.0000000000e+00 +4.9999998884e+02 5.0000000000e+02 1.0566000000e-01 0.0000e+00 -1.0000e+00
      994 -1    0    0    0    0 -0.0000000000e+00 -0.0000000000e+00 +0.0000000000e+00 1.3100000000e+02 1.3100000000e+02 0.0000e+00 0.0000e+00
       13  1    1    2    0    0 -1.2046575326e+00 -1.0709986809e+01 +2.1350740175e+00 1.0987480253e+01 1.0566000000e-01 0.0000e+00 1.0000e+00
      994  1    1    2    0    0 -9.8213856011e+00 -1.8494249184e+00 +1.2701508073e+01 1.3199321306e+02 1.3100000000e+02 0.0000e+00 0.0000e+00
      997  1    1    2    0    0 +1.1026043134e+01 +1.2559411727e+01 +4.8516340675e+02 4.8801930668e+02 5.0000000000e+01 0.0000e+00 0.0000e+00
</event>
<event>
 5      1 +5.6267200e-07 1.95250100e+02 7.95774700e-02 5.13084700e-01
       13 -1    0    0    0    0 +0.0000000000e+00 +0.0000000000e+00 +4.9999998884e+02 5.0000000000e+02 1.0566000000e-01 0.0000e+00 -1.0000e+00
      994 -1    0    0    0    0 -0.0000000000e+00 -0.0000000000e+00 +0.0000000000e+00 1.3100000000e+02 1.3100000000e+02 0.0000e+00 0.0000e+00
       13  1    1    2    0    0 -2.3173931117e+01 +1.9116965609e+01 +1.6779427394e+01 3.4410024778e+01 1.0566000000e-01 0.0000e+00 1.0000e+00
      994  1    1    2    0    0 -1.0768736971e+01 -4.3481791330e+01 +3.3857174053e+01 1.4252698028e+02 1.3100000000e+02 0.0000e+00 0.0000e+00
      997  1    1    2    0    0 +3.3942668088e+01 +2.4364825721e+01 +4.4936338739e+02 4.5406299494e+02 5.0000000000e+01 0.0000e+00 0.0000e+00
</event>
<event>
 5      1 +5.6267200e-07 2.08851700e+02 7.95774700e-02 4.88359200e-01
       13 -1    0    0    0    0 +0.0000000000e+00 +0.0000000000e+00 +4.9999998884e+02 5.0000000000e+02 1.0566000000e-01 0.0000e+00 1.0000e+00
      994 -1    0    0    0    0 -0.0000000000e+00 -0.0000000000e+00 +0.0000000000e+00 1.3100000000e+02 1.3100000000e+02 0.0000e+00 0.0000e+00
       13  1    1    2    0    0 +1.0291103382e+01 -1.7620988927e+01 -7.8607283470e+00 2.1867973701e+01 1.0566000000e-01 0.0000e+00 -1.0000e+00
      994  1    1    2    0    0 -1.0594035747e+01 +3.0619444090e+01 +4.3323916567e+01 1.4173124460e+02 1.3100000000e+02 0.0000e+00 0.0000e+00
      997  1    1    2    0    0 +3.0293236523e-01 -1.2998455162e+01 +4.6453680062e+02 4.6740078170e+02 5.0000000000e+01 0.0000e+00 0.0000e+00
</event>
<event>
 5      1 +5.6267200e-07 2.07751800e+02 7.95774700e-02 4.90204500e-01
       13 -1    0    0    0    0 +0.0000000000e+00 +0.0000000000e+00 +4.9999998884e+02 5.0000000000e+02 1.0566000000e-01 0.0000e+00 1.0000e+00
      994 -1    0    0    0    0 -0.0000000000e+00 -0.0000000000e+00 +0.0000000000e+00 1.3100000000e+02 1.3100000000e+02 0.0000e+00 0.0000e+00
       13  1    1    2    0    0 +5.6295488785e-01 -1.9010060181e+01 +9.1652386214e+01 9.3604862956e+01 1.0566000000e-01 0.0000e+00 -1.0000e+00
      994  1    1    2    0    0 +1.3119638650e+01 +2.7430527435e+00 +6.4499694376e+00 1.3184176638e+02 1.3100000000e+02 0.0000e+00 0.0000e+00
      997  1    1    2    0    0 -1.3682593537e+01 +1.6267007438e+01 +4.0189763318e+02 4.0555337066e+02 5.0000000000e+01 0.0000e+00 0.0000e+00
</event>
<event>
 5      1 +5.6267200e-07 2.07865200e+02 7.95774700e-02 4.90013100e-01
       13 -1    0    0    0    0 +0.0000000000e+00 +0.0000000000e+00 +4.9999998884e+02 5.0000000000e+02 1.0566000000e-01 0.0000e+00 1.0000e+00
      994 -1    0    0    0    0 -0.0000000000e+00 -0.0000000000e+00 +0.0000000000e+00 1.3100000000e+02 1.3100000000e+02 0.0000e+00 0.0000e+00
       13  1    1    2    0    0 +1.2724521138e+01 +9.5545029956e+00 +3.1983255466e+01 3.5723126402e+01 1.0566000000e-01 0.0000e+00 -1.0000e+00
      994  1    1    2    0    0 -5.5252327406e+01 +4.6905890021e-01 +2.1431637027e+01 1.4378231729e+02 1.3100000000e+02 0.0000e+00 0.0000e+00
      997  1    1    2    0    0 +4.2527806268e+01 -1.0023561896e+01 +4.4658509634e+02 4.5149455631e+02 5.0000000000e+01 0.0000e+00 0.0000e+00
</event>
<event>
 5      1 +5.6267200e-07 2.03724600e+02 7.95774700e-02 4.97179200e-01
       13 -1    0    0    0    0 +0.0000000000e+00 +0.0000000000e+00 +4.9999998884e+02 5.0000000000e+02 1.0566000000e-01 0.0000e+00 1.0000e+00
      994 -1    0    0    0    0 -0.0000000000e+00 -0.0000000000e+00 +0.0000000000e+00 1.3100000000e+02 1.3100000000e+02 0.0000e+00 0.0000e+00
       13  1    1    2    0    0 -2.1809188150e+00 +3.5054310917e+01 +8.3840304279e+01 9.0899773962e+01 1.0566000000e-01 0.0000e+00 -1.0000e+00
      994  1    1    2    0    0 -1.4942314558e+01 -3.9920643229e+01 +1.8596420861e+01 1.3900991831e+02 1.3100000000e+02 0.0000e+00 0.0000e+00
      997  1    1    2    0    0 +1.7123233373e+01 +4.8663323116e+00 +3.9756326370e+02 4.0109030773e+02 5.0000000000e+01 0.0000e+00 0.0000e+00
</event>
<event>
 5      1 +5.6267200e-07 2.09364800e+02 7.95774700e-02 4.87506700e-01
       13 -1    0    0    0    0 +0.0000000000e+00 +0.0000000000e+00 +4.9999998884e+02 5.0000000000e+02 1.0566000000e-01 0.0000e+00 -1.0000e+00
      994 -1    0    0    0    0 -0.0000000000e+00 -0.0000000000e+00 +0.0000000000e+00 1.3100000000e+02 1.3100000000e+02 0.0000e+00 0.0000e+00
       13  1    1    2    0    0 -2.0117254868e+01 -6.6638121119e+00 -6.7179049133e+00 2.2231773338e+01 1.0566000000e-01 0.0000e+00 1.0000e+00
      994  1    1    2    0    0 +1.0525515727e+00 +2.4032544292e+01 +4.0562230139e+01 1.3922990183e+02 1.3100000000e+02 0.0000e+00 0.0000e+00
      997  1    1    2    0    0 +1.9064703295e+01 -1.7368732180e+01 +4.6615566361e+02 4.6953832483e+02 5.0000000000e+01 0.0000e+00 0.0000e+00
</event>
<event>
 5      1 +5.6267200e-07 2.07244800e+02 7.95774700e-02 4.91063500e-01
       13 -1    0    0    0    0 +0.0000000000e+00 +0.0000000000e+00 +4.9999998884e+02 5.0000000000e+02 1.0566000000e-01 0.0000e+00 -1.0000e+00
      994 -1    0    0    0    0 -0.0000000000e+00 -0.0000000000e+00 +0.0000000000e+00 1.3100000000e+02 1.3100000000e+02 0.0000e+00 0.0000e+00
       13  1    1    2    0    0 -1.4167653340e+01 +7.5510595157e+00 +4.4433330875e+01 4.7244819373e+01 1.0566000000e-01 0.0000e+00 1.0000e+00
      994  1    1    2    0    0 +3.3293365956e+00 +2.8863684235e+00 +6.0474158871e+00 1.3121351624e+02 1.3100000000e+02 0.0000e+00 0.0000e+00
      997  1    1    2    0    0 +1.0838316744e+01 -1.0437427939e+01 +4.4951924207e+02 4.5254166439e+02 5.0000000000e+01 0.0000e+00 0.0000e+00
</event>
<event>
 5      1 +5.6267200e-07 2.04302600e+02 7.95774700e-02 4.96156400e-01
       13 -1    0    0    0    0 +0.0000000000e+00 +0.0000000000e+00 +4.9999998884e+02 5.0000000000e+02 1.0566000000e-01 0.0000e+00 1.0000e+00
      994 -1    0    0    0    0 -0.0000000000e+00 -0.0000000000e+00 +0.0000000000e+00 1.3100000000e+02 1.3100000000e+02 0.0000e+00 0.0000e+00
       13  1    1    2    0    0 -1.3818628958e+01 +3.1603949444e+01 +1.0483948570e+02 1.1036798926e+02 1.0566000000e-01 0.0000e+00 -1.0000e+00
      994  1    1    2    0    0 -9.2837351375e+00 -3.4396207392e+01 +1.5104984285e+01 1.3659592736e+02 1.3100000000e+02 0.0000e+00 0.0000e+00
      997  1    1    2    0    0 +2.3102364096e+01 +2.7922579477e+00 +3.8005551885e+02 3.8403608338e+02 5.0000000000e+01 0.0000e+00 0.0000e+00
</event>
<event>
 5      1 +5.6267200e-07 1.96746000e+02 7.95774700e-02 5.10146600e-01
       13 -1    0    0    0    0 +0.0000000000e+00 +0.0000000000e+00 +4.9999998884e+02 5.0000000000e+02 1.0566000000e-01 0.0000e+00 -1.0000e+00
      994 -1    0    0    0    0 -0.0000000000e+00 -0.0000000000e+00 +0.0000000000e+00 1.3100000000e+02 1.3100000000e+02 0.0000e+00 0.0000e+00
       13  1    1    2    0    0 -1.3272992595e+01 +3.3309162830e+01 +5.6495113026e+01 6.6913239503e+01 1.0566000000e-01 0.0000e+00 1.0000e+00
      994  1    1    2    0    0 -1.4916354094e+01 -1.5695278728e+01 +1.7562884445e+01 1.3393391768e+02 1.3100000000e+02 0.0000e+00 0.0000e+00
      997  1    1    2    0    0 +2.8189346689e+01 -1.7613884102e+01 +4.2594199136e+02 4.3015284282e+02 5.0000000000e+01 0.0000e+00 0.0000e+00
</event>
<event>
 5      1 +5.6267200e-07 2.08239300e+02 7.95774700e-02 4.89383500e-01
       13 -1    0    0    0    0 +0.0000000000e+00 +0.0000000000e+00 +4.9999998884e+02 5.0000000000e+02 1.0566000000e-01 0.0000e+00 -1.0000e+00
      994 -1    0    0    0    0 -0.0000000000e+00 -0.0000000000e+00 +0.0000000000e+00 1.3100000000e+02 1.3100000000e+02 0.0000e+00 0.0000e+00
       13  1    1    2    0    0 +7.3437047237e+00 -1.5211686431e+01 +7.8402382150e+01 8.0201434488e+01 1.0566000000e-01 0.0000e+00 1.0000e+00
      994  1    1    2    0    0 +3.3209160623e+00 +4.2597742404e+00 +5.2872885631e+00 1.3121787066e+02 1.3100000000e+02 0.0000e+00 0.0000e+00
      997  1    1    2    0    0 -1.0664620786e+01 +1.0951912191e+01 +4.1631031812e+02 4.1958069485e+02 5.0000000000e+01 0.0000e+00 0.0000e+00
</event>
<event>
 5      1 +5.6267200e-07 1.97637300e+02 7.95774700e-02 5.08423800e-01
       13 -1    0    0    0    0 +0.0000000000e+00 +0.0000000000e+00 +4.9999998884e+02 5.0000000000e+02 1.0566000000e-01 0.0000e+00 1.0000e+00
      994 -1    0    0    0    0 -0.0000000000e+00 -0.0000000000e+00 +0.0000000000e+00 1.3100000000e+02 1.3100000000e+02 0.0000e+00 0.0000e+00
       13  1    1    2    0    0 +1.9466057083e+01 -3.1140027513e+01 +6.5178669911e+01 7.4812424551e+01 1.0566000000e-01 0.0000e+00 -1.0000e+00
      994  1    1    2    0    0 +2.5645877559e+01 +2.8661431145e+01 +2.2469693834e+01 1.3836573207e+02 1.3100000000e+02 0.0000e+00 0.0000e+00
      997  1    1    2    0    0 -4.5111934642e+01 +2.4785963683e+00 +4.1235162509e+02 4.1782184338e+02 5.0000000000e+01 0.0000e+00 0.0000e+00
</event>
<event>
 5      1 +5.6267200e-07 1.50938300e+02 7.95774700e-02 6.39844500e-01
       13 -1    0    0    0    0 +0.0000000000e+00 +0.0000000000e+00 +4.9999998884e+02 5.0000000000e+02 1.0566000000e-01 0.0000e+00 1.0000e+00
      994 -1    0    0    0    0 -0.0000000000e+00 -0.0000000000e+00 +0.0000000000e+00 1.3100000000e+02 1.3100000000e+02 0.0000e+00 0.0000e+00
       13  1    1    2    0    0 -6.4375210268e+01 -1.9276676810e+01 +2.3426498843e+01 7.1165792190e+01 1.0566000000e-01 0.0000e+00 -1.0000e+00
      994  1    1    2    0    0 +8.5918073747e+01 +1.1400123050e+01 +1.1645105339e+02 1.9553446253e+02 1.3100000000e+02 0.0000e+00 0.0000e+00
      997  1    1    2    0    0 -2.1542863479e+01 +7.8765537600e+00 +3.6012243660e+02 3.6429974528e+02 5.0000000000e+01 0.0000e+00 0.0000e+00
</event>
<event>
 5      1 +5.6267200e-07 2.07017000e+02 7.95774700e-02 4.91451200e-01
       13 -1    0    0    0    0 +0.0000000000e+00 +0.0000000000e+00 +4.9999998884e+02 5.0000000000e+02 1.0566000000e-01 0.0000e+00 -1.0000e+00
      994 -1    0    0    0    0 -0.0000000000e+00 -0.0000000000e+00 +0.0000000000e+00 1.3100000000e+02 1.3100000000e+02 0.0000e+00 0.0000e+00
       13  1    1    2    0    0 -1.8168286884e+01 -1.3661110835e+01 +6.5709466069e+01 6.9530264581e+01 1.0566000000e-01 0.0000e+00 1.0000e+00
      994  1    1    2    0    0 +4.7788467835e+01 -1.1495104832e+01 +1.8792636457e+01 1.4117378750e+02 1.3100000000e+02 0.0000e+00 0.0000e+00
      997  1    1    2    0    0 -2.9620180951e+01 +2.5156215667e+01 +4.1549788631e+02 4.2029594792e+02 5.0000000000e+01 0.0000e+00 0.0000e+00
</event>
<event>
 5      1 +5.6267200e-07 1.97156300e+02 7.95774700e-02 5.09350900e-01
       13 -1    0    0    0    0 +0.0000000000e+00 +0.0000000000e+00 +4.9999998884e+02 5.0000000000e+02 1.0566000000e-01 0.0000e+00 1.0000e+00
      994 -1    0    0    0    0 -0.0000000000e+00 -0.0000000000e+00 +0.0000000000e+00 1.3100000000e+02 1.3100000000e+02 0.0000e+00 0.0000e+00
       13  1    1    2    0    0 +1.3673458003e+01 -3.5062667180e+00 +3.6827910831e+00 1.4588744780e+01 1.0566000000e-01 0.0000e+00 -1.0000e+00
      994  1    1    2    0    0 -1.3242488032e+00 -1.6341876716e+01 +1.6062826787e+01 1.3299558254e+02 1.3100000000e+02 0.0000e+00 0.0000e+00
      997  1    1    2    0    0 -1.2349209199e+01 +1.9848143434e+01 +4.8025437097e+02 4.8341567269e+02 5.0000000000e+01 0.0000e+00 0.0000e+00
</event>
<event>
 5      1 +5.6267200e-07 2.06991900e+02 7.95774700e-02 4.91494100e-01
       13 -1    0    0    0    0 +0.0000000000e+00 +0.0000000000e+00 +4.9999998884e+02 5.0000000000e+02 1.0566000000e-01 0.0000e+00 -1.0000e+00
      994 -1    0    0    0    0 -0.0000000000e+00 -0.0000000000e+00 +0.0000000000e+00 1.3100000000e+02 1.3100000000e+02 0.0000e+00 0.0000e+00
       13  1    1    2    0    0 -2.2978116148e+01 -2.5012048326e+00 +6.3156742720e+01 6.7253514126e+01 1.0566000000e-01 0.0000e+00 1.0000e+00
      994  1    1    2    0    0 +3.5727654414e+01 -1.8639948725e+01 +1.4596001655e+01 1.3783307383e+02 1.3100000000e+02 0.0000e+00 0.0000e+00
      997  1    1    2    0    0 -1.2749538266e+01 +2.1141153557e+01 +4.2224724446e+02 4.2591341204e+02 5.0000000000e+01 0.0000e+00 0.0000e+00
</event>
<event>
 5      1 +5.6267200e-07 2.08813200e+02 7.95774700e-02 4.88423400e-01
       13 -1    0    0    0    0 +0.0000000000e+00 +0.0000000000e+00 +4.9999998884e+02 5.0000000000e+02 1.0566000000e-01 0.0000e+00 -1.0000e+00
      994 -1    0    0    0    0 -0.0000000000e+00 -0.0000000000e+00 +0.0000000000e+00 1.3100000000e+02 1.3100000000e+02 0.0000e+00 0.0000e+00
       13  1    1    2    0    0 +1.0070996512e+01 -2.1997813862e+00 +2.9894683760e+01 3.1622259408e+01 1.0566000000e-01 0.0000e+00 1.0000e+00
      994  1    1    2    0    0 +5.9587104464e-01 -1.1432961403e+01 +5.3373075679e+00 1.3160757775e+02 1.3100000000e+02 0.0000e+00 0.0000e+00
      997  1    1    2    0    0 -1.0666867557e+01 +1.3632742789e+01 +4.6476799751e+02 4.6777016284e+02 5.0000000000e+01 0.0000e+00 0.0000e+00
</event>
<event>
 5      1 +5.6267200e-07 1.99269400e+02 7.95774700e-02 5.05321100e-01
       13 -1    0    0    0    0 +0.0000000000e+00 +0.0000000000e+00 +4.9999998884e+02 5.0000000000e+02 1.0566000000e-01 0.0000e+00 1.0000e+00
      994 -1    0    0    0    0 -0.0000000000e+00 -0.0000000000e+00 +0.0000000000e+00 1.3100000000e+02 1.3100000000e+02 0.0000e+00 0.0000e+00
       13  1    1    2    0    0 +2.1707135116e+00 +2.4603203958e+01 +3.2047179582e+01 4.0460629325e+01 1.0566000000e-01 0.0000e+00 -1.0000e+00
      994  1    1    2    0    0 +1.8003727720e+01 +3.2983934010e+00 +1.4527323487e+01 1.3306786516e+02 1.3100000000e+02 0.0000e+00 0.0000e+00
      997  1    1    2    0    0 -2.0174441232e+01 -2.7901597359e+01 +4.5342548577e+02 4.5747150551e+02 5.0000000000e+01 0.0000e+00 0.0000e+00
</event>
<event>
 5      1 +5.6267200e-07 2.01693100e+02 7.95774700e-02 5.00834000e-01
       13 -1    0    0    0    0 +0.0000000000e+00 +0.0000000000e+00 +4.9999998884e+02 5.0000000000e+02 1.0566000000e-01 0.0000e+00 1.0000e+00
      994 -1    0    0    0    0 -0.0000000000e+00 -0.0000000000e+00 +0.0000000000e+00 1.3100000000e+02 1.3100000000e+02 0.0000e+00 0.0000e+00
       13  1    1    2    0    0 -4.1649008343e+01 +1.0938615841e+01 +5.7643545352e+01 7.1951947140e+01 1.0566000000e-01 0.0000e+00 -1.0000e+00
      994  1    1    2    0    0 +8.5020100546e+01 -4.1195114263e+01 +6.3959534398e+01 1.7371608151e+02 1.3100000000e+02 0.0000e+00 0.0000e+00
      997  1    1    2    0    0 -4.3371092203e+01 +3.0256498423e+01 +3.7839690909e+02 3.8533197135e+02 5.0000000000e+01 0.0000e+00 0.0000e+00
</event>
<event>
 5      1 +5.6267200e-07 2.05522900e+02 7.95774700e-02 4.94021500e-01
       13 -1    0    0    0    0 +0.0000000000e+00 +0.0000000000e+00 +4.9999998884e+02 5.0000000000e+02 1.0566000000e-01 0.0000e+00 1.0000e+00
      994 -1    0    0    0    0 -0.0000000000e+00 -0.0000000000e+00 +0.0000000000e+00 1.3100000000e+02 1.3100000000e+02 0.0000e+00 0.0000e+00
       13  1    1    2    0    0 -1.1589606693e+01 +1.6303303808e+01 +5.0164406041e+01 5.4005513569e+01 1.0566000000e-01 0.0000e+00 -1.0000e+00
      994  1    1    2    0    0 -2.0961680502e+01 -1.5062150942e+01 +1.0836263479e+01 1.3395777337e+02 1.3100000000e+02 0.0000e+00 0.0000e+00
      997  1    1    2    0    0 +3.2551287195e+01 -1.2411528653e+00 +4.3899931932e+02 4.4303671306e+02 5.0000000000e+01 0.0000e+00 0.0000e+00
</event>
<event>
 5      1 +5.6267200e-07 2.05219200e+02 7.95774700e-02 4.94549700e-01
       13 -1    0    0    0    0 +0.0000000000e+00 +0.0000000000e+00 +4.9999998884e+02 5.0000000000e+02 1.0566000000e-01 0.0000e+00 -1.0000e+00
      994 -1    0    0    0    0 -0.0000000000e+00 -0.0000000000e+00 +0.0000000000e+00 1.3100000000e+02 1.3100000000e+02 0.0000e+00 0.0000e+00
       13  1    1    2    0    0 +1.9528593493e+01 -1.5844959204e+00 +9.7658340731e+01 9.9604413906e+01 1.0566000000e-01 0.0000e+00 1.0000e+00
      994  1    1    2    0    0 -7.8887536144e+00 -8.3759234735e+01 +4.7397177461e+01 1.6274315429e+02 1.3100000000e+02 0.0000e+00 0.0000e+00
      997  1    1    2    0    0 -1.1639839879e+01 +8.5343730655e+01 +3.5494447064e+02 3.6865243180e+02 5.0000000000e+01 0.0000e+00 0.0000e+00
</event>
<event>
 5      1 +5.6267200e-07 2.02609200e+02 7.95774700e-02 4.99174100e-01
       13 -1    0    0    0    0 +0.0000000000e+00 +0.0000000000e+00 +4.9999998884e+02 5.0000000000e+02 1.0566000000e-01 0.0000e+00 -1.0000e+00
      994 -1    0    0    0    0 -0.0000000000e+00 -0.0000000000e+00 +0.0000000000e+00 1.3100000000e+02 1.3100000000e+02 0.0000e+00 0.0000e+00
       13  1    1    2    0    0 +9.8992267978e+00 +3.0186791369e+01 +6.3832899936e+01 7.1301383876e+01 1.0566000000e-01 0.0000e+00 1.0000e+00
      994  1    1    2    0    0 -2.1106059264e+00 -3.0719399893e+01 +1.4888360766e+01 1.3539128286e+02 1.3100000000e+02 0.0000e+00 0.0000e+00
      997  1    1    2    0    0 -7.7886208714e+00 +5.3260852385e-01 +4.2127872813e+02 4.2430733327e+02 5.0000000000e+01 0.0000e+00 0.0000e+00
</event>
<event>
 5      1 +5.6267200e-07 2.02307300e+02 7.95774700e-02 4.99719100e-01
       13 -1    0    0    0    0 +0.0000000000e+00 +0.0000000000e+00 +4.9999998884e+02 5.0000000000e+02 1.0566000000e-01 0.0000e+00 -1.0000e+00
      994 -1    0    0    0    0 -0.0000000000e+00 -0.0000000000e+00 +0.0000000000e+00 1.3100000000e+02 1.3100000000e+02 0.0000e+00 0.0000e+00
       13  1    1    2    0    0 -2.4847545497e+01 +2.7506277732e+01 +7.6712675772e+01 8.5198835791e+01 1.0566000000e-01 0.0000e+00 1.0000e+00
      994  1    1    2    0    0 +3.8977340247e+01 -2.0791625200e+01 +2.0664310967e+01 1.3978389921e+02 1.3100000000e+02 0.0000e+00 0.0000e+00
      997  1    1    2    0    0 -1.4129794750e+01 -6.7146525323e+00 +4.0262300210e+02 4.0601726500e+02 5.0000000000e+01 0.0000e+00 0.0000e+00
</event>
<event>
 5      1 +5.6267200e-07 1.94585100e+02 7.95774700e-02 5.14410100e-01
       13 -1    0    0    0    0 +0.0000000000e+00 +0.0000000000e+00 +4.9999998884e+02 5.0000000000e+02 1.0566000000e-01 0.0000e+00 -1.0000e+00
      994 -1    0    0    0    0 -0.0000000000e+00 -0.0000000000e+00 +0.0000000000e+00 1.3100000000e+02 1.3100000000e+02 0.0000e+00 0.0000e+00
       13  1    1    2    0    0 -2.6757839547e+01 +3.4437130669e+01 +7.2793968363e+01 8.4857945650e+01 1.0566000000e-01 0.0000e+00 1.0000e+00
      994  1    1    2    0    0 -5.9771823264e+00 -2.4323884673e+01 +2.0494164242e+01 1.3493846317e+02 1.3100000000e+02 0.0000e+00 0.0000e+00
      997  1    1    2    0    0 +3.2735021873e+01 -1.0113245997e+01 +4.0671185623e+02 4.1120359118e+02 5.0000000000e+01 0.0000e+00 0.0000e+00
</event>
<event>
 5      1 +5.6267200e-07 2.07911200e+02 7.95774700e-02 4.89935500e-01
       13 -1    0    0    0    0 +0.0000000000e+00 +0.0000000000e+00 +4.9999998884e+02 5.0000000000e+02 1.0566000000e-01 0.0000e+00 1.0000e+00
      994 -1    0    0    0    0 -0.0000000000e+00 -0.0000000000e+00 +0.0000000000e+00 1.3100000000e+02 1.3100000000e+02 0.0000e+00 0.0000e+00
       13  1    1    2    0    0 -4.1066244085e+00 -9.6862671205e+00 +1.5342276040e+01 1.8603352732e+01 1.0566000000e-01 0.0000e+00 -1.0000e+00
      994  1    1    2    0    0 -1.7578253843e+00 +3.5098160749e+01 +1.1751430132e+01 1.3613988008e+02 1.3100000000e+02 0.0000e+00 0.0000e+00
      997  1    1    2    0    0 +5.8644497927e+00 -2.5411893628e+01 +4.7290628266e+02 4.7625676719e+02 5.0000000000e+01 0.0000e+00 0.0000e+00
</event>
<event>
 5      1 +5.6267200e-07 2.04498700e+02 7.95774700e-02 4.95811100e-01
       13 -1    0    0    0    0 +0.0000000000e+00 +0.0000000000e+00 +4.9999998884e+02 5.0000000000e+02 1.0566000000e-01 0.0000e+00 -1.0000e+00
      994 -1    0    0    0    0 -0.0000000000e+00 -0.0000000000e+00 +0.0000000000e+00 1.3100000000e+02 1.3100000000e+02 0.0000e+00 0.0000e+00
       13  1    1    2    0    0 -2.1565011617e+01 +1.4271293687e+01 +5.0515148509e+01 5.6749545747e+01 1.0566000000e-01 0.0000e+00 1.0000e+00
      994  1    1    2    0    0 +3.8910791494e+00 -5.9079815053e+01 +2.7216061045e+01 1.4631226545e+02 1.3100000000e+02 0.0000e+00 0.0000e+00
      997  1    1    2    0    0 +1.7673932467e+01 +4.4808521366e+01 +4.2226877928e+02 4.2793818880e+02 5.0000000000e+01 0.0000e+00 0.0000e+00
</event>
<event>
 5      1 +5.6267200e-07 1.94005500e+02 7.95774700e-02 5.15575000e-01
       13 -1    0    0    0    0 +0.0000000000e+00 +0.0000000000e+00 +4.9999998884e+02 5.0000000000e+02 1.0566000000e-01 0.0000e+00 -1.0000e+00
      994 -1    0    0    0    0 -0.0000000000e+00 -0.0000000000e+00 +0.0000000000e+00 1.3100000000e+02 1.3100000000e+02 0.0000e+00 0.0000e+00
       13  1    1    2    0    0 +8.1770160408e+00 +1.1033204936e+01 +1.0264253144e+00 1.3771707064e+01 1.0566000000e-01 0.0000e+00 1.0000e+00
      994  1    1    2    0    0 +7.3828582358e+01 +8.5175165343e+00 +5.1543914532e+01 1.5918851336e+02 1.3100000000e+02 0.0000e+00 0.0000e+00
      997  1    1    2    0    0 -8.2005598399e+01 -1.9550721470e+01 +4.4742964899e+02 4.5803977958e+02 5.0000000000e+01 0.0000e+00 0.0000e+00
</event>
<event>
 5      1 +5.6267200e-07 2.03341000e+02 7.95774700e-02 4.97862100e-01
       13 -1    0    0    0    0 +0.0000000000e+00 +0.0000000000e+00 +4.9999998884e+02 5.0000000000e+02 1.0566000000e-01 0.0000e+00 -1.0000e+00
      994 -1    0    0    0    0 -0.0000000000e+00 -0.0000000000e+00 +0.0000000000e+00 1.3100000000e+02 1.3100000000e+02 0.0000e+00 0.0000e+00
       13  1    1    2    0    0 -1.2499866846e+00 +2.0557371103e+01 +2.7604782404e+01 3.4441300048e+01 1.0566000000e-01 0.0000e+00 1.0000e+00
      994  1    1    2    0    0 -1.6369150905e+01 -2.6330207705e+01 +1.4306951225e+01 1.3537694705e+02 1.3100000000e+02 0.0000e+00 0.0000e+00
      997  1    1    2    0    0 +1.7619137589e+01 +5.7728366021e+00 +4.5808825521e+02 4.6118175290e+02 5.0000000000e+01 0.0000e+00 0.0000e+00
</event>
<event>
 5      1 +5.6267200e-07 1.96414700e+02 7.95774700e-02 5.10792300e-01
       13 -1    0    0    0    0 +0.0000000000e+00 +0.0000000000e+00 +4.9999998884e+02 5.0000000000e+02 1.0566000000e-01 0.0000e+00 -1.0000e+00
      994 -1    0    0    0    0 -0.0000000000e+00 -0.0000000000e+00 +0.0000000000e+00 1.3100000000e+02 1.3100000000e+02 0.0000e+00 0.0000e+00
       13  1    1    2    0    0 -4.6386755146e+01 -2.5110280745e+01 +9.6201720439e+01 1.0971344235e+02 1.0566000000e-01 0.0000e+00 1.0000e+00
      994  1    1    2    0    0 +2.6566241380e+01 +5.0086724729e+01 +3.3963424364e+01 1.4672750039e+02 1.3100000000e+02 0.0000e+00 0.0000e+00
      997  1    1    2    0    0 +1.9820513766e+01 -2.4976443984e+01 +3.6983484403e+02 3.7455905727e+02 5.0000000000e+01 0.0000e+00 0.0000e+00
</event>
<event>
 5      1 +5.6267200e-07 2.07361900e+02 7.95774700e-02 4.90864600e-01
       13 -1    0    0    0    0 +0.0000000000e+00 +0.0000000000e+00 +4.9999998884e+02 5.0000000000e+02 1.0566000000e-01 0.0000e+00 -1.0000e+00
      994 -1    0    0    0    0 -0.0000000000e+00 -0.0000000000e+00 +0.0000000000e+00 1.3100000000e+02 1.3100000000e+02 0.0000e+00 0.0000e+00
       13  1    1    2    0    0 -9.3509608867e+00 -1.9232815865e+01 +9.0782455428e+01 9.3267395446e+01 1.0566000000e-01 0.0000e+00 1.0000e+00
      994  1    1    2    0    0 -2.1362211857e+00 +1.0249480282e+01 +6.4122311025e+00 1.3157405517e+02 1.3100000000e+02 0.0000e+00 0.0000e+00
      997  1    1    2    0    0 +1.1487182072e+01 +8.9833355838e+00 +4.0280530231e+02 4.0615854938e+02 5.0000000000e+01 0.0000e+00 0.0000e+00
</event>
<event>
 5      1 +5.6267200e-07 2.01976000e+02 7.95774700e-02 5.00319400e-01
       13 -1    0    0    0    0 +0.0000000000e+00 +0.0000000000e+00 +4.9999998884e+02 5.0000000000e+02 1.0566000000e-01 0.0000e+00 -1.0000e+00
      994 -1    0    0    0    0 -0.0000000000e+00 -0.0000000000e+00 +0.0000000000e+00 1.3100000000e+02 1.3100000000e+02 0.0000e+00 0.0000e+00
       13  1    1    2    0    0 +3.0470327681e+01 +8.1014837162e+00 +6.6879081371e+01 7.3938471694e+01 1.0566000000e-01 0.0000e+00 1.0000e+00
      994  1    1    2    0    0 -1.2586762469e+01 -2.0620329427e+01 +1.3480357021e+01 1.3388929980e+02 1.3100000000e+02 0.0000e+00 0.0000e+00
      997  1    1    2    0    0 -1.7883565212e+01 +1.2518845710e+01 +4.1964055044e+02 4.2317222851e+02 5.0000000000e+01 0.0000e+00 0.0000e+00
</event>
<event>
 5      1 +5.6267200e-07 1.95684500e+02 7.95774700e-02 5.12225400e-01
       13 -1    0    0    0    0 +0.0000000000e+00 +0.0000000000e+00 +4.9999998884e+02 5.0000000000e+02 1.0566000000e-01 0.0000e+00 1.0000e+00
      994 -1    0    0    0    0 -0.0000000000e+00 -0.0000000000e+00 +0.0000000000e+00 1.3100000000e+02 1.3100000000e+02 0.0000e+00 0.0000e+00
       13  1    1    2    0    0 -1.2961006211e+01 +1.4583260830e+01 +1.9058425811e+00 1.9603636867e+01 1.0566000000e-01 0.0000e+00 -1.0000e+00
      994  1    1    2    0    0 +3.4318867431e+01 +2.0215695433e+01 +3.1683042752e+01 1.4053922656e+02 1.3100000000e+02 0.0000e+00 0.0000e+00
      997  1    1    2    0    0 -2.1357861220e+01 -3.4798956263e+01 +4.6641110350e+02 4.7085713657e+02 5.0000000000e+01 0.0000e+00 0.0000e+00
</event>
<event>
 5      1 +5.6267200e-07 2.08859000e+02 7.95774700e-02 4.88347000e-01
       13 -1    0    0    0    0 +0.0000000000e+00 +0.0000000000e+00 +4.9999998884e+02 5.0000000000e+02 1.0566000000e-01 0.0000e+00 1.0000e+00
      994 -1    0    0    0    0 -0.0000000000e+00 -0.0000000000e+00 +0.0000000000e+00 1.3100000000e+02 1.3100000000e+02 0.0000e+00 0.0000e+00
       13  1    1    2    0    0 -8.5353751344e-01 -1.5570978757e+01 +5.9205158819e+01 6.1224553085e+01 1.0566000000e-01 0.0000e+00 -1.0000e+00
      994  1    1    2    0    0 +9.3045504672e+00 +1.7680992496e+01 +6.6580048007e+00 1.3268203037e+02 1.3100000000e+02 0.0000e+00 0.0000e+00
      997  1    1    2    0    0 -8.4510129538e+00 -2.1100137394e+00 +4.3413682522e+02 4.3709341655e+02 5.0000000000e+01 0.0000e+00 0.0000e+00
</event>
<event>
 5      1 +5.6267200e-07 2.08936000e+02 7.95774700e-02 4.88218800e-01
       13 -1    0    0    0    0 +0.0000000000e+00 +0.0000000000e+00 +4.9999998884e+02 5.0000000000e+02 1.0566000000e-01 0.0000e+00 -1.0000e+00
      994 -1    0    0    0    0 -0.0000000000e+00 -0.0000000000e+00 +0.0000000000e+00 1.3100000000e+02 1.3100000000e+02 0.0000e+00 0.0000e+00
       13  1    1    2    0    0 +1.0411646192e+01 +1.0711287404e+01 +5.7952162411e+01 5.9846456423e+01 1.0566000000e-01 0.0000e+00 1.0000e+00
      994  1    1    2    0    0 -2.4088310754e+01 +2.5492399928e-02 +7.5150466017e+00 1.3340810804e+02 1.3100000000e+02 0.0000e+00 0.0000e+00
      997  1    1    2    0    0 +1.3676664563e+01 -1.0736779804e+01 +4.3453277982e+02 4.3774543554e+02 5.0000000000e+01 0.0000e+00 0.0000e+00
</event>
<event>
 5      1 +5.6267200e-07 2.03849000e+02 7.95774700e-02 4.96958400e-01
       13 -1    0    0    0    0 +0.0000000000e+00 +0.0000000000e+00 +4.9999998884e+02 5.0000000000e+02 1.0566000000e-01 0.0000e+00 1.0000e+00
      994 -1    0    0    0    0 -0.0000000000e+00 -0.0000000000e+00 +0.0000000000e+00 1.3100000000e+02 1.3100000000e+02 0.0000e+00 0.0000e+00
       13  1    1    2    0    0 +1.8450588585e+01 -1.2332440987e+00 +2.9877811796e+01 3.5137443161e+01 1.0566000000e-01 0.0000e+00 -1.0000e+00
      994  1    1    2    0    0 +4.1146136881e+00 +1.0054752607e+01 +9.3816581138e+00 1.3178407948e+02 1.3100000000e+02 0.0000e+00 0.0000e+00
      997  1    1    2    0    0 -2.2565202273e+01 -8.8215085083e+00 +4.6074051893e+02 4.6407847736e+02 5.0000000000e+01 0.0000e+00 0.0000e+00
</event>
<event>
 5      1 +5.6267200e-07 2.06751100e+02 7.95774700e-02 4.91905200e-01
       13 -1    0    0    0    0 +0.0000000000e+00 +0.0000000000e+00 +4.9999998884e+02 5.0000000000e+02 1.0566000000e-01 0.0000e+00 1.0000e+00
      994 -1    0    0    0    0 -0.0000000000e+00 -0.0000000000e+00 +0.0000000000e+00 1.3100000000e+02 1.3100000000e+02 0.0000e+00 0.0000e+00
       13  1    1    2    0    0 +1.1262277246e+00 -1.2971068763e+01 +2.5328421478e+01 2.8479064457e+01 1.0566000000e-01 0.0000e+00 -1.0000e+00
      994  1    1    2    0    0 -8.3783948787e+00 -8.0726954179e+00 +7.0468622181e+00 1.3170430585e+02 1.3100000000e+02 0.0000e+00 0.0000e+00
      997  1    1    2    0    0 +7.2521671541e+00 +2.1043764181e+01 +4.6762470514e+02 4.7081662969e+02 5.0000000000e+01 0.0000e+00 0.0000e+00
</event>
<event>
 5      1 +5.6267200e-07 2.00083900e+02 7.95774700e-02 5.03797500e-01
       13 -1    0    0    0    0 +0.0000000000e+00 +0.0000000000e+00 +4.9999998884e+02 5.0000000000e+02 1.0566000000e-01 0.0000e+00 1.0000e+00
      994 -1    0    0    0    0 -0.0000000000e+00 -0.0000000000e+00 +0.0000000000e+00 1.3100000000e+02 1.3100000000e+02 0.0000e+00 0.0000e+00
       13  1    1    2    0    0 +4.1442365093e+01 -3.0908094724e+01 +3.9992123376e+01 6.5361770479e+01 1.0566000000e-01 0.0000e+00 -1.0000e+00
      994  1    1    2    0    0 -4.0894723782e+01 +4.3027030257e+01 +4.9774961693e+01 1.5219149312e+02 1.3100000000e+02 0.0000e+00 0.0000e+00
      997  1    1    2    0    0 -5.4764131090e-01 -1.2118935534e+01 +4.1023290377e+02 4.1344673640e+02 5.0000000000e+01 0.0000e+00 0.0000e+00
</event>
<event>
 5      1 +5.6267200e-07 2.07026500e+02 7.95774700e-02 4.91435000e-01
       13 -1    0    0    0    0 +0.0000000000e+00 +0.0000000000e+00 +4.9999998884e+02 5.0000000000e+02 1.0566000000e-01 0.0000e+00 -1.0000e+00
      994 -1    0    0    0    0 -0.0000000000e+00 -0.0000000000e+00 +0.0000000000e+00 1.3100000000e+02 1.3100000000e+02 0.0000e+00 0.0000e+00
       13  1    1    2    0    0 -9.3916443894e-01 -1.9143981788e+01 +3.5590838140e+01 4.0423916090e+01 1.0566000000e-01 0.0000e+00 1.0000e+00
      994  1    1    2    0    0 +2.4416969006e+01 +4.9060472674e+01 +2.1958481960e+01 1.4368818074e+02 1.3100000000e+02 0.0000e+00 0.0000e+00
      997  1    1    2    0    0 -2.3477804567e+01 -2.9916490886e+01 +4.4245066874e+02 4.4688790317e+02 5.0000000000e+01 0.0000e+00 0.0000e+00
</event>
<event>
 5      1 +5.6267200e-07 2.07342600e+02 7.95774700e-02 4.90897400e-01
       13 -1    0    0    0    0 +0.0000000000e+00 +0.0000000000e+00 +4.9999998884e+02 5.0000000000e+02 1.0566000000e-01 0.0000e+00 -1.0000e+00
      994 -1    0    0    0    0 -0.0000000000e+00 -0.0000000000e+00 +0.0000000000e+00 1.3100000000e+02 1.3100000000e+02 0.0000e+00 0.0000e+00
       13  1    1    2    0    0 -1.1285485481e+01 -1.5707441011e+00 +1.6291615255e+01 1.9881079226e+01 1.0566000000e-01 0.0000e+00 1.0000e+00
      994  1    1    2    0    0 +2.2185906464e+01 +2.4884064687e+01 +1.1599097068e+01 1.3567228963e+02 1.3100000000e+02 0.0000e+00 0.0000e+00
      997  1    1    2    0    0 -1.0900420983e+01 -2.3313320586e+01 +4.7210927651e+02 4.7544663114e+02 5.0000000000e+01 0.0000e+00 0.0000e+00
</event>
<event>
 5      1 +5.6267200e-07 2.00993700e+02 7.95774700e-02 5.02114400e-01
       13 -1    0    0    0    0 +0.0000000000e+00 +0.0000000000e+00 +4.9999998884e+02 5.0000000000e+02 1.0566000000e-01 0.0000e+00 1.0000e+00
      994 -1    0    0    0    0 -0.0000000000e+00 -0.0000000000e+00 +0.0000000000e+00 1.3100000000e+02 1.3100000000e+02 0.0000e+00 0.0000e+00
       13  1    1    2    0    0 +3.3459961060e+01 +2.5359462456e+01 +5.2485993120e+01 6.7212067131e+01 1.0566000000e-01 0.0000e+00 -1.0000e+00
      994  1    1    2    0    0 -6.8803818344e+01 -6.0426575280e+01 +6.1304969312e+01 1.7118596812e+02 1.3100000000e+02 0.0000e+00 0.0000e+00
      997  1    1    2    0    0 +3.5343857284e+01 +3.5067112824e+01 +3.8620902640e+02 3.9260196475e+02 5.0000000000e+01 0.0000e+00 0.0000e+00
</event>
<event>
 5      1 +5.6267200e-07 1.93662400e+02 7.95774700e-02 5.16268900e-01
       13 -1    0    0    0    0 +0.0000000000e+00 +0.0000000000e+00 +4.9999998884e+02 5.0000000000e+02 1.0566000000e-01 0.0000e+00 1.0000e+00
      994 -1    0    0    0    0 -0.0000000000e+00 -0.0000000000e+00 +0.0000000000e+00 1.3100000000e+02 1.3100000000e+02 0.0000e+00 0.0000e+00
       13  1    1    2    0    0 +3.1261805907e+00 +2.4386990689e+01 +1.0491242472e+01 2.6731547890e+01 1.0566000000e-01 0.0000e+00 -1.0000e+00
      994  1    1    2    0    0 -3.0367203269e+01 -1.3533603509e+01 +2.6601239564e+01 1.3774596693e+02 1.3100000000e+02 0.0000e+00 0.0000e+00
      997  1    1    2    0    0 +2.7241022678e+01 -1.0853387180e+01 +4.6290750680e+02 4.6652248518e+02 5.0000000000e+01 0.0000e+00 0.0000e+00
</event>
<event>
 5      1 +5.6267200e-07 1.99966500e+02 7.95774700e-02 5.04016100e-01
       13 -1    0    0    0    0 +0.0000000000e+00 +0.0000000000e+00 +4.9999998884e+02 5.0000000000e+02 1.0566000000e-01 0.0000e+00 1.0000e+00
      994 -1    0    0    0    0 -0.0000000000e+00 -0.0000000000e+00 +0.0000000000e+00 1.3100000000e+02 1.3100000000e+02 0.0000e+00 0.0000e+00
       13  1    1    2    0    0 -6.8881402927e+00 +2.4470568848e+01 +6.3108399621e+01 6.8036287989e+01 1.0566000000e-01 0.0000e+00 -1.0000e+00
      994  1    1    2    0    0 -8.5636522620e+00 +4.4469068252e+01 +2.3470958649e+01 1.4057994192e+02 1.3100000000e+02 0.0000e+00 0.0000e+00
      997  1    1    2    0    0 +1.5451792555e+01 -6.8939637100e+01 +4.1342063057e+02 4.2238377009e+02 5.0000000000e+01 0.0000e+00 0.0000e+00
</event>
<event>
 5      1 +5.6267200e-07 2.07725100e+02 7.95774700e-02 4.90249700e-01
       13 -1    0    0    0    0 +0.0000000000e+00 +0.0000000000e+00 +4.9999998884e+02 5.0000000000e+02 1.0566000000e-01 0.0000e+00 1.0000e+00
      994 -1    0    0    0    0 -0.0000000000e+00 -0.0000000000e+00 +0.0000000000e+00 1.3100000000e+02 1.3100000000e+02 0.0000e+00 0.0000e+00
       13  1    1    2    0    0 -3.9970967747e+00 +1.1815833596e+01 +2.8408883960e+01 3.1026868325e+01 1.0566000000e-01 0.0000e+00 -1.0000e+00
      994  1    1    2    0    0 -4.4459078608e+00 -2.3133272720e+00 +5.6846446234e+00 1.3121902592e+02 1.3100000000e+02 0.0000e+00 0.0000e+00
      997  1    1    2    0    0 +8.4430046355e+00 -9.5025063237e+00 +4.6590646025e+02 4.6875410575e+02 5.0000000000e+01 0.0000e+00 0.0000e+00
</event>
<event>
 5      1 +5.6267200e-07 1.98663400e+02 7.95774700e-02 5.06465400e-01
       13 -1    0    0    0    0 +0.0000000000e+00 +0.0000000000e+00 +4.9999998884e+02 5.0000000000e+02 1.0566000000e-01 0.0000e+00 -1.0000e+00
      994 -1    0    0    0    0 -0.0000000000e+00 -0.0000000000e+00 +0.0000000000e+00 1.3100000000e+02 1.3100000000e+02 0.0000e+00 0.0000e+00
       13  1    1    2    0    0 +2.4132168124e+01 -6.6316028955e+00 +2.5842946373e+01 3.5975112739e+01 1.0566000000e-01 0.0000e+00 1.0000e+00
      994  1    1    2    0    0 -8.1152877471e+00 +3.4306102528e+01 +2.0142614676e+01 1.3714769955e+02 1.3100000000e+02 0.0000e+00 0.0000e+00
      997  1    1    2    0    0 -1.6016880377e+01 -2.7674499633e+01 +4.5401442779e+02 4.5787718771e+02 5.0000000000e+01 0.0000e+00 0.0000e+00
</event>
<event>
 5      1 +5.6267200e-07 2.05821900e+02 7.95774700e-02 4.93503200e-01
       13 -1    0    0    0    0 +0.0000000000e+00 +0.0000000000e+00 +4.9999998884e+02 5.0000000000e+02 1.0566000000e-01 0.0000e+00 1.0000e+00
      994 -1    0    0    0    0 -0.0000000000e+00 -0.0000000000e+00 +0.0000000000e+00 1.3100000000e+02 1.3100000000e+02 0.0000e+00 0.0000e+00
       13  1    1    2    0    0 -1.3297832814e+01 +1.0641409241e+00 +3.2599120744e+01 3.5223267747e+01 1.0566000000e-01 0.0000e+00 -1.0000e+00
      994  1    1    2    0    0 -4.5773940181e+01 -2.1922389651e+01 +2.0775116945e+01 1.4201566904e+02 1.3100000000e+02 0.0000e+00 0.0000e+00
      997  1    1    2    0    0 +5.9071772995e+01 +2.0858248727e+01 +4.4662575115e+02 4.5376106322e+02 5.0000000000e+01 0.0000e+00 0.0000e+00
</event>
<event>
 5      1 +5.6267200e-07 1.92533800e+02 7.95774700e-02 5.18574600e-01
       13 -1    0    0    0    0 +0.0000000000e+00 +0.0000000000e+00 +4.9999998884e+02 5.0000000000e+02 1.0566000000e-01 0.0000e+00 1.0000e+00
      994 -1    0    0    0    0 -0.0000000000e+00 -0.0000000000e+00 +0.0000000000e+00 1.3100000000e+02 1.3100000000e+02 0.0000e+00 0.0000e+00
       13  1    1    2    0    0 -1.9835205975e+01 +2.3027694775e+01 +2.7086269498e+01 4.0711021629e+01 1.0566000000e-01 0.0000e+00 -1.0000e+00
      994  1    1    2    0    0 +4.1598445514e+00 +7.5735769011e+00 +1.9372329188e+01 1.3270625649e+02 1.3100000000e+02 0.0000e+00 0.0000e+00
      997  1    1    2    0    0 +1.5675361424e+01 -3.0601271676e+01 +4.5354139015e+02 4.5758272188e+02 5.0000000000e+01 0.0000e+00 0.0000e+00
</event>
<event>
 5      1 +5.6267200e-07 2.08939200e+02 7.95774700e-02 4.88213400e-01
       13 -1    0    0    0    0 +0.0000000000e+00 +0.0000000000e+00 +4.9999998884e+02 5.0000000000e+02 1.0566000000e-01 0.0000e+00 -1.0000e+00
      994 -1    0    0    0    0 -0.0000000000e+00 -0.0000000000e+00 +0.0000000000e+00 1.3100000000e+02 1.3100000000e+02 0.0000e+00 0.0000e+00
       13  1    1    2    0    0 +1.0756129678e+01 -2.8021491664e+00 +3.5597517758e+01 3.7292637345e+01 1.0566000000e-01 0.0000e+00 1.0000e+00
      994  1    1    2    0    0 +6.2953583351e-01 +1.1137595391e+01 +5.2016601761e+00 1.3157697221e+02 1.3100000000e+02 0.0000e+00 0.0000e+00
      997  1    1    2    0    0 -1.1385665511e+01 -8.3354462248e+00 +4.5920081090e+02 4.6213039045e+02 5.0000000000e+01 0.0000e+00 0.0000e+00
</event>
<event>
 5      1 +5.6267200e-07 2.03846900e+02 7.95774700e-02 4.96962100e-01
       13 -1    0    0    0    0 +0.0000000000e+00 +0.0000000000e+00 +4.9999998884e+02 5.0000000000e+02 1.0566000000e-01 0.0000e+00 -1.0000e+00
      994 -1    0    0    0    0 -0.0000000000e+00 -0.0000000000e+00 +0.0000000000e+00 1.3100000000e+02 1.3100000000e+02 0.0000e+00 0.0000e+00
       13  1    1    2    0    0 +2.7795766810e+00 -1.3030906630e+01 +1.0338506803e+01 1.6864947705e+01 1.0566000000e-01 0.0000e+00 1.0000e+00
      994  1    1    2    0    0 +2.1681082721e+00 +3.0185107267e+01 +1.3615674469e+01 1.3513781109e+02 1.3100000000e+02 0.0000e+00 0.0000e+00
      997  1    1    2    0    0 -4.9476849531e+00 -1.7154200637e+01 +4.7604580756e+02 4.7899724121e+02 5.0000000000e+01 0.0000e+00 0.0000e+00
</event>
<event>
 5      1 +5.6267200e-07 2.08484200e+02 7.95774700e-02 4.88972900e-01
       13 -1    0    0    0    0 +0.0000000000e+00 +0.0000000000e+00 +4.9999998884e+02 5.0000000000e+02 1.0566000000e-01 0.0000e+00 -1.0000e+00
      994 -1    0    0    0    0 -0.0000000000e+00 -0.0000000000e+00 +0.0000000000e+00 1.3100000000e+02 1.3100000000e+02 0.0000e+00 0.0000e+00
       13  1    1    2    0    0 -4.6037676777e+00 +1.5617259077e+01 +6.0677813324e+01 6.2824371479e+01 1.0566000000e-01 0.0000e+00 1.0000e+00
      994  1    1    2    0    0 -9.1733789426e+00 -1.7197527178e+01 +6.8683061979e+00 1.3262005675e+02 1.3100000000e+02 0.0000e+00 0.0000e+00
      997  1    1    2    0    0 +1.3777146620e+01 +1.5802681010e+00 +4.3245386931e+02 4.3555557177e+02 5.0000000000e+01 0.0000e+00 0.0000e+00
</event>
<event>
 5      1 +5.6267200e-07 2.05096300e+02 7.95774700e-02 4.94764100e-01
       13 -1    0    0    0    0 +0.0000000000e+00 +0.0000000000e+00 +4.9999998884e+02 5.0000000000e+02 1.0566000000e-01 0.0000e+00 1.0000e+00
      994 -1    0    0    0    0 -0.0000000000e+00 -0.0000000000e+00 +0.0000000000e+00 1.3100000000e+02 1.3100000000e+02 0.0000e+00 0.0000e+00
       13  1    1    2    0    0 +5.3209620840e-01 +2.0515936235e+01 +4.9469044550e+01 5.3557299210e+01 1.0566000000e-01 0.0000e+00 -1.0000e+00
      994  1    1    2    0    0 +1.7443791910e+01 +1.5439189640e+00 +9.3164513547e+00 1.3249326710e+02 1.3100000000e+02 0.0000e+00 0.0000e+00
      997  1    1    2    0    0 -1.7975888118e+01 -2.2059855199e+01 +4.4121449293e+02 4.4494943369e+02 5.0000000000e+01 0.0000e+00 0.0000e+00
</event>
<event>
 5      1 +5.6267200e-07 2.00183600e+02 7.95774700e-02 5.03612100e-01
       13 -1    0    0    0    0 +0.0000000000e+00 +0.0000000000e+00 +4.9999998884e+02 5.0000000000e+02 1.0566000000e-01 0.0000e+00 -1.0000e+00
      994 -1    0    0    0    0 -0.0000000000e+00 -0.0000000000e+00 +0.0000000000e+00 1.3100000000e+02 1.3100000000e+02 0.0000e+00 0.0000e+00
       13  1    1    2    0    0 -1.1537831870e+01 -1.4091708432e+01 +1.5402979020e+01 2.3852897885e+01 1.0566000000e-01 0.0000e+00 1.0000e+00
      994  1    1    2    0    0 +1.1599721555e+01 -7.0250487307e+00 +1.2891794483e+01 1.3232952511e+02 1.3100000000e+02 0.0000e+00 0.0000e+00
      997  1    1    2    0    0 -6.1889684985e-02 +2.1116757163e+01 +4.7170521533e+02 4.7481757701e+02 5.0000000000e+01 0.0000e+00 0.0000e+00
</event>
<event>
 5      1 +5.6267200e-07 2.06750000e+02 7.95774700e-02 4.91907100e-01
       13 -1    0    0    0    0 +0.0000000000e+00 +0.0000000000e+00 +4.9999998884e+02 5.0000000000e+02 1.0566000000e-01 0.0000e+00 1.0000e+00
      994 -1    0    0    0    0 -0.0000000000e+00 -0.0000000000e+00 +0.0000000000e+00 1.3100000000e+02 1.3100000000e+02 0.0000e+00 0.0000e+00
       13  1    1    2    0    0 +1.0238374228e+01 +1.9927180321e+01 +7.7386969415e+01 8.0564700841e+01 1.0566000000e-01 0.0000e+00 -1.0000e+00
      994  1    1    2    0    0 -2.6181119735e+00 -1.1084438572e+01 +7.0187534100e+00 1.3168136614e+02 1.3100000000e+02 0.0000e+00 0.0000e+00
      997  1    1    2    0    0 -7.6202622541e+00 -8.8427417484e+00 +4.1559426601e+02 4.1875393302e+02 5.0000000000e+01 0.0000e+00 0.0000e+00
</event>
<event>
 5      1 +5.6267200e-07 2.08381000e+02 7.95774700e-02 4.89145900e-01
       13 -1    0    0    0    0 +0.0000000000e+00 +0.0000000000e+00 +4.9999998884e+02 5.0000000000e+02 1.0566000000e-01 0.0000e+00 -1.0000e+00
      994 -1    0    0    0    0 -0.0000000000e+00 -0.0000000000e+00 +0.0000000000e+00 1.3100000000e+02 1.3100000000e+02 0.0000e+00 0.0000e+00
       13  1    1    2    0    0 -1.6487492561e+01 +5.6187700316e+00 +6.4970590926e+01 6.7265123481e+01 1.0566000000e-01 0.0000e+00 1.0000e+00
      994  1    1    2    0    0 +1.4105848374e+01 -8.7864677460e+00 +6.4254500302e+00 1.3220613973e+02 1.3100000000e+02 0.0000e+00 0.0000e+00
      997  1    1    2    0    0 +2.3816441867e+00 +3.1676977144e+00 +4.2860394788e+02 4.3152873679e+02 5.0000000000e+01 0.0000e+00 0.0000e+00
</event>
<event>
 5      1 +5.6267200e-07 2.09500900e+02 7.95774700e-02 4.87281700e-01
       13 -1    0    0    0    0 +0.0000000000e+00 +0.0000000000e+00 +4.9999998884e+02 5.0000000000e+02 1.0566000000e-01 0.0000e+00 1.0000e+00
      994 -1    0    0    0    0 -0.0000000000e+00 -0.0000000000e+00 +0.0000000000e+00 1.3100000000e+02 1.3100000000e+02 0.0000e+00 0.0000e+00
       13  1    1    2    0    0 -1.4183127048e+01 -6.2794523455e+00 +8.4212526134e+01 8.5629161718e+01 1.0566000000e-01 0.0000e+00 -1.0000e+00
      994  1    1    2    0    0 +1.9889733213e+01 +5.0953516028e+00 +6.2449189286e+00 1.3274623576e+02 1.3100000000e+02 0.0000e+00 0.0000e+00
      997  1    1    2    0    0 -5.7066061642e+00 +1.1841007426e+00 +4.0954254377e+02 4.1262460253e+02 5.0000000000e+01 0.0000e+00 0.0000e+00
</event>
<event>
 5      1 +5.6267200e-07 2.00710200e+02 7.95774700e-02 5.02636700e-01
       13 -1    0    0    0    0 +0.0000000000e+00 +0.0000000000e+00 +4.9999998884e+02 5.0000000000e+02 1.0566000000e-01 0.0000e+00 1.0000e+00
      994 -1    0    0    0    0 -0.0000000000e+00 -0.0000000000e+00 +0.0000000000e+00 1.3100000000e+02 1.3100000000e+02 0.0000e+00 0.0000e+00
       13  1    1    2    0    0 -3.6791544602e+01 -1.4980834799e-01 +6.9548305048e+01 7.8680481034e+01 1.0566000000e-01 0.0000e+00 -1.0000e+00
      994  1    1    2    0    0 +3.2999788186e+01 -7.3589139757e+00 +1.7677259633e+01 1.3644275409e+02 1.3100000000e+02 0.0000e+00 0.0000e+00
      997  1    1    2    0    0 +3.7917564169e+00 +7.5087223237e+00 +4.1277442416e+02 4.1587676488e+02 5.0000000000e+01 0.0000e+00 0.0000e+00
</event>
<event>
 5      1 +5.6267200e-07 1.97027100e+02 7.95774700e-02 5.09601000e-01
       13 -1    0    0    0    0 +0.0000000000e+00 +0.0000000000e+00 +4.9999998884e+02 5.0000000000e+02 1.0566000000e-01 0.0000e+00 -1.0000e+00
      994 -1    0    0    0    0 -0.0000000000e+00 -0.0000000000e+00 +0.0000000000e+00 1.3100000000e+02 1.3100000000e+02 0.0000e+00 0.0000e+00
       13  1    1    2    0    0 +5.4654071992e+00 +3.1873136591e+01 +1.3991330248e+02 1.4360191812e+02 1.0566000000e-01 0.0000e+00 1.0000e+00
      994  1    1    2    0    0 +2.2152507730e+01 +4.1884543130e+01 +2.7524232479e+01 1.4199870396e+02 1.3100000000e+02 0.0000e+00 0.0000e+00
      997  1    1    2    0    0 -2.7617914930e+01 -7.3757679720e+01 +3.3256245388e+02 3.4539937792e+02 5.0000000000e+01 0.0000e+00 0.0000e+00
</event>
<event>
 5      1 +5.6267200e-07 2.08399300e+02 7.95774700e-02 4.89115200e-01
       13 -1    0    0    0    0 +0.0000000000e+00 +0.0000000000e+00 +4.9999998884e+02 5.0000000000e+02 1.0566000000e-01 0.0000e+00 1.0000e+00
      994 -1    0    0    0    0 -0.0000000000e+00 -0.0000000000e+00 +0.0000000000e+00 1.3100000000e+02 1.3100000000e+02 0.0000e+00 0.0000e+00
       13  1    1    2    0    0 -1.1483863379e+01 +5.5898477948e+00 +3.3311359554e+01 3.5676089413e+01 1.0566000000e-01 0.0000e+00 -1.0000e+00
      994  1    1    2    0    0 -2.0756487831e+00 -3.8032543394e+01 +1.2451095973e+01 1.3699201607e+02 1.3100000000e+02 0.0000e+00 0.0000e+00
      997  1    1    2    0    0 +1.3559512162e+01 +3.2442695599e+01 +4.5423753331e+02 4.5833189452e+02 5.0000000000e+01 0.0000e+00 0.0000e+00
</event>
<event>
 5      1 +5.6267200e-07 2.06451900e+02 7.95774700e-02 4.92417700e-01
       13 -1    0    0    0    0 +0.0000000000e+00 +0.0000000000e+00 +4.9999998884e+02 5.0000000000e+02 1.0566000000e-01 0.0000e+00 1.0000e+00
      994 -1    0    0    0    0 -0.0000000000e+00 -0.0000000000e+00 +0.0000000000e+00 1.3100000000e+02 1.3100000000e+02 0.0000e+00 0.0000e+00
       13  1    1    2    0    0 -2.4948106295e+01 -3.6792766455e+01 +1.6816441730e+02 1.7394078901e+02 1.0566000000e-01 0.0000e+00 -1.0000e+00
      994  1    1    2    0    0 +5.8553793794e+01 +3.6546003687e+01 +3.2336671726e+01 1.5156126646e+02 1.3100000000e+02 0.0000e+00 0.0000e+00
      997  1    1    2    0    0 -3.3605687499e+01 +2.4676276762e-01 +2.9949889981e+02 3.0549794453e+02 5.0000000000e+01 0.0000e+00 0.0000e+00
</event>
<event>
 5      1 +5.6267200e-07 2.05587700e+02 7.95774700e-02 4.93909000e-01
       13 -1    0    0    0    0 +0.0000000000e+00 +0.0000000000e+00 +4.9999998884e+02 5.0000000000e+02 1.0566000000e-01 0.0000e+00 -1.0000e+00
      994 -1    0    0    0    0 -0.0000000000e+00 -0.0000000000e+00 +0.0000000000e+00 1.3100000000e+02 1.3100000000e+02 0.0000e+00 0.0000e+00
       13  1    1    2    0    0 +1.1284134364e+01 -1.3695545070e+01 +9.8641959270e+01 1.0022548047e+02 1.0566000000e-01 0.0000e+00 1.0000e+00
      994  1    1    2    0    0 +3.7101645539e+01 -1.4902075380e+01 +1.5716632860e+01 1.3786448600e+02 1.3100000000e+02 0.0000e+00 0.0000e+00
      997  1    1    2    0    0 -4.8385779903e+01 +2.8597620450e+01 +3.8564139671e+02 3.9291003353e+02 5.0000000000e+01 0.0000e+00 0.0000e+00
</event>
<event>
 5      1 +5.6267200e-07 2.07074100e+02 7.95774700e-02 4.91353900e-01
       13 -1    0    0    0    0 +0.0000000000e+00 +0.0000000000e+00 +4.9999998884e+02 5.0000000000e+02 1.0566000000e-01 0.0000e+00 1.0000e+00
      994 -1    0    0    0    0 -0.0000000000e+00 -0.0000000000e+00 +0.0000000000e+00 1.3100000000e+02 1.3100000000e+02 0.0000e+00 0.0000e+00
       13  1    1    2    0    0 -3.3512959785e+00 +1.1589624907e+01 +1.8173978661e+01 2.1814106781e+01 1.0566000000e-01 0.0000e+00 -1.0000e+00
      994  1    1    2    0    0 +1.6084186942e+01 -1.4773070850e+01 +8.5368345837e+00 1.3308201320e+02 1.3100000000e+02 0.0000e+00 0.0000e+00
      997  1    1    2    0    0 -1.2732890963e+01 +3.1834459425e+00 +4.7328917559e+02 4.7610388002e+02 5.0000000000e+01 0.0000e+00 0.0000e+00
</event>
<event>
 5      1 +5.6267200e-07 2.10334300e+02 7.95774700e-02 4.85910600e-01
       13 -1    0    0    0    0 +0.0000000000e+00 +0.0000000000e+00 +4.9999998884e+02 5.0000000000e+02 1.0566000000e-01 0.0000e+00 1.0000e+00
      994 -1    0    0    0    0 -0.0000000000e+00 -0.0000000000e+00 +0.0000000000e+00 1.3100000000e+02 1.3100000000e+02 0.0000e+00 0.0000e+00
       13  1    1    2    0    0 +1.2747957100e+01 +1.9070621413e+00 +7.1254222808e+01 7.2410791518e+01 1.0566000000e-01 0.0000e+00 -1.0000e+00
      994  1    1    2    0    0 -3.5612931313e+01 -2.2985047997e+01 +1.2559438487e+01 1.3825821062e+02 1.3100000000e+02 0.0000e+00 0.0000e+00
      997  1    1    2    0    0 +2.2864974213e+01 +2.1077985856e+01 +4.1618632754e+02 4.2033099786e+02 5.0000000000e+01 0.0000e+00 0.0000e+00
</event>
<event>
 5      1 +5.6267200e-07 2.06145700e+02 7.95774700e-02 4.92944400e-01
       13 -1    0    0    0    0 +0.0000000000e+00 +0.0000000000e+00 +4.9999998884e+02 5.0000000000e+02 1.0566000000e-01 0.0000e+00 1.0000e+00
      994 -1    0    0    0    0 -0.0000000000e+00 -0.0000000000e+00 +0.0000000000e+00 1.3100000000e+02 1.3100000000e+02 0.0000e+00 0.0000e+00
       13  1    1    2    0    0 -1.3532161291e+01 -1.0295035144e+01 +3.4450048856e+01 3.8417758499e+01 1.0566000000e-01 0.0000e+00 -1.0000e+00
      994  1    1    2    0    0 +1.1154249790e+00 +1.3562894556e+01 +7.8054020939e+00 1.3193604732e+02 1.3100000000e+02 0.0000e+00 0.0000e+00
      997  1    1    2    0    0 +1.2416736312e+01 -3.2678594123e+00 +4.5774453789e+02 4.6064619418e+02 5.0000000000e+01 0.0000e+00 0.0000e+00
</event>
<event>
 5      1 +5.6267200e-07 1.95268900e+02 7.95774700e-02 5.13047400e-01
       13 -1    0    0    0    0 +0.0000000000e+00 +0.0000000000e+00 +4.9999998884e+02 5.0000000000e+02 1.0566000000e-01 0.0000e+00 1.0000e+00
      994 -1    0    0    0    0 -0.0000000000e+00 -0.0000000000e+00 +0.0000000000e+00 1.3100000000e+02 1.3100000000e+02 0.0000e+00 0.0000e+00
       13  1    1    2    0    0 -2.6502566774e-01 +1.1716985034e+01 -7.6774518569e-01 1.1745576767e+01 1.0566000000e-01 0.0000e+00 -1.0000e+00
      994  1    1    2    0    0 -9.8813306333e+00 +1.6611038781e+00 +1.6836108653e+01 1.3245699119e+02 1.3100000000e+02 0.0000e+00 0.0000e+00
      997  1    1    2    0    0 +1.0146356301e+01 -1.3378088912e+01 +4.8393162537e+02 4.8679743204e+02 5.0000000000e+01 0.0000e+00 0.0000e+00
</event>
<event>
 5      1 +5.6267200e-07 2.04870900e+02 7.95774700e-02 4.95158200e-01
       13 -1    0    0    0    0 +0.0000000000e+00 +0.0000000000e+00 +4.9999998884e+02 5.0000000000e+02 1.0566000000e-01 0.0000e+00 1.0000e+00
      994 -1    0    0    0    0 -0.0000000000e+00 -0.0000000000e+00 +0.0000000000e+00 1.3100000000e+02 1.3100000000e+02 0.0000e+00 0.0000e+00
       13  1    1    2    0    0 -2.0439831081e+01 -9.0055007527e+00 +5.5668913324e+01 5.9982704283e+01 1.0566000000e-01 0.0000e+00 -1.0000e+00
      994  1    1    2    0    0 -9.3532886142e+00 +2.8953038392e+01 +1.2769475274e+01 1.3509190183e+02 1.3100000000e+02 0.0000e+00 0.0000e+00
      997  1    1    2    0    0 +2.9793119695e+01 -1.9947537639e+01 +4.3156160024e+02 4.3592539389e+02 5.0000000000e+01 0.0000e+00 0.0000e+00
</event>
<event>
 5      1 +5.6267200e-07 2.06865400e+02 7.95774700e-02 4.91709900e-01
       13 -1    0    0    0    0 +0.0000000000e+00 +0.0000000000e+00 +4.9999998884e+02 5.0000000000e+02 1.0566000000e-01 0.0000e+00 -1.0000e+00
      994 -1    0    0    0    0 -0.0000000000e+00 -0.0000000000e+00 +0.0000000000e+00 1.3100000000e+02 1.3100000000e+02 0.0000e+00 0.0000e+00
       13  1    1    2    0    0 -1.9373842038e+01 +1.2682292251e+01 +6.5511459635e+01 6.9483442629e+01 1.0566000000e-01 0.0000e+00 1.0000e+00
      994  1    1    2    0    0 +2.0854121021e+01 -1.8861191861e+01 +1.0338106711e+01 1.3438197562e+02 1.3100000000e+02 0.0000e+00 0.0000e+00
      997  1    1    2    0    0 -1.4802789828e+00 +6.1788996105e+00 +4.2415042249e+02 4.2713458175e+02 5.0000000000e+01 0.0000e+00 0.0000e+00
</event>
<event>
 5      1 +5.6267200e-07 1.95181400e+02 7.95774700e-02 5.13221100e-01
       13 -1    0    0    0    0 +0.0000000000e+00 +0.0000000000e+00 +4.9999998884e+02 5.0000000000e+02 1.0566000000e-01 0.0000e+00 -1.0000e+00
      994 -1    0    0    0    0 -0.0000000000e+00 -0.0000000000e+00 +0.0000000000e+00 1.3100000000e+02 1.3100000000e+02 0.0000e+00 0.0000e+00
       13  1    1    2    0    0 +2.8808219647e+01 +8.6801595043e+00 +3.2105155614e+01 4.4000123514e+01 1.0566000000e-01 0.0000e+00 1.0000e+00
      994  1    1    2    0    0 -7.1435828356e+00 +7.1633998810e+00 +1.6927421352e+01 1.3247597015e+02 1.3100000000e+02 0.0000e+00 0.0000e+00
      997  1    1    2    0    0 -2.1664636811e+01 -1.5843559385e+01 +4.5096741187e+02 4.5452390634e+02 5.0000000000e+01 0.0000e+00 0.0000e+00
</event>
<event>
 5      1 +5.6267200e-07 2.07978100e+02 7.95774700e-02 4.89822800e-01
       13 -1    0    0    0    0 +0.0000000000e+00 +0.0000000000e+00 +4.9999998884e+02 5.0000000000e+02 1.0566000000e-01 0.0000e+00 1.0000e+00
      994 -1    0    0    0    0 -0.0000000000e+00 -0.0000000000e+00 +0.0000000000e+00 1.3100000000e+02 1.3100000000e+02 0.0000e+00 0.0000e+00
       13  1    1    2    0    0 -5.3064820557e+00 -2.9937868120e+01 +1.5457155741e+02 1.5753352730e+02 1.0566000000e-01 0.0000e+00 -1.0000e+00
      994  1    1    2    0    0 +2.3476009590e+01 +3.6850636796e+01 +1.5222293561e+01 1.3893095652e+02 1.3100000000e+02 0.0000e+00 0.0000e+00
      997  1    1    2    0    0 -1.8169527534e+01 -6.9127686754e+00 +3.3020613787e+02 3.3453551618e+02 5.0000000000e+01 0.0000e+00 0.0000e+00
</event>
<event>
 5      1 +5.6267200e-07 1.93366200e+02 7.95774700e-02 5.16870500e-01
       13 -1    0    0    0    0 +0.0000000000e+00 +0.0000000000e+00 +4.9999998884e+02 5.0000000000e+02 1.0566000000e-01 0.0000e+00 1.0000e+00
      994 -1    0    0    0    0 -0.0000000000e+00 -0.0000000000e+00 +0.0000000000e+00 1.3100000000e+02 1.3100000000e+02 0.0000e+00 0.0000e+00
       13  1    1    2    0    0 -9.8925109614e+00 +2.5438389321e+00 -4.4138551637e+00 1.1127720839e+01 1.0566000000e-01 0.0000e+00 -1.0000e+00
      994  1    1    2    0    0 +6.4357806648e-01 +1.1573247746e+01 +2.0512436070e+01 1.3310189439e+02 1.3100000000e+02 0.0000e+00 0.0000e+00
      997  1    1    2    0    0 +9.2489328949e+00 -1.4117086678e+01 +4.8390140793e+02 4.8677038477e+02 5.0000000000e+01 0.0000e+00 0.0000e+00
</event>
<event>
 5      1 +5.6267200e-07 2.01895400e+02 7.95774700e-02 5.00465800e-01
       13 -1    0    0    0    0 +0.0000000000e+00 +0.0000000000e+00 +4.9999998884e+02 5.0000000000e+02 1.0566000000e-01 0.0000e+00 -1.0000e+00
      994 -1    0    0    0    0 -0.0000000000e+00 -0.0000000000e+00 +0.0000000000e+00 1.3100000000e+02 1.3100000000e+02 0.0000e+00 0.0000e+00
       13  1    1    2    0    0 +1.7691725200e+01 -4.1521300802e+00 +3.6545091506e+01 4.0814117680e+01 1.0566000000e-01 0.0000e+00 1.0000e+00
      994  1    1    2    0    0 +6.1547827990e+01 -5.1715802170e+00 +3.1668691118e+01 1.4825244136e+02 1.3100000000e+02 0.0000e+00 0.0000e+00
      997  1    1    2    0    0 -7.9239553190e+01 +9.3237102972e+00 +4.3178620621e+02 4.4193344096e+02 5.0000000000e+01 0.0000e+00 0.0000e+00
</event>
<event>
 5      1 +5.6267200e-07 1.99180300e+02 7.95774700e-02 5.05488700e-01
       13 -1    0    0    0    0 +0.0000000000e+00 +0.0000000000e+00 +4.9999998884e+02 5.0000000000e+02 1.0566000000e-01 0.0000e+00 -1.0000e+00
      994 -1    0    0    0    0 -0.0000000000e+00 -0.0000000000e+00 +0.0000000000e+00 1.3100000000e+02 1.3100000000e+02 0.0000e+00 0.0000e+00
       13  1    1    2    0    0 -5.2724825706e+00 +4.7312283482e+01 +9.9954289655e+01 1.1071188927e+02 1.0566000000e-01 0.0000e+00 1.0000e+00
      994  1    1    2    0    0 -2.0765135058e+01 -4.4818282660e+01 +2.6480894458e+01 1.4248546265e+02 1.3100000000e+02 0.0000e+00 0.0000e+00
      997  1    1    2    0    0 +2.6037617629e+01 -2.4940008218e+00 +3.7356480472e+02 3.7780264808e+02 5.0000000000e+01 0.0000e+00 0.0000e+00
</event>
<event>
 5      1 +5.6267200e-07 2.09649800e+02 7.95774700e-02 4.87035600e-01
       13 -1    0    0    0    0 +0.0000000000e+00 +0.0000000000e+00 +4.9999998884e+02 5.0000000000e+02 1.0566000000e-01 0.0000e+00 -1.0000e+00
      994 -1    0    0    0    0 -0.0000000000e+00 -0.0000000000e+00 +0.0000000000e+00 1.3100000000e+02 1.3100000000e+02 0.0000e+00 0.0000e+00
       13  1    1    2    0    0 -9.0348467493e+00 +1.4805456770e+01 +9.4976167564e+01 9.6546950108e+01 1.0566000000e-01 0.0000e+00 1.0000e+00
      994  1    1    2    0    0 +2.6661474415e+01 -2.1222546088e+01 +9.8830810925e+00 1.3571995422e+02 1.3100000000e+02 0.0000e+00 0.0000e+00
      997  1    1    2    0    0 -1.7626627665e+01 +6.4170893180e+00 +3.9514074018e+02 3.9873309568e+02 5.0000000000e+01 0.0000e+00 0.0000e+00
</event>
<event>
 5      1 +5.6267200e-07 1.96753200e+02 7.95774700e-02 5.10132600e-01
       13 -1    0    0    0    0 +0.0000000000e+00 +0.0000000000e+00 +4.9999998884e+02 5.0000000000e+02 1.0566000000e-01 0.0000e+00 1.0000e+00
      994 -1    0    0    0    0 -0.0000000000e+00 -0.0000000000e+00 +0.0000000000e+00 1.3100000000e+02 1.3100000000e+02 0.0000e+00 0.0000e+00
       13  1    1    2    0    0 -4.3184131043e+01 +2.8448922192e+00 +1.2573190133e+02 1.3297174422e+02 1.0566000000e-01 0.0000e+00 -1.0000e+00
      994  1    1    2    0    0 -7.0648466192e+00 -1.0037701621e+01 +1.5766837746e+01 1.3251513379e+02 1.3100000000e+02 0.0000e+00 0.0000e+00
      997  1    1    2    0    0 +5.0248977663e+01 +7.1928094013e+00 +3.5850124976e+02 3.6551312198e+02 5.0000000000e+01 0.0000e+00 0.0000e+00
</event>
<event>
 5      1 +5.6267200e-07 1.99737700e+02 7.95774700e-02 5.04443100e-01
       13 -1    0    0    0    0 +0.0000000000e+00 +0.0000000000e+00 +4.9999998884e+02 5.0000000000e+02 1.0566000000e-01 0.0000e+00 1.0000e+00
      994 -1    0    0    0    0 -0.0000000000e+00 -0.0000000000e+00 +0.0000000000e+00 1.3100000000e+02 1.3100000000e+02 0.0000e+00 0.0000e+00
       13  1    1    2    0    0 -2.2084165070e+01 +2.5982215778e+01 +4.9718056996e+01 6.0288325894e+01 1.0566000000e-01 0.0000e+00 -1.0000e+00
      994  1    1    2    0    0 +3.1866919837e+01 -2.4878377800e+01 +2.1333011154e+01 1.3874628509e+02 1.3100000000e+02 0.0000e+00 0.0000e+00
      997  1    1    2    0    0 -9.7827547667e+00 -1.1038379781e+00 +4.2894892069e+02 4.3196538901e+02 5.0000000000e+01 0.0000e+00 0.0000e+00
</event>
<event>
 5      1 +5.6267200e-07 1.96128200e+02 7.95774700e-02 5.11353000e-01
       13 -1    0    0    0    0 +0.0000000000e+00 +0.0000000000e+00 +4.9999998884e+02 5.0000000000e+02 1.0566000000e-01 0.0000e+00 -1.0000e+00
      994 -1    0    0    0    0 -0.0000000000e+00 -0.0000000000e+00 +0.0000000000e+00 1.3100000000e+02 1.3100000000e+02 0.0000e+00 0.0000e+00
       13  1    1    2    0    0 -1.2765844716e+01 +2.4243227630e+01 +7.9907850499e+00 2.8540579654e+01 1.0566000000e-01 0.0000e+00 1.0000e+00
      994  1    1    2    0    0 +3.6443609767e+01 -3.8496667043e+01 +4.0023530946e+01 1.4687754456e+02 1.3100000000e+02 0.0000e+00 0.0000e+00
      997  1    1    2    0    0 -2.3677765051e+01 +1.4253439413e+01 +4.5198567284e+02 4.5558187579e+02 5.0000000000e+01 0.0000e+00 0.0000e+00
</event>
<event>
 5      1 +5.6267200e-07 2.09093200e+02 7.95774700e-02 4.87957300e-01
       13 -1    0    0    0    0 +0.0000000000e+00 +0.0000000000e+00 +4.9999998884e+02 5.0000000000e+02 1.0566000000e-01 0.0000e+00 -1.0000e+00
      994 -1    0    0    0    0 -0.0000000000e+00 -0.0000000000e+00 +0.0000000000e+00 1.3100000000e+02 1.3100000000e+02 0.0000e+00 0.0000e+00
       13  1    1    2    0    0 -1.7364735025e+01 -1.1914609542e+01 +7.8409609401e+01 8.1188484119e+01 1.0566000000e-01 0.0000e+00 1.0000e+00
      994  1    1    2    0    0 +2.2439867383e+01 +6.1132541403e+01 +2.6706260802e+01 1.4871099365e+02 1.3100000000e+02 0.0000e+00 0.0000e+00
      997  1    1    2    0    0 -5.0751323579e+00 -4.9217931861e+01 +3.9488411863e+02 4.0110052223e+02 5.0000000000e+01 0.0000e+00 0.0000e+00
</event>
<event>
 5      1 +5.6267200e-07 2.08032200e+02 7.95774700e-02 4.89731700e-01
       13 -1    0    0    0    0 +0.0000000000e+00 +0.0000000000e+00 +4.9999998884e+02 5.0000000000e+02 1.0566000000e-01 0.0000e+00 1.0000e+00
      994 -1    0    0    0    0 -0.0000000000e+00 -0.0000000000e+00 +0.0000000000e+00 1.3100000000e+02 1.3100000000e+02 0.0000e+00 0.0000e+00
       13  1    1    2    0    0 +8.1286422489e+00 +1.3687622788e+01 +4.8515136650e+01 5.1060312285e+01 1.0566000000e-01 0.0000e+00 -1.0000e+00
      994  1    1    2    0    0 -6.2521486649e+00 -1.0519760642e+01 +6.0680591563e+00 1.3171019728e+02 1.3100000000e+02 0.0000e+00 0.0000e+00
      997  1    1    2    0    0 -1.8764935840e+00 -3.1678621465e+00 +4.4541679303e+02 4.4822949043e+02 5.0000000000e+01 0.0000e+00 0.0000e+00
</event>
<event>
 5      1 +5.6267200e-07 2.07546200e+02 7.95774700e-02 4.90552200e-01
       13 -1    0    0    0    0 +0.0000000000e+00 +0.0000000000e+00 +4.9999998884e+02 5.0000000000e+02 1.0566000000e-01 0.0000e+00 -1.0000e+00
      994 -1    0    0    0    0 -0.0000000000e+00 -0.0000000000e+00 +0.0000000000e+00 1.3100000000e+02 1.3100000000e+02 0.0000e+00 0.0000e+00
       13  1    1    2    0    0 +1.7916232550e+01 -5.6604752408e-01 +1.0502761083e+02 1.0654633734e+02 1.0566000000e-01 0.0000e+00 1.0000e+00
      994  1    1    2    0    0 +8.4839751768e+00 -1.0788743308e+01 +6.6633651845e+00 1.3188546263e+02 1.3100000000e+02 0.0000e+00 0.0000e+00
      997  1    1    2    0    0 -2.6400207727e+01 +1.1354790832e+01 +3.8830901282e+02 3.9256820003e+02 5.0000000000e+01 0.0000e+00 0.0000e+00
</event>
<event>
 5      1 +5.6267200e-07 2.08676400e+02 7.95774700e-02 4.88651700e-01
       13 -1    0    0    0    0 +0.0000000000e+00 +0.0000000000e+00 +4.9999998884e+02 5.0000000000e+02 1.0566000000e-01 0.0000e+00 1.0000e+00
      994 -1    0    0    0    0 -0.0000000000e+00 -0.0000000000e+00 +0.0000000000e+00 1.3100000000e+02 1.3100000000e+02 0.0000e+00 0.0000e+00
       13  1    1    2    0    0 -2.3699631644e+01 -7.9439116315e+00 +1.1051120526e+02 1.1330276221e+02 1.0566000000e-01 0.0000e+00 -1.0000e+00
      994  1    1    2    0    0 +5.3547775019e+01 -1.4058375391e+01 +2.0729762140e+01 1.4372099765e+02 1.3100000000e+02 0.0000e+00 0.0000e+00
      997  1    1    2    0    0 -2.9848143375e+01 +2.2002287023e+01 +3.6875902143e+02 3.7397624014e+02 5.0000000000e+01 0.0000e+00 0.0000e+00
</event>
<event>
 5      1 +5.6267200e-07 2.01689800e+02 7.95774700e-02 5.00840000e-01
       13 -1    0    0    0    0 +0.0000000000e+00 +0.0000000000e+00 +4.9999998884e+02 5.0000000000e+02 1.0566000000e-01 0.0000e+00 -1.0000e+00
      994 -1    0    0    0    0 -0.0000000000e+00 -0.0000000000e+00 +0.0000000000e+00 1.3100000000e+02 1.3100000000e+02 0.0000e+00 0.0000e+00
       13  1    1    2    0    0 +3.1574436170e+01 +1.1326123479e+01 +4.7362601351e+01 5.8038377503e+01 1.0566000000e-01 0.0000e+00 1.0000e+00
      994  1    1    2    0    0 -5.7431871203e+01 -2.2369692755e+01 +3.1791898223e+01 1.4822465307e+02 1.3100000000e+02 0.0000e+00 0.0000e+00
      997  1    1    2    0    0 +2.5857435033e+01 +1.1043569276e+01 +4.2084548926e+02 4.2473696943e+02 5.0000000000e+01 0.0000e+00 0.0000e+00
</event>
<event>
 5      1 +5.6267200e-07 2.05233600e+02 7.95774700e-02 4.94524700e-01
       13 -1    0    0    0    0 +0.0000000000e+00 +0.0000000000e+00 +4.9999998884e+02 5.0000000000e+02 1.0566000000e-01 0.0000e+00 1.0000e+00
      994 -1    0    0    0    0 -0.0000000000e+00 -0.0000000000e+00 +0.0000000000e+00 1.3100000000e+02 1.3100000000e+02 0.0000e+00 0.0000e+00
       13  1    1    2    0    0 -1.2507957628e+01 -1.9870865781e+00 +1.3483517082e+01 1.8499024678e+01 1.0566000000e-01 0.0000e+00 -1.0000e+00
      994  1    1    2    0    0 +1.6717040381e+01 -9.1860581736e+00 +9.4991798940e+00 1.3272180500e+02 1.3100000000e+02 0.0000e+00 0.0000e+00
      997  1    1    2    0    0 -4.2090827525e+00 +1.1173144752e+01 +4.7701729186e+02 4.7977917032e+02 5.0000000000e+01 0.0000e+00 0.0000e+00
</event>
<event>
 5      1 +5.6267200e-07 2.01979800e+02 7.95774700e-02 5.00312500e-01
       13 -1    0    0    0    0 +0.0000000000e+00 +0.0000000000e+00 +4.9999998884e+02 5.0000000000e+02 1.0566000000e-01 0.0000e+00 -1.0000e+00
      994 -1    0    0    0    0 -0.0000000000e+00 -0.0000000000e+00 +0.0000000000e+00 1.3100000000e+02 1.3100000000e+02 0.0000e+00 0.0000e+00
       13  1    1    2    0    0 +1.9785030703e+01 -2.4774321570e+01 +8.4169946431e+01 8.9943346031e+01 1.0566000000e-01 0.0000e+00 1.0000e+00
      994  1    1    2    0    0 -1.3406631107e+01 -7.8071936501e+00 +1.1632487364e+01 1.3242735666e+02 1.3100000000e+02 0.0000e+00 0.0000e+00
      997  1    1    2    0    0 -6.3783995953e+00 +3.2581515220e+01 +4.0419755504e+02 4.0862929731e+02 5.0000000000e+01 0.0000e+00 0.0000e+00
</event>
<event>
 5      1 +5.6267200e-07 2.06061100e+02 7.95774700e-02 4.93090100e-01
       13 -1    0    0    0    0 +0.0000000000e+00 +0.0000000000e+00 +4.9999998884e+02 5.0000000000e+02 1.0566000000e-01 0.0000e+00 -1.0000e+00
      994 -1    0    0    0    0 -0.0000000000e+00 -0.0000000000e+00 +0.0000000000e+00 1.3100000000e+02 1.3100000000e+02 0.0000e+00 0.0000e+00
       13  1    1    2    0    0 +9.0973477818e+00 +2.0856156445e+01 +8.5208571644e+01 8.8194403699e+01 1.0566000000e-01 0.0000e+00 1.0000e+00
      994  1    1    2    0    0 +1.4007076368e+01 -5.6230124308e+00 +8.0962931080e+00 1.3211497424e+02 1.3100000000e+02 0.0000e+00 0.0000e+00
      997  1    1    2    0    0 -2.3104424150e+01 -1.5233144014e+01 +4.0669512408e+02 4.1069062206e+02 5.0000000000e+01 0.0000e+00 0.0000e+00
</event>
<event>
 5      1 +5.6267200e-07 2.08593100e+02 7.95774700e-02 4.88790800e-01
       13 -1    0    0    0    0 +0.0000000000e+00 +0.0000000000e+00 +4.9999998884e+02 5.0000000000e+02 1.0566000000e-01 0.0000e+00 -1.0000e+00
      994 -1    0    0    0    0 -0.0000000000e+00 -0.0000000000e+00 +0.0000000000e+00 1.3100000000e+02 1.3100000000e+02 0.0000e+00 0.0000e+00
       13  1    1    2    0    0 +1.3616744701e+01 +2.1240368249e+00 +4.7579865561e+01 4.9535664319e+01 1.0566000000e-01 0.0000e+00 1.0000e+00
      994  1    1    2    0    0 -8.0321846247e+00 +8.9137872357e+00 +5.5813592853e+00 1.3166671244e+02 1.3100000000e+02 0.0000e+00 0.0000e+00
      997  1    1    2    0    0 -5.5845600767e+00 -1.1037824061e+01 +4.4683876399e+02 4.4979762324e+02 5.0000000000e+01 0.0000e+00 0.0000e+00
</event>
<event>
 5      1 +5.6267200e-07 2.03875000e+02 7.95774700e-02 4.96912300e-01
       13 -1    0    0    0    0 +0.0000000000e+00 +0.0000000000e+00 +4.9999998884e+02 5.0000000000e+02 1.0566000000e-01 0.0000e+00 1.0000e+00
      994 -1    0    0    0    0 -0.0000000000e+00 -0.0000000000e+00 +0.0000000000e+00 1.3100000000e+02 1.3100000000e+02 0.0000e+00 0.0000e+00
       13  1    1    2    0    0 +2.8059978132e+01 -7.2378032798e+00 +5.5369544898e+01 6.2494366429e+01 1.0566000000e-01 0.0000e+00 -1.0000e+00
      994  1    1    2    0    0 -4.3311630059e+01 -8.5909750383e+00 +1.9182381742e+01 1.3956599127e+02 1.3100000000e+02 0.0000e+00 0.0000e+00
      997  1    1    2    0    0 +1.5251651927e+01 +1.5828778318e+01 +4.2544806220e+02 4.2893964230e+02 5.0000000000e+01 0.0000e+00 0.0000e+00
</event>
<event>
 5      1 +5.6267200e-07 2.09506100e+02 7.95774700e-02 4.87272900e-01
       13 -1    0    0    0    0 +0.0000000000e+00 +0.0000000000e+00 +4.9999998884e+02 5.0000000000e+02 1.0566000000e-01 0.0000e+00 1.0000e+00
      994 -1    0    0    0    0 -0.0000000000e+00 -0.0000000000e+00 +0.0000000000e+00 1.3100000000e+02 1.3100000000e+02 0.0000e+00 0.0000e+00
       13  1    1    2    0    0 -1.7910882841e+01 -5.1473825021e+00 +9.6375856788e+01 9.8161154264e+01 1.0566000000e-01 0.0000e+00 -1.0000e+00
      994  1    1    2    0    0 +3.1503533790e+01 +1.0580713405e+01 +9.7139373440e+00 1.3549828307e+02 1.3100000000e+02 0.0000e+00 0.0000e+00
      997  1    1    2    0    0 -1.3592650949e+01 -5.4333309032e+00 +3.9391019470e+02 3.9734056266e+02 5.0000000000e+01 0.0000e+00 0.0000e+00
</event>
<event>
 5      1 +5.6267200e-07 2.09170300e+02 7.95774700e-02 4.87829300e-01
       13 -1    0    0    0    0 +0.0000000000e+00 +0.0000000000e+00 +4.9999998884e+02 5.0000000000e+02 1.0566000000e-01 0.0000e+00 -1.0000e+00
      994 -1    0    0    0    0 -0.0000000000e+00 -0.0000000000e+00 +0.0000000000e+00 1.3100000000e+02 1.3100000000e+02 0.0000e+00 0.0000e+00
       13  1    1    2    0    0 +4.1697647519e+00 +9.9758850941e+00 +2.9293745920e+01 3.1225629466e+01 1.0566000000e-01 0.0000e+00 1.0000e+00
      994  1    1    2    0    0 -3.7693477861e+00 -1.8749627812e+01 +6.2332113160e+00 1.3253531397e+02 1.3100000000e+02 0.0000e+00 0.0000e+00
      997  1    1    2    0    0 -4.0041696579e-01 +8.7737427175e+00 +4.6447303160e+02 4.6723905656e+02 5.0000000000e+01 0.0000e+00 0.0000e+00
</event>
<event>
 5      1 +5.6267200e-07 2.12956200e+02 7.95774700e-02 4.81685600e-01
       13 -1    0    0    0    0 +0.0000000000e+00 +0.0000000000e+00 +4.9999998884e+02 5.0000000000e+02 1.0566000000e-01 0.0000e+00 -1.0000e+00
      994 -1    0    0    0    0 -0.0000000000e+00 -0.0000000000e+00 +0.0000000000e+00 1.3100000000e+02 1.3100000000e+02 0.0000e+00 0.0000e+00
       13  1    1    2    0    0 -3.1228678626e+01 +5.0917153364e+01 +8.1252869074e+01 1.0084555901e+02 1.0566000000e-01 0.0000e+00 1.0000e+00
      994  1    1    2    0    0 -2.7847551574e+01 +3.6250760082e+01 +5.6840988783e+01 1.4993832646e+02 1.3100000000e+02 0.0000e+00 0.0000e+00
      997  1    1    2    0    0 +5.9076230199e+01 -8.7167913446e+01 +3.6190613098e+02 3.8021611453e+02 5.0000000000e+01 0.0000e+00 0.0000e+00
</event>
<event>
 5      1 +5.6267200e-07 1.98887100e+02 7.95774700e-02 5.06042000e-01
       13 -1    0    0    0    0 +0.0000000000e+00 +0.0000000000e+00 +4.9999998884e+02 5.0000000000e+02 1.0566000000e-01 0.0000e+00 1.0000e+00
      994 -1    0    0    0    0 -0.0000000000e+00 -0.0000000000e+00 +0.0000000000e+00 1.3100000000e+02 1.3100000000e+02 0.0000e+00 0.0000e+00
       13  1    1    2    0    0 +3.1408278859e+00 -2.8494222684e+01 +4.0840994530e+01 4.9897730654e+01 1.0566000000e-01 0.0000e+00 -1.0000e+00
      994  1    1    2    0    0 +3.8181685517e+00 +6.4771212761e+00 +1.3337311660e+01 1.3189168053e+02 1.3100000000e+02 0.0000e+00 0.0000e+00
      997  1    1    2    0    0 -6.9589964377e+00 +2.2017101408e+01 +4.4582168265e+02 4.4921058881e+02 5.0000000000e+01 0.0000e+00 0.0000e+00
</event>
<event>
 5      1 +5.6267200e-07 2.03993600e+02 7.95774700e-02 4.96702300e-01
       13 -1    0    0    0    0 +0.0000000000e+00 +0.0000000000e+00 +4.9999998884e+02 5.0000000000e+02 1.0566000000e-01 0.0000e+00 -1.0000e+00
      994 -1    0    0    0    0 -0.0000000000e+00 -0.0000000000e+00 +0.0000000000e+00 1.3100000000e+02 1.3100000000e+02 0.0000e+00 0.0000e+00
       13  1    1    2    0    0 +1.1551792515e+01 +1.0908426834e+01 +2.1436555669e+01 2.6682855344e+01 1.0566000000e-01 0.0000e+00 1.0000e+00
      994  1    1    2    0    0 -3.5042096311e+00 +1.1908871353e+01 +9.4490523354e+00 1.3192568094e+02 1.3100000000e+02 0.0000e+00 0.0000e+00
      997  1    1    2    0    0 -8.0475828844e+00 -2.2817298187e+01 +4.6911438083e+02 4.7239146371e+02 5.0000000000e+01 0.0000e+00 0.0000e+00
</event>
<event>
 5      1 +5.6267200e-07 2.10274900e+02 7.95774700e-02 4.86007900e-01
       13 -1    0    0    0    0 +0.0000000000e+00 +0.0000000000e+00 +4.9999998884e+02 5.0000000000e+02 1.0566000000e-01 0.0000e+00 1.0000e+00
      994 -1    0    0    0    0 -0.0000000000e+00 -0.0000000000e+00 +0.0000000000e+00 1.3100000000e+02 1.3100000000e+02 0.0000e+00 0.0000e+00
       13  1    1    2    0    0 +9.7647327906e+00 +8.4477070327e+00 +6.4026570853e+01 6.5315593084e+01 1.0566000000e-01 0.0000e+00 -1.0000e+00
      994  1    1    2    0    0 -3.2616252159e+01 -1.9410340847e+01 +1.0781414567e+01 1.3681308467e+02 1.3100000000e+02 0.0000e+00 0.0000e+00
      997  1    1    2    0    0 +2.2851519368e+01 +1.0962633814e+01 +4.2519200342e+02 4.2887132225e+02 5.0000000000e+01 0.0000e+00 0.0000e+00
</event>
<event>
 5      1 +5.6267200e-07 2.08849800e+02 7.95774700e-02 4.88362300e-01
       13 -1    0    0    0    0 +0.0000000000e+00 +0.0000000000e+00 +4.9999998884e+02 5.0000000000e+02 1.0566000000e-01 0.0000e+00 -1.0000e+00
      994 -1    0    0    0    0 -0.0000000000e+00 -0.0000000000e+00 +0.0000000000e+00 1.3100000000e+02 1.3100000000e+02 0.0000e+00 0.0000e+00
       13  1    1    2    0    0 +9.3440131574e+00 -1.3556307037e+01 +9.0335295718e+01 9.1823531073e+01 1.0566000000e-01 0.0000e+00 1.0000e+00
      994  1    1    2    0    0 -4.7299236007e+00 +7.1897230291e+00 +5.0197763607e+00 1.3137831803e+02 1.3100000000e+02 0.0000e+00 0.0000e+00
      997  1    1    2    0    0 -4.6140895567e+00 +6.3665840074e+00 +4.0464491676e+02 4.0779815089e+02 5.0000000000e+01 0.0000e+00 0.0000e+00
</event>
<event>
 5      1 +5.6267200e-07 1.99159500e+02 7.95774700e-02 5.05527900e-01
       13 -1    0    0    0    0 +0.0000000000e+00 +0.0000000000e+00 +4.9999998884e+02 5.0000000000e+02 1.0566000000e-01 0.0000e+00 1.0000e+00
      994 -1    0    0    0    0 -0.0000000000e+00 -0.0000000000e+00 +0.0000000000e+00 1.3100000000e+02 1.3100000000e+02 0.0000e+00 0.0000e+00
       13  1    1    2    0    0 +1.7051592099e+01 -1.7506045236e+01 +4.2661969315e+01 4.9165772675e+01 1.0566000000e-01 0.0000e+00 -1.0000e+00
      994  1    1    2    0    0 +4.1955473798e+01 -1.3077451437e+01 +2.3577248550e+01 1.4017192360e+02 1.3100000000e+02 0.0000e+00 0.0000e+00
      997  1    1    2    0    0 -5.9007065896e+01 +3.0583496673e+01 +4.3376077097e+02 4.4166230372e+02 5.0000000000e+01 0.0000e+00 0.0000e+00
</event>
<event>
 5      1 +5.6267200e-07 2.02705000e+02 7.95774700e-02 4.99001600e-01
       13 -1    0    0    0    0 +0.0000000000e+00 +0.0000000000e+00 +4.9999998884e+02 5.0000000000e+02 1.0566000000e-01 0.0000e+00 -1.0000e+00
      994 -1    0    0    0    0 -0.0000000000e+00 -0.0000000000e+00 +0.0000000000e+00 1.3100000000e+02 1.3100000000e+02 0.0000e+00 0.0000e+00
       13  1    1    2    0    0 +1.6009580951e+01 +4.9852722289e+00 +1.6781162608e+01 2.3722946781e+01 1.0566000000e-01 0.0000e+00 1.0000e+00
      994  1    1    2    0    0 -7.7571348010e+00 -2.1899499460e+01 +1.2604414060e+01 1.3363993591e+02 1.3100000000e+02 0.0000e+00 0.0000e+00
      997  1    1    2    0    0 -8.2524461505e+00 +1.6914227231e+01 +4.7061441217e+02 4.7363711731e+02 5.0000000000e+01 0.0000e+00 0.0000e+00
</event>
<event>
 5      1 +5.6267200e-07 2.09635800e+02 7.95774700e-02 4.87058800e-01
       13 -1    0    0    0    0 +0.0000000000e+00 +0.0000000000e+00 +4.9999998884e+02 5.0000000000e+02 1.0566000000e-01 0.0000e+00 -1.0000e+00
      994 -1    0    0    0    0 -0.0000000000e+00 -0.0000000000e+00 +0.0000000000e+00 1.3100000000e+02 1.3100000000e+02 0.0000e+00 0.0000e+00
       13  1    1    2    0    0 -3.1507205076e+00 -1.1363334304e+01 +4.0387942307e+01 4.2074332485e+01 1.0566000000e-01 0.0000e+00 1.0000e+00
      994  1    1    2    0    0 -7.9116682123e+00 +3.0263071615e+01 +8.9607241043e+00 1.3498052665e+02 1.3100000000e+02 0.0000e+00 0.0000e+00
      997  1    1    2    0    0 +1.1062388720e+01 -1.8899737311e+01 +4.5065132242e+02 4.5394514087e+02 5.0000000000e+01 0.0000e+00 0.0000e+00
</event>
<event>
 5      1 +5.6267200e-07 1.97651100e+02 7.95774700e-02 5.08397300e-01
       13 -1    0    0    0    0 +0.0000000000e+00 +0.0000000000e+00 +4.9999998884e+02 5.0000000000e+02 1.0566000000e-01 0.0000e+00 1.0000e+00
      994 -1    0    0    0    0 -0.0000000000e+00 -0.0000000000e+00 +0.0000000000e+00 1.3100000000e+02 1.3100000000e+02 0.0000e+00 0.0000e+00
       13  1    1    2    0    0 +6.1893350976e+00 -4.2244736796e+01 +1.0014560034e+02 1.0886724984e+02 1.0566000000e-01 0.0000e+00 -1.0000e+00
      994  1    1    2    0    0 -3.8273324343e+01 +5.7017968077e+00 +2.2560552740e+01 1.3844614976e+02 1.3100000000e+02 0.0000e+00 0.0000e+00
      997  1    1    2    0    0 +3.2083989245e+01 +3.6542939989e+01 +3.7729383576e+02 3.8368660040e+02 5.0000000000e+01 0.0000e+00 0.0000e+00
</event>
<event>
 5      1 +5.6267200e-07 1.92999400e+02 7.95774700e-02 5.17619200e-01
       13 -1    0    0    0    0 +0.0000000000e+00 +0.0000000000e+00 +4.9999998884e+02 5.0000000000e+02 1.0566000000e-01 0.0000e+00 1.0000e+00
      994 -1    0    0    0    0 -0.0000000000e+00 -0.0000000000e+00 +0.0000000000e+00 1.3100000000e+02 1.3100000000e+02 0.0000e+00 0.0000e+00
       13  1    1    2    0    0 +4.5824140377e+01 +3.8192812512e+00 +1.4978383477e+02 1.5668326992e+02 1.0566000000e-01 0.0000e+00 -1.0000e+00
      994  1    1    2    0    0 +2.2905964092e+01 -2.3906235674e+01 +2.4788837116e+01 1.3737422517e+02 1.3100000000e+02 0.0000e+00 0.0000e+00
      997  1    1    2    0    0 -6.8730104468e+01 +2.0086954423e+01 +3.2542731695e+02 3.3694250491e+02 5.0000000000e+01 0.0000e+00 0.0000e+00
</event>
<event>
 5      1 +5.6267200e-07 2.08027800e+02 7.95774700e-02 4.89739000e-01
       13 -1    0    0    0    0 +0.0000000000e+00 +0.0000000000e+00 +4.9999998884e+02 5.0000000000e+02 1.0566000000e-01 0.0000e+00 -1.0000e+00
      994 -1    0    0    0    0 -0.0000000000e+00 -0.0000000000e+00 +0.0000000000e+00 1.3100000000e+02 1.3100000000e+02 0.0000e+00 0.0000e+00
       13  1    1    2    0    0 +2.9201409037e+01 +2.7835738634e+01 +9.0130076494e+00 4.1337587084e+01 1.0566000000e-01 0.0000e+00 1.0000e+00
      994  1    1    2    0    0 -7.9823933576e+00 -6.7890882513e+01 +7.0366750149e+01 1.6366236604e+02 1.3100000000e+02 0.0000e+00 0.0000e+00
      997  1    1    2    0    0 -2.1219015679e+01 +4.0055143879e+01 +4.2062023104e+02 4.2600004687e+02 5.0000000000e+01 0.0000e+00 0.0000e+00
</event>
<event>
 5      1 +5.6267200e-07 1.40532000e+02 7.95774700e-02 6.88466400e-01
       13 -1    0    0    0    0 +0.0000000000e+00 +0.0000000000e+00 +4.9999998884e+02 5.0000000000e+02 1.0566000000e-01 0.0000e+00 1.0000e+00
      994 -1    0    0    0    0 -0.0000000000e+00 -0.0000000000e+00 +0.0000000000e+00 1.3100000000e+02 1.3100000000e+02 0.0000e+00 0.0000e+00
       13  1    1    2    0    0 +7.3319070695e+01 +2.3595674716e+01 +5.8517116557e+01 9.6730068165e+01 1.0566000000e-01 0.0000e+00 -1.0000e+00
      994  1    1    2    0    0 +3.0625194263e-01 +3.1395206030e+01 +7.7201211648e+01 1.5526358180e+02 1.3100000000e+02 0.0000e+00 0.0000e+00
      997  1    1    2    0    0 -7.3625322638e+01 -5.4990880746e+01 +3.6428166063e+02 3.7900635004e+02 5.0000000000e+01 0.0000e+00 0.0000e+00
</event>
<event>
 5      1 +5.6267200e-07 2.08964700e+02 7.95774700e-02 4.88171100e-01
       13 -1    0    0    0    0 +0.0000000000e+00 +0.0000000000e+00 +4.9999998884e+02 5.0000000000e+02 1.0566000000e-01 0.0000e+00 1.0000e+00
      994 -1    0    0    0    0 -0.0000000000e+00 -0.0000000000e+00 +0.0000000000e+00 1.3100000000e+02 1.3100000000e+02 0.0000e+00 0.0000e+00
       13  1    1    2    0    0 +4.5892436186e+00 +1.8097416731e+01 +7.8160812795e+01 8.0359824976e+01 1.0566000000e-01 0.0000e+00 -1.0000e+00
      994  1    1    2    0    0 -1.7515411280e+01 -2.5546063112e+01 +9.4284860529e+00 1.3494179235e+02 1.3100000000e+02 0.0000e+00 0.0000e+00
      997  1    1    2    0    0 +1.2926167661e+01 +7.4486463815e+00 +4.1241068999e+02 4.1569838268e+02 5.0000000000e+01 0.0000e+00 0.0000e+00
</event>
<event>
 5      1 +5.6267200e-07 2.06588300e+02 7.95774700e-02 4.92183900e-01
       13 -1    0    0    0    0 +0.0000000000e+00 +0.0000000000e+00 +4.9999998884e+02 5.0000000000e+02 1.0566000000e-01 0.0000e+00 1.0000e+00
      994 -1    0    0    0    0 -0.0000000000e+00 -0.0000000000e+00 +0.0000000000e+00 1.3100000000e+02 1.3100000000e+02 0.0000e+00 0.0000e+00
       13  1    1    2    0    0 +2.2722964936e+00 +1.5047977956e+01 +3.3439969881e+01 3.6740273837e+01 1.0566000000e-01 0.0000e+00 -1.0000e+00
      994  1    1    2    0    0 +1.3445162112e+01 -2.6686928819e-01 +7.4154650485e+00 1.3189705351e+02 1.3100000000e+02 0.0000e+00 0.0000e+00
      997  1    1    2    0    0 -1.5717458606e+01 -1.4781108668e+01 +4.5914455391e+02 4.6236267265e+02 5.0000000000e+01 0.0000e+00 0.0000e+00
</event>
<event>
 5      1 +5.6267200e-07 2.04696200e+02 7.95774700e-02 4.95464300e-01
       13 -1    0    0    0    0 +0.0000000000e+00 +0.0000000000e+00 +4.9999998884e+02 5.0000000000e+02 1.0566000000e-01 0.0000e+00 1.0000e+00
      994 -1    0    0    0    0 -0.0000000000e+00 -0.0000000000e+00 +0.0000000000e+00 1.3100000000e+02 1.3100000000e+02 0.0000e+00 0.0000e+00
       13  1    1    2    0    0 -2.6279038078e+01 +3.1110689700e+01 +1.4486960130e+02 1.5048480123e+02 1.0566000000e-01 0.0000e+00 -1.0000e+00
      994  1    1    2    0    0 +1.2095392855e+00 -5.4443293151e+01 +2.3999082190e+01 1.4388360261e+02 1.3100000000e+02 0.0000e+00 0.0000e+00
      997  1    1    2    0    0 +2.5069498792e+01 +2.3332603451e+01 +3.3113130535e+02 3.3663159616e+02 5.0000000000e+01 0.0000e+00 0.0000e+00
</event>
<event>
 5      1 +5.6267200e-07 2.08454000e+02 7.95774700e-02 4.89023500e-01
       13 -1    0    0    0    0 +0.0000000000e+00 +0.0000000000e+00 +4.9999998884e+02 5.0000000000e+02 1.0566000000e-01 0.0000e+00 -1.0000e+00
      994 -1    0    0    0    0 -0.0000000000e+00 -0.0000000000e+00 +0.0000000000e+00 1.3100000000e+02 1.3100000000e+02 0.0000e+00 0.0000e+00
       13  1    1    2    0    0 -6.5593561645e+00 +1.4879326311e+01 +4.9965151660e+01 5.2544714760e+01 1.0566000000e-01 0.0000e+00 1.0000e+00
      994  1    1    2    0    0 +1.4702721693e+01 -1.9355388030e+01 +7.9692417583e+00 1.3347400453e+02 1.3100000000e+02 0.0000e+00 0.0000e+00
      997  1    1    2    0    0 -8.1433655280e+00 +4.4760617187e+00 +4.4206559542e+02 4.4498128071e+02 5.0000000000e+01 0.0000e+00 0.0000e+00
</event>
<event>
 5      1 +5.6267200e-07 1.99904300e+02 7.95774700e-02 5.04132100e-01
       13 -1    0    0    0    0 +0.0000000000e+00 +0.0000000000e+00 +4.9999998884e+02 5.0000000000e+02 1.0566000000e-01 0.0000e+00 1.0000e+00
      994 -1    0    0    0    0 -0.0000000000e+00 -0.0000000000e+00 +0.0000000000e+00 1.3100000000e+02 1.3100000000e+02 0.0000e+00 0.0000e+00
       13  1    1    2    0    0 -7.1854953088e+00 -2.4115423876e+01 +3.6025881947e+01 4.3943831713e+01 1.0566000000e-01 0.0000e+00 -1.0000e+00
      994  1    1    2    0    0 -1.1161909204e+01 -4.9316232231e-01 +1.2815508619e+01 1.3209870812e+02 1.3100000000e+02 0.0000e+00 0.0000e+00
      997  1    1    2    0    0 +1.8347404513e+01 +2.4608586198e+01 +4.5115859827e+02 4.5495746017e+02 5.0000000000e+01 0.0000e+00 0.0000e+00
</event>
<event>
 5      1 +5.6267200e-07 2.06695300e+02 7.95774700e-02 4.92000600e-01
       13 -1    0    0    0    0 +0.0000000000e+00 +0.0000000000e+00 +4.9999998884e+02 5.0000000000e+02 1.0566000000e-01 0.0000e+00 -1.0000e+00
      994 -1    0    0    0    0 -0.0000000000e+00 -0.0000000000e+00 +0.0000000000e+00 1.3100000000e+02 1.3100000000e+02 0.0000e+00 0.0000e+00
       13  1    1    2    0    0 -3.1995554321e+00 +1.5078030970e+01 +3.2093309011e+01 3.5603031054e+01 1.0566000000e-01 0.0000e+00 1.0000e+00
      994  1    1    2    0    0 -5.8063124751e-01 -7.0968106045e+00 +6.6580901745e+00 1.3136221686e+02 1.3100000000e+02 0.0000e+00 0.0000e+00
      997  1    1    2    0    0 +3.7801866796e+00 -7.9812203659e+00 +4.6124858965e+02 4.6403475209e+02 5.0000000000e+01 0.0000e+00 0.0000e+00
</event>
<event>
 5      1 +5.6267200e-07 2.18821000e+02 7.95774700e-02 4.72692300e-01
       13 -1    0    0    0    0 +0.0000000000e+00 +0.0000000000e+00 +4.9999998884e+02 5.0000000000e+02 1.0566000000e-01 0.0000e+00 1.0000e+00
      994 -1    0    0    0    0 -0.0000000000e+00 -0.0000000000e+00 +0.0000000000e+00 1.3100000000e+02 1.3100000000e+02 0.0000e+00 0.0000e+00
       13  1    1    2    0    0 -2.2660304206e+01 -9.1654286572e-01 -1.1268983564e+01 2.5324505763e+01 1.0566000000e-01 0.0000e+00 -1.0000e+00
      994  1    1    2    0    0 -2.3467895133e+01 -4.2283375375e+01 +6.8324515559e+01 1.5546017291e+02 1.3100000000e+02 0.0000e+00 0.0000e+00
      997  1    1    2    0    0 +4.6128199339e+01 +4.3199918241e+01 +4.4294445684e+02 4.5021532133e+02 5.0000000000e+01 0.0000e+00 0.0000e+00
</event>
<event>
 5      1 +5.6267200e-07 2.05788100e+02 7.95774700e-02 4.93561800e-01
       13 -1    0    0    0    0 +0.0000000000e+00 +0.0000000000e+00 +4.9999998884e+02 5.0000000000e+02 1.0566000000e-01 0.0000e+00 -1.0000e+00
      994 -1    0    0    0    0 -0.0000000000e+00 -0.0000000000e+00 +0.0000000000e+00 1.3100000000e+02 1.3100000000e+02 0.0000e+00 0.0000e+00
       13  1    1    2    0    0 +1.8750457835e+00 +2.2085474514e+01 +6.2275331912e+01 6.6102285210e+01 1.0566000000e-01 0.0000e+00 1.0000e+00
      994  1    1    2    0    0 -9.2749353372e+00 -6.1027475957e+00 +7.7825297655e+00 1.3169979394e+02 1.3100000000e+02 0.0000e+00 0.0000e+00
      997  1    1    2    0    0 +7.3998895538e+00 -1.5982726918e+01 +4.2994212716e+02 4.3319792085e+02 5.0000000000e+01 0.0000e+00 0.0000e+00
</event>
<event>
 5      1 +5.6267200e-07 2.07062500e+02 7.95774700e-02 4.91373700e-01
       13 -1    0    0    0    0 +0.0000000000e+00 +0.0000000000e+00 +4.9999998884e+02 5.0000000000e+02 1.0566000000e-01 0.0000e+00 1.0000e+00
      994 -1    0    0    0    0 -0.0000000000e+00 -0.0000000000e+00 +0.0000000000e+00 1.3100000000e+02 1.3100000000e+02 0.0000e+00 0.0000e+00
       13  1    1    2    0    0 -1.9430154478e+01 +7.3877838114e+00 +7.3098757183e+01 7.5997037563e+01 1.0566000000e-01 0.0000e+00 -1.0000e+00
      994  1    1    2    0    0 +5.5417222415e+00 -1.0327007198e+01 +6.8002951903e+00 1.3169890576e+02 1.3100000000e+02 0.0000e+00 0.0000e+00
      997  1    1    2    0    0 +1.3888432236e+01 +2.9392233866e+00 +4.2010093646e+02 4.2330405668e+02 5.0000000000e+01 0.0000e+00 0.0000e+00
</event>
<event>
 5      1 +5.6267200e-07 2.00030100e+02 7.95774700e-02 5.03897600e-01
       13 -1    0    0    0    0 +0.0000000000e+00 +0.0000000000e+00 +4.9999998884e+02 5.0000000000e+02 1.0566000000e-01 0.0000e+00 1.0000e+00
      994 -1    0    0    0    0 -0.0000000000e+00 -0.0000000000e+00 +0.0000000000e+00 1.3100000000e+02 1.3100000000e+02 0.0000e+00 0.0000e+00
       13  1    1    2    0    0 -1.3553135307e+01 -4.6940204988e+00 +5.6748523597e+00 1.5425187793e+01 1.0566000000e-01 0.0000e+00 -1.0000e+00
      994  1    1    2    0    0 +3.3847980530e+01 +3.9118855097e+00 +1.8404647275e+01 1.3660424472e+02 1.3100000000e+02 0.0000e+00 0.0000e+00
      997  1    1    2    0    0 -2.0294845223e+01 +7.8213498914e-01 +4.7592048920e+02 4.7897056749e+02 5.0000000000e+01 0.0000e+00 0.0000e+00
</event>
<event>
 5      1 +5.6267200e-07 2.02879200e+02 7.95774700e-02 4.98688700e-01
       13 -1    0    0    0    0 +0.0000000000e+00 +0.0000000000e+00 +4.9999998884e+02 5.0000000000e+02 1.0566000000e-01 0.0000e+00 1.0000e+00
      994 -1    0    0    0    0 -0.0000000000e+00 -0.0000000000e+00 +0.0000000000e+00 1.3100000000e+02 1.3100000000e+02 0.0000e+00 0.0000e+00
       13  1    1    2    0    0 -2.6834770107e+01 +1.7861555329e+01 +6.4979560830e+01 7.2536160190e+01 1.0566000000e-01 0.0000e+00 -1.0000e+00
      994  1    1    2    0    0 +2.8381773776e+01 -1.9119757905e+01 +1.5853958558e+01 1.3632108504e+02 1.3100000000e+02 0.0000e+00 0.0000e+00
      997  1    1    2    0    0 -1.5470036692e+00 +1.2582025762e+00 +4.1916646945e+02 4.2214275477e+02 5.0000000000e+01 0.0000e+00 0.0000e+00
</event>
<event>
 5      1 +5.6267200e-07 2.09528000e+02 7.95774700e-02 4.87236800e-01
       13 -1    0    0    0    0 +0.0000000000e+00 +0.0000000000e+00 +4.9999998884e+02 5.0000000000e+02 1.0566000000e-01 0.0000e+00 -1.0000e+00
      994 -1    0    0    0    0 -0.0000000000e+00 -0.0000000000e+00 +0.0000000000e+00 1.3100000000e+02 1.3100000000e+02 0.0000e+00 0.0000e+00
       13  1    1    2    0    0 -7.9372414436e+00 -1.0714635335e+01 +5.4805239678e+01 5.6404154743e+01 1.0566000000e-01 0.0000e+00 1.0000e+00
      994  1    1    2    0    0 +2.3395582577e+01 +1.0064627847e+01 +7.3725157386e+00 1.3365629056e+02 1.3100000000e+02 0.0000e+00 0.0000e+00
      997  1    1    2    0    0 -1.5458341133e+01 +6.5000748851e-01 +4.3782223342e+02 4.4093955470e+02 5.0000000000e+01 0.0000e+00 0.0000e+00
</event>
<event>
 5      1 +5.6267200e-07 2.08164400e+02 7.95774700e-02 4.89509400e-01
       13 -1    0    0    0    0 +0.0000000000e+00 +0.0000000000e+00 +4.9999998884e+02 5.0000000000e+02 1.0566000000e-01 0.0000e+00 1.0000e+00
      994 -1    0    0    0    0 -0.0000000000e+00 -0.0000000000e+00 +0.0000000000e+00 1.3100000000e+02 1.3100000000e+02 0.0000e+00 0.0000e+00
       13  1    1    2    0    0 -1.1183762850e+01 -1.8268888825e+01 +8.3720542623e+01 8.6417413011e+01 1.0566000000e-01 0.0000e+00 -1.0000e+00
      994  1    1    2    0    0 +1.6975200039e+01 +1.9220014414e+01 +8.5530640193e+00 1.3375993897e+02 1.3100000000e+02 0.0000e+00 0.0000e+00
      997  1    1    2    0    0 -5.7914371884e+00 -9.5112558873e-01 +4.0772638219e+02 4.1082264801e+02 5.0000000000e+01 0.0000e+00 0.0000e+00
</event>
<event>
 5      1 +5.6267200e-07 1.93625600e+02 7.95774700e-02 5.16343400e-01
       13 -1    0    0    0    0 +0.0000000000e+00 +0.0000000000e+00 +4.9999998884e+02 5.0000000000e+02 1.0566000000e-01 0.0000e+00 1.0000e+00
      994 -1    0    0    0    0 -0.0000000000e+00 -0.0000000000e+00 +0.0000000000e+00 1.3100000000e+02 1.3100000000e+02 0.0000e+00 0.0000e+00
       13  1    1    2    0    0 +3.3305802013e+00 -1.2182751227e+01 -1.0797739214e+00 1.2676327059e+01 1.0566000000e-01 0.0000e+00 -1.0000e+00
      994  1    1    2    0    0 +4.7519118884e+00 -1.9250208517e+00 +1.7929008816e+01 1.3232057939e+02 1.3100000000e+02 0.0000e+00 0.0000e+00
      997  1    1    2    0    0 -8.0824920897e+00 +1.4107772079e+01 +4.8315075394e+02 4.8600309356e+02 5.0000000000e+01 0.0000e+00 0.0000e+00
</event>
<event>
 5      1 +5.6267200e-07 1.96545400e+02 7.95774700e-02 5.10537200e-01
       13 -1    0    0    0    0 +0.0000000000e+00 +0.0000000000e+00 +4.9999998884e+02 5.0000000000e+02 1.0566000000e-01 0.0000e+00 -1.0000e+00
      994 -1    0    0    0    0 -0.0000000000e+00 -0.0000000000e+00 +0.0000000000e+00 1.3100000000e+02 1.3100000000e+02 0.0000e+00 0.0000e+00
       13  1    1    2    0    0 +1.4175150866e+00 -3.2401371448e+01 +4.8029450631e+01 5.7954270875e+01 1.0566000000e-01 0.0000e+00 1.0000e+00
      994  1    1    2    0    0 -8.4002672336e+00 -4.0248085510e+00 +1.5596791951e+01 1.3225363319e+02 1.3100000000e+02 0.0000e+00 0.0000e+00
      997  1    1    2    0    0 +6.9827521470e+00 +3.6426179999e+01 +4.3637374625e+02 4.4079209593e+02 5.0000000000e+01 0.0000e+00 0.0000e+00
</event>
<event>
 5      1 +5.6267200e-07 2.08538300e+02 7.95774700e-02 4.88882500e-01
       13 -1    0    0    0    0 +0.0000000000e+00 +0.0000000000e+00 +4.9999998884e+02 5.0000000000e+02 1.0566000000e-01 0.0000e+00 1.0000e+00
      994 -1    0    0    0    0 -0.0000000000e+00 -0.0000000000e+00 +0.0000000000e+00 1.3100000000e+02 1.3100000000e+02 0.0000e+00 0.0000e+00
       13  1    1    2    0    0 +9.5477546043e+00 +6.2077553527e+00 +4.3626987060e+01 4.5089034237e+01 1.0566000000e-01 0.0000e+00 -1.0000e+00
      994  1    1    2    0    0 +1.5973114528e+01 +5.8692095231e+00 +6.3646038723e+00 1.3225390804e+02 1.3100000000e+02 0.0000e+00 0.0000e+00
      997  1    1    2    0    0 -2.5520869132e+01 -1.2076964876e+01 +4.5000839790e+02 4.5365705773e+02 5.0000000000e+01 0.0000e+00 0.0000e+00
</event>
<event>
 5      1 +5.6267200e-07 2.08772000e+02 7.95774700e-02 4.88492100e-01
       13 -1    0    0    0    0 +0.0000000000e+00 +0.0000000000e+00 +4.9999998884e+02 5.0000000000e+02 1.0566000000e-01 0.0000e+00 1.0000e+00
      994 -1    0    0    0    0 -0.0000000000e+00 -0.0000000000e+00 +0.0000000000e+00 1.3100000000e+02 1.3100000000e+02 0.0000e+00 0.0000e+00
       13  1    1    2    0    0 +9.8037771309e+00 +1.2051737925e+01 +8.6871252832e+01 8.8249556179e+01 1.0566000000e-01 0.0000e+00 -1.0000e+00
      994  1    1    2    0    0 -9.9007508401e+00 +3.9599841580e+00 +5.2830189567e+00 1.3153941094e+02 1.3100000000e+02 0.0000e+00 0.0000e+00
      997  1    1    2    0    0 +9.6973709262e-02 -1.6011722083e+01 +4.0784571705e+02 4.1121103288e+02 5.0000000000e+01 0.0000e+00 0.0000e+00
</event>
<event>
 5      1 +5.6267200e-07 2.01214100e+02 7.95774700e-02 5.01709700e-01
       13 -1    0    0    0    0 +0.0000000000e+00 +0.0000000000e+00 +4.9999998884e+02 5.0000000000e+02 1.0566000000e-01 0.0000e+00 1.0000e+00
      994 -1    0    0    0    0 -0.0000000000e+00 -0.0000000000e+00 +0.0000000000e+00 1.3100000000e+02 1.3100000000e+02 0.0000e+00 0.0000e+00
       13  1    1    2    0    0 -1.3920138169e+01 +1.3358613626e+01 +1.7914038711e+01 2.6327680331e+01 1.0566000000e-01 0.0000e+00 -1.0000e+00
      994  1    1    2    0    0 +4.4071755490e+00 -2.6823500994e+01 +1.5000250332e+01 1.3462886359e+02 1.3100000000e+02 0.0000e+00 0.0000e+00
      997  1    1    2    0    0 +9.5129626199e+00 +1.3464887369e+01 +4.6708569979e+02 4.7004345608e+02 5.0000000000e+01 0.0000e+00 0.0000e+00
</event>
<event>
 5      1 +5.6267200e-07 2.08233400e+02 7.95774700e-02 4.89393500e-01
       13 -1    0    0    0    0 +0.0000000000e+00 +0.0000000000e+00 +4.9999998884e+02 5.0000000000e+02 1.0566000000e-01 0.0000e+00 -1.0000e+00
      994 -1    0    0    0    0 -0.0000000000e+00 -0.0000000000e+00 +0.0000000000e+00 1.3100000000e+02 1.3100000000e+02 0.0000e+00 0.0000e+00
       13  1    1    2    0    0 +1.4816972324e+01 -1.2383482104e+01 +7.8513952131e+01 8.0853850503e+01 1.0566000000e-01 0.0000e+00 1.0000e+00
      994  1    1    2    0    0 -1.0678158258e+01 +1.3843113466e+01 +6.6966712527e+00 1.3233102531e+02 1.3100000000e+02 0.0000e+00 0.0000e+00
      997  1    1    2    0    0 -4.1388140660e+00 -1.4596313622e+00 +4.1478936545e+02 4.1781512419e+02 5.0000000000e+01 0.0000e+00 0.0000e+00
</event>
<event>
 5      1 +5.6267200e-07 2.00861400e+02 7.95774700e-02 5.02357800e-01
       13 -1    0    0    0    0 +0.0000000000e+00 +0.0000000000e+00 +4.9999998884e+02 5.0000000000e+02 1.0566000000e-01 0.0000e+00 1.0000e+00
      994 -1    0    0    0    0 -0.0000000000e+00 -0.0000000000e+00 +0.0000000000e+00 1.3100000000e+02 1.3100000000e+02 0.0000e+00 0.0000e+00
       13  1    1    2    0    0 -2.3964796033e+00 -2.2643415282e+01 +2.2472573544e+01 3.1992109900e+01 1.0566000000e-01 0.0000e+00 -1.0000e+00
      994  1    1    2    0    0 +1.6166976226e+01 +3.6998279935e+01 +2.0242497094e+01 1.3856768212e+02 1.3100000000e+02 0.0000e+00 0.0000e+00
      997  1    1    2    0    0 -1.3770496623e+01 -1.4354864653e+01 +4.5728491820e+02 4.6044020798e+02 5.0000000000e+01 0.0000e+00 0.0000e+00
</event>
<event>
 5      1 +5.6267200e-07 2.04615300e+02 7.95774700e-02 4.95606200e-01
       13 -1    0    0    0    0 +0.0000000000e+00 +0.0000000000e+00 +4.9999998884e+02 5.0000000000e+02 1.0566000000e-01 0.0000e+00 -1.0000e+00
      994 -1    0    0    0    0 -0.0000000000e+00 -0.0000000000e+00 +0.0000000000e+00 1.3100000000e+02 1.3100000000e+02 0.0000e+00 0.0000e+00
       13  1    1    2    0    0 -2.2136188117e+01 -1.0250100401e+00 +5.1528939492e+01 5.6091926684e+01 1.0566000000e-01 0.0000e+00 1.0000e+00
      994  1    1    2    0    0 +4.5213845188e+00 -3.0110706407e+01 +1.3000213997e+01 1.3511884814e+02 1.3100000000e+02 0.0000e+00 0.0000e+00
      997  1    1    2    0    0 +1.7614803598e+01 +3.1135716447e+01 +4.3547083535e+02 4.3978922518e+02 5.0000000000e+01 0.0000e+00 0.0000e+00
</event>
<event>
 5      1 +5.6267200e-07 1.99304400e+02 7.95774700e-02 5.05255300e-01
       13 -1    0    0    0    0 +0.0000000000e+00 +0.0000000000e+00 +4.9999998884e+02 5.0000000000e+02 1.0566000000e-01 0.0000e+00 1.0000e+00
      994 -1    0    0    0    0 -0.0000000000e+00 -0.0000000000e+00 +0.0000000000e+00 1.3100000000e+02 1.3100000000e+02 0.0000e+00 0.0000e+00
       13  1    1    2    0    0 -4.1715922242e+01 +3.5789648538e+01 +1.2224975671e+02 1.3403779800e+02 1.0566000000e-01 0.0000e+00 -1.0000e+00
      994  1    1    2    0    0 +1.3038696889e+01 -7.4094416484e+01 +4.5773935318e+01 1.5784879893e+02 1.3100000000e+02 0.0000e+00 0.0000e+00
      997  1    1    2    0    0 +2.8677225353e+01 +3.8304767946e+01 +3.3197629681e+02 3.3911340307e+02 5.0000000000e+01 0.0000e+00 0.0000e+00
</event>
<event>
 5      1 +5.6267200e-07 2.05482900e+02 7.95774700e-02 4.94090800e-01
       13 -1    0    0    0    0 +0.0000000000e+00 +0.0000000000e+00 +4.9999998884e+02 5.0000000000e+02 1.0566000000e-01 0.0000e+00 1.0000e+00
      994 -1    0    0    0    0 -0.0000000000e+00 -0.0000000000e+00 +0.0000000000e+00 1.3100000000e+02 1.3100000000e+02 0.0000e+00 0.0000e+00
       13  1    1    2    0    0 -2.2048842301e+01 -3.5498658994e+00 +7.0671087659e+01 7.4115901058e+01 1.0566000000e-01 0.0000e+00 -1.0000e+00
      994  1    1    2    0    0 -1.8918005242e+00 -1.0784162273e+01 +8.0190941056e+00 1.3170111213e+02 1.3100000000e+02 0.0000e+00 0.0000e+00
      997  1    1    2    0    0 +2.3940642825e+01 +1.4334028172e+01 +4.2130980707e+02 4.2518298682e+02 5.0000000000e+01 0.0000e+00 0.0000e+00
</event>
<event>
 5      1 +5.6267200e-07 2.07120200e+02 7.95774700e-02 4.91275400e-01
       13 -1    0    0    0    0 +0.0000000000e+00 +0.0000000000e+00 +4.9999998884e+02 5.0000000000e+02 1.0566000000e-01 0.0000e+00 1.0000e+00
      994 -1    0    0    0    0 -0.0000000000e+00 -0.0000000000e+00 +0.0000000000e+00 1.3100000000e+02 1.3100000000e+02 0.0000e+00 0.0000e+00
       13  1    1    2    0    0 -1.1632505405e+01 -2.5618363912e+00 +2.1181906525e+01 2.4301492048e+01 1.0566000000e-01 0.0000e+00 -1.0000e+00
      994  1    1    2    0    0 -1.1989660437e+00 +4.5982840804e+00 +6.1654753928e+00 1.3123107415e+02 1.3100000000e+02 0.0000e+00 0.0000e+00
      997  1    1    2    0    0 +1.2831471448e+01 -2.0364476893e+00 +4.7265260692e+02 4.7546743380e+02 5.0000000000e+01 0.0000e+00 0.0000e+00
</event>
<event>
 5      1 +5.6267200e-07 2.09590400e+02 7.95774700e-02 4.87133600e-01
       13 -1    0    0    0    0 +0.0000000000e+00 +0.0000000000e+00 +4.9999998884e+02 5.0000000000e+02 1.0566000000e-01 0.0000e+00 1.0000e+00
      994 -1    0    0    0    0 -0.0000000000e+00 -0.0000000000e+00 +0.0000000000e+00 1.3100000000e+02 1.3100000000e+02 0.0000e+00 0.0000e+00
       13  1    1    2    0    0 -1.2994004774e+01 -3.2629511320e+00 +6.8899149037e+01 7.0189706597e+01 1.0566000000e-01 0.0000e+00 -1.0000e+00
      994  1    1    2    0    0 +1.5232045587e+01 +4.4625472434e-01 +5.2171545824e+00 1.3198648816e+02 1.3100000000e+02 0.0000e+00 0.0000e+00
      997  1    1    2    0    0 -2.2380408131e+00 +2.8166964077e+00 +4.2588368522e+02 4.2882380524e+02 5.0000000000e+01 0.0000e+00 0.0000e+00
</event>
<event>
 5      1 +5.6267200e-07 1.95849300e+02 7.95774700e-02 5.11900800e-01
       13 -1    0    0    0    0 +0.0000000000e+00 +0.0000000000e+00 +4.9999998884e+02 5.0000000000e+02 1.0566000000e-01 0.0000e+00 1.0000e+00
      994 -1    0    0    0    0 -0.0000000000e+00 -0.0000000000e+00 +0.0000000000e+00 1.3100000000e+02 1.3100000000e+02 0.0000e+00 0.0000e+00
       13  1    1    2    0    0 +2.7384329817e+01 -1.0898143220e+01 +1.2696322749e+01 3.2091725110e+01 1.0566000000e-01 0.0000e+00 -1.0000e+00
      994  1    1    2    0    0 -3.4772763542e+01 +1.9079490404e+01 +3.1776987051e+01 1.4051316289e+02 1.3100000000e+02 0.0000e+00 0.0000e+00
      997  1    1    2    0    0 +7.3884337253e+00 -8.1813471837e+00 +4.5552667904e+02 4.5839511200e+02 5.0000000000e+01 0.0000e+00 0.0000e+00
</event>
<event>
 5      1 +5.6267200e-07 2.01296600e+02 7.95774700e-02 5.01558400e-01
       13 -1    0    0    0    0 +0.0000000000e+00 +0.0000000000e+00 +4.9999998884e+02 5.0000000000e+02 1.0566000000e-01 0.0000e+00 1.0000e+00
      994 -1    0    0    0    0 -0.0000000000e+00 -0.0000000000e+00 +0.0000000000e+00 1.3100000000e+02 1.3100000000e+02 0.0000e+00 0.0000e+00
       13  1    1    2    0    0 +1.2929945276e+01 +8.8658563616e+00 +1.4290398067e+01 2.1213522452e+01 1.0566000000e-01 0.0000e+00 -1.0000e+00
      994  1    1    2    0    0 -3.6842576047e+00 +4.4640571427e+01 +2.1933167196e+01 1.4017281546e+02 1.3100000000e+02 0.0000e+00 0.0000e+00
      997  1    1    2    0    0 -9.2456876711e+00 -5.3506427789e+01 +4.6377642357e+02 4.6961366209e+02 5.0000000000e+01 0.0000e+00 0.0000e+00
</event>
<event>
 5      1 +5.6267200e-07 2.05100200e+02 7.95774700e-02 4.94757200e-01
       13 -1    0    0    0    0 +0.0000000000e+00 +0.0000000000e+00 +4.9999998884e+02 5.0000000000e+02 1.0566000000e-01 0.0000e+00 -1.0000e+00
      994 -1    0    0    0    0 -0.0000000000e+00 -0.0000000000e+00 +0.0000000000e+00 1.3100000000e+02 1.3100000000e+02 0.0000e+00 0.0000e+00
       13  1    1    2    0    0 +1.4626102833e+01 +2.0586087777e+01 +7.0831520319e+01 7.5198572651e+01 1.0566000000e-01 0.0000e+00 1.0000e+00
      994  1    1    2    0    0 +4.9490248800e+00 -1.6423888764e+01 +9.2481514565e+00 1.3244155418e+02 1.3100000000e+02 0.0000e+00 0.0000e+00
      997  1    1    2    0    0 -1.9575127713e+01 -4.1621990129e+00 +4.1992031706e+02 4.2335987316e+02 5.0000000000e+01 0.0000e+00 0.0000e+00
</event>
<event>
 5      1 +5.6267200e-07 2.08426800e+02 7.95774700e-02 4.89069100e-01
       13 -1    0    0    0    0 +0.0000000000e+00 +0.0000000000e+00 +4.9999998884e+02 5.0000000000e+02 1.0566000000e-01 0.0000e+00 1.0000e+00
      994 -1    0    0    0    0 -0.0000000000e+00 -0.0000000000e+00 +0.0000000000e+00 1.3100000000e+02 1.3100000000e+02 0.0000e+00 0.0000e+00
       13  1    1    2    0    0 -1.3112664962e+01 -3.7037285179e+00 +4.2041039426e+01 4.4194114398e+01 1.0566000000e-01 0.0000e+00 -1.0000e+00
      994  1    1    2    0    0 +7.6673864154e+00 -1.1431481288e-01 +5.2852533947e+00 1.3133063537e+02 1.3100000000e+02 0.0000e+00 0.0000e+00
      997  1    1    2    0    0 +5.4452785466e+00 +3.8180433308e+00 +4.5267369602e+02 4.5547525024e+02 5.0000000000e+01 0.0000e+00 0.0000e+00
</event>
<event>
 5      1 +5.6267200e-07 2.00134200e+02 7.95774700e-02 5.03703800e-01
       13 -1    0    0    0    0 +0.0000000000e+00 +0.0000000000e+00 +4.9999998884e+02 5.0000000000e+02 1.0566000000e-01 0.0000e+00 1.0000e+00
      994 -1    0    0    0    0 -0.0000000000e+00 -0.0000000000e+00 +0.0000000000e+00 1.3100000000e+02 1.3100000000e+02 0.0000e+00 0.0000e+00
       13  1    1    2    0    0 +9.4775748608e+00 -3.0062132369e+01 +4.0307634224e+01 5.1169060658e+01 1.0566000000e-01 0.0000e+00 -1.0000e+00
      994  1    1    2    0    0 -5.1674267994e+01 +3.3704784756e+01 +3.3493140623e+01 1.4862379674e+02 1.3100000000e+02 0.0000e+00 0.0000e+00
      997  1    1    2    0    0 +4.2196693134e+01 -3.6426523871e+00 +4.2619921399e+02 4.3120714260e+02 5.0000000000e+01 0.0000e+00 0.0000e+00
</event>
<event>
 5      1 +5.6267200e-07 2.05920100e+02 7.95774700e-02 4.93333500e-01
       13 -1    0    0    0    0 +0.0000000000e+00 +0.0000000000e+00 +4.9999998884e+02 5.0000000000e+02 1.0566000000e-01 0.0000e+00 -1.0000e+00
      994 -1    0    0    0    0 -0.0000000000e+00 -0.0000000000e+00 +0.0000000000e+00 1.3100000000e+02 1.3100000000e+02 0.0000e+00 0.0000e+00
       13  1    1    2    0    0 -1.2303255389e+01 -4.5845809678e+00 +1.7124898727e+01 2.1579198230e+01 1.0566000000e-01 0.0000e+00 1.0000e+00
      994  1    1    2    0    0 +2.3890550203e+01 -2.1618931046e+01 +1.2448070627e+01 1.3547727127e+02 1.3100000000e+02 0.0000e+00 0.0000e+00
      997  1    1    2    0    0 -1.1587294814e+01 +2.6203512014e+01 +4.7042701948e+02 4.7394353050e+02 5.0000000000e+01 0.0000e+00 0.0000e+00
</event>
<event>
 5      1 +5.6267200e-07 1.93109200e+02 7.95774700e-02 5.17394700e-01
       13 -1    0    0    0    0 +0.0000000000e+00 +0.0000000000e+00 +4.9999998884e+02 5.0000000000e+02 1.0566000000e-01 0.0000e+00 1.0000e+00
      994 -1    0    0    0    0 -0.0000000000e+00 -0.0000000000e+00 +0.0000000000e+00 1.3100000000e+02 1.3100000000e+02 0.0000e+00 0.0000e+00
       13  1    1    2    0    0 +3.0014209301e+01 -1.0421221087e+01 +3.5816265982e+01 4.7877663705e+01 1.0566000000e-01 0.0000e+00 -1.0000e+00
      994  1    1    2    0    0 -2.2524775407e+00 -5.3786873311e+01 +3.5650910452e+01 1.4604824139e+02 1.3100000000e+02 0.0000e+00 0.0000e+00
      997  1    1    2    0    0 -2.7761731761e+01 +6.4208094397e+01 +4.2853281240e+02 4.3707409491e+02 5.0000000000e+01 0.0000e+00 0.0000e+00
</event>
<event>
 5      1 +5.6267200e-07 2.05419700e+02 7.95774700e-02 4.94200800e-01
       13 -1    0    0    0    0 +0.0000000000e+00 +0.0000000000e+00 +4.9999998884e+02 5.0000000000e+02 1.0566000000e-01 0.0000e+00 -1.0000e+00
      994 -1    0    0    0    0 -0.0000000000e+00 -0.0000000000e+00 +0.0000000000e+00 1.3100000000e+02 1.3100000000e+02 0.0000e+00 0.0000e+00
       13  1    1    2    0    0 +1.0025071449e+00 +2.8675798861e+01 +1.1714575179e+02 1.2060864309e+02 1.0566000000e-01 0.0000e+00 1.0000e+00
      994  1    1    2    0    0 +5.3649325937e+01 -2.4136459186e+01 +2.6044412220e+01 1.4594564140e+02 1.3100000000e+02 0.0000e+00 0.0000e+00
      997  1    1    2    0    0 -5.4651833082e+01 -4.5393396745e+00 +3.5680982482e+02 3.6444571551e+02 5.0000000000e+01 0.0000e+00 0.0000e+00
</event>
<event>
 5      1 +5.6267200e-07 2.03226400e+02 7.95774700e-02 4.98066800e-01
       13 -1    0    0    0    0 +0.0000000000e+00 +0.0000000000e+00 +4.9999998884e+02 5.0000000000e+02 1.0566000000e-01 0.0000e+00 1.0000e+00
      994 -1    0    0    0    0 -0.0000000000e+00 -0.0000000000e+00 +0.0000000000e+00 1.3100000000e+02 1.3100000000e+02 0.0000e+00 0.0000e+00
       13  1    1    2    0    0 +8.7460382926e+00 +1.6033882214e+01 -3.9527656624e+00 1.8687270670e+01 1.0566000000e-01 0.0000e+00 -1.0000e+00
      994  1    1    2    0    0 -1.3864558321e+01 +4.9219702644e+01 +4.7415636209e+01 1.4840501226e+02 1.3100000000e+02 0.0000e+00 0.0000e+00
      997  1    1    2    0    0 +5.1185200281e+00 -6.5253584858e+01 +4.5653711829e+02 4.6390771707e+02 5.0000000000e+01 0.0000e+00 0.0000e+00
</event>
<event>
 5      1 +5.6267200e-07 2.07764800e+02 7.95774700e-02 4.90182600e-01
       13 -1    0    0    0    0 +0.0000000000e+00 +0.0000000000e+00 +4.9999998884e+02 5.0000000000e+02 1.0566000000e-01 0.0000e+00 1.0000e+00
      994 -1    0    0    0    0 -0.0000000000e+00 -0.0000000000e+00 +0.0000000000e+00 1.3100000000e+02 1.3100000000e+02 0.0000e+00 0.0000e+00
       13  1    1    2    0    0 +1.2462444675e+01 -7.8724318328e+00 +4.2426418343e+01 4.4914361264e+01 1.0566000000e-01 0.0000e+00 -1.0000e+00
      994  1    1    2    0    0 +4.3628147268e+00 +1.1981674801e+01 +6.3523300106e+00 1.3177232934e+02 1.3100000000e+02 0.0000e+00 0.0000e+00
      997  1    1    2    0    0 -1.6825259402e+01 -4.1092429679e+00 +4.5122124048e+02 4.5431330940e+02 5.0000000000e+01 0.0000e+00 0.0000e+00
</event>
<event>
 5      1 +5.6267200e-07 2.00251700e+02 7.95774700e-02 5.03485600e-01
       13 -1    0    0    0    0 +0.0000000000e+00 +0.0000000000e+00 +4.9999998884e+02 5.0000000000e+02 1.0566000000e-01 0.0000e+00 -1.0000e+00
      994 -1    0    0    0    0 -0.0000000000e+00 -0.0000000000e+00 +0.0000000000e+00 1.3100000000e+02 1.3100000000e+02 0.0000e+00 0.0000e+00
       13  1    1    2    0    0 -7.1800225024e+00 +4.7700453074e+01 +1.3554744212e+02 1.4387496716e+02 1.0566000000e-01 0.0000e+00 1.0000e+00
      994  1    1    2    0    0 +2.6409886332e+01 -2.8263391269e+01 +2.0068930821e+01 1.3805818834e+02 1.3100000000e+02 0.0000e+00 0.0000e+00
      997  1    1    2    0    0 -1.9229863830e+01 -1.9437061805e+01 +3.4438361589e+02 3.4906684450e+02 5.0000000000e+01 0.0000e+00 0.0000e+00
</event>
<event>
 5      1 +5.6267200e-07 1.98072700e+02 7.95774700e-02 5.07589600e-01
       13 -1    0    0    0    0 +0.0000000000e+00 +0.0000000000e+00 +4.9999998884e+02 5.0000000000e+02 1.0566000000e-01 0.0000e+00 -1.0000e+00
      994 -1    0    0    0    0 -0.0000000000e+00 -0.0000000000e+00 +0.0000000000e+00 1.3100000000e+02 1.3100000000e+02 0.0000e+00 0.0000e+00
       13  1    1    2    0    0 +1.5063914132e+01 -4.6930119279e+00 +7.6125890227e+00 1.7518805485e+01 1.0566000000e-01 0.0000e+00 1.0000e+00
      994  1    1    2    0    0 +2.7263773420e+01 +4.1989057554e+01 +2.7991415272e+01 1.4300669084e+02 1.3100000000e+02 0.0000e+00 0.0000e+00
      997  1    1    2    0    0 -4.2327687553e+01 -3.7296045626e+01 +4.6439598454e+02 4.7047450368e+02 5.0000000000e+01 0.0000e+00 0.0000e+00
</event>
<event>
 5      1 +5.6267200e-07 2.05351200e+02 7.95774700e-02 4.94320000e-01
       13 -1    0    0    0    0 +0.0000000000e+00 +0.0000000000e+00 +4.9999998884e+02 5.0000000000e+02 1.0566000000e-01 0.0000e+00 1.0000e+00
      994 -1    0    0    0    0 -0.0000000000e+00 -0.0000000000e+00 +0.0000000000e+00 1.3100000000e+02 1.3100000000e+02 0.0000e+00 0.0000e+00
       13  1    1    2    0    0 -7.5289239115e+00 -2.0791977033e+01 +6.6878519205e+01 7.0439608881e+01 1.0566000000e-01 0.0000e+00 -1.0000e+00
      994  1    1    2    0    0 +1.9261087905e+01 -1.0472396459e+01 +1.0010383103e+01 1.3319860497e+02 1.3100000000e+02 0.0000e+00 0.0000e+00
      997  1    1    2    0    0 -1.1732163993e+01 +3.1264373491e+01 +4.2311108653e+02 4.2736178615e+02 5.0000000000e+01 0.0000e+00 0.0000e+00
</event>
<event>
 5      1 +5.6267200e-07 1.98821900e+02 7.95774700e-02 5.06165200e-01
       13 -1    0    0    0    0 +0.0000000000e+00 +0.0000000000e+00 +4.9999998884e+02 5.0000000000e+02 1.0566000000e-01 0.0000e+00 1.0000e+00
      994 -1    0    0    0    0 -0.0000000000e+00 -0.0000000000e+00 +0.0000000000e+00 1.3100000000e+02 1.3100000000e+02 0.0000e+00 0.0000e+00
       13  1    1    2    0    0 +5.0543984700e+01 -2.4909366300e+01 +7.6113433868e+01 9.4701831545e+01 1.0566000000e-01 0.0000e+00 -1.0000e+00
      994  1    1    2    0    0 -1.3882404994e+01 +2.0026968748e+01 +2.8770999123e+01 1.3631790431e+02 1.3100000000e+02 0.0000e+00 0.0000e+00
      997  1    1    2    0    0 -3.6661579706e+01 +4.8823975513e+00 +3.9511555585e+02 3.9998026414e+02 5.0000000000e+01 0.0000e+00 0.0000e+00
</event>
<event>
 5      1 +5.6267200e-07 2.08831500e+02 7.95774700e-02 4.88392800e-01
       13 -1    0    0    0    0 +0.0000000000e+00 +0.0000000000e+00 +4.9999998884e+02 5.0000000000e+02 1.0566000000e-01 0.0000e+00 1.0000e+00
      994 -1    0    0    0    0 -0.0000000000e+00 -0.0000000000e+00 +0.0000000000e+00 1.3100000000e+02 1.3100000000e+02 0.0000e+00 0.0000e+00
       13  1    1    2    0    0 +2.4060373683e+01 +3.5989186532e+00 +1.0256112775e+02 1.0540706753e+02 1.0566000000e-01 0.0000e+00 -1.0000e+00
      994  1    1    2    0    0 -5.7711916424e+01 +2.9281891935e+01 +2.6677743836e+01 1.4852877334e+02 1.3100000000e+02 0.0000e+00 0.0000e+00
      997  1    1    2    0    0 +3.3651542742e+01 -3.2880810588e+01 +3.7076111725e+02 3.7706415913e+02 5.0000000000e+01 0.0000e+00 0.0000e+00
</event>
<event>
 5      1 +5.6267200e-07 1.93128500e+02 7.95774700e-02 5.17355300e-01
       13 -1    0    0    0    0 +0.0000000000e+00 +0.0000000000e+00 +4.9999998884e+02 5.0000000000e+02 1.0566000000e-01 0.0000e+00 -1.0000e+00
      994 -1    0    0    0    0 -0.0000000000e+00 -0.0000000000e+00 +0.0000000000e+00 1.3100000000e+02 1.3100000000e+02 0.0000e+00 0.0000e+00
       13  1    1    2    0    0 +5.1292883726e+00 +1.2856631604e+01 -7.1252516492e-01 1.3860787552e+01 1.0566000000e-01 0.0000e+00 1.0000e+00
      994  1    1    2    0    0 +1.0773562820e+01 -1.6520135834e+01 +2.0497775066e+01 1.3405276322e+02 1.3100000000e+02 0.0000e+00 0.0000e+00
      997  1    1    2    0    0 -1.5902851193e+01 +3.6635042302e+00 +4.8021473893e+02 4.8308644923e+02 5.0000000000e+01 0.0000e+00 0.0000e+00
</event>
<event>
 5      1 +5.6267200e-07 1.99837700e+02 7.95774700e-02 5.04256300e-01
       13 -1    0    0    0    0 +0.0000000000e+00 +0.0000000000e+00 +4.9999998884e+02 5.0000000000e+02 1.0566000000e-01 0.0000e+00 1.0000e+00
      994 -1    0    0    0    0 -0.0000000000e+00 -0.0000000000e+00 +0.0000000000e+00 1.3100000000e+02 1.3100000000e+02 0.0000e+00 0.0000e+00
       13  1    1    2    0    0 -1.5627669944e+01 +6.8065576451e+00 +1.1654048465e+01 2.0649002507e+01 1.0566000000e-01 0.0000e+00 -1.0000e+00
      994  1    1    2    0    0 +1.4869541462e+00 -1.5872202431e+01 +1.3579200029e+01 1.3266322971e+02 1.3100000000e+02 0.0000e+00 0.0000e+00
      997  1    1    2    0    0 +1.4140715798e+01 +9.0656447857e+00 +4.7476674034e+02 4.7768776779e+02 5.0000000000e+01 0.0000e+00 0.0000e+00
</event>
<event>
 5      1 +5.6267200e-07 1.94175000e+02 7.95774700e-02 5.15233500e-01
       13 -1    0    0    0    0 +0.0000000000e+00 +0.0000000000e+00 +4.9999998884e+02 5.0000000000e+02 1.0566000000e-01 0.0000e+00 -1.0000e+00
      994 -1    0    0    0    0 -0.0000000000e+00 -0.0000000000e+00 +0.0000000000e+00 1.3100000000e+02 1.3100000000e+02 0.0000e+00 0.0000e+00
       13  1    1    2    0    0 +3.5998287271e+01 -2.9798112380e+01 +1.2359643683e+02 1.3213589425e+02 1.0566000000e-01 0.0000e+00 1.0000e+00
      994  1    1    2    0    0 +1.7735729364e+01 +8.9243620237e+00 +1.9535251466e+01 1.3392843755e+02 1.3100000000e+02 0.0000e+00 0.0000e+00
      997  1    1    2    0    0 -5.3734016636e+01 +2.0873750356e+01 +3.5686830054e+02 3.6493566821e+02 5.0000000000e+01 0.0000e+00 0.0000e+00
</event>
<event>
 5      1 +5.6267200e-07 2.30590600e+02 7.95774700e-02 4.56333200e-01
       13 -1    0    0    0    0 +0.0000000000e+00 +0.0000000000e+00 +4.9999998884e+02 5.0000000000e+02 1.0566000000e-01 0.0000e+00 -1.0000e+00
      994 -1    0    0    0    0 -0.0000000000e+00 -0.0000000000e+00 +0.0000000000e+00 1.3100000000e+02 1.3100000000e+02 0.0000e+00 0.0000e+00
       13  1    1    2    0    0 -3.2149201188e+00 -1.1082284048e+01 -2.4795608066e+01 2.7349334078e+01 1.0566000000e-01 0.0000e+00 1.0000e+00
      994  1    1    2    0    0 -5.8340313160e+01 +1.4021030808e+01 +1.0985238703e+02 1.8118699838e+02 1.3100000000e+02 0.0000e+00 0.0000e+00
      997  1    1    2    0    0 +6.1555233279e+01 -2.9387467606e+00 +4.1494320987e+02 4.2246366755e+02 5.0000000000e+01 0.0000e+00 0.0000e+00
</event>
<event>
 5      1 +5.6267200e-07 1.95555500e+02 7.95774700e-02 5.12480200e-01
       13 -1    0    0    0    0 +0.0000000000e+00 +0.0000000000e+00 +4.9999998884e+02 5.0000000000e+02 1.0566000000e-01 0.0000e+00 -1.0000e+00
      994 -1    0    0    0    0 -0.0000000000e+00 -0.0000000000e+00 +0.0000000000e+00 1.3100000000e+02 1.3100000000e+02 0.0000e+00 0.0000e+00
       13  1    1    2    0    0 +2.8436194416e+01 -4.2389402705e+01 +2.0438015058e+02 2.1065786415e+02 1.0566000000e-01 0.0000e+00 1.0000e+00
      994  1    1    2    0    0 +3.3094879914e+01 -2.6287621968e+00 +2.8530891545e+01 1.3812021300e+02 1.3100000000e+02 0.0000e+00 0.0000e+00
      997  1    1    2    0    0 -6.1531074330e+01 +4.5018164902e+01 +2.6708894671e+02 2.8222192285e+02 5.0000000000e+01 0.0000e+00 0.0000e+00
</event>
<event>
 5      1 +5.6267200e-07 2.09309000e+02 7.95774700e-02 4.87599200e-01
       13 -1    0    0    0    0 +0.0000000000e+00 +0.0000000000e+00 +4.9999998884e+02 5.0000000000e+02 1.0566000000e-01 0.0000e+00 1.0000e+00
      994 -1    0    0    0    0 -0.0000000000e+00 -0.0000000000e+00 +0.0000000000e+00 1.3100000000e+02 1.3100000000e+02 0.0000e+00 0.0000e+00
       13  1    1    2    0    0 +7.8722088230e+00 -7.1988008452e+00 +3.2004576103e+01 3.3735714916e+01 1.0566000000e-01 0.0000e+00 -1.0000e+00
      994  1    1    2    0    0 -2.6816896085e+01 -4.9476855735e+00 +8.0370825215e+00 1.3404932004e+02 1.3100000000e+02 0.0000e+00 0.0000e+00
      997  1    1    2    0    0 +1.8944687262e+01 +1.2146486419e+01 +4.5995833021e+02 4.6321496504e+02 5.0000000000e+01 0.0000e+00 0.0000e+00
</event>
<event>
 5      1 +5.6267200e-07 1.97154100e+02 7.95774700e-02 5.09355300e-01
       13 -1    0    0    0    0 +0.0000000000e+00 +0.0000000000e+00 +4.9999998884e+02 5.0000000000e+02 1.0566000000e-01 0.0000e+00 1.0000e+00
      994 -1    0    0    0    0 -0.0000000000e+00 -0.0000000000e+00 +0.0000000000e+00 1.3100000000e+02 1.3100000000e+02 0.0000e+00 0.0000e+00
       13  1    1    2    0    0 -4.0069181936e+01 -3.1757961022e+01 +8.3346257032e+01 9.7778919786e+01 1.0566000000e-01 0.0000e+00 -1.0000e+00
      994  1    1    2    0    0 +1.3498101334e+01 -2.1784505752e+01 +2.7429483743e+01 1.3627230096e+02 1.3100000000e+02 0.0000e+00 0.0000e+00
      997  1    1    2    0    0 +2.6571080602e+01 +5.3542466774e+01 +3.8922424806e+02 3.9694877925e+02 5.0000000000e+01 0.0000e+00 0.0000e+00
</event>
<event>
 5      1 +5.6267200e-07 2.01862000e+02 7.95774700e-02 5.00526400e-01
       13 -1    0    0    0    0 +0.0000000000e+00 +0.0000000000e+00 +4.9999998884e+02 5.0000000000e+02 1.0566000000e-01 0.0000e+00 1.0000e+00
      994 -1    0    0    0    0 -0.0000000000e+00 -0.0000000000e+00 +0.0000000000e+00 1.3100000000e+02 1.3100000000e+02 0.0000e+00 0.0000e+00
       13  1    1    2    0    0 +7.8294774190e+00 +1.0205759630e+01 +6.7752938416e+00 1.4538707541e+01 1.0566000000e-01 0.0000e+00 -1.0000e+00
      994  1    1    2    0    0 +1.6801854152e+00 -2.3036311717e+01 +1.3310138872e+01 1.3368490744e+02 1.3100000000e+02 0.0000e+00 0.0000e+00
      997  1    1    2    0    0 -9.5096628343e+00 +1.2830552087e+01 +4.7991455612e+02 4.8277638502e+02 5.0000000000e+01 0.0000e+00 0.0000e+00
</event>
<event>
 5      1 +5.6267200e-07 1.94008500e+02 7.95774700e-02 5.15568800e-01
       13 -1    0    0    0    0 +0.0000000000e+00 +0.0000000000e+00 +4.9999998884e+02 5.0000000000e+02 1.0566000000e-01 0.0000e+00 -1.0000e+00
      994 -1    0    0    0    0 -0.0000000000e+00 -0.0000000000e+00 +0.0000000000e+00 1.3100000000e+02 1.3100000000e+02 0.0000e+00 0.0000e+00
       13  1    1    2    0    0 +2.4706499440e+01 -1.9216075871e+01 +1.0361667576e+02 1.0824091345e+02 1.0566000000e-01 0.0000e+00 1.0000e+00
      994  1    1    2    0    0 +5.7543500290e+01 -4.0504772202e+01 +4.7746594666e+01 1.5618139550e+02 1.3100000000e+02 0.0000e+00 0.0000e+00
      997  1    1    2    0    0 -8.2249999730e+01 +5.9720848073e+01 +3.4863671841e+02 3.6657769105e+02 5.0000000000e+01 0.0000e+00 0.0000e+00
</event>
<event>
 5      1 +5.6267200e-07 2.08267000e+02 7.95774700e-02 4.89337100e-01
       13 -1    0    0    0    0 +0.0000000000e+00 +0.0000000000e+00 +4.9999998884e+02 5.0000000000e+02 1.0566000000e-01 0.0000e+00 1.0000e+00
      994 -1    0    0    0    0 -0.0000000000e+00 -0.0000000000e+00 +0.0000000000e+00 1.3100000000e+02 1.3100000000e+02 0.0000e+00 0.0000e+00
       13  1    1    2    0    0 -6.8003634770e-01 +1.1279938269e+01 +2.2145496304e+01 2.4862293285e+01 1.0566000000e-01 0.0000e+00 -1.0000e+00
      994  1    1    2    0    0 -1.2775193808e+01 -2.1282348287e+01 +8.2548925241e+00 1.3358625369e+02 1.3100000000e+02 0.0000e+00 0.0000e+00
      997  1    1    2    0    0 +1.3455230156e+01 +1.0002410017e+01 +4.6959960001e+02 4.7255145302e+02 5.0000000000e+01 0.0000e+00 0.0000e+00
</event>
<event>
 5      1 +5.6267200e-07 2.01874800e+02 7.95774700e-02 5.00503200e-01
       13 -1    0    0    0    0 +0.0000000000e+00 +0.0000000000e+00 +4.9999998884e+02 5.0000000000e+02 1.0566000000e-01 0.0000e+00 1.0000e+00
      994 -1    0    0    0    0 -0.0000000000e+00 -0.0000000000e+00 +0.0000000000e+00 1.3100000000e+02 1.3100000000e+02 0.0000e+00 0.0000e+00
       13  1    1    2    0    0 +2.1597165258e+01 -3.6103481894e+01 +1.8191644397e+02 1.8671770859e+02 1.0566000000e-01 0.0000e+00 -1.0000e+00
      994  1    1    2    0    0 +2.6026147225e+01 +4.2799053970e+01 +2.4201590587e+01 1.4232300006e+02 1.3100000000e+02 0.0000e+00 0.0000e+00
      997  1    1    2    0    0 -4.7623312483e+01 -6.6955720758e+00 +2.9388195428e+02 3.0195929134e+02 5.0000000000e+01 0.0000e+00 0.0000e+00
</event>
<event>
 5      1 +5.6267200e-07 2.08546900e+02 7.95774700e-02 4.88868100e-01
       13 -1    0    0    0    0 +0.0000000000e+00 +0.0000000000e+00 +4.9999998884e+02 5.0000000000e+02 1.0566000000e-01 0.0000e+00 -1.0000e+00
      994 -1    0    0    0    0 -0.0000000000e+00 -0.0000000000e+00 +0.0000000000e+00 1.3100000000e+02 1.3100000000e+02 0.0000e+00 0.0000e+00
       13  1    1    2    0    0 +9.1225915848e+00 -1.2937941470e+01 +7.0139722765e+01 7.1904129786e+01 1.0566000000e-01 0.0000e+00 1.0000e+00
      994  1    1    2    0    0 -1.0576682282e+01 -6.2882817609e-01 +5.4584209326e+00 1.3154108101e+02 1.3100000000e+02 0.0000e+00 0.0000e+00
      997  1    1    2    0    0 +1.4540906972e+00 +1.3566769646e+01 +4.2440184514e+02 4.2755478921e+02 5.0000000000e+01 0.0000e+00 0.0000e+00
</event>
<event>
 5      1 +5.6267200e-07 2.02524000e+02 7.95774700e-02 4.99327700e-01
       13 -1    0    0    0    0 +0.0000000000e+00 +0.0000000000e+00 +4.9999998884e+02 5.0000000000e+02 1.0566000000e-01 0.0000e+00 1.0000e+00
      994 -1    0    0    0    0 -0.0000000000e+00 -0.0000000000e+00 +0.0000000000e+00 1.3100000000e+02 1.3100000000e+02 0.0000e+00 0.0000e+00
       13  1    1    2    0    0 -1.6816983666e+01 -1.9876365416e+01 +6.0385296445e+01 6.5759227737e+01 1.0566000000e-01 0.0000e+00 -1.0000e+00
      994  1    1    2    0    0 -1.5247256860e+01 +3.5373502285e+00 +1.1185399848e+01 1.3240507867e+02 1.3100000000e+02 0.0000e+00 0.0000e+00
      997  1    1    2    0    0 +3.2064240526e+01 +1.6339015188e+01 +4.2842929254e+02 4.3283569359e+02 5.0000000000e+01 0.0000e+00 0.0000e+00
</event>
<event>
 5      1 +5.6267200e-07 1.99505600e+02 7.95774700e-02 5.04877700e-01
       13 -1    0    0    0    0 +0.0000000000e+00 +0.0000000000e+00 +4.9999998884e+02 5.0000000000e+02 1.0566000000e-01 0.0000e+00 1.0000e+00
      994 -1    0    0    0    0 -0.0000000000e+00 -0.0000000000e+00 +0.0000000000e+00 1.3100000000e+02 1.3100000000e+02 0.0000e+00 0.0000e+00
       13  1    1    2    0    0 -1.2280510674e+01 -1.7606613173e+01 +2.7503764777e+01 3.4889425486e+01 1.0566000000e-01 0.0000e+00 -1.0000e+00
      994  1    1    2    0    0 -1.4015317272e+01 -2.4476749102e+01 +1.6857285108e+01 1.3505816682e+02 1.3100000000e+02 0.0000e+00 0.0000e+00
      997  1    1    2    0    0 +2.6295827946e+01 +4.2083362275e+01 +4.5563893895e+02 4.6105240769e+02 5.0000000000e+01 0.0000e+00 0.0000e+00
</event>
<event>
 5      1 +5.6267200e-07 2.11775500e+02 7.95774700e-02 4.83571800e-01
       13 -1    0    0    0    0 +0.0000000000e+00 +0.0000000000e+00 +4.9999998884e+02 5.0000000000e+02 1.0566000000e-01 0.0000e+00 1.0000e+00
      994 -1    0    0    0    0 -0.0000000000e+00 -0.0000000000e+00 +0.0000000000e+00 1.3100000000e+02 1.3100000000e+02 0.0000e+00 0.0000e+00
       13  1    1    2    0    0 -5.1224813881e+00 +3.4592473624e+01 +6.8736043806e+00 3.5638976531e+01 1.0566000000e-01 0.0000e+00 -1.0000e+00
      994  1    1    2    0    0 +2.4888467009e+01 +1.7045180371e+01 +4.6027052201e+01 1.4208963192e+02 1.3100000000e+02 0.0000e+00 0.0000e+00
      997  1    1    2    0    0 -1.9765985621e+01 -5.1637653994e+01 +4.4709933225e+02 4.5327139155e+02 5.0000000000e+01 0.0000e+00 0.0000e+00
</event>
<event>
 5      1 +5.6267200e-07 2.02716100e+02 7.95774700e-02 4.98981700e-01
       13 -1    0    0    0    0 +0.0000000000e+00 +0.0000000000e+00 +4.9999998884e+02 5.0000000000e+02 1.0566000000e-01 0.0000e+00 1.0000e+00
      994 -1    0    0    0    0 -0.0000000000e+00 -0.0000000000e+00 +0.0000000000e+00 1.3100000000e+02 1.3100000000e+02 0.0000e+00 0.0000e+00
       13  1    1    2    0    0 -2.2453041309e+01 -1.3278864856e+01 +5.2028595132e+01 5.8201831512e+01 1.0566000000e-01 0.0000e+00 -1.0000e+00
      994  1    1    2    0    0 +1.0653750167e+01 -3.4732902306e+00 +1.0384791932e+01 1.3188786920e+02 1.3100000000e+02 0.0000e+00 0.0000e+00
      997  1    1    2    0    0 +1.1799291141e+01 +1.6752155086e+01 +4.3758660177e+02 4.4091029929e+02 5.0000000000e+01 0.0000e+00 0.0000e+00
</event>
<event>
 5      1 +5.6267200e-07 2.09756500e+02 7.95774700e-02 4.86859700e-01
       13 -1    0    0    0    0 +0.0000000000e+00 +0.0000000000e+00 +4.9999998884e+02 5.0000000000e+02 1.0566000000e-01 0.0000e+00 -1.0000e+00
      994 -1    0    0    0    0 -0.0000000000e+00 -0.0000000000e+00 +0.0000000000e+00 1.3100000000e+02 1.3100000000e+02 0.0000e+00 0.0000e+00
       13  1    1    2    0    0 -3.8961589264e+00 -1.3451113103e+01 +6.7390128705e+01 6.8829885290e+01 1.0566000000e-01 0.0000e+00 1.0000e+00
      994  1    1    2    0    0 +1.3253340525e+01 +2.2266060284e+01 +7.2990427830e+00 1.3373744614e+02 1.3100000000e+02 0.0000e+00 0.0000e+00
      997  1    1    2    0    0 -9.3571815989e+00 -8.8149471804e+00 +4.2531081735e+02 4.2843266857e+02 5.0000000000e+01 0.0000e+00 0.0000e+00
</event>
<event>
 5      1 +5.6267200e-07 2.07448100e+02 7.95774700e-02 4.90718400e-01
       13 -1    0    0    0    0 +0.0000000000e+00 +0.0000000000e+00 +4.9999998884e+02 5.0000000000e+02 1.0566000000e-01 0.0000e+00 1.0000e+00
      994 -1    0    0    0    0 -0.0000000000e+00 -0.0000000000e+00 +0.0000000000e+00 1.3100000000e+02 1.3100000000e+02 0.0000e+00 0.0000e+00
       13  1    1    2    0    0 +1.1582879678e+01 -1.4669130237e+01 +7.4067553910e+01 7.6389529320e+01 1.0566000000e-01 0.0000e+00 -1.0000e+00
      994  1    1    2    0    0 +6.7508072447e+00 +7.0621942184e+00 +6.2692167693e+00 1.3151331136e+02 1.3100000000e+02 0.0000e+00 0.0000e+00
      997  1    1    2    0    0 -1.8333686923e+01 +7.6069360189e+00 +4.1966321816e+02 4.2309715932e+02 5.0000000000e+01 0.0000e+00 0.0000e+00
</event>
<event>
 5      1 +5.6267200e-07 2.08766800e+02 7.95774700e-02 4.88500700e-01
       13 -1    0    0    0    0 +0.0000000000e+00 +0.0000000000e+00 +4.9999998884e+02 5.0000000000e+02 1.0566000000e-01 0.0000e+00 1.0000e+00
      994 -1    0    0    0    0 -0.0000000000e+00 -0.0000000000e+00 +0.0000000000e+00 1.3100000000e+02 1.3100000000e+02 0.0000e+00 0.0000e+00
       13  1    1    2    0    0 +5.9036183365e+00 +1.1301560013e+01 +4.3504598415e+01 4.5334746227e+01 1.0566000000e-01 0.0000e+00 -1.0000e+00
      994  1    1    2    0    0 +4.9940957648e-01 -5.9702710532e+00 +4.8942488331e+00 1.3122822569e+02 1.3100000000e+02 0.0000e+00 0.0000e+00
      997  1    1    2    0    0 -6.4030279130e+00 -5.3312889597e+00 +4.5160114159e+02 4.5443702808e+02 5.0000000000e+01 0.0000e+00 0.0000e+00
</event>
<event>
 5      1 +5.6267200e-07 2.09056500e+02 7.95774700e-02 4.88018400e-01
       13 -1    0    0    0    0 +0.0000000000e+00 +0.0000000000e+00 +4.9999998884e+02 5.0000000000e+02 1.0566000000e-01 0.0000e+00 -1.0000e+00
      994 -1    0    0    0    0 -0.0000000000e+00 -0.0000000000e+00 +0.0000000000e+00 1.3100000000e+02 1.3100000000e+02 0.0000e+00 0.0000e+00
       13  1    1    2    0    0 -6.2628461307e+00 -1.3459908365e+01 +7.4929772227e+01 7.6386348943e+01 1.0566000000e-01 0.0000e+00 1.0000e+00
      994  1    1    2    0    0 -5.8492333627e+00 +1.2386963739e+01 +5.4256477689e+00 1.3182597641e+02 1.3100000000e+02 0.0000e+00 0.0000e+00
      997  1    1    2    0    0 +1.2112079493e+01 +1.0729446258e+00 +4.1964456884e+02 4.2278767465e+02 5.0000000000e+01 0.0000e+00 0.0000e+00
</event>
<event>
 5      1 +5.6267200e-07 2.03137700e+02 7.95774700e-02 4.98225400e-01
       13 -1    0    0    0    0 +0.0000000000e+00 +0.0000000000e+00 +4.9999998884e+02 5.0000000000e+02 1.0566000000e-01 0.0000e+00 -1.0000e+00
      994 -1    0    0    0    0 -0.0000000000e+00 -0.0000000000e+00 +0.0000000000e+00 1.3100000000e+02 1.3100000000e+02 0.0000e+00 0.0000e+00
       13  1    1    2    0    0 -3.1908577866e+01 +2.3087788050e+01 +1.0331491565e+02 1.1056756423e+02 1.0566000000e-01 0.0000e+00 1.0000e+00
      994  1    1    2    0    0 +2.6037817393e+01 -2.7046393390e+01 +1.6914664396e+01 1.3731926741e+02 1.3100000000e+02 0.0000e+00 0.0000e+00
      997  1    1    2    0    0 +5.8707604726e+00 +3.9586053403e+00 +3.7977040879e+02 3.8311316836e+02 5.0000000000e+01 0.0000e+00 0.0000e+00
</event>
<event>
 5      1 +5.6267200e-07 2.08349600e+02 7.95774700e-02 4.89198400e-01
       13 -1    0    0    0    0 +0.0000000000e+00 +0.0000000000e+00 +4.9999998884e+02 5.0000000000e+02 1.0566000000e-01 0.0000e+00 -1.0000e+00
      994 -1    0    0    0    0 -0.0000000000e+00 -0.0000000000e+00 +0.0000000000e+00 1.3100000000e+02 1.3100000000e+02 0.0000e+00 0.0000e+00
       13  1    1    2    0    0 +1.1359488087e+01 -8.8638690335e+00 +4.5497737503e+01 4.7724851239e+01 1.0566000000e-01 0.0000e+00 1.0000e+00
      994  1    1    2    0    0 -8.3857377767e+00 +3.7215880861e+00 +5.4763885357e+00 1.3143500921e+02 1.3100000000e+02 0.0000e+00 0.0000e+00
      997  1    1    2    0    0 -2.9737503105e+00 +5.1422809473e+00 +4.4902586280e+02 4.5184013955e+02 5.0000000000e+01 0.0000e+00 0.0000e+00
</event>
<event>
 5      1 +5.6267200e-07 2.07463600e+02 7.95774700e-02 4.90692100e-01
       13 -1    0    0    0    0 +0.0000000000e+00 +0.0000000000e+00 +4.9999998884e+02 5.0000000000e+02 1.0566000000e-01 0.0000e+00 1.0000e+00
      994 -1    0    0    0    0 -0.0000000000e+00 -0.0000000000e+00 +0.0000000000e+00 1.3100000000e+02 1.3100000000e+02 0.0000e+00 0.0000e+00
       13  1    1    2    0    0 +1.9550094120e+01 -4.6048013401e+00 +6.7327708917e+01 7.0259817304e+01 1.0566000000e-01 0.0000e+00 -1.0000e+00
      994  1    1    2    0    0 -1.1045673588e+01 +2.8198867118e+01 +1.0485015701e+01 1.3486333292e+02 1.3100000000e+02 0.0000e+00 0.0000e+00
      997  1    1    2    0    0 -8.5044205322e+00 -2.3594065778e+01 +4.2218726422e+02 4.2587684978e+02 5.0000000000e+01 0.0000e+00 0.0000e+00
</event>
<event>
 5      1 +5.6267200e-07 2.10046100e+02 7.95774700e-02 4.86383100e-01
       13 -1    0    0    0    0 +0.0000000000e+00 +0.0000000000e+00 +4.9999998884e+02 5.0000000000e+02 1.0566000000e-01 0.0000e+00 1.0000e+00
      994 -1    0    0    0    0 -0.0000000000e+00 -0.0000000000e+00 +0.0000000000e+00 1.3100000000e+02 1.3100000000e+02 0.0000e+00 0.0000e+00
       13  1    1    2    0    0 -9.9606738041e+00 +3.5392474969e+00 +5.5616846222e+01 5.6612596153e+01 1.0566000000e-01 0.0000e+00 -1.0000e+00
      994  1    1    2    0    0 +1.6112716508e+01 +1.9851658167e+00 +5.0058218406e+00 1.3209700515e+02 1.3100000000e+02 0.0000e+00 0.0000e+00
      997  1    1    2    0    0 -6.1520427039e+00 -5.5244133136e+00 +4.3937732077e+02 4.4229039870e+02 5.0000000000e+01 0.0000e+00 0.0000e+00
</event>
<event>
 5      1 +5.6267200e-07 2.10284200e+02 7.95774700e-02 4.85992600e-01
       13 -1    0    0    0    0 +0.0000000000e+00 +0.0000000000e+00 +4.9999998884e+02 5.0000000000e+02 1.0566000000e-01 0.0000e+00 -1.0000e+00
      994 -1    0    0    0    0 -0.0000000000e+00 -0.0000000000e+00 +0.0000000000e+00 1.3100000000e+02 1.3100000000e+02 0.0000e+00 0.0000e+00
       13  1    1    2    0    0 +1.5599023633e+01 -2.8244665617e+00 +7.8850290709e+01 8.0428145935e+01 1.0566000000e-01 0.0000e+00 1.0000e+00
      994  1    1    2    0    0 -4.7500194503e+01 +2.0752729999e+01 +1.7235726970e+01 1.4193313413e+02 1.3100000000e+02 0.0000e+00 0.0000e+00
      997  1    1    2    0    0 +3.1901170870e+01 -1.7928263438e+01 +4.0391397116e+02 4.0863871993e+02 5.0000000000e+01 0.0000e+00 0.0000e+00
</event>
<event>
 5      1 +5.6267200e-07 2.06037300e+02 7.95774700e-02 4.93131100e-01
       13 -1    0    0    0    0 +0.0000000000e+00 +0.0000000000e+00 +4.9999998884e+02 5.0000000000e+02 1.0566000000e-01 0.0000e+00 -1.0000e+00
      994 -1    0    0    0    0 -0.0000000000e+00 -0.0000000000e+00 +0.0000000000e+00 1.3100000000e+02 1.3100000000e+02 0.0000e+00 0.0000e+00
       13  1    1    2    0    0 +3.3466545094e+01 -2.1034164461e+01 +1.0910819284e+02 1.1604763946e+02 1.0566000000e-01 0.0000e+00 1.0000e+00
      994  1    1    2    0    0 -5.8198109763e+01 +2.4891667563e+01 +2.8479758871e+01 1.4825218973e+02 1.3100000000e+02 0.0000e+00 0.0000e+00
      997  1    1    2    0    0 +2.4731564669e+01 -3.8575031020e+00 +3.6241203713e+02 3.6670017081e+02 5.0000000000e+01 0.0000e+00 0.0000e+00
</event>
<event>
 5      1 +5.6267200e-07 2.07292500e+02 7.95774700e-02 4.90982500e-01
       13 -1    0    0    0    0 +0.0000000000e+00 +0.0000000000e+00 +4.9999998884e+02 5.0000000000e+02 1.0566000000e-01 0.0000e+00 -1.0000e+00
      994 -1    0    0    0    0 -0.0000000000e+00 -0.0000000000e+00 +0.0000000000e+00 1.3100000000e+02 1.3100000000e+02 0.0000e+00 0.0000e+00
       13  1    1    2    0    0 +1.4027444225e+01 +2.4411765520e+01 +1.3181079793e+02 1.3478427617e+02 1.0566000000e-01 0.0000e+00 1.0000e+00
      994  1    1    2    0    0 +1.0896845226e+01 -4.1956166982e+01 +1.5677570010e+01 1.3887349418e+02 1.3100000000e+02 0.0000e+00 0.0000e+00
      997  1    1    2    0    0 -2.4924289451e+01 +1.7544401463e+01 +3.5251162090e+02 3.5734222965e+02 5.0000000000e+01 0.0000e+00 0.0000e+00
</event>
<event>
 5      1 +5.6267200e-07 2.06262700e+02 7.95774700e-02 4.92742800e-01
       13 -1    0    0    0    0 +0.0000000000e+00 +0.0000000000e+00 +4.9999998884e+02 5.0000000000e+02 1.0566000000e-01 0.0000e+00 -1.0000e+00
      994 -1    0    0    0    0 -0.0000000000e+00 -0.0000000000e+00 +0.0000000000e+00 1.3100000000e+02 1.3100000000e+02 0.0000e+00 0.0000e+00
       13  1    1    2    0    0 -1.2106353857e+01 +2.4504223779e+01 +1.5087978611e+02 1.5333538994e+02 1.0566000000e-01 0.0000e+00 1.0000e+00
      994  1    1    2    0    0 -1.3646482726e+01 -1.8249546019e+01 +9.4388367176e+00 1.3330177815e+02 1.3100000000e+02 0.0000e+00 0.0000e+00
      997  1    1    2    0    0 +2.5752836583e+01 -6.2546777597e+00 +3.3968136600e+02 3.4436283190e+02 5.0000000000e+01 0.0000e+00 0.0000e+00
</event>
<event>
 5      1 +5.6267200e-07 1.96197300e+02 7.95774700e-02 5.11217600e-01
       13 -1    0    0    0    0 +0.0000000000e+00 +0.0000000000e+00 +4.9999998884e+02 5.0000000000e+02 1.0566000000e-01 0.0000e+00 1.0000e+00
      994 -1    0    0    0    0 -0.0000000000e+00 -0.0000000000e+00 +0.0000000000e+00 1.3100000000e+02 1.3100000000e+02 0.0000e+00 0.0000e+00
       13  1    1    2    0    0 +5.6009249372e+00 +1.2313521025e+01 +1.7955260532e+00 1.3646546744e+01 1.0566000000e-01 0.0000e+00 -1.0000e+00
      994  1    1    2    0    0 +7.1368486371e+00 -6.8614950715e+00 +1.5975502187e+01 1.3234134423e+02 1.3100000000e+02 0.0000e+00 0.0000e+00
      997  1    1    2    0    0 -1.2737773574e+01 -5.4520259536e+00 +4.8222896060e+02 4.8501210902e+02 5.0000000000e+01 0.0000e+00 0.0000e+00
</event>
<event>
 5      1 +5.6267200e-07 1.97209800e+02 7.95774700e-02 5.09247500e-01
       13 -1    0    0    0    0 +0.0000000000e+00 +0.0000000000e+00 +4.9999998884e+02 5.0000000000e+02 1.0566000000e-01 0.0000e+00 -1.0000e+00
      994 -1    0    0    0    0 -0.0000000000e+00 -0.0000000000e+00 +0.0000000000e+00 1.3100000000e+02 1.3100000000e+02 0.0000e+00 0.0000e+00
       13  1    1    2    0    0 +1.3356179425e+01 -1.7748641932e+01 +1.4066026080e+01 2.6291939316e+01 1.0566000000e-01 0.0000e+00 1.0000e+00
      994  1    1    2    0    0 -3.5777156525e+01 +1.4614078540e+01 +2.2967436359e+01 1.3849938395e+02 1.3100000000e+02 0.0000e+00 0.0000e+00
      997  1    1    2    0    0 +2.2420977100e+01 +3.1345633911e+00 +4.6296652640e+02 4.6620867674e+02 5.0000000000e+01 0.0000e+00 0.0000e+00
</event>
<event>
 5      1 +5.6267200e-07 2.06908200e+02 7.95774700e-02 4.91636900e-01
       13 -1    0    0    0    0 +0.0000000000e+00 +0.0000000000e+00 +4.9999998884e+02 5.0000000000e+02 1.0566000000e-01 0.0000e+00 -1.0000e+00
      994 -1    0    0    0    0 -0.0000000000e+00 -0.0000000000e+00 +0.0000000000e+00 1.3100000000e+02 1.3100000000e+02 0.0000e+00 0.0000e+00
       13  1    1    2    0    0 +3.2174299741e+01 +3.9992695047e+01 +1.1100312651e+02 1.2229597900e+02 1.0566000000e-01 0.0000e+00 1.0000e+00
      994  1    1    2    0    0 -1.1622399267e+02 -5.9080882268e+01 +1.1629228940e+02 2.1836543613e+02 1.3100000000e+02 0.0000e+00 0.0000e+00
      997  1    1    2    0    0 +8.4049692924e+01 +1.9088187221e+01 +2.7270457292e+02 2.9033858487e+02 5.0000000000e+01 0.0000e+00 0.0000e+00
</event>
<event>
 5      1 +5.6267200e-07 1.99519900e+02 7.95774700e-02 5.04850800e-01
       13 -1    0    0    0    0 +0.0000000000e+00 +0.0000000000e+00 +4.9999998884e+02 5.0000000000e+02 1.0566000000e-01 0.0000e+00 1.0000e+00
      994 -1    0    0    0    0 -0.0000000000e+00 -0.0000000000e+00 +0.0000000000e+00 1.3100000000e+02 1.3100000000e+02 0.0000e+00 0.0000e+00
       13  1    1    2    0    0 +1.5699527778e+01 -1.6803584439e+01 +4.1648075705e+01 4.7575298175e+01 1.0566000000e-01 0.0000e+00 -1.0000e+00
      994  1    1    2    0    0 -2.8730665673e+01 -8.4446103768e+01 +6.0479941294e+01 1.6963318924e+02 1.3100000000e+02 0.0000e+00 0.0000e+00
      997  1    1    2    0    0 +1.3031137895e+01 +1.0124968821e+02 +3.9787197184e+02 4.1379151259e+02 5.0000000000e+01 0.0000e+00 0.0000e+00
</event>
<event>
 5      1 +5.6267200e-07 1.92965300e+02 7.95774700e-02 5.17688900e-01
       13 -1    0    0    0    0 +0.0000000000e+00 +0.0000000000e+00 +4.9999998884e+02 5.0000000000e+02 1.0566000000e-01 0.0000e+00 1.0000e+00
      994 -1    0    0    0    0 -0.0000000000e+00 -0.0000000000e+00 +0.0000000000e+00 1.3100000000e+02 1.3100000000e+02 0.0000e+00 0.0000e+00
       13  1    1    2    0    0 -1.8568600362e+01 +2.8930298367e+01 +3.9319910247e+01 5.2228551472e+01 1.0566000000e-01 0.0000e+00 -1.0000e+00
      994  1    1    2    0    0 -1.3969739252e+01 -7.9945761885e+00 +1.9895821079e+01 1.3347625467e+02 1.3100000000e+02 0.0000e+00 0.0000e+00
      997  1    1    2    0    0 +3.2538339614e+01 -2.0935722179e+01 +4.4078425751e+02 4.4529519386e+02 5.0000000000e+01 0.0000e+00 0.0000e+00
</event>
<event>
 5      1 +5.6267200e-07 2.07517300e+02 7.95774700e-02 4.90601100e-01
       13 -1    0    0    0    0 +0.0000000000e+00 +0.0000000000e+00 +4.9999998884e+02 5.0000000000e+02 1.0566000000e-01 0.0000e+00 1.0000e+00
      994 -1    0    0    0    0 -0.0000000000e+00 -0.0000000000e+00 +0.0000000000e+00 1.3100000000e+02 1.3100000000e+02 0.0000e+00 0.0000e+00
       13  1    1    2    0    0 -5.8683884455e+00 +1.3956687075e+01 +3.1434338008e+01 3.4890627209e+01 1.0566000000e-01 0.0000e+00 -1.0000e+00
      994  1    1    2    0    0 -2.7134912754e-01 -2.7668261006e+01 +9.6543790825e+00 1.3423789827e+02 1.3100000000e+02 0.0000e+00 0.0000e+00
      997  1    1    2    0    0 +6.1397375730e+00 +1.3711573931e+01 +4.5891127175e+02 4.6187147452e+02 5.0000000000e+01 0.0000e+00 0.0000e+00
</event>
<event>
 5      1 +5.6267200e-07 1.98512300e+02 7.95774700e-02 5.06752100e-01
       13 -1    0    0    0    0 +0.0000000000e+00 +0.0000000000e+00 +4.9999998884e+02 5.0000000000e+02 1.0566000000e-01 0.0000e+00 1.0000e+00
      994 -1    0    0    0    0 -0.0000000000e+00 -0.0000000000e+00 +0.0000000000e+00 1.3100000000e+02 1.3100000000e+02 0.0000e+00 0.0000e+00
       13  1    1    2    0    0 -4.7141824798e+01 +3.4313895127e+01 +1.3030619459e+02 1.4275682315e+02 1.0566000000e-01 0.0000e+00 -1.0000e+00
      994  1    1    2    0    0 +8.1834826155e+01 +8.5090044928e+00 +5.3923622945e+01 1.6382337758e+02 1.3100000000e+02 0.0000e+00 0.0000e+00
      997  1    1    2    0    0 -3.4693001357e+01 -4.2822899620e+01 +3.1577017130e+02 3.2441979927e+02 5.0000000000e+01 0.0000e+00 0.0000e+00
</event>
<event>
 5      1 +5.6267200e-07 2.03028800e+02 7.95774700e-02 4.98420300e-01
       13 -1    0    0    0    0 +0.0000000000e+00 +0.0000000000e+00 +4.9999998884e+02 5.0000000000e+02 1.0566000000e-01 0.0000e+00 -1.0000e+00
      994 -1    0    0    0    0 -0.0000000000e+00 -0.0000000000e+00 +0.0000000000e+00 1.3100000000e+02 1.3100000000e+02 0.0000e+00 0.0000e+00
       13  1    1    2    0    0 +2.6171384508e+01 +2.1657743495e+01 +1.0018682051e+02 1.0578945784e+02 1.0566000000e-01 0.0000e+00 1.0000e+00
      994  1    1    2    0    0 -2.8279836159e+01 +9.7609966866e+00 +1.4227852839e+01 1.3512386165e+02 1.3100000000e+02 0.0000e+00 0.0000e+00
      997  1    1    2    0    0 +2.1084516511e+00 -3.1418740181e+01 +3.8558531548e+02 3.9008668052e+02 5.0000000000e+01 0.0000e+00 0.0000e+00
</event>
<event>
 5      1 +5.6267200e-07 2.02865200e+02 7.95774700e-02 4.98713800e-01
       13 -1    0    0    0    0 +0.0000000000e+00 +0.0000000000e+00 +4.9999998884e+02 5.0000000000e+02 1.0566000000e-01 0.0000e+00 -1.0000e+00
      994 -1    0    0    0    0 -0.0000000000e+00 -0.0000000000e+00 +0.0000000000e+00 1.3100000000e+02 1.3100000000e+02 0.0000e+00 0.0000e+00
       13  1    1    2    0    0 +2.2588887672e+01 +6.4386371133e-02 +2.1929640995e+01 3.1483047979e+01 1.0566000000e-01 0.0000e+00 1.0000e+00
      994  1    1    2    0    0 -6.9399326115e+01 -9.8872757929e+00 +3.7083374561e+01 1.5313458576e+02 1.3100000000e+02 0.0000e+00 0.0000e+00
      997  1    1    2    0    0 +4.6810438443e+01 +9.8228894217e+00 +4.4098697328e+02 4.4638236626e+02 5.0000000000e+01 0.0000e+00 0.0000e+00
</event>
<event>
 5      1 +5.6267200e-07 2.09017500e+02 7.95774700e-02 4.88083200e-01
       13 -1    0    0    0    0 +0.0000000000e+00 +0.0000000000e+00 +4.9999998884e+02 5.0000000000e+02 1.0566000000e-01 0.0000e+00 -1.0000e+00
      994 -1    0    0    0    0 -0.0000000000e+00 -0.0000000000e+00 +0.0000000000e+00 1.3100000000e+02 1.3100000000e+02 0.0000e+00 0.0000e+00
       13  1    1    2    0    0 -4.9195192297e+00 -1.1577761606e+01 +4.3430862525e+01 4.5216116783e+01 1.0566000000e-01 0.0000e+00 1.0000e+00
      994  1    1    2    0    0 -8.2365246813e+00 +1.5624229085e+01 +6.0858304787e+00 1.3232533471e+02 1.3100000000e+02 0.0000e+00 0.0000e+00
      997  1    1    2    0    0 +1.3156043911e+01 -4.0464674791e+00 +4.5048329583e+02 4.5345854851e+02 5.0000000000e+01 0.0000e+00 0.0000e+00
</event>
<event>
 5      1 +5.6267200e-07 2.02752600e+02 7.95774700e-02 4.98916100e-01
       13 -1    0    0    0    0 +0.0000000000e+00 +0.0000000000e+00 +4.9999998884e+02 5.0000000000e+02 1.0566000000e-01 0.0000e+00 1.0000e+00
      994 -1    0    0    0    0 -0.0000000000e+00 -0.0000000000e+00 +0.0000000000e+00 1.3100000000e+02 1.3100000000e+02 0.0000e+00 0.0000e+00
       13  1    1    2    0    0 -4.9976585614e+00 +9.1179875107e+00 +5.0360601309e+00 1.1553672707e+01 1.0566000000e-01 0.0000e+00 -1.0000e+00
      994  1    1    2    0    0 +9.3231067511e-01 +7.7479761269e+00 +1.0010430259e+01 1.3161348355e+02 1.3100000000e+02 0.0000e+00 0.0000e+00
      997  1    1    2    0    0 +4.0653478863e+00 -1.6865963638e+01 +4.8495349845e+02 4.8783284375e+02 5.0000000000e+01 0.0000e+00 0.0000e+00
</event>
<event>
 5      1 +5.6267200e-07 2.04062000e+02 7.95774700e-02 4.96581300e-01
       13 -1    0    0    0    0 +0.0000000000e+00 +0.0000000000e+00 +4.9999998884e+02 5.0000000000e+02 1.0566000000e-01 0.0000e+00 -1.0000e+00
      994 -1    0    0    0    0 -0.0000000000e+00 -0.0000000000e+00 +0.0000000000e+00 1.3100000000e+02 1.3100000000e+02 0.0000e+00 0.0000e+00
       13  1    1    2    0    0 +1.4852170376e+01 -5.3352176130e+00 +1.5914017473e+01 2.2412465907e+01 1.0566000000e-01 0.0000e+00 1.0000e+00
      994  1    1    2    0    0 -3.2178477704e+01 +5.0814365554e+00 +1.4203938825e+01 1.3573513658e+02 1.3100000000e+02 0.0000e+00 0.0000e+00
      997  1    1    2    0    0 +1.7326307328e+01 +2.5378105760e-01 +4.6988203254e+02 4.7285239751e+02 5.0000000000e+01 0.0000e+00 0.0000e+00
</event>
<event>
 5      1 +5.6267200e-07 2.03799200e+02 7.95774700e-02 4.97046900e-01
       13 -1    0    0    0    0 +0.0000000000e+00 +0.0000000000e+00 +4.9999998884e+02 5.0000000000e+02 1.0566000000e-01 0.0000e+00 -1.0000e+00
      994 -1    0    0    0    0 -0.0000000000e+00 -0.0000000000e+00 +0.0000000000e+00 1.3100000000e+02 1.3100000000e+02 0.0000e+00 0.0000e+00
       13  1    1    2    0    0 -5.5078409070e+00 +1.0576827140e+01 +8.2976519607e+00 1.4528171802e+01 1.0566000000e-01 0.0000e+00 1.0000e+00
      994  1    1    2    0    0 +1.8520916589e+01 -1.0315816592e+01 +1.1174049474e+01 1.3317394567e+02 1.3100000000e+02 0.0000e+00 0.0000e+00
      997  1    1    2    0    0 -1.3013075682e+01 -2.6101054799e-01 +4.8052828740e+02 4.8329788253e+02 5.0000000000e+01 0.0000e+00 0.0000e+00
</event>
<event>
 5      1 +5.6267200e-07 2.04621500e+02 7.95774700e-02 4.95595300e-01
       13 -1    0    0    0    0 +0.0000000000e+00 +0.0000000000e+00 +4.9999998884e+02 5.0000000000e+02 1.0566000000e-01 0.0000e+00 -1.0000e+00
      994 -1    0    0    0    0 -0.0000000000e+00 -0.0000000000e+00 +0.0000000000e+00 1.3100000000e+02 1.3100000000e+02 0.0000e+00 0.0000e+00
       13  1    1    2    0    0 +3.9281589318e+00 -1.7152880538e+01 +2.7548775820e+01 3.2689416583e+01 1.0566000000e-01 0.0000e+00 1.0000e+00
      994  1    1    2    0    0 -2.7857654235e+01 +1.9965791646e+00 +1.2214305484e+01 1.3449990515e+02 1.3100000000e+02 0.0000e+00 0.0000e+00
      997  1    1    2    0    0 +2.3929495304e+01 +1.5156301373e+01 +4.6023690753e+02 4.6381067826e+02 5.0000000000e+01 0.0000e+00 0.0000e+00
</event>
<event>
 5      1 +5.6267200e-07 2.04325100e+02 7.95774700e-02 4.96116700e-01
       13 -1    0    0    0    0 +0.0000000000e+00 +0.0000000000e+00 +4.9999998884e+02 5.0000000000e+02 1.0566000000e-01 0.0000e+00 -1.0000e+00
      994 -1    0    0    0    0 -0.0000000000e+00 -0.0000000000e+00 +0.0000000000e+00 1.3100000000e+02 1.3100000000e+02 0.0000e+00 0.0000e+00
       13  1    1    2    0    0 -2.6181164585e+01 +2.1218311749e+01 +1.1650041859e+02 1.2127666234e+02 1.0566000000e-01 0.0000e+00 1.0000e+00
      994  1    1    2    0    0 -2.9947951486e+00 -3.7734752927e+01 +1.5964520097e+01 1.3729073632e+02 1.3100000000e+02 0.0000e+00 0.0000e+00
      997  1    1    2    0    0 +2.9175959734e+01 +1.6516441178e+01 +3.6753505015e+02 3.7243260135e+02 5.0000000000e+01 0.0000e+00 0.0000e+00
</event>
<event>
 5      1 +5.6267200e-07 1.99377700e+02 7.95774700e-02 5.05117600e-01
       13 -1    0    0    0    0 +0.0000000000e+00 +0.0000000000e+00 +4.9999998884e+02 5.0000000000e+02 1.0566000000e-01 0.0000e+00 1.0000e+00
      994 -1    0    0    0    0 -0.0000000000e+00 -0.0000000000e+00 +0.0000000000e+00 1.3100000000e+02 1.3100000000e+02 0.0000e+00 0.0000e+00
       13  1    1    2    0    0 +5.6575676873e+00 -2.7298851125e+01 +4.2295990380e+01 5.0657648102e+01 1.0566000000e-01 0.0000e+00 -1.0000e+00
      994  1    1    2    0    0 -1.6083165075e+01 -2.6378389303e+00 +1.4049746969e+01 1.3275549624e+02 1.3100000000e+02 0.0000e+00 0.0000e+00
      997  1    1    2    0    0 +1.0425597388e+01 +2.9936690056e+01 +4.4365425149e+02 4.4758685565e+02 5.0000000000e+01 0.0000e+00 0.0000e+00
</event>
<event>
 5      1 +5.6267200e-07 2.03923700e+02 7.95774700e-02 4.96826100e-01
       13 -1    0    0    0    0 +0.0000000000e+00 +0.0000000000e+00 +4.9999998884e+02 5.0000000000e+02 1.0566000000e-01 0.0000e+00 -1.0000e+00
      994 -1    0    0    0    0 -0.0000000000e+00 -0.0000000000e+00 +0.0000000000e+00 1.3100000000e+02 1.3100000000e+02 0.0000e+00 0.0000e+00
       13  1    1    2    0    0 -2.8688468530e+01 -1.0298397100e-01 +4.5640149662e+01 5.3908007360e+01 1.0566000000e-01 0.0000e+00 1.0000e+00
      994  1    1    2    0    0 +5.7538052634e+01 +6.3099739573e+00 +2.6918859870e+01 1.4572600416e+02 1.3100000000e+02 0.0000e+00 0.0000e+00
      997  1    1    2    0    0 -2.8849584104e+01 -6.2069899863e+00 +4.2744097930e+02 4.3136598848e+02 5.0000000000e+01 0.0000e+00 0.0000e+00
</event>
<event>
 5      1 +5.6267200e-07 2.05660000e+02 7.95774700e-02 4.93783600e-01
       13 -1    0    0    0    0 +0.0000000000e+00 +0.0000000000e+00 +4.9999998884e+02 5.0000000000e+02 1.0566000000e-01 0.0000e+00 -1.0000e+00
      994 -1    0    0    0    0 -0.0000000000e+00 -0.0000000000e+00 +0.0000000000e+00 1.3100000000e+02 1.3100000000e+02 0.0000e+00 0.0000e+00
       13  1    1    2    0    0 +2.2299866697e+01 -1.2246207861e-01 +6.7134205552e+01 7.0741160372e+01 1.0566000000e-01 0.0000e+00 1.0000e+00
      994  1    1    2    0    0 -1.6203781406e+00 -1.1441922386e+01 +7.9424113743e+00 1.3174834007e+02 1.3100000000e+02 0.0000e+00 0.0000e+00
      997  1    1    2    0    0 -2.0679488556e+01 +1.1564384464e+01 +4.2492337191e+02 4.2851049956e+02 5.0000000000e+01 0.0000e+00 0.0000e+00
</event>
<event>
 5      1 +5.6267200e-07 2.09544100e+02 7.95774700e-02 4.87210100e-01
       13 -1    0    0    0    0 +0.0000000000e+00 +0.0000000000e+00 +4.9999998884e+02 5.0000000000e+02 1.0566000000e-01 0.0000e+00 -1.0000e+00
      994 -1    0    0    0    0 -0.0000000000e+00 -0.0000000000e+00 +0.0000000000e+00 1.3100000000e+02 1.3100000000e+02 0.0000e+00 0.0000e+00
       13  1    1    2    0    0 +1.0618119109e+01 -1.1439132342e+01 +9.1459401025e+01 9.2781632891e+01 1.0566000000e-01 0.0000e+00 1.0000e+00
      994  1    1    2    0    0 -4.2981836176e+01 -1.0512940746e+00 +1.3518609807e+01 1.3853626338e+02 1.3100000000e+02 0.0000e+00 0.0000e+00
      997  1    1    2    0    0 +3.2363717067e+01 +1.2490426417e+01 +3.9502197800e+02 3.9968210373e+02 5.0000000000e+01 0.0000e+00 0.0000e+00
</event>
<event>
 5      1 +5.6267200e-07 2.05178800e+02 7.95774700e-02 4.94620200e-01
       13 -1    0    0    0    0 +0.0000000000e+00 +0.0000000000e+00 +4.9999998884e+02 5.0000000000e+02 1.0566000000e-01 0.0000e+00 1.0000e+00
      994 -1    0    0    0    0 -0.0000000000e+00 -0.0000000000e+00 +0.0000000000e+00 1.3100000000e+02 1.3100000000e+02 0.0000e+00 0.0000e+00
       13  1    1    2    0    0 +1.4044747257e+01 -1.1854783645e+01 +2.3848048253e+01 3.0108659723e+01 1.0566000000e-01 0.0000e+00 -1.0000e+00
      994  1    1    2    0    0 -2.5273268040e+01 +4.3585950629e+01 +2.1179539030e+01 1.4194381298e+02 1.3100000000e+02 0.0000e+00 0.0000e+00
      997  1    1    2    0    0 +1.1228520783e+01 -3.1731166984e+01 +4.5497240155e+02 4.5894752730e+02 5.0000000000e+01 0.0000e+00 0.0000e+00
</event>
<event>
 5      1 +5.6267200e-07 2.06095800e+02 7.95774700e-02 4.93030300e-01
       13 -1    0    0    0    0 +0.0000000000e+00 +0.0000000000e+00 +4.9999998884e+02 5.0000000000e+02 1.0566000000e-01 0.0000e+00 1.0000e+00
      994 -1    0    0    0    0 -0.0000000000e+00 -0.0000000000e+00 +0.0000000000e+00 1.3100000000e+02 1.3100000000e+02 0.0000e+00 0.0000e+00
       13  1    1    2    0    0 +9.9755493453e+00 +7.4158499523e-01 +1.0527257430e+01 1.4522253478e+01 1.0566000000e-01 0.0000e+00 -1.0000e+00
      994  1    1    2    0    0 +6.3439732247e-01 +1.0950995542e+01 +7.5116815935e+00 1.3167289821e+02 1.3100000000e+02 0.0000e+00 0.0000e+00
      997  1    1    2    0    0 -1.0609946668e+01 -1.1692580538e+01 +4.8196104981e+02 4.8480484831e+02 5.0000000000e+01 0.0000e+00 0.0000e+00
</event>
<event>
 5      1 +5.6267200e-07 2.03353600e+02 7.95774700e-02 4.97839600e-01
       13 -1    0    0    0    0 +0.0000000000e+00 +0.0000000000e+00 +4.9999998884e+02 5.0000000000e+02 1.0566000000e-01 0.0000e+00 -1.0000e+00
      994 -1    0    0    0    0 -0.0000000000e+00 -0.0000000000e+00 +0.0000000000e+00 1.3100000000e+02 1.3100000000e+02 0.0000e+00 0.0000e+00
       13  1    1    2    0    0 -2.2215924055e+01 -2.3174369453e+01 +7.2656290511e+00 3.2915030164e+01 1.0566000000e-01 0.0000e+00 1.0000e+00
      994  1    1    2    0    0 +1.9713425576e+01 +3.3579075389e+01 +3.9895750888e+01 1.4236869175e+02 1.3100000000e+02 0.0000e+00 0.0000e+00
      997  1    1    2    0    0 +2.5024984792e+00 -1.0404705936e+01 +4.5283860890e+02 4.5571627809e+02 5.0000000000e+01 0.0000e+00 0.0000e+00
</event>
<event>
 5      1 +5.6267200e-07 2.13614400e+02 7.95774700e-02 4.80645500e-01
       13 -1    0    0    0    0 +0.0000000000e+00 +0.0000000000e+00 +4.9999998884e+02 5.0000000000e+02 1.0566000000e-01 0.0000e+00 -1.0000e+00
      994 -1    0    0    0    0 -0.0000000000e+00 -0.0000000000e+00 +0.0000000000e+00 1.3100000000e+02 1.3100000000e+02 0.0000e+00 0.0000e+00
       13  1    1    2    0    0 +2.6527078747e+01 -3.5919118698e+01 +1.1075339391e+01 4.6005905073e+01 1.0566000000e-01 0.0000e+00 1.0000e+00
      994  1    1    2    0    0 -7.4244995312e+01 -4.0528294811e+01 +1.0626967430e+02 1.8870375111e+02 1.3100000000e+02 0.0000e+00 0.0000e+00
      997  1    1    2    0    0 +4.7717916565e+01 +7.6447413510e+01 +3.8265497515e+02 3.9629034381e+02 5.0000000000e+01 0.0000e+00 0.0000e+00
</event>
<event>
 5      1 +5.6267200e-07 2.05693800e+02 7.95774700e-02 4.93725100e-01
       13 -1    0    0    0    0 +0.0000000000e+00 +0.0000000000e+00 +4.9999998884e+02 5.0000000000e+02 1.0566000000e-01 0.0000e+00 -1.0000e+00
      994 -1    0    0    0    0 -0.0000000000e+00 -0.0000000000e+00 +0.0000000000e+00 1.3100000000e+02 1.3100000000e+02 0.0000e+00 0.0000e+00
       13  1    1    2    0    0 +1.0408947864e+01 -6.7882645872e-01 +7.7240215244e+00 1.2979933495e+01 1.0566000000e-01 0.0000e+00 1.0000e+00
      994  1    1    2    0    0 -3.8071537304e+01 +2.7732850321e+01 +1.8954618256e+01 1.4049494828e+02 1.3100000000e+02 0.0000e+00 0.0000e+00
      997  1    1    2    0    0 +2.7662589440e+01 -2.7054023863e+01 +4.7332134906e+02 4.7752511822e+02 5.0000000000e+01 0.0000e+00 0.0000e+00
</event>
<event>
 5      1 +5.6267200e-07 1.99207500e+02 7.95774700e-02 5.05437500e-01
       13 -1    0    0    0    0 +0.0000000000e+00 +0.0000000000e+00 +4.9999998884e+02 5.0000000000e+02 1.0566000000e-01 0.0000e+00 1.0000e+00
      994 -1    0    0    0    0 -0.0000000000e+00 -0.0000000000e+00 +0.0000000000e+00 1.3100000000e+02 1.3100000000e+02 0.0000e+00 0.0000e+00
       13  1    1    2    0    0 -3.3027031303e+01 +2.6622608103e+01 +9.7046664197e+01 1.0591323928e+02 1.0566000000e-01 0.0000e+00 -1.0000e+00
      994  1    1    2    0    0 +3.5508937453e+00 -3.1001243371e+01 +1.8122682476e+01 1.3587905489e+02 1.3100000000e+02 0.0000e+00 0.0000e+00
      997  1    1    2    0    0 +2.9476137558e+01 +4.3786352687e+00 +3.8483064216e+02 3.8920770583e+02 5.0000000000e+01 0.0000e+00 0.0000e+00
</event>
<event>
 5      1 +5.6267200e-07 1.98355000e+02 7.95774700e-02 5.07051300e-01
       13 -1    0    0    0    0 +0.0000000000e+00 +0.0000000000e+00 +4.9999998884e+02 5.0000000000e+02 1.0566000000e-01 0.0000e+00 -1.0000e+00
      994 -1    0    0    0    0 -0.0000000000e+00 -0.0000000000e+00 +0.0000000000e+00 1.3100000000e+02 1.3100000000e+02 0.0000e+00 0.0000e+00
       13  1    1    2    0    0 +2.2270476767e+01 -2.0890843329e+01 +3.1724379729e+01 4.4032362004e+01 1.0566000000e-01 0.0000e+00 1.0000e+00
      994  1    1    2    0    0 +5.0442018928e+01 +1.0977212056e+02 +1.1484724329e+02 2.1200284200e+02 1.3100000000e+02 0.0000e+00 0.0000e+00
      997  1    1    2    0    0 -7.2712495695e+01 -8.8881277229e+01 +3.5342836581e+02 3.7496479599e+02 5.0000000000e+01 0.0000e+00 0.0000e+00
</event>
<event>
 5      1 +5.6267200e-07 2.03098900e+02 7.95774700e-02 4.98294800e-01
       13 -1    0    0    0    0 +0.0000000000e+00 +0.0000000000e+00 +4.9999998884e+02 5.0000000000e+02 1.0566000000e-01 0.0000e+00 1.0000e+00
      994 -1    0    0    0    0 -0.0000000000e+00 -0.0000000000e+00 +0.0000000000e+00 1.3100000000e+02 1.3100000000e+02 0.0000e+00 0.0000e+00
       13  1    1    2    0    0 -2.0801887032e+01 -1.7320246473e+01 +7.1136108897e+01 7.6112197412e+01 1.0566000000e-01 0.0000e+00 -1.0000e+00
      994  1    1    2    0    0 -1.4453022403e+01 +1.2562880202e+01 +1.1338242999e+01 1.3287690382e+02 1.3100000000e+02 0.0000e+00 0.0000e+00
      997  1    1    2    0    0 +3.5254909434e+01 +4.7573662708e+00 +4.1752563694e+02 4.2201089876e+02 5.0000000000e+01 0.0000e+00 0.0000e+00
</event>
<event>
 5      1 +5.6267200e-07 2.01605900e+02 7.95774700e-02 5.00993000e-01
       13 -1    0    0    0    0 +0.0000000000e+00 +0.0000000000e+00 +4.9999998884e+02 5.0000000000e+02 1.0566000000e-01 0.0000e+00 1.0000e+00
      994 -1    0    0    0    0 -0.0000000000e+00 -0.0000000000e+00 +0.0000000000e+00 1.3100000000e+02 1.3100000000e+02 0.0000e+00 0.0000e+00
       13  1    1    2    0    0 +5.9063744198e+00 -8.1373429871e+00 +2.1243507623e+00 1.0277433526e+01 1.0566000000e-01 0.0000e+00 -1.0000e+00
      994  1    1    2    0    0 +2.5216180191e+01 +4.3183431144e+01 +2.4417717417e+01 1.4233021251e+02 1.3100000000e+02 0.0000e+00 0.0000e+00
      997  1    1    2    0    0 -3.1122554611e+01 -3.5046088157e+01 +4.7345792066e+02 4.7839235397e+02 5.0000000000e+01 0.0000e+00 0.0000e+00
</event>
<event>
 5      1 +5.6267200e-07 2.07124800e+02 7.95774700e-02 4.91267700e-01
       13 -1    0    0    0    0 +0.0000000000e+00 +0.0000000000e+00 +4.9999998884e+02 5.0000000000e+02 1.0566000000e-01 0.0000e+00 1.0000e+00
      994 -1    0    0    0    0 -0.0000000000e+00 -0.0000000000e+00 +0.0000000000e+00 1.3100000000e+02 1.3100000000e+02 0.0000e+00 0.0000e+00
       13  1    1    2    0    0 -3.2775981024e+00 -1.1262545693e+01 +2.1817334721e+01 2.4770846638e+01 1.0566000000e-01 0.0000e+00 -1.0000e+00
      994  1    1    2    0    0 +2.4299570978e+00 -7.7424085990e+00 +6.3829930336e+00 1.3140621059e+02 1.3100000000e+02 0.0000e+00 0.0000e+00
      997  1    1    2    0    0 +8.4764100460e-01 +1.9004954292e+01 +4.7179966108e+02 4.7482294277e+02 5.0000000000e+01 0.0000e+00 0.0000e+00
</event>
<event>
 5      1 +5.6267200e-07 2.03708700e+02 7.95774700e-02 4.97207500e-01
       13 -1    0    0    0    0 +0.0000000000e+00 +0.0000000000e+00 +4.9999998884e+02 5.0000000000e+02 1.0566000000e-01 0.0000e+00 -1.0000e+00
      994 -1    0    0    0    0 -0.0000000000e+00 -0.0000000000e+00 +0.0000000000e+00 1.3100000000e+02 1.3100000000e+02 0.0000e+00 0.0000e+00
       13  1    1    2    0    0 -2.1987688939e+01 -1.9188190635e+00 +5.0889041021e+01 5.5469324780e+01 1.0566000000e-01 0.0000e+00 1.0000e+00
      994  1    1    2    0    0 -1.1684391161e+01 -6.0181735472e+00 +9.7887854021e+00 1.3202107305e+02 1.3100000000e+02 0.0000e+00 0.0000e+00
      997  1    1    2    0    0 +3.3672080099e+01 +7.9369926107e+00 +4.3932216241e+02 4.4350960217e+02 5.0000000000e+01 0.0000e+00 0.0000e+00
</event>
<event>
 5      1 +5.6267200e-07 2.04479600e+02 7.95774700e-02 4.95844800e-01
       13 -1    0    0    0    0 +0.0000000000e+00 +0.0000000000e+00 +4.9999998884e+02 5.0000000000e+02 1.0566000000e-01 0.0000e+00 1.0000e+00
      994 -1    0    0    0    0 -0.0000000000e+00 -0.0000000000e+00 +0.0000000000e+00 1.3100000000e+02 1.3100000000e+02 0.0000e+00 0.0000e+00
       13  1    1    2    0    0 +1.5610364464e+01 -2.0139523188e+01 +5.0631767182e+01 5.6682191957e+01 1.0566000000e-01 0.0000e+00 -1.0000e+00
      994  1    1    2    0    0 -2.0334206463e+01 +2.1499306352e+01 +1.2845857038e+01 1.3491373603e+02 1.3100000000e+02 0.0000e+00 0.0000e+00
      997  1    1    2    0    0 +4.7238419982e+00 -1.3597831633e+00 +4.3652236462e+02 4.3940407202e+02 5.0000000000e+01 0.0000e+00 0.0000e+00
</event>
<event>
 5      1 +5.6267200e-07 2.08867700e+02 7.95774700e-02 4.88332500e-01
       13 -1    0    0    0    0 +0.0000000000e+00 +0.0000000000e+00 +4.9999998884e+02 5.0000000000e+02 1.0566000000e-01 0.0000e+00 1.0000e+00
      994 -1    0    0    0    0 -0.0000000000e+00 -0.0000000000e+00 +0.0000000000e+00 1.3100000000e+02 1.3100000000e+02 0.0000e+00 0.0000e+00
       13  1    1    2    0    0 -1.3239748304e+01 -9.7869460685e+00 +6.3662696238e+01 6.5757321302e+01 1.0566000000e-01 0.0000e+00 -1.0000e+00
      994  1    1    2    0    0 +2.0633478838e+01 +7.9635606315e+00 +7.1080040864e+00 1.3304391181e+02 1.3100000000e+02 0.0000e+00 0.0000e+00
      997  1    1    2    0    0 -7.3937305338e+00 +1.8233854370e+00 +4.2922928851e+02 4.3219876689e+02 5.0000000000e+01 0.0000e+00 0.0000e+00
</event>
<event>
 5      1 +5.6267200e-07 2.07246700e+02 7.95774700e-02 4.91060300e-01
       13 -1    0    0    0    0 +0.0000000000e+00 +0.0000000000e+00 +4.9999998884e+02 5.0000000000e+02 1.0566000000e-01 0.0000e+00 1.0000e+00
      994 -1    0    0    0    0 -0.0000000000e+00 -0.0000000000e+00 +0.0000000000e+00 1.3100000000e+02 1.3100000000e+02 0.0000e+00 0.0000e+00
       13  1    1    2    0    0 -1.4293660539e+01 -6.0891480916e+00 +5.0155170130e+01 5.2506558741e+01 1.0566000000e-01 0.0000e+00 -1.0000e+00
      994  1    1    2    0    0 -1.0185422927e+01 -3.4084077046e+00 +6.5361825063e+00 1.3160198238e+02 1.3100000000e+02 0.0000e+00 0.0000e+00
      997  1    1    2    0    0 +2.4479083467e+01 +9.4975557962e+00 +4.4330863620e+02 4.4689145888e+02 5.0000000000e+01 0.0000e+00 0.0000e+00
</event>
<event>
 5      1 +5.6267200e-07 2.09427700e+02 7.95774700e-02 4.87402700e-01
       13 -1    0    0    0    0 +0.0000000000e+00 +0.0000000000e+00 +4.9999998884e+02 5.0000000000e+02 1.0566000000e-01 0.0000e+00 1.0000e+00
      994 -1    0    0    0    0 -0.0000000000e+00 -0.0000000000e+00 +0.0000000000e+00 1.3100000000e+02 1.3100000000e+02 0.0000e+00 0.0000e+00
       13  1    1    2    0    0 +1.2554084128e+01 -1.4819322523e+00 +5.0515649772e+01 5.2073440326e+01 1.0566000000e-01 0.0000e+00 -1.0000e+00
      994  1    1    2    0    0 -1.6656591065e+01 -4.8595876994e+00 +5.6962116742e+00 1.3226679268e+02 1.3100000000e+02 0.0000e+00 0.0000e+00
      997  1    1    2    0    0 +4.1025069367e+00 +6.3415199517e+00 +4.4378812739e+02 4.4665976699e+02 5.0000000000e+01 0.0000e+00 0.0000e+00
</event>
<event>
 5      1 +5.6267200e-07 2.00776900e+02 7.95774700e-02 5.02513600e-01
       13 -1    0    0    0    0 +0.0000000000e+00 +0.0000000000e+00 +4.9999998884e+02 5.0000000000e+02 1.0566000000e-01 0.0000e+00 -1.0000e+00
      994 -1    0    0    0    0 -0.0000000000e+00 -0.0000000000e+00 +0.0000000000e+00 1.3100000000e+02 1.3100000000e+02 0.0000e+00 0.0000e+00
       13  1    1    2    0    0 -2.9923939180e+01 +2.2465029688e+01 +7.7330633641e+01 8.5907844567e+01 1.0566000000e-01 0.0000e+00 1.0000e+00
      994  1    1    2    0    0 +3.4187919890e+01 -1.5033445479e+00 +1.7770264124e+01 1.3655715360e+02 1.3100000000e+02 0.0000e+00 0.0000e+00
      997  1    1    2    0    0 -4.2639807107e+00 -2.0961685140e+01 +4.0489909107e+02 4.0853500184e+02 5.0000000000e+01 0.0000e+00 0.0000e+00
</event>
<event>
 5      1 +5.6267200e-07 2.04291900e+02 7.95774700e-02 4.96175400e-01
       13 -1    0    0    0    0 +0.0000000000e+00 +0.0000000000e+00 +4.9999998884e+02 5.0000000000e+02 1.0566000000e-01 0.0000e+00 -1.0000e+00
      994 -1    0    0    0    0 -0.0000000000e+00 -0.0000000000e+00 +0.0000000000e+00 1.3100000000e+02 1.3100000000e+02 0.0000e+00 0.0000e+00
       13  1    1    2    0    0 -3.1522408939e+01 -1.0674400623e+00 +1.8002660135e+02 1.8276867908e+02 1.0566000000e-01 0.0000e+00 1.0000e+00
      994  1    1    2    0    0 +2.4918867610e+00 +1.3858609796e+01 +9.4287304415e+00 1.3209152707e+02 1.3100000000e+02 0.0000e+00 0.0000e+00
      997  1    1    2    0    0 +2.9030522178e+01 -1.2791169733e+01 +3.1054465704e+02 3.1613979386e+02 5.0000000000e+01 0.0000e+00 0.0000e+00
</event>
<event>
 5      1 +5.6267200e-07 2.08504900e+02 7.95774700e-02 4.88938300e-01
       13 -1    0    0    0    0 +0.0000000000e+00 +0.0000000000e+00 +4.9999998884e+02 5.0000000000e+02 1.0566000000e-01 0.0000e+00 -1.0000e+00
      994 -1    0    0    0    0 -0.0000000000e+00 -0.0000000000e+00 +0.0000000000e+00 1.3100000000e+02 1.3100000000e+02 0.0000e+00 0.0000e+00
       13  1    1    2    0    0 +1.1466685749e+01 +3.0706859093e+00 +3.7039903090e+01 3.8895752711e+01 1.0566000000e-01 0.0000e+00 1.0000e+00
      994  1    1    2    0    0 +7.3907386820e+00 -1.5134389056e+01 +6.3619168986e+00 1.3223141358e+02 1.3100000000e+02 0.0000e+00 0.0000e+00
      997  1    1    2    0    0 -1.8857424431e+01 +1.2063703147e+01 +4.5659816885e+02 4.5987283371e+02 5.0000000000e+01 0.0000e+00 0.0000e+00
</event>
<event>
 5      1 +5.6267200e-07 2.09757400e+02 7.95774700e-02 4.86858200e-01
       13 -1    0    0    0    0 +0.0000000000e+00 +0.0000000000e+00 +4.9999998884e+02 5.0000000000e+02 1.0566000000e-01 0.0000e+00 1.0000e+00
      994 -1    0    0    0    0 -0.0000000000e+00 -0.0000000000e+00 +0.0000000000e+00 1.3100000000e+02 1.3100000000e+02 0.0000e+00 0.0000e+00
       13  1    1    2    0    0 -2.1738154101e+01 +1.6652931145e+01 +1.0446122007e+02 1.0799085666e+02 1.0566000000e-01 0.0000e+00 -1.0000e+00
      994  1    1    2    0    0 +5.8968299227e+01 -4.7106821142e+01 +3.4116397221e+01 1.5498787524e+02 1.3100000000e+02 0.0000e+00 0.0000e+00
      997  1    1    2    0    0 -3.7230145126e+01 +3.0453889997e+01 +3.6142237154e+02 3.6802126810e+02 5.0000000000e+01 0.0000e+00 0.0000e+00
</event>
<event>
 5      1 +5.6267200e-07 2.04692000e+02 7.95774700e-02 4.95471600e-01
       13 -1    0    0    0    0 +0.0000000000e+00 +0.0000000000e+00 +4.9999998884e+02 5.0000000000e+02 1.0566000000e-01 0.0000e+00 1.0000e+00
      994 -1    0    0    0    0 -0.0000000000e+00 -0.0000000000e+00 +0.0000000000e+00 1.3100000000e+02 1.3100000000e+02 0.0000e+00 0.0000e+00
       13  1    1    2    0    0 +8.6055527089e+00 -2.9081508547e+01 +9.9785804485e+01 1.0429289342e+02 1.0566000000e-01 0.0000e+00 -1.0000e+00
      994  1    1    2    0    0 -3.1330698393e+01 +8.0767130114e+00 +1.3569921818e+01 1.3561706653e+02 1.3100000000e+02 0.0000e+00 0.0000e+00
      997  1    1    2    0    0 +2.2725145684e+01 +2.1004795536e+01 +3.8664426253e+02 3.9109004006e+02 5.0000000000e+01 0.0000e+00 0.0000e+00
</event>
<event>
 5      1 +5.6267200e-07 2.07311100e+02 7.95774700e-02 4.90950800e-01
       13 -1    0    0    0    0 +0.0000000000e+00 +0.0000000000e+00 +4.9999998884e+02 5.0000000000e+02 1.0566000000e-01 0.0000e+00 -1.0000e+00
      994 -1    0    0    0    0 -0.0000000000e+00 -0.0000000000e+00 +0.0000000000e+00 1.3100000000e+02 1.3100000000e+02 0.0000e+00 0.0000e+00
       13  1    1    2    0    0 +1.5740403999e+01 +7.8067919763e-01 +4.6288427828e+01 4.8897847528e+01 1.0566000000e-01 0.0000e+00 1.0000e+00
      994  1    1    2    0    0 +2.9069265651e+00 -1.2762192553e+01 +6.7695731967e+00 1.3182621478e+02 1.3100000000e+02 0.0000e+00 0.0000e+00
      997  1    1    2    0    0 -1.8647330564e+01 +1.1981513355e+01 +4.4694198781e+02 4.5027593770e+02 5.0000000000e+01 0.0000e+00 0.0000e+00
</event>
<event>
 5      1 +5.6267200e-07 2.09358100e+02 7.95774700e-02 4.87517900e-01
       13 -1    0    0    0    0 +0.0000000000e+00 +0.0000000000e+00 +4.9999998884e+02 5.0000000000e+02 1.0566000000e-01 0.0000e+00 1.0000e+00
      994 -1    0    0    0    0 -0.0000000000e+00 -0.0000000000e+00 +0.0000000000e+00 1.3100000000e+02 1.3100000000e+02 0.0000e+00 0.0000e+00
       13  1    1    2    0    0 -1.2745462695e+01 -1.0408335983e+01 +8.6148703998e+01 8.7706274815e+01 1.0566000000e-01 0.0000e+00 -1.0000e+00
      994  1    1    2    0    0 +1.1393057238e+01 +2.0488791193e+01 +7.0103243790e+00 1.3326566312e+02 1.3100000000e+02 0.0000e+00 0.0000e+00
      997  1    1    2    0    0 +1.3524054571e+00 -1.0080455210e+01 +4.0684096046e+02 4.1002806207e+02 5.0000000000e+01 0.0000e+00 0.0000e+00
</event>
<event>
 5      1 +5.6267200e-07 2.05743400e+02 7.95774700e-02 4.93639200e-01
       13 -1    0    0    0    0 +0.0000000000e+00 +0.0000000000e+00 +4.9999998884e+02 5.0000000000e+02 1.0566000000e-01 0.0000e+00 1.0000e+00
      994 -1    0    0    0    0 -0.0000000000e+00 -0.0000000000e+00 +0.0000000000e+00 1.3100000000e+02 1.3100000000e+02 0.0000e+00 0.0000e+00
       13  1    1    2    0    0 -1.7118558969e+01 -1.7223212347e+01 +6.1903689377e+01 6.6496330931e+01 1.0566000000e-01 0.0000e+00 -1.0000e+00
      994  1    1    2    0    0 -2.6094089712e+00 +3.5882849382e+01 +1.3957788778e+01 1.3656576351e+02 1.3100000000e+02 0.0000e+00 0.0000e+00
      997  1    1    2    0    0 +1.9727967940e+01 -1.8659637035e+01 +4.2413851068e+02 4.2793790556e+02 5.0000000000e+01 0.0000e+00 0.0000e+00
</event>
<event>
 5      1 +5.6267200e-07 1.97960300e+02 7.95774700e-02 5.07804500e-01
       13 -1    0    0    0    0 +0.0000000000e+00 +0.0000000000e+00 +4.9999998884e+02 5.0000000000e+02 1.0566000000e-01 0.0000e+00 1.0000e+00
      994 -1    0    0    0    0 -0.0000000000e+00 -0.0000000000e+00 +0.0000000000e+00 1.3100000000e+02 1.3100000000e+02 0.0000e+00 0.0000e+00
       13  1    1    2    0    0 -1.7752735734e+01 +1.8944724219e+01 +2.6054322330e+01 3.6781803625e+01 1.0566000000e-01 0.0000e+00 -1.0000e+00
      994  1    1    2    0    0 +1.9415047631e+01 -7.0157671277e+00 +1.6211520758e+01 1.3360381158e+02 1.3100000000e+02 0.0000e+00 0.0000e+00
      997  1    1    2    0    0 -1.6623118963e+00 -1.1928957091e+01 +4.5773414575e+02 4.6061438480e+02 5.0000000000e+01 0.0000e+00 0.0000e+00
</event>
<event>
 5      1 +5.6267200e-07 2.00641000e+02 7.95774700e-02 5.02764500e-01
       13 -1    0    0    0    0 +0.0000000000e+00 +0.0000000000e+00 +4.9999998884e+02 5.0000000000e+02 1.0566000000e-01 0.0000e+00 -1.0000e+00
      994 -1    0    0    0    0 -0.0000000000e+00 -0.0000000000e+00 +0.0000000000e+00 1.3100000000e+02 1.3100000000e+02 0.0000e+00 0.0000e+00
       13  1    1    2    0    0 -1.9129456238e+01 +3.9821710162e+01 +2.2799182050e+02 2.3223261200e+02 1.0566000000e-01 0.0000e+00 1.0000e+00
      994  1    1    2    0    0 -1.5001228299e+01 -2.2833774632e+01 +1.5556101040e+01 1.3471974760e+02 1.3100000000e+02 0.0000e+00 0.0000e+00
      997  1    1    2    0    0 +3.4130684537e+01 -1.6987935530e+01 +2.5645206729e+02 2.6404764040e+02 5.0000000000e+01 0.0000e+00 0.0000e+00
</event>
<event>
 5      1 +5.6267200e-07 2.08002100e+02 7.95774700e-02 4.89782400e-01
       13 -1    0    0    0    0 +0.0000000000e+00 +0.0000000000e+00 +4.9999998884e+02 5.0000000000e+02 1.0566000000e-01 0.0000e+00 1.0000e+00
      994 -1    0    0    0    0 -0.0000000000e+00 -0.0000000000e+00 +0.0000000000e+00 1.3100000000e+02 1.3100000000e+02 0.0000e+00 0.0000e+00
       13  1    1    2    0    0 -5.5729245083e+00 +9.3606252855e+00 +1.8265290969e+01 2.1267600042e+01 1.0566000000e-01 0.0000e+00 -1.0000e+00
      994  1    1    2    0    0 +9.0726859683e+00 -2.1594477298e+01 +8.1299378445e+00 1.3332565758e+02 1.3100000000e+02 0.0000e+00 0.0000e+00
      997  1    1    2    0    0 -3.4997614600e+00 +1.2233852012e+01 +4.7360476002e+02 4.7640674238e+02 5.0000000000e+01 0.0000e+00 0.0000e+00
</event>
<event>
 5      1 +5.6267200e-07 2.06818400e+02 7.95774700e-02 4.91790200e-01
       13 -1    0    0    0    0 +0.0000000000e+00 +0.0000000000e+00 +4.9999998884e+02 5.0000000000e+02 1.0566000000e-01 0.0000e+00 1.0000e+00
      994 -1    0    0    0    0 -0.0000000000e+00 -0.0000000000e+00 +0.0000000000e+00 1.3100000000e+02 1.3100000000e+02 0.0000e+00 0.0000e+00
       13  1    1    2    0    0 +1.3812786077e+01 +3.3111824717e+01 +1.4237118060e+02 1.4682217212e+02 1.0566000000e-01 0.0000e+00 -1.0000e+00
      994  1    1    2    0    0 -1.1480193762e+01 -4.2234357693e+01 +1.6298294550e+01 1.3907613104e+02 1.3100000000e+02 0.0000e+00 0.0000e+00
      997  1    1    2    0    0 -2.3325923156e+00 +9.1225329765e+00 +3.4133051368e+02 3.4510169684e+02 5.0000000000e+01 0.0000e+00 0.0000e+00
</event>
<event>
 5      1 +5.6267200e-07 1.97807700e+02 7.95774700e-02 5.08096800e-01
       13 -1    0    0    0    0 +0.0000000000e+00 +0.0000000000e+00 +4.9999998884e+02 5.0000000000e+02 1.0566000000e-01 0.0000e+00 -1.0000e+00
      994 -1    0    0    0    0 -0.0000000000e+00 -0.0000000000e+00 +0.0000000000e+00 1.3100000000e+02 1.3100000000e+02 0.0000e+00 0.0000e+00
       13  1    1    2    0    0 +2.4857399285e+00 +1.6765458012e+01 -6.7301720367e-01 1.6962417326e+01 1.0566000000e-01 0.0000e+00 1.0000e+00
      994  1    1    2    0    0 +8.1292977592e+00 +4.9652678714e+01 +4.0164204578e+01 1.4596450704e+02 1.3100000000e+02 0.0000e+00 0.0000e+00
      997  1    1    2    0    0 -1.0615037688e+01 -6.6418136727e+01 +4.6050880146e+02 4.6807307564e+02 5.0000000000e+01 0.0000e+00 0.0000e+00
</event>
<event>
 5      1 +5.6267200e-07 2.04618800e+02 7.95774700e-02 4.95600100e-01
       13 -1    0    0    0    0 +0.0000000000e+00 +0.0000000000e+00 +4.9999998884e+02 5.0000000000e+02 1.0566000000e-01 0.0000e+00 1.0000e+00
      994 -1    0    0    0    0 -0.0000000000e+00 -0.0000000000e+00 +0.0000000000e+00 1.3100000000e+02 1.3100000000e+02 0.0000e+00 0.0000e+00
       13  1    1    2    0    0 +2.1223992841e+01 -5.9909016167e+00 +4.7957378590e+01 5.2785131425e+01 1.0566000000e-01 0.0000e+00 -1.0000e+00
      994  1    1    2    0    0 -7.8491294725e+00 -4.0103458695e+00 +8.5220192274e+00 1.3157247630e+02 1.3100000000e+02 0.0000e+00 0.0000e+00
      997  1    1    2    0    0 -1.3374863369e+01 +1.0001247486e+01 +4.4352059102e+02 4.4664239228e+02 5.0000000000e+01 0.0000e+00 0.0000e+00
</event>
<event>
 5      1 +5.6267200e-07 1.95960600e+02 7.95774700e-02 5.11681800e-01
       13 -1    0    0    0    0 +0.0000000000e+00 +0.0000000000e+00 +4.9999998884e+02 5.0000000000e+02 1.0566000000e-01 0.0000e+00 -1.0000e+00
      994 -1    0    0    0    0 -0.0000000000e+00 -0.0000000000e+00 +0.0000000000e+00 1.3100000000e+02 1.3100000000e+02 0.0000e+00 0.0000e+00
       13  1    1    2    0    0 +1.4796890580e+01 -2.2054924678e+01 +2.5765414619e+01 3.7003181322e+01 1.0566000000e-01 0.0000e+00 1.0000e+00
      994  1    1    2    0    0 +1.1888156039e+01 +8.0134324778e+00 +1.6797593829e+01 1.3284841931e+02 1.3100000000e+02 0.0000e+00 0.0000e+00
      997  1    1    2    0    0 -2.6685046619e+01 +1.4041492200e+01 +4.5743698039e+02 4.6114839937e+02 5.0000000000e+01 0.0000e+00 0.0000e+00
</event>
<event>
 5      1 +5.6267200e-07 2.06111200e+02 7.95774700e-02 4.93003700e-01
       13 -1    0    0    0    0 +0.0000000000e+00 +0.0000000000e+00 +4.9999998884e+02 5.0000000000e+02 1.0566000000e-01 0.0000e+00 1.0000e+00
      994 -1    0    0    0    0 -0.0000000000e+00 -0.0000000000e+00 +0.0000000000e+00 1.3100000000e+02 1.3100000000e+02 0.0000e+00 0.0000e+00
       13  1    1    2    0    0 +6.6436435375e+00 -1.9002239000e+01 +3.9803369370e+01 4.4604287503e+01 1.0566000000e-01 0.0000e+00 -1.0000e+00
      994  1    1    2    0    0 +1.4871659009e+01 +3.8377119681e+01 +1.5755074565e+01 1.3821429713e+02 1.3100000000e+02 0.0000e+00 0.0000e+00
      997  1    1    2    0    0 -2.1515302546e+01 -1.9374880681e+01 +4.4444154490e+02 4.4818141537e+02 5.0000000000e+01 0.0000e+00 0.0000e+00
</event>
<event>
 5      1 +5.6267200e-07 1.99212600e+02 7.95774700e-02 5.05428000e-01
       13 -1    0    0    0    0 +0.0000000000e+00 +0.0000000000e+00 +4.9999998884e+02 5.0000000000e+02 1.0566000000e-01 0.0000e+00 -1.0000e+00
      994 -1    0    0    0    0 -0.0000000000e+00 -0.0000000000e+00 +0.0000000000e+00 1.3100000000e+02 1.3100000000e+02 0.0000e+00 0.0000e+00
       13  1    1    2    0    0 +2.7463765641e+00 -3.0667272864e+01 +3.5849551868e+01 4.7257017916e+01 1.0566000000e-01 0.0000e+00 1.0000e+00
      994  1    1    2    0    0 +6.9456700841e+00 +4.5670279677e+01 +2.4686228449e+01 1.4108304878e+02 1.3100000000e+02 0.0000e+00 0.0000e+00
      997  1    1    2    0    0 -9.6920466483e+00 -1.5003006813e+01 +4.3946420852e+02 4.4265993330e+02 5.0000000000e+01 0.0000e+00 0.0000e+00
</event>
<event>
 5      1 +5.6267200e-07 2.01065500e+02 7.95774700e-02 5.01982400e-01
       13 -1    0    0    0    0 +0.0000000000e+00 +0.0000000000e+00 +4.9999998884e+02 5.0000000000e+02 1.0566000000e-01 0.0000e+00 -1.0000e+00
      994 -1    0    0    0    0 -0.0000000000e+00 -0.0000000000e+00 +0.0000000000e+00 1.3100000000e+02 1.3100000000e+02 0.0000e+00 0.0000e+00
       13  1    1    2    0    0 -2.5353522321e+01 +1.9641095495e+01 +1.1808501271e+02 1.2236280119e+02 1.0566000000e-01 0.0000e+00 1.0000e+00
      994  1    1    2    0    0 -2.4882863628e+01 -4.1552625422e+00 +1.4574302145e+01 1.3420072054e+02 1.3100000000e+02 0.0000e+00 0.0000e+00
      997  1    1    2    0    0 +5.0236385949e+01 -1.5485832953e+01 +3.6734067399e+02 3.7443647827e+02 5.0000000000e+01 0.0000e+00 0.0000e+00
</event>
<event>
 5      1 +5.6267200e-07 2.06549400e+02 7.95774700e-02 4.92250500e-01
       13 -1    0    0    0    0 +0.0000000000e+00 +0.0000000000e+00 +4.9999998884e+02 5.0000000000e+02 1.0566000000e-01 0.0000e+00 1.0000e+00
      994 -1    0    0    0    0 -0.0000000000e+00 -0.0000000000e+00 +0.0000000000e+00 1.3100000000e+02 1.3100000000e+02 0.0000e+00 0.0000e+00
       13  1    1    2    0    0 -2.8840710176e+01 +4.3787596595e+00 +1.3114929420e+02 1.3435441427e+02 1.0566000000e-01 0.0000e+00 -1.0000e+00
      994  1    1    2    0    0 +3.3339011621e+01 +3.3224308864e+01 +1.8146819042e+01 1.4037681944e+02 1.3100000000e+02 0.0000e+00 0.0000e+00
      997  1    1    2    0    0 -4.4983014456e+00 -3.7603068523e+01 +3.5070387559e+02 3.5626876629e+02 5.0000000000e+01 0.0000e+00 0.0000e+00
</event>
<event>
 5      1 +5.6267200e-07 2.08607200e+02 7.95774700e-02 4.88767300e-01
       13 -1    0    0    0    0 +0.0000000000e+00 +0.0000000000e+00 +4.9999998884e+02 5.0000000000e+02 1.0566000000e-01 0.0000e+00 1.0000e+00
      994 -1    0    0    0    0 -0.0000000000e+00 -0.0000000000e+00 +0.0000000000e+00 1.3100000000e+02 1.3100000000e+02 0.0000e+00 0.0000e+00
       13  1    1    2    0    0 +1.2128614594e+01 -1.0100750849e-01 +3.5696847694e+01 3.7701320850e+01 1.0566000000e-01 0.0000e+00 -1.0000e+00
      994  1    1    2    0    0 -4.8546110591e+00 -4.5386069700e+00 +5.0651289244e+00 1.3126622465e+02 1.3100000000e+02 0.0000e+00 0.0000e+00
      997  1    1    2    0    0 -7.2740035347e+00 +4.6396144785e+00 +4.5923801222e+02 4.6203245450e+02 5.0000000000e+01 0.0000e+00 0.0000e+00
</event>
<event>
 5      1 +5.6267200e-07 2.07805300e+02 7.95774700e-02 4.90114200e-01
       13 -1    0    0    0    0 +0.0000000000e+00 +0.0000000000e+00 +4.9999998884e+02 5.0000000000e+02 1.0566000000e-01 0.0000e+00 1.0000e+00
      994 -1    0    0    0    0 -0.0000000000e+00 -0.0000000000e+00 +0.0000000000e+00 1.3100000000e+02 1.3100000000e+02 0.0000e+00 0.0000e+00
       13  1    1    2    0    0 +2.3321108945e+01 -1.1178314312e+01 +1.1003698473e+02 1.1303529540e+02 1.0566000000e-01 0.0000e+00 -1.0000e+00
      994  1    1    2    0    0 -2.3585025897e+01 +1.9143954672e+01 +1.0222595144e+01 1.3486380500e+02 1.3100000000e+02 0.0000e+00 0.0000e+00
      997  1    1    2    0    0 +2.6391695212e-01 -7.9656403599e+00 +3.7974040896e+02 3.8310089960e+02 5.0000000000e+01 0.0000e+00 0.0000e+00
</event>
<event>
 5      1 +5.6267200e-07 1.96193100e+02 7.95774700e-02 5.11225700e-01
       13 -1    0    0    0    0 +0.0000000000e+00 +0.0000000000e+00 +4.9999998884e+02 5.0000000000e+02 1.0566000000e-01 0.0000e+00 1.0000e+00
      994 -1    0    0    0    0 -0.0000000000e+00 -0.0000000000e+00 +0.0000000000e+00 1.3100000000e+02 1.3100000000e+02 0.0000e+00 0.0000e+00
       13  1    1    2    0    0 -3.2469107870e+01 +1.9138185629e+00 +3.3781454563e+01 4.6894599943e+01 1.0566000000e-01 0.0000e+00 -1.0000e+00
      994  1    1    2    0    0 +3.3348597083e+01 -1.7001158321e+01 +2.3425680505e+01 1.3824229027e+02 1.3100000000e+02 0.0000e+00 0.0000e+00
      997  1    1    2    0    0 -8.7948921269e-01 +1.5087339758e+01 +4.4279285377e+02 4.4586310979e+02 5.0000000000e+01 0.0000e+00 0.0000e+00
</event>
<event>
 5      1 +5.6267200e-07 2.03915700e+02 7.95774700e-02 4.96840300e-01
       13 -1    0    0    0    0 +0.0000000000e+00 +0.0000000000e+00 +4.9999998884e+02 5.0000000000e+02 1.0566000000e-01 0.0000e+00 -1.0000e+00
      994 -1    0    0    0    0 -0.0000000000e+00 -0.0000000000e+00 +0.0000000000e+00 1.3100000000e+02 1.3100000000e+02 0.0000e+00 0.0000e+00
       13  1    1    2    0    0 +4.6323298950e+01 +3.8722533199e+01 +1.4213273826e+02 1.5442476826e+02 1.0566000000e-01 0.0000e+00 1.0000e+00
      994  1    1    2    0    0 -5.3552180943e+01 -7.5396458812e+01 +5.8380186428e+01 1.7065083725e+02 1.3100000000e+02 0.0000e+00 0.0000e+00
      997  1    1    2    0    0 +7.2288819929e+00 +3.6673925612e+01 +2.9948706414e+02 3.0592439449e+02 5.0000000000e+01 0.0000e+00 0.0000e+00
</event>
<event>
 5      1 +5.6267200e-07 2.08482700e+02 7.95774700e-02 4.88975400e-01
       13 -1    0    0    0    0 +0.0000000000e+00 +0.0000000000e+00 +4.9999998884e+02 5.0000000000e+02 1.0566000000e-01 0.0000e+00 1.0000e+00
      994 -1    0    0    0    0 -0.0000000000e+00 -0.0000000000e+00 +0.0000000000e+00 1.3100000000e+02 1.3100000000e+02 0.0000e+00 0.0000e+00
       13  1    1    2    0    0 -4.7460267621e-01 +1.5319583579e+01 +9.1609011069e+01 9.2882382408e+01 1.0566000000e-01 0.0000e+00 -1.0000e+00
      994  1    1    2    0    0 +9.3027974390e+00 +4.9581848178e+00 +5.5047707190e+00 1.3153869445e+02 1.3100000000e+02 0.0000e+00 0.0000e+00
      997  1    1    2    0    0 -8.8281947628e+00 -2.0277768397e+01 +4.0288620705e+02 4.0657892314e+02 5.0000000000e+01 0.0000e+00 0.0000e+00
</event>
<event>
 5      1 +5.6267200e-07 2.06332100e+02 7.95774700e-02 4.92623600e-01
       13 -1    0    0    0    0 +0.0000000000e+00 +0.0000000000e+00 +4.9999998884e+02 5.0000000000e+02 1.0566000000e-01 0.0000e+00 1.0000e+00
      994 -1    0    0    0    0 -0.0000000000e+00 -0.0000000000e+00 +0.0000000000e+00 1.3100000000e+02 1.3100000000e+02 0.0000e+00 0.0000e+00
       13  1    1    2    0    0 +2.6489611027e+01 +5.5783323573e+00 +1.4374231763e+02 1.4626921182e+02 1.0566000000e-01 0.0000e+00 -1.0000e+00
      994  1    1    2    0    0 -1.0829129199e+01 +8.6963086872e+00 +7.6901726802e+00 1.3195845778e+02 1.3100000000e+02 0.0000e+00 0.0000e+00
      997  1    1    2    0    0 -1.5660481828e+01 -1.4274641045e+01 +3.4856749853e+02 3.5277233040e+02 5.0000000000e+01 0.0000e+00 0.0000e+00
</event>
<event>
 5      1 +5.6267200e-07 2.07926300e+02 7.95774700e-02 4.89910100e-01
       13 -1    0    0    0    0 +0.0000000000e+00 +0.0000000000e+00 +4.9999998884e+02 5.0000000000e+02 1.0566000000e-01 0.0000e+00 1.0000e+00
      994 -1    0    0    0    0 -0.0000000000e+00 -0.0000000000e+00 +0.0000000000e+00 1.3100000000e+02 1.3100000000e+02 0.0000e+00 0.0000e+00
       13  1    1    2    0    0 -1.3689890146e+01 -6.3641530609e+00 +4.4192336412e+01 4.6699992484e+01 1.0566000000e-01 0.0000e+00 -1.0000e+00
      994  1    1    2    0    0 +1.1688194990e+01 -6.7600446925e+00 +6.3204483581e+00 1.3184559217e+02 1.3100000000e+02 0.0000e+00 0.0000e+00
      997  1    1    2    0    0 +2.0016951557e+00 +1.3124197753e+01 +4.4948720407e+02 4.5245441535e+02 5.0000000000e+01 0.0000e+00 0.0000e+00
</event>
<event>
 5      1 +5.6267200e-07 2.02773200e+02 7.95774700e-02 4.98879100e-01
       13 -1    0    0    0    0 +0.0000000000e+00 +0.0000000000e+00 +4.9999998884e+02 5.0000000000e+02 1.0566000000e-01 0.0000e+00 -1.0000e+00
      994 -1    0    0    0    0 -0.0000000000e+00 -0.0000000000e+00 +0.0000000000e+00 1.3100000000e+02 1.3100000000e+02 0.0000e+00 0.0000e+00
       13  1    1    2    0    0 +1.2502895422e+01 -3.4233031075e+01 +1.3926322643e+02 1.4395304863e+02 1.0566000000e-01 0.0000e+00 1.0000e+00
      994  1    1    2    0    0 -4.3176253528e+01 -1.7337646130e-01 +1.9742492817e+01 1.3933766523e+02 1.3100000000e+02 0.0000e+00 0.0000e+00
      997  1    1    2    0    0 +3.0673358106e+01 +3.4406407537e+01 +3.4099426959e+02 3.4770928614e+02 5.0000000000e+01 0.0000e+00 0.0000e+00
</event>
<event>
 5      1 +5.6267200e-07 1.92866700e+02 7.95774700e-02 5.17890900e-01
       13 -1    0    0    0    0 +0.0000000000e+00 +0.0000000000e+00 +4.9999998884e+02 5.0000000000e+02 1.0566000000e-01 0.0000e+00 1.0000e+00
      994 -1    0    0    0    0 -0.0000000000e+00 -0.0000000000e+00 +0.0000000000e+00 1.3100000000e+02 1.3100000000e+02 0.0000e+00 0.0000e+00
       13  1    1    2    0    0 +4.9699083927e+01 +7.3778081108e+00 +8.6751990590e+01 1.0025143406e+02 1.0566000000e-01 0.0000e+00 -1.0000e+00
      994  1    1    2    0    0 -1.4700050072e+01 -1.0041820943e+01 +2.1108047140e+01 1.3387859909e+02 1.3100000000e+02 0.0000e+00 0.0000e+00
      997  1    1    2    0    0 -3.4999033855e+01 +2.6640128319e+00 +3.9213995111e+02 3.9686996685e+02 5.0000000000e+01 0.0000e+00 0.0000e+00
</event>
<event>
 5      1 +5.6267200e-07 1.62649700e+02 7.95774700e-02 5.96423000e-01
       13 -1    0    0    0    0 +0.0000000000e+00 +0.0000000000e+00 +4.9999998884e+02 5.0000000000e+02 1.0566000000e-01 0.0000e+00 1.0000e+00
      994 -1    0    0    0    0 -0.0000000000e+00 -0.0000000000e+00 +0.0000000000e+00 1.3100000000e+02 1.3100000000e+02 0.0000e+00 0.0000e+00
       13  1    1    2    0    0 -2.5018942790e+01 -5.0552970833e+01 +2.2302399018e+02 2.3004621648e+02 1.0566000000e-01 0.0000e+00 -1.0000e+00
      994  1    1    2    0    0 +6.0617190581e+01 -2.1360953130e+01 +4.8627465996e+01 1.5380625658e+02 1.3100000000e+02 0.0000e+00 0.0000e+00
      997  1    1    2    0    0 -3.5598247791e+01 +7.1913923963e+01 +2.2834853266e+02 2.4714752694e+02 5.0000000000e+01 0.0000e+00 0.0000e+00
</event>
<event>
 5      1 +5.6267200e-07 2.05550000e+02 7.95774700e-02 4.93974400e-01
       13 -1    0    0    0    0 +0.0000000000e+00 +0.0000000000e+00 +4.9999998884e+02 5.0000000000e+02 1.0566000000e-01 0.0000e+00 -1.0000e+00
      994 -1    0    0    0    0 -0.0000000000e+00 -0.0000000000e+00 +0.0000000000e+00 1.3100000000e+02 1.3100000000e+02 0.0000e+00 0.0000e+00
       13  1    1    2    0    0 -3.1427297112e+01 -1.1444099761e+01 +1.1513501973e+02 1.1989464690e+02 1.0566000000e-01 0.0000e+00 1.0000e+00
      994  1    1    2    0    0 +3.3066830811e+01 -1.2842124954e+00 +1.3071954728e+01 1.3574586735e+02 1.3100000000e+02 0.0000e+00 0.0000e+00
      997  1    1    2    0    0 -1.6395336983e+00 +1.2728312256e+01 +3.7179301438e+02 3.7535948576e+02 5.0000000000e+01 0.0000e+00 0.0000e+00
</event>
<event>
 5      1 +5.6267200e-07 1.99425700e+02 7.95774700e-02 5.05027400e-01
       13 -1    0    0    0    0 +0.0000000000e+00 +0.0000000000e+00 +4.9999998884e+02 5.0000000000e+02 1.0566000000e-01 0.0000e+00 -1.0000e+00
      994 -1    0    0    0    0 -0.0000000000e+00 -0.0000000000e+00 +0.0000000000e+00 1.3100000000e+02 1.3100000000e+02 0.0000e+00 0.0000e+00
       13  1    1    2    0    0 +2.0852456452e+01 -1.6791287122e+01 +3.1463627122e+01 4.1312749352e+01 1.0566000000e-01 0.0000e+00 1.0000e+00
      994  1    1    2    0    0 -4.2023513587e+01 -1.4544287342e+01 +2.3581114470e+01 1.4033738258e+02 1.3100000000e+02 0.0000e+00 0.0000e+00
      997  1    1    2    0    0 +2.1171057135e+01 +3.1335574464e+01 +4.4495524724e+02 4.4934986807e+02 5.0000000000e+01 0.0000e+00 0.0000e+00
</event>
<event>
 5      1 +5.6267200e-07 2.07449100e+02 7.95774700e-02 4.90716700e-01
       13 -1    0    0    0    0 +0.0000000000e+00 +0.0000000000e+00 +4.9999998884e+02 5.0000000000e+02 1.0566000000e-01 0.0000e+00 -1.0000e+00
      994 -1    0    0    0    0 -0.0000000000e+00 -0.0000000000e+00 +0.0000000000e+00 1.3100000000e+02 1.3100000000e+02 0.0000e+00 0.0000e+00
       13  1    1    2    0    0 +1.4587091362e+01 +8.3388441646e+00 +6.7494158106e+01 6.9554238540e+01 1.0566000000e-01 0.0000e+00 1.0000e+00
      994  1    1    2    0    0 -2.0813278426e+01 +3.9121295562e+01 +1.5985153594e+01 1.3921276328e+02 1.3100000000e+02 0.0000e+00 0.0000e+00
      997  1    1    2    0    0 +6.2261870635e+00 -4.7460139726e+01 +4.1652067714e+02 4.2223299818e+02 5.0000000000e+01 0.0000e+00 0.0000e+00
</event>
<event>
 5      1 +5.6267200e-07 2.04329500e+02 7.95774700e-02 4.96109100e-01
       13 -1    0    0    0    0 +0.0000000000e+00 +0.0000000000e+00 +4.9999998884e+02 5.0000000000e+02 1.0566000000e-01 0.0000e+00 1.0000e+00
      994 -1    0    0    0    0 -0.0000000000e+00 -0.0000000000e+00 +0.0000000000e+00 1.3100000000e+02 1.3100000000e+02 0.0000e+00 0.0000e+00
       13  1    1    2    0    0 +1.5416541476e+01 +6.2220423119e+00 +2.3605942742e+01 2.8872742481e+01 1.0566000000e-01 0.0000e+00 -1.0000e+00
      994  1    1    2    0    0 -6.7152134344e+00 +6.6389922040e+00 +8.8249545736e+00 1.3163605180e+02 1.3100000000e+02 0.0000e+00 0.0000e+00
      997  1    1    2    0    0 -8.7013280412e+00 -1.2861034516e+01 +4.6756909152e+02 4.7049120572e+02 5.0000000000e+01 0.0000e+00 0.0000e+00
</event>
<event>
 5      1 +5.6267200e-07 2.05376900e+02 7.95774700e-02 4.94275100e-01
       13 -1    0    0    0    0 +0.0000000000e+00 +0.0000000000e+00 +4.9999998884e+02 5.0000000000e+02 1.0566000000e-01 0.0000e+00 1.0000e+00
      994 -1    0    0    0    0 -0.0000000000e+00 -0.0000000000e+00 +0.0000000000e+00 1.3100000000e+02 1.3100000000e+02 0.0000e+00 0.0000e+00
       13  1    1    2    0    0 +3.1723754328e+00 -1.2485766490e+01 +1.1846092816e+01 1.7501411650e+01 1.0566000000e-01 0.0000e+00 -1.0000e+00
      994  1    1    2    0    0 -1.2037986079e+01 +3.9880286630e+01 +1.6639817306e+01 1.3846744704e+02 1.3100000000e+02 0.0000e+00 0.0000e+00
      997  1    1    2    0    0 +8.8656106463e+00 -2.7394520141e+01 +4.7151407871e+02 4.7503114131e+02 5.0000000000e+01 0.0000e+00 0.0000e+00
</event>
<event>
 5      1 +5.6267200e-07 2.06333900e+02 7.95774700e-02 4.92620400e-01
       13 -1    0    0    0    0 +0.0000000000e+00 +0.0000000000e+00 +4.9999998884e+02 5.0000000000e+02 1.0566000000e-01 0.0000e+00 1.0000e+00
      994 -1    0    0    0    0 -0.0000000000e+00 -0.0000000000e+00 +0.0000000000e+00 1.3100000000e+02 1.3100000000e+02 0.0000e+00 0.0000e+00
       13  1    1    2    0    0 -1.0437533303e+01 +1.6521030294e+01 +3.0905905297e+01 3.6566004563e+01 1.0566000000e-01 0.0000e+00 -1.0000e+00
      994  1    1    2    0    0 -7.8711687123e+00 -7.1253452510e+01 +3.4609028779e+01 1.5328990399e+02 1.3100000000e+02 0.0000e+00 0.0000e+00
      997  1    1    2    0    0 +1.8308702015e+01 +5.4732422215e+01 +4.3448505476e+02 4.4114409145e+02 5.0000000000e+01 0.0000e+00 0.0000e+00
</event>
<event>
 5      1 +5.6267200e-07 2.05948300e+02 7.95774700e-02 4.93284800e-01
       13 -1    0    0    0    0 +0.0000000000e+00 +0.0000000000e+00 +4.9999998884e+02 5.0000000000e+02 1.0566000000e-01 0.0000e+00 1.0000e+00
      994 -1    0    0    0    0 -0.0000000000e+00 -0.0000000000e+00 +0.0000000000e+00 1.3100000000e+02 1.3100000000e+02 0.0000e+00 0.0000e+00
       13  1    1    2    0    0 -1.1300842444e+01 -2.9773153434e+01 +1.0353003164e+02 1.0831725773e+02 1.0566000000e-01 0.0000e+00 -1.0000e+00
      994  1    1    2    0    0 +6.1045583288e+00 +3.3585193143e+01 +1.3093857496e+01 1.3600617609e+02 1.3100000000e+02 0.0000e+00 0.0000e+00
      997  1    1    2    0    0 +5.1962841152e+00 -3.8120397095e+00 +3.8337609970e+02 3.8667656618e+02 5.0000000000e+01 0.0000e+00 0.0000e+00
</event>
<event>
 5      1 +5.6267200e-07 2.09617000e+02 7.95774700e-02 4.87089700e-01
       13 -1    0    0    0    0 +0.0000000000e+00 +0.0000000000e+00 +4.9999998884e+02 5.0000000000e+02 1.0566000000e-01 0.0000e+00 -1.0000e+00
      994 -1    0    0    0    0 -0.0000000000e+00 -0.0000000000e+00 +0.0000000000e+00 1.3100000000e+02 1.3100000000e+02 0.0000e+00 0.0000e+00
       13  1    1    2    0    0 +1.0668814732e+01 +6.0289148998e+00 +4.3297796031e+01 4.4998685845e+01 1.0566000000e-01 0.0000e+00 1.0000e+00
      994  1    1    2    0    0 -2.3895857988e+01 -1.1322236084e+01 +7.5553512802e+00 1.3385547576e+02 1.3100000000e+02 0.0000e+00 0.0000e+00
      997  1    1    2    0    0 +1.3227043256e+01 +5.2933211840e+00 +4.4914684152e+02 4.5214583839e+02 5.0000000000e+01 0.0000e+00 0.0000e+00
</event>
<event>
 5      1 +5.6267200e-07 2.00638400e+02 7.95774700e-02 5.02769400e-01
       13 -1    0    0    0    0 +0.0000000000e+00 +0.0000000000e+00 +4.9999998884e+02 5.0000000000e+02 1.0566000000e-01 0.0000e+00 1.0000e+00
      994 -1    0    0    0    0 -0.0000000000e+00 -0.0000000000e+00 +0.0000000000e+00 1.3100000000e+02 1.3100000000e+02 0.0000e+00 0.0000e+00
       13  1    1    2    0    0 +5.5054096248e+01 -1.5148977728e+01 +2.8477013537e+02 2.9043843789e+02 1.0566000000e-01 0.0000e+00 -1.0000e+00
      994  1    1    2    0    0 -3.7469997201e+01 +3.6946427391e+01 +2.6911262358e+01 1.4371588370e+02 1.3100000000e+02 0.0000e+00 0.0000e+00
      997  1    1    2    0    0 -1.7584099047e+01 -2.1797449663e+01 +1.8831859111e+02 1.9684567841e+02 5.0000000000e+01 0.0000e+00 0.0000e+00
</event>
<event>
 5      1 +5.6267200e-07 2.10020600e+02 7.95774700e-02 4.86425000e-01
       13 -1    0    0    0    0 +0.0000000000e+00 +0.0000000000e+00 +4.9999998884e+02 5.0000000000e+02 1.0566000000e-01 0.0000e+00 1.0000e+00
      994 -1    0    0    0    0 -0.0000000000e+00 -0.0000000000e+00 +0.0000000000e+00 1.3100000000e+02 1.3100000000e+02 0.0000e+00 0.0000e+00
       13  1    1    2    0    0 +1.5284597324e+01 -2.5466036354e+00 +8.6998602335e+01 8.8367822637e+01 1.0566000000e-01 0.0000e+00 -1.0000e+00
      994  1    1    2    0    0 -3.3587083899e+01 +2.0880505245e+01 +1.1633617088e+01 1.3733327620e+02 1.3100000000e+02 0.0000e+00 0.0000e+00
      997  1    1    2    0    0 +1.8302486575e+01 -1.8333901610e+01 +4.0136776941e+02 4.0529890117e+02 5.0000000000e+01 0.0000e+00 0.0000e+00
</event>
<event>
 5      1 +5.6267200e-07 1.68615800e+02 7.95774700e-02 5.77709600e-01
       13 -1    0    0    0    0 +0.0000000000e+00 +0.0000000000e+00 +4.9999998884e+02 5.0000000000e+02 1.0566000000e-01 0.0000e+00 -1.0000e+00
      994 -1    0    0    0    0 -0.0000000000e+00 -0.0000000000e+00 +0.0000000000e+00 1.3100000000e+02 1.3100000000e+02 0.0000e+00 0.0000e+00
       13  1    1    2    0    0 -5.4253704287e+01 +2.8768740735e+00 +2.5169602733e+02 2.5749299441e+02 1.0566000000e-01 0.0000e+00 1.0000e+00
      994  1    1    2    0    0 -2.0237178123e-01 +1.2712265358e+01 +2.0125916426e+01 1.3314539105e+02 1.3100000000e+02 0.0000e+00 0.0000e+00
      997  1    1    2    0    0 +5.4456076068e+01 -1.5589139431e+01 +2.2817804508e+02 2.4036161454e+02 5.0000000000e+01 0.0000e+00 0.0000e+00
</event>
<event>
 5      1 +5.6267200e-07 2.06427300e+02 7.95774700e-02 4.92459900e-01
       13 -1    0    0    0    0 +0.0000000000e+00 +0.0000000000e+00 +4.9999998884e+02 5.0000000000e+02 1.0566000000e-01 0.0000e+00 1.0000e+00
      994 -1    0    0    0    0 -0.0000000000e+00 -0.0000000000e+00 +0.0000000000e+00 1.3100000000e+02 1.3100000000e+02 0.0000e+00 0.0000e+00
       13  1    1    2    0    0 +1.4545622103e+01 +1.1687640151e+01 +4.7126657772e+01 5.0686379743e+01 1.0566000000e-01 0.0000e+00 -1.0000e+00
      994  1    1    2    0    0 -1.2885932329e+00 -9.7871266702e+00 +7.1192459490e+00 1.3156417439e+02 1.3100000000e+02 0.0000e+00 0.0000e+00
      997  1    1    2    0    0 -1.3257028871e+01 -1.9005134805e+00 +4.4575408512e+02 4.4874944586e+02 5.0000000000e+01 0.0000e+00 0.0000e+00
</event>
<event>
 5      1 +5.6267200e-07 1.95295600e+02 7.95774700e-02 5.12994600e-01
       13 -1    0    0    0    0 +0.0000000000e+00 +0.0000000000e+00 +4.9999998884e+02 5.0000000000e+02 1.0566000000e-01 0.0000e+00 -1.0000e+00
      994 -1    0    0    0    0 -0.0000000000e+00 -0.0000000000e+00 +0.0000000000e+00 1.3100000000e+02 1.3100000000e+02 0.0000e+00 0.0000e+00
       13  1    1    2    0    0 -2.4054694013e+01 -2.6339586984e+01 +4.6327116960e+01 5.8468924023e+01 1.0566000000e-01 0.0000e+00 1.0000e+00
      994  1    1    2    0    0 +2.4297424546e+01 -2.2094528576e+00 +1.9635567418e+01 1.3469150689e+02 1.3100000000e+02 0.0000e+00 0.0000e+00
      997  1    1    2    0    0 -2.4273053281e-01 +2.8549039841e+01 +4.3403730446e+02 4.3783956908e+02 5.0000000000e+01 0.0000e+00 0.0000e+00
</event>
<event>
 5      1 +5.6267200e-07 2.00183600e+02 7.95774700e-02 5.03612000e-01
       13 -1    0    0    0    0 +0.0000000000e+00 +0.0000000000e+00 +4.9999998884e+02 5.0000000000e+02 1.0566000000e-01 0.0000e+00 -1.0000e+00
      994 -1    0    0    0    0 -0.0000000000e+00 -0.0000000000e+00 +0.0000000000e+00 1.3100000000e+02 1.3100000000e+02 0.0000e+00 0.0000e+00
       13  1    1    2    0    0 +4.3886303350e-01 +1.1486122038e+01 +3.4573850394e+00 1.2003677586e+01 1.0566000000e-01 0.0000e+00 1.0000e+00
      994  1    1    2    0    0 +1.5892758679e+01 +4.4532419326e+00 +1.3373435799e+01 1.3271118991e+02 1.3100000000e+02 0.0000e+00 0.0000e+00
      997  1    1    2    0    0 -1.6331621712e+01 -1.5939363971e+01 +4.8316916800e+02 4.8628513250e+02 5.0000000000e+01 0.0000e+00 0.0000e+00
</event>
<event>
 5      1 +5.6267200e-07 2.01043400e+02 7.95774700e-02 5.02023000e-01
       13 -1    0    0    0    0 +0.0000000000e+00 +0.0000000000e+00 +4.9999998884e+02 5.0000000000e+02 1.0566000000e-01 0.0000e+00 -1.0000e+00
      994 -1    0    0    0    0 -0.0000000000e+00 -0.0000000000e+00 +0.0000000000e+00 1.3100000000e+02 1.3100000000e+02 0.0000e+00 0.0000e+00
       13  1    1    2    0    0 -1.3593558159e+00 -3.5903793820e+01 +1.3996487305e+02 1.4450296575e+02 1.0566000000e-01 0.0000e+00 1.0000e+00
      994  1    1    2    0    0 -2.1039083726e+01 -4.7955555215e+00 +1.3665001132e+01 1.3346674737e+02 1.3100000000e+02 0.0000e+00 0.0000e+00
      997  1    1    2    0    0 +2.2398439542e+01 +4.0699349341e+01 +3.4637011466e+02 3.5303028688e+02 5.0000000000e+01 0.0000e+00 0.0000e+00
</event>
<event>
 5      1 +5.6267200e-07 2.03406300e+02 7.95774700e-02 4.97745700e-01
       13 -1    0    0    0    0 +0.0000000000e+00 +0.0000000000e+00 +4.9999998884e+02 5.0000000000e+02 1.0566000000e-01 0.0000e+00 -1.0000e+00
      994 -1    0    0    0    0 -0.0000000000e+00 -0.0000000000e+00 +0.0000000000e+00 1.3100000000e+02 1.3100000000e+02 0.0000e+00 0.0000e+00
       13  1    1    2    0    0 -4.0473646508e+01 -4.9527944586e+00 +1.4886915931e+02 1.5435246675e+02 1.0566000000e-01 0.0000e+00 1.0000e+00
      994  1    1    2    0    0 +3.2795584417e+01 -2.7029794575e+01 +1.8832781583e+01 1.3900299930e+02 1.3100000000e+02 0.0000e+00 0.0000e+00
      997  1    1    2    0    0 +7.6780620912e+00 +3.1982589033e+01 +3.3229804794e+02 3.3764453395e+02 5.0000000000e+01 0.0000e+00 0.0000e+00
</event>
<event>
 5      1 +5.6267200e-07 2.07473700e+02 7.95774700e-02 4.90675100e-01
       13 -1    0    0    0    0 +0.0000000000e+00 +0.0000000000e+00 +4.9999998884e+02 5.0000000000e+02 1.0566000000e-01 0.0000e+00 -1.0000e+00
      994 -1    0    0    0    0 -0.0000000000e+00 -0.0000000000e+00 +0.0000000000e+00 1.3100000000e+02 1.3100000000e+02 0.0000e+00 0.0000e+00
       13  1    1    2    0    0 +2.5553736002e+01 -2.3721168375e+00 +1.0909053715e+02 1.1206862550e+02 1.0566000000e-01 0.0000e+00 1.0000e+00
      994  1    1    2    0    0 -2.3436260485e+01 +1.6439327964e+01 +9.9702788543e+00 1.3446157916e+02 1.3100000000e+02 0.0000e+00 0.0000e+00
      997  1    1    2    0    0 -2.1174755172e+00 -1.4067211127e+01 +3.8093917283e+02 3.8446979534e+02 5.0000000000e+01 0.0000e+00 0.0000e+00
</event>
<event>
 5      1 +5.6267200e-07 2.08823300e+02 7.95774700e-02 4.88406500e-01
       13 -1    0    0    0    0 +0.0000000000e+00 +0.0000000000e+00 +4.9999998884e+02 5.0000000000e+02 1.0566000000e-01 0.0000e+00 1.0000e+00
      994 -1    0    0    0    0 -0.0000000000e+00 -0.0000000000e+00 +0.0000000000e+00 1.3100000000e+02 1.3100000000e+02 0.0000e+00 0.0000e+00
       13  1    1    2    0    0 -8.9714428704e+00 -2.0710859539e+01 +1.3505698376e+02 1.3693000590e+02 1.0566000000e-01 0.0000e+00 -1.0000e+00
      994  1    1    2    0    0 -2.1412897676e+00 +3.3673284659e+01 +1.0468974697e+01 1.3568004515e+02 1.3100000000e+02 0.0000e+00 0.0000e+00
      997  1    1    2    0    0 +1.1112732638e+01 -1.2962425120e+01 +3.5447403038e+02 3.5838994894e+02 5.0000000000e+01 0.0000e+00 0.0000e+00
</event>
<event>
 5      1 +5.6267200e-07 2.16324600e+02 7.95774700e-02 4.76446000e-01
       13 -1    0    0    0    0 +0.0000000000e+00 +0.0000000000e+00 +4.9999998884e+02 5.0000000000e+02 1.0566000000e-01 0.0000e+00 1.0000e+00
      994 -1    0    0    0    0 -0.0000000000e+00 -0.0000000000e+00 +0.0000000000e+00 1.3100000000e+02 1.3100000000e+02 0.0000e+00 0.0000e+00
       13  1    1    2    0    0 +2.7966400750e+01 +1.9585383603e+01 -4.2897894284e+00 3.4411048795e+01 1.0566000000e-01 0.0000e+00 -1.0000e+00
      994  1    1    2    0    0 -3.7098162173e+01 -3.4559311991e+01 +6.6165741957e+01 1.5527242218e+02 1.3100000000e+02 0.0000e+00 0.0000e+00
      997  1    1    2    0    0 +9.1317614230e+00 +1.4973928388e+01 +4.3812403631e+02 4.4131652902e+02 5.0000000000e+01 0.0000e+00 0.0000e+00
</event>
<event>
 5      1 +5.6267200e-07 2.05602900e+02 7.95774700e-02 4.93882500e-01
       13 -1    0    0    0    0 +0.0000000000e+00 +0.0000000000e+00 +4.9999998884e+02 5.0000000000e+02 1.0566000000e-01 0.0000e+00 -1.0000e+00
      994 -1    0    0    0    0 -0.0000000000e+00 -0.0000000000e+00 +0.0000000000e+00 1.3100000000e+02 1.3100000000e+02 0.0000e+00 0.0000e+00
       13  1    1    2    0    0 -8.8617265848e+00 +7.5794263166e+00 +1.3709171802e+01 1.7998068143e+01 1.0566000000e-01 0.0000e+00 1.0000e+00
      994  1    1    2    0    0 -4.3990249818e+00 -1.1617601025e+00 +7.4053692564e+00 1.3128800631e+02 1.3100000000e+02 0.0000e+00 0.0000e+00
      997  1    1    2    0    0 +1.3260751567e+01 -6.4176662141e+00 +4.7888544778e+02 4.8171392555e+02 5.0000000000e+01 0.0000e+00 0.0000e+00
</event>
<event>
 5      1 +5.6267200e-07 2.22270900e+02 7.95774700e-02 4.67676600e-01
       13 -1    0    0    0    0 +0.0000000000e+00 +0.0000000000e+00 +4.9999998884e+02 5.0000000000e+02 1.0566000000e-01 0.0000e+00 1.0000e+00
      994 -1    0    0    0    0 -0.0000000000e+00 -0.0000000000e+00 +0.0000000000e+00 1.3100000000e+02 1.3100000000e+02 0.0000e+00 0.0000e+00
       13  1    1    2    0    0 +6.3093559364e+00 -2.3442329230e+01 -1.2025561136e+01 2.7091992484e+01 1.0566000000e-01 0.0000e+00 -1.0000e+00
      994  1    1    2    0    0 +9.3235414318e+00 -6.2486763904e+00 +5.4320980870e+01 1.4225942269e+02 1.3100000000e+02 0.0000e+00 0.0000e+00
      997  1    1    2    0    0 -1.5632897368e+01 +2.9691005621e+01 +4.5770456910e+02 4.6164858483e+02 5.0000000000e+01 0.0000e+00 0.0000e+00
</event>
<event>
 5      1 +5.6267200e-07 2.06829800e+02 7.95774700e-02 4.91770600e-01
       13 -1    0    0    0    0 +0.0000000000e+00 +0.0000000000e+00 +4.9999998884e+02 5.0000000000e+02 1.0566000000e-01 0.0000e+00 -1.0000e+00
      994 -1    0    0    0    0 -0.0000000000e+00 -0.0000000000e+00 +0.0000000000e+00 1.3100000000e+02 1.3100000000e+02 0.0000e+00 0.0000e+00
       13  1    1    2    0    0 +1.8280002080e+01 -1.4693486354e-01 +4.6546181299e+01 5.0007381689e+01 1.0566000000e-01 0.0000e+00 1.0000e+00
      994  1    1    2    0    0 -1.2166598167e+01 +4.9500532783e+00 +7.1727795036e+00 1.3185210618e+02 1.3100000000e+02 0.0000e+00 0.0000e+00
      997  1    1    2    0    0 -6.1134039127e+00 -4.8031184148e+00 +4.4628102803e+02 4.4914051213e+02 5.0000000000e+01 0.0000e+00 0.0000e+00
</event>
<event>
 5      1 +5.6267200e-07 1.95397100e+02 7.95774700e-02 5.12793500e-01
       13 -1    0    0    0    0 +0.0000000000e+00 +0.0000000000e+00 +4.9999998884e+02 5.0000000000e+02 1.0566000000e-01 0.0000e+00 -1.0000e+00
      994 -1    0    0    0    0 -0.0000000000e+00 -0.0000000000e+00 +0.0000000000e+00 1.3100000000e+02 1.3100000000e+02 0.0000e+00 0.0000e+00
       13  1    1    2    0    0 +2.8823569874e+01 +1.6364203246e+01 +2.7194147534e+01 4.2873280167e+01 1.0566000000e-01 0.0000e+00 1.0000e+00
      994  1    1    2    0    0 +7.3072766084e+00 -5.9827967588e+00 +2.2204287973e+01 1.3320368070e+02 1.3100000000e+02 0.0000e+00 0.0000e+00
      997  1    1    2    0    0 -3.6130846483e+01 -1.0381406487e+01 +4.5060155333e+02 4.5492303913e+02 5.0000000000e+01 0.0000e+00 0.0000e+00
</event>
<event>
 5      1 +5.6267200e-07 2.00712700e+02 7.95774700e-02 5.02632100e-01
       13 -1    0    0    0    0 +0.0000000000e+00 +0.0000000000e+00 +4.9999998884e+02 5.0000000000e+02 1.0566000000e-01 0.0000e+00 1.0000e+00
      994 -1    0    0    0    0 -0.0000000000e+00 -0.0000000000e+00 +0.0000000000e+00 1.3100000000e+02 1.3100000000e+02 0.0000e+00 0.0000e+00
       13  1    1    2    0    0 -1.2564725422e+01 -5.7773533717e+00 +7.7345670595e+00 1.5845656457e+01 1.0566000000e-01 0.0000e+00 -1.0000e+00
      994  1    1    2    0    0 +5.7253253220e-01 -4.3094776442e+00 +1.1537164002e+01 1.3157889475e+02 1.3100000000e+02 0.0000e+00 0.0000e+00
      997  1    1    2    0    0 +1.1992192890e+01 +1.0086831016e+01 +4.8072825777e+02 4.8357544879e+02 5.0000000000e+01 0.0000e+00 0.0000e+00
</event>
<event>
 5      1 +5.6267200e-07 1.98674300e+02 7.95774700e-02 5.06444800e-01
       13 -1    0    0    0    0 +0.0000000000e+00 +0.0000000000e+00 +4.9999998884e+02 5.0000000000e+02 1.0566000000e-01 0.0000e+00 1.0000e+00
      994 -1    0    0    0    0 -0.0000000000e+00 -0.0000000000e+00 +0.0000000000e+00 1.3100000000e+02 1.3100000000e+02 0.0000e+00 0.0000e+00
       13  1    1    2    0    0 -2.1872289978e+01 -9.9802655737e+00 +2.1214084478e+01 3.2063239295e+01 1.0566000000e-01 0.0000e+00 -1.0000e+00
      994  1    1    2    0    0 +1.3992940898e+01 +3.9850031895e+01 +2.3207628433e+01 1.3958302710e+02 1.3100000000e+02 0.0000e+00 0.0000e+00
      997  1    1    2    0    0 +7.8793490800e+00 -2.9869766321e+01 +4.5557827592e+02 4.5935373360e+02 5.0000000000e+01 0.0000e+00 0.0000e+00
</event>
<event>
 5      1 +5.6267200e-07 2.09874700e+02 7.95774700e-02 4.86664900e-01
       13 -1    0    0    0    0 +0.0000000000e+00 +0.0000000000e+00 +4.9999998884e+02 5.0000000000e+02 1.0566000000e-01 0.0000e+00 1.0000e+00
      994 -1    0    0    0    0 -0.0000000000e+00 -0.0000000000e+00 +0.0000000000e+00 1.3100000000e+02 1.3100000000e+02 0.0000e+00 0.0000e+00
       13  1    1    2    0    0 -1.1923404258e+01 +2.5951743544e+00 +4.8821625718e+01 5.0323600833e+01 1.0566000000e-01 0.0000e+00 -1.0000e+00
      994  1    1    2    0    0 +2.8268292053e+01 -2.8873213752e+00 +7.8907526558e+00 1.3427843065e+02 1.3100000000e+02 0.0000e+00 0.0000e+00
      997  1    1    2    0    0 -1.6344887795e+01 +2.9214702077e-01 +4.4328761046e+02 4.4639796852e+02 5.0000000000e+01 0.0000e+00 0.0000e+00
</event>
<event>
 5      1 +5.6267200e-07 2.07021300e+02 7.95774700e-02 4.91443900e-01
       13 -1    0    0    0    0 +0.0000000000e+00 +0.0000000000e+00 +4.9999998884e+02 5.0000000000e+02 1.0566000000e-01 0.0000e+00 1.0000e+00
      994 -1    0    0    0    0 -0.0000000000e+00 -0.0000000000e+00 +0.0000000000e+00 1.3100000000e+02 1.3100000000e+02 0.0000e+00 0.0000e+00
       13  1    1    2    0    0 -1.7695986518e+01 +1.0630845296e+00 +5.1889792167e+01 5.4834658590e+01 1.0566000000e-01 0.0000e+00 -1.0000e+00
      994  1    1    2    0    0 +3.0810440731e+00 -4.0198620620e+00 +6.2621684752e+00 1.3124734998e+02 1.3100000000e+02 0.0000e+00 0.0000e+00
      997  1    1    2    0    0 +1.4614942445e+01 +2.9567775324e+00 +4.4184802819e+02 4.4491799143e+02 5.0000000000e+01 0.0000e+00 0.0000e+00
</event>
<event>
 5      1 +5.6267200e-07 1.95813200e+02 7.95774700e-02 5.11971900e-01
       13 -1    0    0    0    0 +0.0000000000e+00 +0.0000000000e+00 +4.9999998884e+02 5.0000000000e+02 1.0566000000e-01 0.0000e+00 -1.0000e+00
      994 -1    0    0    0    0 -0.0000000000e+00 -0.0000000000e+00 +0.0000000000e+00 1.3100000000e+02 1.3100000000e+02 0.0000e+00 0.0000e+00
       13  1    1    2    0    0 -4.1119297752e+01 -4.2569892442e+01 +1.6255650547e+02 1.7299601447e+02 1.0566000000e-01 0.0000e+00 1.0000e+00
      994  1    1    2    0    0 +4.3575925211e+01 -3.3795006088e+01 +4.1166032214e+01 1.4797501783e+02 1.3100000000e+02 0.0000e+00 0.0000e+00
      997  1    1    2    0    0 -2.4566274586e+00 +7.6364898530e+01 +2.9627745116e+02 3.1002896769e+02 5.0000000000e+01 0.0000e+00 0.0000e+00
</event>
<event>
 5      1 +5.6267200e-07 1.69205300e+02 7.95774700e-02 5.75964600e-01
       13 -1    0    0    0    0 +0.0000000000e+00 +0.0000000000e+00 +4.9999998884e+02 5.0000000000e+02 1.0566000000e-01 0.0000e+00 1.0000e+00
      994 -1    0    0    0    0 -0.0000000000e+00 -0.0000000000e+00 +0.0000000000e+00 1.3100000000e+02 1.3100000000e+02 0.0000e+00 0.0000e+00
       13  1    1    2    0    0 +7.5791893333e+01 +6.9893378985e+01 +1.5800785734e+02 1.8866899498e+02 1.0566000000e-01 0.0000e+00 -1.0000e+00
      994  1    1    2    0    0 -3.8140380561e+01 -9.0767096186e+01 +1.0106309353e+02 1.9253078521e+02 1.3100000000e+02 0.0000e+00 0.0000e+00
      997  1    1    2    0    0 -3.7651512772e+01 +2.0873717201e+01 +2.4092903796e+02 2.4980021981e+02 5.0000000000e+01 0.0000e+00 0.0000e+00
</event>
<event>
 5      1 +5.6267200e-07 2.02359700e+02 7.95774700e-02 4.99624300e-01
       13 -1    0    0    0    0 +0.0000000000e+00 +0.0000000000e+00 +4.9999998884e+02 5.0000000000e+02 1.0566000000e-01 0.0000e+00 1.0000e+00
      994 -1    0    0    0    0 -0.0000000000e+00 -0.0000000000e+00 +0.0000000000e+00 1.3100000000e+02 1.3100000000e+02 0.0000e+00 0.0000e+00
       13  1    1    2    0    0 -2.3979937959e+01 +2.5541519480e+01 +1.3993755995e+02 1.4425650242e+02 1.0566000000e-01 0.0000e+00 -1.0000e+00
      994  1    1    2    0    0 +9.3490043822e+00 +8.4274489765e+00 +1.0865080344e+01 1.3205103464e+02 1.3100000000e+02 0.0000e+00 0.0000e+00
      997  1    1    2    0    0 +1.4630933577e+01 -3.3968968457e+01 +3.4919734855e+02 3.5469246294e+02 5.0000000000e+01 0.0000e+00 0.0000e+00
</event>
<event>
 5      1 +5.6267200e-07 2.05806300e+02 7.95774700e-02 4.93530300e-01
       13 -1    0    0    0    0 +0.0000000000e+00 +0.0000000000e+00 +4.9999998884e+02 5.0000000000e+02 1.0566000000e-01 0.0000e+00 1.0000e+00
      994 -1    0    0    0    0 -0.0000000000e+00 -0.0000000000e+00 +0.0000000000e+00 1.3100000000e+02 1.3100000000e+02 0.0000e+00 0.0000e+00
       13  1    1    2    0    0 +1.6517791943e+01 +1.8285271539e+01 +7.7147177132e+01 8.0986953946e+01 1.0566000000e-01 0.0000e+00 -1.0000e+00
      994  1    1    2    0    0 -1.4280702253e+01 -2.1699732024e+00 +8.2097200516e+00 1.3204941024e+02 1.3100000000e+02 0.0000e+00 0.0000e+00
      997  1    1    2    0    0 -2.2370896902e+00 -1.6115298336e+01 +4.1464309165e+02 4.1796363582e+02 5.0000000000e+01 0.0000e+00 0.0000e+00
</event>
<event>
 5      1 +5.6267200e-07 2.08772100e+02 7.95774700e-02 4.88491800e-01
       13 -1    0    0    0    0 +0.0000000000e+00 +0.0000000000e+00 +4.9999998884e+02 5.0000000000e+02 1.0566000000e-01 0.0000e+00 1.0000e+00
      994 -1    0    0    0    0 -0.0000000000e+00 -0.0000000000e+00 +0.0000000000e+00 1.3100000000e+02 1.3100000000e+02 0.0000e+00 0.0000e+00
       13  1    1    2    0    0 +9.6921924588e+00 -7.2963796057e+00 +4.3430236368e+01 4.5092930100e+01 1.0566000000e-01 0.0000e+00 -1.0000e+00
      994  1    1    2    0    0 -2.1796364050e+00 -5.3291511901e+00 +4.8761326484e+00 1.3121710002e+02 1.3100000000e+02 0.0000e+00 0.0000e+00
      997  1    1    2    0    0 -7.5125560538e+00 +1.2625530796e+01 +4.5169361982e+02 4.5468996988e+02 5.0000000000e+01 0.0000e+00 0.0000e+00
</event>
<event>
 5      1 +5.6267200e-07 2.03196100e+02 7.95774700e-02 4.98120900e-01
       13 -1    0    0    0    0 +0.0000000000e+00 +0.0000000000e+00 +4.9999998884e+02 5.0000000000e+02 1.0566000000e-01 0.0000e+00 -1.0000e+00
      994 -1    0    0    0    0 -0.0000000000e+00 -0.0000000000e+00 +0.0000000000e+00 1.3100000000e+02 1.3100000000e+02 0.0000e+00 0.0000e+00
       13  1    1    2    0    0 -3.6213513229e+01 +6.6181254424e+00 +1.6070133273e+02 1.6486402770e+02 1.0566000000e-01 0.0000e+00 1.0000e+00
      994  1    1    2    0    0 +8.3798816895e+00 -5.9144917974e+00 +9.8676543663e+00 1.3177091573e+02 1.3100000000e+02 0.0000e+00 0.0000e+00
      997  1    1    2    0    0 +2.7833631539e+01 -7.0363364503e-01 +3.2943100174e+02 3.3436505657e+02 5.0000000000e+01 0.0000e+00 0.0000e+00
</event>
<event>
 5      1 +5.6267200e-07 2.02844400e+02 7.95774700e-02 4.98751100e-01
       13 -1    0    0    0    0 +0.0000000000e+00 +0.0000000000e+00 +4.9999998884e+02 5.0000000000e+02 1.0566000000e-01 0.0000e+00 1.0000e+00
      994 -1    0    0    0    0 -0.0000000000e+00 -0.0000000000e+00 +0.0000000000e+00 1.3100000000e+02 1.3100000000e+02 0.0000e+00 0.0000e+00
       13  1    1    2    0    0 +1.1088043612e+00 +1.8235735417e+01 +2.1781223162e+01 2.8428934904e+01 1.0566000000e-01 0.0000e+00 -1.0000e+00
      994  1    1    2    0    0 +1.1810733191e+01 -1.1101286024e+01 +1.1004101653e+01 1.3245686929e+02 1.3100000000e+02 0.0000e+00 0.0000e+00
      997  1    1    2    0    0 -1.2919537553e+01 -7.1344493923e+00 +4.6721466402e+02 4.7011419580e+02 5.0000000000e+01 0.0000e+00 0.0000e+00
</event>
<event>
 5      1 +5.6267200e-07 2.02704500e+02 7.95774700e-02 4.99002700e-01
       13 -1    0    0    0    0 +0.0000000000e+00 +0.0000000000e+00 +4.9999998884e+02 5.0000000000e+02 1.0566000000e-01 0.0000e+00 1.0000e+00
      994 -1    0    0    0    0 -0.0000000000e+00 -0.0000000000e+00 +0.0000000000e+00 1.3100000000e+02 1.3100000000e+02 0.0000e+00 0.0000e+00
       13  1    1    2    0    0 +3.0911987614e+01 -1.2115409036e+01 +1.1055789994e+01 3.4993939058e+01 1.0566000000e-01 0.0000e+00 -1.0000e+00
      994  1    1    2    0    0 -3.3097921036e+01 -2.6045589404e+01 +4.0886644351e+01 1.4354986169e+02 1.3100000000e+02 0.0000e+00 0.0000e+00
      997  1    1    2    0    0 +2.1859334214e+00 +3.8160998440e+01 +4.4805755449e+02 4.5245619925e+02 5.0000000000e+01 0.0000e+00 0.0000e+00
</event>
<event>
 5      1 +5.6267200e-07 2.09439400e+02 7.95774700e-02 4.87383300e-01
       13 -1    0    0    0    0 +0.0000000000e+00 +0.0000000000e+00 +4.9999998884e+02 5.0000000000e+02 1.0566000000e-01 0.0000e+00 1.0000e+00
      994 -1    0    0    0    0 -0.0000000000e+00 -0.0000000000e+00 +0.0000000000e+00 1.3100000000e+02 1.3100000000e+02 0.0000e+00 0.0000e+00
       13  1    1    2    0    0 +2.4877637843e+00 -1.0557801345e+01 +6.3995013521e+01 6.4907850507e+01 1.0566000000e-01 0.0000e+00 -1.0000e+00
      994  1    1    2    0    0 +3.1285281411e+01 +6.4011310672e+00 +9.3369685242e+00 1.3515887797e+02 1.3100000000e+02 0.0000e+00 0.0000e+00
      997  1    1    2    0    0 -3.3773045196e+01 +4.1566702775e+00 +4.2666800679e+02 4.3093327153e+02 5.0000000000e+01 0.0000e+00 0.0000e+00
</event>
<event>
 5      1 +5.6267200e-07 2.08332700e+02 7.95774700e-02 4.89226800e-01
       13 -1    0    0    0    0 +0.0000000000e+00 +0.0000000000e+00 +4.9999998884e+02 5.0000000000e+02 1.0566000000e-01 0.0000e+00 1.0000e+00
      994 -1    0    0    0    0 -0.0000000000e+00 -0.0000000000e+00 +0.0000000000e+00 1.3100000000e+02 1.3100000000e+02 0.0000e+00 0.0000e+00
       13  1    1    2    0    0 +9.6941616551e-01 -1.3023169505e+01 +3.1563448079e+01 3.4158529394e+01 1.0566000000e-01 0.0000e+00 -1.0000e+00
      994  1    1    2    0    0 +3.6448190015e+00 +1.8872844801e+01 +6.9399685390e+00 1.3258443400e+02 1.3100000000e+02 0.0000e+00 0.0000e+00
      997  1    1    2    0    0 -4.6142351670e+00 -5.8496752957e+00 +4.6149657222e+02 4.6425703660e+02 5.0000000000e+01 0.0000e+00 0.0000e+00
</event>
<event>
 5      1 +5.6267200e-07 2.01347400e+02 7.95774700e-02 5.01465500e-01
       13 -1    0    0    0    0 +0.0000000000e+00 +0.0000000000e+00 +4.9999998884e+02 5.0000000000e+02 1.0566000000e-01 0.0000e+00 1.0000e+00
      994 -1    0    0    0    0 -0.0000000000e+00 -0.0000000000e+00 +0.0000000000e+00 1.3100000000e+02 1.3100000000e+02 0.0000e+00 0.0000e+00
       13  1    1    2    0    0 -7.2871910716e+00 +1.3203186160e+01 -5.9383546177e+00 1.6208099768e+01 1.0566000000e-01 0.0000e+00 -1.0000e+00
      994  1    1    2    0    0 +2.7737050882e+01 +1.6576442293e+01 +3.4408798247e+01 1.3924470485e+02 1.3100000000e+02 0.0000e+00 0.0000e+00
      997  1    1    2    0    0 -2.0449859811e+01 -2.9779628453e+01 +4.7152954521e+02 4.7554719539e+02 5.0000000000e+01 0.0000e+00 0.0000e+00
</event>
<event>
 5      1 +5.6267200e-07 2.10201700e+02 7.95774700e-02 4.86127800e-01
       13 -1    0    0    0    0 +0.0000000000e+00 +0.0000000000e+00 +4.9999998884e+02 5.0000000000e+02 1.0566000000e-01 0.0000e+00 -1.0000e+00
      994 -1    0    0    0    0 -0.0000000000e+00 -0.0000000000e+00 +0.0000000000e+00 1.3100000000e+02 1.3100000000e+02 0.0000e+00 0.0000e+00
       13  1    1    2    0    0 -1.2792399388e+01 -4.7282010765e-01 +6.6091079499e+01 6.7319469653e+01 1.0566000000e-01 0.0000e+00 1.0000e+00
      994  1    1    2    0    0 +3.2462517881e+01 -3.0722472356e+00 +8.9174649271e+00 1.3529144449e+02 1.3100000000e+02 0.0000e+00 0.0000e+00
      997  1    1    2    0    0 -1.9670118493e+01 +3.5450673433e+00 +4.2499144441e+02 4.2838908586e+02 5.0000000000e+01 0.0000e+00 0.0000e+00
</event>
<event>
 5      1 +5.6267200e-07 2.09267400e+02 7.95774700e-02 4.87668100e-01
       13 -1    0    0    0    0 +0.0000000000e+00 +0.0000000000e+00 +4.9999998884e+02 5.0000000000e+02 1.0566000000e-01 0.0000e+00 1.0000e+00
      994 -1    0    0    0    0 -0.0000000000e+00 -0.0000000000e+00 +0.0000000000e+00 1.3100000000e+02 1.3100000000e+02 0.0000e+00 0.0000e+00
       13  1    1    2    0    0 +1.0956805874e+01 +7.4247309963e+00 +5.7078352669e+01 5.8592898314e+01 1.0566000000e-01 0.0000e+00 -1.0000e+00
      994  1    1    2    0    0 -5.0905902490e+00 -1.2479887632e+01 +5.2243134686e+00 1.3179512569e+02 1.3100000000e+02 0.0000e+00 0.0000e+00
      997  1    1    2    0    0 -5.8662156250e+00 +5.0551566359e+00 +4.3769732270e+02 4.4061197600e+02 5.0000000000e+01 0.0000e+00 0.0000e+00
</event>
<event>
 5      1 +5.6267200e-07 2.04998900e+02 7.95774700e-02 4.94934200e-01
       13 -1    0    0    0    0 +0.0000000000e+00 +0.0000000000e+00 +4.9999998884e+02 5.0000000000e+02 1.0566000000e-01 0.0000e+00 -1.0000e+00
      994 -1    0    0    0    0 -0.0000000000e+00 -0.0000000000e+00 +0.0000000000e+00 1.3100000000e+02 1.3100000000e+02 0.0000e+00 0.0000e+00
       13  1    1    2    0    0 -2.8443485607e+01 -4.5484143572e+00 +8.9030753700e+01 9.3574602404e+01 1.0566000000e-01 0.0000e+00 1.0000e+00
      994  1    1    2    0    0 +2.0819780589e+01 -1.9349419443e+01 +1.2033771446e+01 1.3458705343e+02 1.3100000000e+02 0.0000e+00 0.0000e+00
      997  1    1    2    0    0 +7.6237050178e+00 +2.3897833800e+01 +3.9893546369e+02 4.0283834416e+02 5.0000000000e+01 0.0000e+00 0.0000e+00
</event>
<event>
 5      1 +5.6267200e-07 2.05467200e+02 7.95774700e-02 4.94118200e-01
       13 -1    0    0    0    0 +0.0000000000e+00 +0.0000000000e+00 +4.9999998884e+02 5.0000000000e+02 1.0566000000e-01 0.0000e+00 1.0000e+00
      994 -1    0    0    0    0 -0.0000000000e+00 -0.0000000000e+00 +0.0000000000e+00 1.3100000000e+02 1.3100000000e+02 0.0000e+00 0.0000e+00
       13  1    1    2    0    0 +2.0284038953e+01 -3.3716698659e+00 +3.9982879894e+01 4.4960563193e+01 1.0566000000e-01 0.0000e+00 -1.0000e+00
      994  1    1    2    0    0 -1.7173629095e+01 +5.0496860000e+01 +2.2585761857e+01 1.4323401497e+02 1.3100000000e+02 0.0000e+00 0.0000e+00
      997  1    1    2    0    0 -3.1104098584e+00 -4.7125190134e+01 +4.3743134709e+02 4.4280542184e+02 5.0000000000e+01 0.0000e+00 0.0000e+00
</event>
<event>
 5      1 +5.6267200e-07 2.07886600e+02 7.95774700e-02 4.89977000e-01
       13 -1    0    0    0    0 +0.0000000000e+00 +0.0000000000e+00 +4.9999998884e+02 5.0000000000e+02 1.0566000000e-01 0.0000e+00 -1.0000e+00
      994 -1    0    0    0    0 -0.0000000000e+00 -0.0000000000e+00 +0.0000000000e+00 1.3100000000e+02 1.3100000000e+02 0.0000e+00 0.0000e+00
       13  1    1    2    0    0 +1.6759450144e+01 -1.5766246300e+01 +8.6264821241e+01 8.9280928755e+01 1.0566000000e-01 0.0000e+00 1.0000e+00
      994  1    1    2    0    0 -2.1851983743e+01 +1.7054930146e+01 +9.3565316301e+00 1.3422713779e+02 1.3100000000e+02 0.0000e+00 0.0000e+00
      997  1    1    2    0    0 +5.0925335990e+00 -1.2886838461e+00 +4.0437863596e+02 4.0749193345e+02 5.0000000000e+01 0.0000e+00 0.0000e+00
</event>
<event>
 5      1 +5.6267200e-07 2.09611100e+02 7.95774700e-02 4.87099500e-01
       13 -1    0    0    0    0 +0.0000000000e+00 +0.0000000000e+00 +4.9999998884e+02 5.0000000000e+02 1.0566000000e-01 0.0000e+00 -1.0000e+00
      994 -1    0    0    0    0 -0.0000000000e+00 -0.0000000000e+00 +0.0000000000e+00 1.3100000000e+02 1.3100000000e+02 0.0000e+00 0.0000e+00
       13  1    1    2    0    0 -9.0497236118e+00 -4.2601245857e+00 +2.6587614121e+01 2.8407015817e+01 1.0566000000e-01 0.0000e+00 1.0000e+00
      994  1    1    2    0    0 +3.9084505852e+01 -7.9040400628e+00 +1.2121432829e+01 1.3747000248e+02 1.3100000000e+02 0.0000e+00 0.0000e+00
      997  1    1    2    0    0 -3.0034782240e+01 +1.2164164648e+01 +4.6129094189e+02 4.6512298171e+02 5.0000000000e+01 0.0000e+00 0.0000e+00
</event>
<event>
 5      1 +5.6267200e-07 1.96063800e+02 7.95774700e-02 5.11479200e-01
       13 -1    0    0    0    0 +0.0000000000e+00 +0.0000000000e+00 +4.9999998884e+02 5.0000000000e+02 1.0566000000e-01 0.0000e+00 -1.0000e+00
      994 -1    0    0    0    0 -0.0000000000e+00 -0.0000000000e+00 +0.0000000000e+00 1.3100000000e+02 1.3100000000e+02 0.0000e+00 0.0000e+00
       13  1    1    2    0    0 -2.0820807470e+01 +2.4089773609e+01 +1.8719242645e+01 3.6935679572e+01 1.0566000000e-01 0.0000e+00 1.0000e+00
      994  1    1    2    0    0 -1.1331178337e+01 -3.6496743606e+01 +3.1299295080e+01 1.4000376341e+02 1.3100000000e+02 0.0000e+00 0.0000e+00
      997  1    1    2    0    0 +3.2151985807e+01 +1.2406969997e+01 +4.4998145111e+02 4.5406055702e+02 5.0000000000e+01 0.0000e+00 0.0000e+00
</event>
<event>
 5      1 +5.6267200e-07 2.09724800e+02 7.95774700e-02 4.86911800e-01
       13 -1    0    0    0    0 +0.0000000000e+00 +0.0000000000e+00 +4.9999998884e+02 5.0000000000e+02 1.0566000000e-01 0.0000e+00 -1.0000e+00
      994 -1    0    0    0    0 -0.0000000000e+00 -0.0000000000e+00 +0.0000000000e+00 1.3100000000e+02 1.3100000000e+02 0.0000e+00 0.0000e+00
       13  1    1    2    0    0 -5.5495220331e+00 +1.0912831674e+01 +4.7478155364e+01 4.9031352120e+01 1.0566000000e-01 0.0000e+00 1.0000e+00
      994  1    1    2    0    0 +3.0932307563e+01 -1.4250758965e+01 +9.8126356828e+00 1.3570990974e+02 1.3100000000e+02 0.0000e+00 0.0000e+00
      997  1    1    2    0    0 -2.5382785530e+01 +3.3379272912e+00 +4.4270919779e+02 4.4625873814e+02 5.0000000000e+01 0.0000e+00 0.0000e+00
</event>
<event>
 5      1 +5.6267200e-07 2.06624100e+02 7.95774700e-02 4.92122500e-01
       13 -1    0    0    0    0 +0.0000000000e+00 +0.0000000000e+00 +4.9999998884e+02 5.0000000000e+02 1.0566000000e-01 0.0000e+00 1.0000e+00
      994 -1    0    0    0    0 -0.0000000000e+00 -0.0000000000e+00 +0.0000000000e+00 1.3100000000e+02 1.3100000000e+02 0.0000e+00 0.0000e+00
       13  1    1    2    0    0 +2.2448684322e+01 +1.4541586186e+00 +6.8922762986e+01 7.2501147762e+01 1.0566000000e-01 0.0000e+00 -1.0000e+00
      994  1    1    2    0    0 -1.9059700444e+01 +2.2203183087e+01 +1.0886177904e+01 1.3466908476e+02 1.3100000000e+02 0.0000e+00 0.0000e+00
      997  1    1    2    0    0 -3.3889838781e+00 -2.3657341705e+01 +4.2019104795e+02 4.2382976748e+02 5.0000000000e+01 0.0000e+00 0.0000e+00
</event>
<event>
 5      1 +5.6267200e-07 1.98854300e+02 7.95774700e-02 5.06103900e-01
       13 -1    0    0    0    0 +0.0000000000e+00 +0.0000000000e+00 +4.9999998884e+02 5.0000000000e+02 1.0566000000e-01 0.0000e+00 -1.0000e+00
      994 -1    0    0    0    0 -0.0000000000e+00 -0.0000000000e+00 +0.0000000000e+00 1.3100000000e+02 1.3100000000e+02 0.0000e+00 0.0000e+00
       13  1    1    2    0    0 +4.6660302722e+01 -5.0489522244e+00 +1.5418333872e+02 1.6116820056e+02 1.0566000000e-01 0.0000e+00 1.0000e+00
      994  1    1    2    0    0 -1.1340998056e+01 +5.0486482586e+00 +1.3902065049e+01 1.3231921440e+02 1.3100000000e+02 0.0000e+00 0.0000e+00
      997  1    1    2    0    0 -3.5319304666e+01 +3.0396583572e-04 +3.3191458507e+02 3.3751258504e+02 5.0000000000e+01 0.0000e+00 0.0000e+00
</event>
<event>
 5      1 +5.6267200e-07 2.08121000e+02 7.95774700e-02 4.89582400e-01
       13 -1    0    0    0    0 +0.0000000000e+00 +0.0000000000e+00 +4.9999998884e+02 5.0000000000e+02 1.0566000000e-01 0.0000e+00 1.0000e+00
      994 -1    0    0    0    0 -0.0000000000e+00 -0.0000000000e+00 +0.0000000000e+00 1.3100000000e+02 1.3100000000e+02 0.0000e+00 0.0000e+00
       13  1    1    2    0    0 +1.0872039004e+00 -1.1735510705e+01 +3.1214789209e+01 3.3365827627e+01 1.0566000000e-01 0.0000e+00 -1.0000e+00
      994  1    1    2    0    0 -1.4251235478e+01 -6.4622435173e+00 +6.4793802073e+00 1.3209027471e+02 1.3100000000e+02 0.0000e+00 0.0000e+00
      997  1    1    2    0    0 +1.3164031578e+01 +1.8197754222e+01 +4.6230581942e+02 4.6554389767e+02 5.0000000000e+01 0.0000e+00 0.0000e+00
</event>
<event>
 5      1 +5.6267200e-07 1.94545200e+02 7.95774700e-02 5.14490000e-01
       13 -1    0    0    0    0 +0.0000000000e+00 +0.0000000000e+00 +4.9999998884e+02 5.0000000000e+02 1.0566000000e-01 0.0000e+00 -1.0000e+00
      994 -1    0    0    0    0 -0.0000000000e+00 -0.0000000000e+00 +0.0000000000e+00 1.3100000000e+02 1.3100000000e+02 0.0000e+00 0.0000e+00
       13  1    1    2    0    0 -4.6289573675e+01 +5.2316954747e+00 +4.4057883124e+01 6.4118667313e+01 1.0566000000e-01 0.0000e+00 1.0000e+00
      994  1    1    2    0    0 +4.8701557016e+01 -4.8370117232e+01 +5.0784257563e+01 1.5636991627e+02 1.3100000000e+02 0.0000e+00 0.0000e+00
      997  1    1    2    0    0 -2.4119833411e+00 +4.3138421757e+01 +4.0515784815e+02 4.1051141642e+02 5.0000000000e+01 0.0000e+00 0.0000e+00
</event>
<event>
 5      1 +5.6267200e-07 2.09570200e+02 7.95774700e-02 4.87167100e-01
       13 -1    0    0    0    0 +0.0000000000e+00 +0.0000000000e+00 +4.9999998884e+02 5.0000000000e+02 1.0566000000e-01 0.0000e+00 -1.0000e+00
      994 -1    0    0    0    0 -0.0000000000e+00 -0.0000000000e+00 +0.0000000000e+00 1.3100000000e+02 1.3100000000e+02 0.0000e+00 0.0000e+00
       13  1    1    2    0    0 +9.5825871552e+00 +6.8723489492e+00 +6.4817889358e+01 6.5881902686e+01 1.0566000000e-01 0.0000e+00 1.0000e+00
      994  1    1    2    0    0 -7.3654057144e+00 +2.7765112632e+00 +4.3781107524e+00 1.3130927640e+02 1.3100000000e+02 0.0000e+00 0.0000e+00
      997  1    1    2    0    0 -2.2171814408e+00 -9.6488602124e+00 +4.3080398873e+02 4.3380882091e+02 5.0000000000e+01 0.0000e+00 0.0000e+00
</event>
<event>
 5      1 +5.6267200e-07 2.01820300e+02 7.95774700e-02 5.00602300e-01
       13 -1    0    0    0    0 +0.0000000000e+00 +0.0000000000e+00 +4.9999998884e+02 5.0000000000e+02 1.0566000000e-01 0.0000e+00 -1.0000e+00
      994 -1    0    0    0    0 -0.0000000000e+00 -0.0000000000e+00 +0.0000000000e+00 1.3100000000e+02 1.3100000000e+02 0.0000e+00 0.0000e+00
       13  1    1    2    0    0 +1.3519325625e+01 +7.8663076084e+00 +1.2520519278e+01 2.0035606499e+01 1.0566000000e-01 0.0000e+00 1.0000e+00
      994  1    1    2    0    0 +1.3336972567e+00 -2.0804139058e+01 +1.2813322691e+01 1.3326579527e+02 1.3100000000e+02 0.0000e+00 0.0000e+00
      997  1    1    2    0    0 -1.4853022882e+01 +1.2937831449e+01 +4.7466614687e+02 4.7769859823e+02 5.0000000000e+01 0.0000e+00 0.0000e+00
</event>
<event>
 5      1 +5.6267200e-07 2.05981700e+02 7.95774700e-02 4.93227000e-01
       13 -1    0    0    0    0 +0.0000000000e+00 +0.0000000000e+00 +4.9999998884e+02 5.0000000000e+02 1.0566000000e-01 0.0000e+00 -1.0000e+00
      994 -1    0    0    0    0 -0.0000000000e+00 -0.0000000000e+00 +0.0000000000e+00 1.3100000000e+02 1.3100000000e+02 0.0000e+00 0.0000e+00
       13  1    1    2    0    0 +1.8532919955e+01 +1.7145582681e+00 +3.1887747724e+01 3.6922194559e+01 1.0566000000e-01 0.0000e+00 1.0000e+00
      994  1    1    2    0    0 -3.3963688924e+01 +3.2294457095e+00 +1.3057833053e+01 1.3599804590e+02 1.3100000000e+02 0.0000e+00 0.0000e+00
      997  1    1    2    0    0 +1.5430768969e+01 -4.9440039776e+00 +4.5505440806e+02 4.5807975954e+02 5.0000000000e+01 0.0000e+00 0.0000e+00
</event>
<event>
 5      1 +5.6267200e-07 1.95402500e+02 7.95774700e-02 5.12782700e-01
       13 -1    0    0    0    0 +0.0000000000e+00 +0.0000000000e+00 +4.9999998884e+02 5.0000000000e+02 1.0566000000e-01 0.0000e+00 -1.0000e+00
      994 -1    0    0    0    0 -0.0000000000e+00 -0.0000000000e+00 +0.0000000000e+00 1.3100000000e+02 1.3100000000e+02 0.0000e+00 0.0000e+00
       13  1    1    2    0    0 +1.6690640012e+01 -2.7254045935e+01 +3.4204500697e+01 4.6811531868e+01 1.0566000000e-01 0.0000e+00 1.0000e+00
      994  1    1    2    0    0 -2.8030115896e+01 +4.8031309973e+00 +2.0762438765e+01 1.3564968237e+02 1.3100000000e+02 0.0000e+00 0.0000e+00
      997  1    1    2    0    0 +1.1339475883e+01 +2.2450914938e+01 +4.4503304937e+02 4.4853878576e+02 5.0000000000e+01 0.0000e+00 0.0000e+00
</event>
<event>
 5      1 +5.6267200e-07 2.08205000e+02 7.95774700e-02 4.89441100e-01
       13 -1    0    0    0    0 +0.0000000000e+00 +0.0000000000e+00 +4.9999998884e+02 5.0000000000e+02 1.0566000000e-01 0.0000e+00 1.0000e+00
      994 -1    0    0    0    0 -0.0000000000e+00 -0.0000000000e+00 +0.0000000000e+00 1.3100000000e+02 1.3100000000e+02 0.0000e+00 0.0000e+00
       13  1    1    2    0    0 -1.8585457271e+01 +5.6491348769e-01 +8.2672069725e+01 8.4737362633e+01 1.0566000000e-01 0.0000e+00 -1.0000e+00
      994  1    1    2    0    0 +1.1885863451e+01 +1.5566821471e+01 +7.1173831276e+00 1.3264711389e+02 1.3100000000e+02 0.0000e+00 0.0000e+00
      997  1    1    2    0    0 +6.6995938202e+00 -1.6131734959e+01 +4.1021053598e+02 4.1361552348e+02 5.0000000000e+01 0.0000e+00 0.0000e+00
</event>
<event>
 5      1 +5.6267200e-07 2.05675700e+02 7.95774700e-02 4.93756500e-01
       13 -1    0    0    0    0 +0.0000000000e+00 +0.0000000000e+00 +4.9999998884e+02 5.0000000000e+02 1.0566000000e-01 0.0000e+00 1.0000e+00
      994 -1    0    0    0    0 -0.0000000000e+00 -0.0000000000e+00 +0.0000000000e+00 1.3100000000e+02 1.3100000000e+02 0.0000e+00 0.0000e+00
       13  1    1    2    0    0 +1.2114039678e+01 -2.2305765471e+01 +8.1334815586e+01 8.5203641477e+01 1.0566000000e-01 0.0000e+00 -1.0000e+00
      994  1    1    2    0    0 -2.0690100853e+01 +1.9486319909e+00 +9.4802986274e+00 1.3297651485e+02 1.3100000000e+02 0.0000e+00 0.0000e+00
      997  1    1    2    0    0 +8.5760611750e+00 +2.0357133480e+01 +4.0918487462e+02 4.1281984367e+02 5.0000000000e+01 0.0000e+00 0.0000e+00
</event>
<event>
 5      1 +5.6267200e-07 1.97342000e+02 7.95774700e-02 5.08992300e-01
       13 -1    0    0    0    0 +0.0000000000e+00 +0.0000000000e+00 +4.9999998884e+02 5.0000000000e+02 1.0566000000e-01 0.0000e+00 1.0000e+00
      994 -1    0    0    0    0 -0.0000000000e+00 -0.0000000000e+00 +0.0000000000e+00 1.3100000000e+02 1.3100000000e+02 0.0000e+00 0.0000e+00
       13  1    1    2    0    0 +1.0973376325e+01 -1.8095419405e+01 +2.9293214448e+00 2.1364720442e+01 1.0566000000e-01 0.0000e+00 -1.0000e+00
      994  1    1    2    0    0 +7.0093387084e+00 +5.6112735209e+00 +2.4069401760e+01 1.3349514344e+02 1.3100000000e+02 0.0000e+00 0.0000e+00
      997  1    1    2    0    0 -1.7982715033e+01 +1.2484145884e+01 +4.7300126563e+02 4.7614013612e+02 5.0000000000e+01 0.0000e+00 0.0000e+00
</event>
<event>
 5      1 +5.6267200e-07 2.05455800e+02 7.95774700e-02 4.94138000e-01
       13 -1    0    0    0    0 +0.0000000000e+00 +0.0000000000e+00 +4.9999998884e+02 5.0000000000e+02 1.0566000000e-01 0.0000e+00 1.0000e+00
      994 -1    0    0    0    0 -0.0000000000e+00 -0.0000000000e+00 +0.0000000000e+00 1.3100000000e+02 1.3100000000e+02 0.0000e+00 0.0000e+00
       13  1    1    2    0    0 +1.1280923293e+01 -1.0687901702e+01 +2.2006775000e+01 2.6940671541e+01 1.0566000000e-01 0.0000e+00 -1.0000e+00
      994  1    1    2    0    0 -1.2140919352e+00 +2.6735522326e+01 +1.1156379132e+01 1.3417051453e+02 1.3100000000e+02 0.0000e+00 0.0000e+00
      997  1    1    2    0    0 -1.0066831358e+01 -1.6047620624e+01 +4.6683683470e+02 4.6988881393e+02 5.0000000000e+01 0.0000e+00 0.0000e+00
</event>
<event>
 5      1 +5.6267200e-07 1.92984200e+02 7.95774700e-02 5.17650200e-01
       13 -1    0    0    0    0 +0.0000000000e+00 +0.0000000000e+00 +4.9999998884e+02 5.0000000000e+02 1.0566000000e-01 0.0000e+00 -1.0000e+00
      994 -1    0    0    0    0 -0.0000000000e+00 -0.0000000000e+00 +0.0000000000e+00 1.3100000000e+02 1.3100000000e+02 0.0000e+00 0.0000e+00
       13  1    1    2    0    0 +1.0316044390e+01 +1.3335194162e+01 -6.6965353461e-02 1.6860125254e+01 1.0566000000e-01 0.0000e+00 1.0000e+00
      994  1    1    2    0    0 -1.9488316859e+01 -4.0573596304e+01 +3.1521603414e+01 1.4205851855e+02 1.3100000000e+02 0.0000e+00 0.0000e+00
      997  1    1    2    0    0 +9.1722724683e+00 +2.7238402142e+01 +4.6854535078e+02 4.7208135619e+02 5.0000000000e+01 0.0000e+00 0.0000e+00
</event>
<event>
 5      1 +5.6267200e-07 2.06390800e+02 7.95774700e-02 4.92522700e-01
       13 -1    0    0    0    0 +0.0000000000e+00 +0.0000000000e+00 +4.9999998884e+02 5.0000000000e+02 1.0566000000e-01 0.0000e+00 1.0000e+00
      994 -1    0    0    0    0 -0.0000000000e+00 -0.0000000000e+00 +0.0000000000e+00 1.3100000000e+02 1.3100000000e+02 0.0000e+00 0.0000e+00
       13  1    1    2    0    0 -6.7472067263e+00 -8.8724408848e+00 +1.6240405385e+01 1.9697891688e+01 1.0566000000e-01 0.0000e+00 -1.0000e+00
      994  1    1    2    0    0 -3.4260418674e+01 +1.1397880851e+01 +1.3436375891e+01 1.3654751617e+02 1.3100000000e+02 0.0000e+00 0.0000e+00
      997  1    1    2    0    0 +4.1007625401e+01 -2.5254399665e+00 +4.7032320756e+02 4.7475459214e+02 5.0000000000e+01 0.0000e+00 0.0000e+00
</event>
<event>
 5      1 +5.6267200e-07 2.06284900e+02 7.95774700e-02 4.92704700e-01
       13 -1    0    0    0    0 +0.0000000000e+00 +0.0000000000e+00 +4.9999998884e+02 5.0000000000e+02 1.0566000000e-01 0.0000e+00 -1.0000e+00
      994 -1    0    0    0    0 -0.0000000000e+00 -0.0000000000e+00 +0.0000000000e+00 1.3100000000e+02 1.3100000000e+02 0.0000e+00 0.0000e+00
       13  1    1    2    0    0 -2.4099158382e+00 -1.1586192999e+01 -1.0856175609e+01 1.6059740828e+01 1.0566000000e-01 0.0000e+00 1.0000e+00
      994  1    1    2    0    0 +1.7644190651e+01 +1.9625415590e+01 +3.7713987814e+01 1.3885178889e+02 1.3100000000e+02 0.0000e+00 0.0000e+00
      997  1    1    2    0    0 -1.5234274813e+01 -8.0392225913e+00 +4.7314217663e+02 4.7608847028e+02 5.0000000000e+01 0.0000e+00 0.0000e+00
</event>
<event>
 5      1 +5.6267200e-07 1.95829600e+02 7.95774700e-02 5.11939500e-01
       13 -1    0    0    0    0 +0.0000000000e+00 +0.0000000000e+00 +4.9999998884e+02 5.0000000000e+02 1.0566000000e-01 0.0000e+00 1.0000e+00
      994 -1    0    0    0    0 -0.0000000000e+00 -0.0000000000e+00 +0.0000000000e+00 1.3100000000e+02 1.3100000000e+02 0.0000e+00 0.0000e+00
       13  1    1    2    0    0 +1.0784729366e+01 -2.1179271833e+01 +1.6698231312e+01 2.9046756030e+01 1.0566000000e-01 0.0000e+00 -1.0000e+00
      994  1    1    2    0    0 -1.9197603734e+01 +7.3156838838e+00 +1.8146053891e+01 1.3383701465e+02 1.3100000000e+02 0.0000e+00 0.0000e+00
      997  1    1    2    0    0 +8.4128743677e+00 +1.3863587949e+01 +4.6515570363e+02 4.6811622932e+02 5.0000000000e+01 0.0000e+00 0.0000e+00
</event>
<event>
 5      1 +5.6267200e-07 2.02564200e+02 7.95774700e-02 4.99255200e-01
       13 -1    0    0    0    0 +0.0000000000e+00 +0.0000000000e+00 +4.9999998884e+02 5.0000000000e+02 1.0566000000e-01 0.0000e+00 -1.0000e+00
      994 -1    0    0    0    0 -0.0000000000e+00 -0.0000000000e+00 +0.0000000000e+00 1.3100000000e+02 1.3100000000e+02 0.0000e+00 0.0000e+00
       13  1    1    2    0    0 -1.4550252705e+01 -4.0001427650e+01 +1.1244069459e+02 1.2022788792e+02 1.0566000000e-01 0.0000e+00 1.0000e+00
      994  1    1    2    0    0 +1.5517141254e+01 +3.5769039741e+01 +1.8045211804e+01 1.3786528042e+02 1.3100000000e+02 0.0000e+00 0.0000e+00
      997  1    1    2    0    0 -9.6688854901e-01 +4.2323879087e+00 +3.6951408244e+02 3.7290683166e+02 5.0000000000e+01 0.0000e+00 0.0000e+00
</event>
<event>
 5      1 +5.6267200e-07 2.04269300e+02 7.95774700e-02 4.96215200e-01
       13 -1    0    0    0    0 +0.0000000000e+00 +0.0000000000e+00 +4.9999998884e+02 5.0000000000e+02 1.0566000000e-01 0.0000e+00 1.0000e+00
      994 -1    0    0    0    0 -0.0000000000e+00 -0.0000000000e+00 +0.0000000000e+00 1.3100000000e+02 1.3100000000e+02 0.0000e+00 0.0000e+00
       13  1    1    2    0    0 -2.6075400771e+01 -5.1096485381e+00 +5.0351609834e+00 2.7044390245e+01 1.0566000000e-01 0.0000e+00 -1.0000e+00
      994  1    1    2    0    0 -3.5988366407e+01 -3.8768135439e+00 +3.9570070591e+01 1.4155204939e+02 1.3100000000e+02 0.0000e+00 0.0000e+00
      997  1    1    2    0    0 +6.2063767178e+01 +8.9864620819e+00 +4.5539475726e+02 4.6240356037e+02 5.0000000000e+01 0.0000e+00 0.0000e+00
</event>
<event>
 5      1 +5.6267200e-07 1.96907600e+02 7.95774700e-02 5.09832800e-01
       13 -1    0    0    0    0 +0.0000000000e+00 +0.0000000000e+00 +4.9999998884e+02 5.0000000000e+02 1.0566000000e-01 0.0000e+00 -1.0000e+00
      994 -1    0    0    0    0 -0.0000000000e+00 -0.0000000000e+00 +0.0000000000e+00 1.3100000000e+02 1.3100000000e+02 0.0000e+00 0.0000e+00
       13  1    1    2    0    0 -3.9720198770e+01 +5.8755420968e-02 +1.0941765746e+02 1.1640417763e+02 1.0566000000e-01 0.0000e+00 1.0000e+00
      994  1    1    2    0    0 -1.3635506308e+01 -2.1697163894e+01 +1.8475275780e+01 1.3475544430e+02 1.3100000000e+02 0.0000e+00 0.0000e+00
      997  1    1    2    0    0 +5.3355705077e+01 +2.1638408473e+01 +3.7210705559e+02 3.7984037807e+02 5.0000000000e+01 0.0000e+00 0.0000e+00
</event>
<event>
 5      1 +5.6267200e-07 2.07860000e+02 7.95774700e-02 4.90021800e-01
       13 -1    0    0    0    0 +0.0000000000e+00 +0.0000000000e+00 +4.9999998884e+02 5.0000000000e+02 1.0566000000e-01 0.0000e+00 1.0000e+00
      994 -1    0    0    0    0 -0.0000000000e+00 -0.0000000000e+00 +0.0000000000e+00 1.3100000000e+02 1.3100000000e+02 0.0000e+00 0.0000e+00
       13  1    1    2    0    0 -7.0325573675e+00 +1.3522038506e+01 +3.7110166578e+01 4.0118300263e+01 1.0566000000e-01 0.0000e+00 -1.0000e+00
      994  1    1    2    0    0 +3.5357660534e+01 -6.3724426738e+00 +1.2086224419e+01 1.3637393081e+02 1.3100000000e+02 0.0000e+00 0.0000e+00
      997  1    1    2    0    0 -2.8325103166e+01 -7.1495958318e+00 +4.5080359784e+02 4.5450776893e+02 5.0000000000e+01 0.0000e+00 0.0000e+00
</event>
<event>
 5      1 +5.6267200e-07 2.02218100e+02 7.95774700e-02 4.99880300e-01
       13 -1    0    0    0    0 +0.0000000000e+00 +0.0000000000e+00 +4.9999998884e+02 5.0000000000e+02 1.0566000000e-01 0.0000e+00 1.0000e+00
      994 -1    0    0    0    0 -0.0000000000e+00 -0.0000000000e+00 +0.0000000000e+00 1.3100000000e+02 1.3100000000e+02 0.0000e+00 0.0000e+00
       13  1    1    2    0    0 +5.1516601359e+01 -3.3088673097e+01 +1.8005370581e+02 1.9017930656e+02 1.0566000000e-01 0.0000e+00 -1.0000e+00
      994  1    1    2    0    0 -1.0209863141e+02 -4.6128567981e+00 +7.3723846797e+01 1.8177352549e+02 1.3100000000e+02 0.0000e+00 0.0000e+00
      997  1    1    2    0    0 +5.0582030049e+01 +3.7701529895e+01 +2.4622243623e+02 2.5904716795e+02 5.0000000000e+01 0.0000e+00 0.0000e+00
</event>
<event>
 5      1 +5.6267200e-07 1.93713900e+02 7.95774700e-02 5.16164600e-01
       13 -1    0    0    0    0 +0.0000000000e+00 +0.0000000000e+00 +4.9999998884e+02 5.0000000000e+02 1.0566000000e-01 0.0000e+00 1.0000e+00
      994 -1    0    0    0    0 -0.0000000000e+00 -0.0000000000e+00 +0.0000000000e+00 1.3100000000e+02 1.3100000000e+02 0.0000e+00 0.0000e+00
       13  1    1    2    0    0 -6.4763863988e+00 +1.7865243901e+01 +7.6837526619e+00 2.0497847190e+01 1.0566000000e-01 0.0000e+00 -1.0000e+00
      994  1    1    2    0    0 -9.8624503347e+00 +1.5776661808e+01 +1.9692941515e+01 1.3377213062e+02 1.3100000000e+02 0.0000e+00 0.0000e+00
      997  1    1    2    0    0 +1.6338836733e+01 -3.3641905709e+01 +4.7262329466e+02 4.7673002219e+02 5.0000000000e+01 0.0000e+00 0.0000e+00
</event>
<event>
 5      1 +5.6267200e-07 2.01924300e+02 7.95774700e-02 5.00413200e-01
       13 -1    0    0    0    0 +0.0000000000e+00 +0.0000000000e+00 +4.9999998884e+02 5.0000000000e+02 1.0566000000e-01 0.0000e+00 1.0000e+00
      994 -1    0    0    0    0 -0.0000000000e+00 -0.0000000000e+00 +0.0000000000e+00 1.3100000000e+02 1.3100000000e+02 0.0000e+00 0.0000e+00
       13  1    1    2    0    0 -3.3211407250e+01 -5.9855338215e+00 +9.2320039994e+01 9.8294583448e+01 1.0566000000e-01 0.0000e+00 -1.0000e+00
      994  1    1    2    0    0 +3.9897186213e+00 +1.9772226593e+01 +1.2572995986e+01 1.3313879610e+02 1.3100000000e+02 0.0000e+00 0.0000e+00
      997  1    1    2    0    0 +2.9221688629e+01 -1.3786692771e+01 +3.9510695286e+02 3.9956662045e+02 5.0000000000e+01 0.0000e+00 0.0000e+00
</event>
<event>
 5      1 +5.6267200e-07 2.04205400e+02 7.95774700e-02 4.96328000e-01
       13 -1    0    0    0    0 +0.0000000000e+00 +0.0000000000e+00 +4.9999998884e+02 5.0000000000e+02 1.0566000000e-01 0.0000e+00 -1.0000e+00
      994 -1    0    0    0    0 -0.0000000000e+00 -0.0000000000e+00 +0.0000000000e+00 1.3100000000e+02 1.3100000000e+02 0.0000e+00 0.0000e+00
       13  1    1    2    0    0 -2.1376383474e+00 -1.2130948247e+01 +9.5284622980e+00 1.5573444091e+01 1.0566000000e-01 0.0000e+00 1.0000e+00
      994  1    1    2    0    0 +1.1683362855e+01 +2.1132258742e+01 +1.1531630960e+01 1.3370509280e+02 1.3100000000e+02 0.0000e+00 0.0000e+00
      997  1    1    2    0    0 -9.5457245072e+00 -9.0013104953e+00 +4.7893989558e+02 4.8172146311e+02 5.0000000000e+01 0.0000e+00 0.0000e+00
</event>
<event>
 5      1 +5.6267200e-07 2.09423000e+02 7.95774700e-02 4.87410400e-01
       13 -1    0    0    0    0 +0.0000000000e+00 +0.0000000000e+00 +4.9999998884e+02 5.0000000000e+02 1.0566000000e-01 0.0000e+00 -1.0000e+00
      994 -1    0    0    0    0 -0.0000000000e+00 -0.0000000000e+00 +0.0000000000e+00 1.3100000000e+02 1.3100000000e+02 0.0000e+00 0.0000e+00
       13  1    1    2    0    0 -1.2022773264e+01 +1.0152711972e+01 +7.4181770052e+01 7.5832518153e+01 1.0566000000e-01 0.0000e+00 1.0000e+00
      994  1    1    2    0    0 +1.0293208433e+01 -2.5720142995e+01 +8.0635813160e+00 1.3413984210e+02 1.3100000000e+02 0.0000e+00 0.0000e+00
      997  1    1    2    0    0 +1.7295648314e+00 +1.5567431024e+01 +4.1775463747e+02 4.2102763974e+02 5.0000000000e+01 0.0000e+00 0.0000e+00
</event>
<event>
 5      1 +5.6267200e-07 2.03912600e+02 7.95774700e-02 4.96845800e-01
       13 -1    0    0    0    0 +0.0000000000e+00 +0.0000000000e+00 +4.9999998884e+02 5.0000000000e+02 1.0566000000e-01 0.0000e+00 1.0000e+00
      994 -1    0    0    0    0 -0.0000000000e+00 -0.0000000000e+00 +0.0000000000e+00 1.3100000000e+02 1.3100000000e+02 0.0000e+00 0.0000e+00
       13  1    1    2    0    0 +1.8587235183e+00 -1.7163683019e+01 +2.2041558412e+01 2.7998005807e+01 1.0566000000e-01 0.0000e+00 -1.0000e+00
      994  1    1    2    0    0 -4.5089448404e+01 +9.0311233451e+00 +2.0050888369e+01 1.4027707464e+02 1.3100000000e+02 0.0000e+00 0.0000e+00
      997  1    1    2    0    0 +4.3230724886e+01 +8.1325596737e+00 +4.5790754205e+02 4.6272491955e+02 5.0000000000e+01 0.0000e+00 0.0000e+00
</event>
<event>
 5      1 +5.6267200e-07 2.05071400e+02 7.95774700e-02 4.94807500e-01
       13 -1    0    0    0    0 +0.0000000000e+00 +0.0000000000e+00 +4.9999998884e+02 5.0000000000e+02 1.0566000000e-01 0.0000e+00 -1.0000e+00
      994 -1    0    0    0    0 -0.0000000000e+00 -0.0000000000e+00 +0.0000000000e+00 1.3100000000e+02 1.3100000000e+02 0.0000e+00 0.0000e+00
       13  1    1    2    0    0 +1.2244416249e+01 -2.0967203258e+00 +1.3248592257e+01 1.8162002264e+01 1.0566000000e-01 0.0000e+00 1.0000e+00
      994  1    1    2    0    0 -4.3460181198e+00 +1.2087489805e+01 +8.5979315546e+00 1.3190875525e+02 1.3100000000e+02 0.0000e+00 0.0000e+00
      997  1    1    2    0    0 -7.8983981297e+00 -9.9907694796e+00 +4.7815346502e+02 4.8092924249e+02 5.0000000000e+01 0.0000e+00 0.0000e+00
</event>
<event>
 5      1 +5.6267200e-07 2.07635700e+02 7.95774700e-02 4.90400700e-01
       13 -1    0    0    0    0 +0.0000000000e+00 +0.0000000000e+00 +4.9999998884e+02 5.0000000000e+02 1.0566000000e-01 0.0000e+00 1.0000e+00
      994 -1    0    0    0    0 -0.0000000000e+00 -0.0000000000e+00 +0.0000000000e+00 1.3100000000e+02 1.3100000000e+02 0.0000e+00 0.0000e+00
       13  1    1    2    0    0 +1.2643362469e+00 +2.2240216507e+01 +6.5202373287e+01 6.8902731606e+01 1.0566000000e-01 0.0000e+00 -1.0000e+00
      994  1    1    2    0    0 +1.8404884731e+00 -3.5621949683e+01 +1.2184494552e+01 1.3631497572e+02 1.3100000000e+02 0.0000e+00 0.0000e+00
      997  1    1    2    0    0 -3.1048247200e+00 +1.3381733175e+01 +4.2261312100e+02 4.2578229268e+02 5.0000000000e+01 0.0000e+00 0.0000e+00
</event>
<event>
 5      1 +5.6267200e-07 1.93608900e+02 7.95774700e-02 5.16377400e-01
       13 -1    0    0    0    0 +0.0000000000e+00 +0.0000000000e+00 +4.9999998884e+02 5.0000000000e+02 1.0566000000e-01 0.0000e+00 -1.0000e+00
      994 -1    0    0    0    0 -0.0000000000e+00 -0.0000000000e+00 +0.0000000000e+00 1.3100000000e+02 1.3100000000e+02 0.0000e+00 0.0000e+00
       13  1    1    2    0    0 +4.4022168601e+00 -2.5464927666e+01 +1.5192392152e+01 2.9977691666e+01 1.0566000000e-01 0.0000e+00 1.0000e+00
      994  1    1    2    0    0 -2.4579486337e+01 +2.2595553795e+01 +2.4292824506e+01 1.3735301789e+02 1.3100000000e+02 0.0000e+00 0.0000e+00
      997  1    1    2    0    0 +2.0177269477e+01 +2.8693738702e+00 +4.6051477218e+02 4.6366929045e+02 5.0000000000e+01 0.0000e+00 0.0000e+00
</event>
<event>
 5      1 +5.6267200e-07 2.09384100e+02 7.95774700e-02 4.87474900e-01
       13 -1    0    0    0    0 +0.0000000000e+00 +0.0000000000e+00 +4.9999998884e+02 5.0000000000e+02 1.0566000000e-01 0.0000e+00 -1.0000e+00
      994 -1    0    0    0    0 -0.0000000000e+00 -0.0000000000e+00 +0.0000000000e+00 1.3100000000e+02 1.3100000000e+02 0.0000e+00 0.0000e+00
       13  1    1    2    0    0 -1.1500740838e+01 +1.1267999395e+01 +8.4937570956e+01 8.6450199388e+01 1.0566000000e-01 0.0000e+00 1.0000e+00
      994  1    1    2    0    0 +4.8407154940e+01 +5.6133498597e+00 +1.6411023377e+01 1.4073053696e+02 1.3100000000e+02 0.0000e+00 0.0000e+00
      997  1    1    2    0    0 -3.6906414102e+01 -1.6881349254e+01 +3.9865139450e+02 4.0381926365e+02 5.0000000000e+01 0.0000e+00 0.0000e+00
</event>
<event>
 5      1 +5.6267200e-07 1.96040900e+02 7.95774700e-02 5.11524200e-01
       13 -1    0    0    0    0 +0.0000000000e+00 +0.0000000000e+00 +4.9999998884e+02 5.0000000000e+02 1.0566000000e-01 0.0000e+00 1.0000e+00
      994 -1    0    0    0    0 -0.0000000000e+00 -0.0000000000e+00 +0.0000000000e+00 1.3100000000e+02 1.3100000000e+02 0.0000e+00 0.0000e+00
       13  1    1    2    0    0 +3.5242696330e+01 +1.6657970376e+00 +5.0603159919e+01 6.1688844066e+01 1.0566000000e-01 0.0000e+00 -1.0000e+00
      994  1    1    2    0    0 -1.0056593608e+01 +1.7092992129e+01 +1.7786841685e+01 1.3368125221e+02 1.3100000000e+02 0.0000e+00 0.0000e+00
      997  1    1    2    0    0 -2.5186102722e+01 -1.8758789167e+01 +4.3160998723e+02 4.3562990373e+02 5.0000000000e+01 0.0000e+00 0.0000e+00
</event>
<event>
 5      1 +5.6267200e-07 2.14360300e+02 7.95774700e-02 4.79476300e-01
       13 -1    0    0    0    0 +0.0000000000e+00 +0.0000000000e+00 +4.9999998884e+02 5.0000000000e+02 1.0566000000e-01 0.0000e+00 -1.0000e+00
      994 -1    0    0    0    0 -0.0000000000e+00 -0.0000000000e+00 +0.0000000000e+00 1.3100000000e+02 1.3100000000e+02 0.0000e+00 0.0000e+00
       13  1    1    2    0    0 -2.0429631158e+01 +2.7993737941e+01 +2.8125235980e+00 3.4769823787e+01 1.0566000000e-01 0.0000e+00 1.0000e+00
      994  1    1    2    0    0 +1.5200904195e+01 +9.5478160931e+00 +4.4942193838e+01 1.3965324582e+02 1.3100000000e+02 0.0000e+00 0.0000e+00
      997  1    1    2    0    0 +5.2287269632e+00 -3.7541554034e+01 +4.5224527140e+02 4.5657693039e+02 5.0000000000e+01 0.0000e+00 0.0000e+00
</event>
<event>
 5      1 +5.6267200e-07 2.08694800e+02 7.95774700e-02 4.88620900e-01
       13 -1    0    0    0    0 +0.0000000000e+00 +0.0000000000e+00 +4.9999998884e+02 5.0000000000e+02 1.0566000000e-01 0.0000e+00 -1.0000e+00
      994 -1    0    0    0    0 -0.0000000000e+00 -0.0000000000e+00 +0.0000000000e+00 1.3100000000e+02 1.3100000000e+02 0.0000e+00 0.0000e+00
       13  1    1    2    0    0 -1.4971268799e+01 +2.6384800826e+01 +9.6820921364e+01 1.0146230128e+02 1.0566000000e-01 0.0000e+00 1.0000e+00
      994  1    1    2    0    0 +3.2958145543e+01 -6.1555658960e+01 +3.0623944333e+01 1.5157230774e+02 1.3100000000e+02 0.0000e+00 0.0000e+00
      997  1    1    2    0    0 -1.7986876744e+01 +3.5170858134e+01 +3.7255512314e+02 3.7796539097e+02 5.0000000000e+01 0.0000e+00 0.0000e+00
</event>
<event>
 5      1 +5.6267200e-07 2.07435200e+02 7.95774700e-02 4.90740200e-01
       13 -1    0    0    0    0 +0.0000000000e+00 +0.0000000000e+00 +4.9999998884e+02 5.0000000000e+02 1.0566000000e-01 0.0000e+00 1.0000e+00
      994 -1    0    0    0    0 -0.0000000000e+00 -0.0000000000e+00 +0.0000000000e+00 1.3100000000e+02 1.3100000000e+02 0.0000e+00 0.0000e+00
       13  1    1    2    0    0 -8.6187529756e+00 -2.0907230487e+01 +9.2075087873e+01 9.4811540228e+01 1.0566000000e-01 0.0000e+00 -1.0000e+00
      994  1    1    2    0    0 -2.8206493369e+01 +3.5908588163e+01 +1.6641894994e+01 1.3972467800e+02 1.3100000000e+02 0.0000e+00 0.0000e+00
      997  1    1    2    0    0 +3.6825246344e+01 -1.5001357676e+01 +3.9128300597e+02 3.9646378178e+02 5.0000000000e+01 0.0000e+00 0.0000e+00
</event>
<event>
 5      1 +5.6267200e-07 1.93251800e+02 7.95774700e-02 5.17103700e-01
       13 -1    0    0    0    0 +0.0000000000e+00 +0.0000000000e+00 +4.9999998884e+02 5.0000000000e+02 1.0566000000e-01 0.0000e+00 -1.0000e+00
      994 -1    0    0    0    0 -0.0000000000e+00 -0.0000000000e+00 +0.0000000000e+00 1.3100000000e+02 1.3100000000e+02 0.0000e+00 0.0000e+00
       13  1    1    2    0    0 -3.0231970615e+01 +4.5460712149e+01 +6.9189312706e+01 8.8135240132e+01 1.0566000000e-01 0.0000e+00 1.0000e+00
      994  1    1    2    0    0 -3.8197833002e+00 -6.9538343587e+01 +5.0048568144e+01 1.5657595967e+02 1.3100000000e+02 0.0000e+00 0.0000e+00
      997  1    1    2    0    0 +3.4051753915e+01 +2.4077631438e+01 +3.8076210799e+02 3.8628880020e+02 5.0000000000e+01 0.0000e+00 0.0000e+00
</event>
<event>
 5      1 +5.6267200e-07 1.97343100e+02 7.95774700e-02 5.08990200e-01
       13 -1    0    0    0    0 +0.0000000000e+00 +0.0000000000e+00 +4.9999998884e+02 5.0000000000e+02 1.0566000000e-01 0.0000e+00 1.0000e+00
      994 -1    0    0    0    0 -0.0000000000e+00 -0.0000000000e+00 +0.0000000000e+00 1.3100000000e+02 1.3100000000e+02 0.0000e+00 0.0000e+00
       13  1    1    2    0    0 -9.2409421957e-01 -1.6653105828e+01 +7.8933264650e+00 1.8452524232e+01 1.0566000000e-01 0.0000e+00 -1.0000e+00
      994  1    1    2    0    0 +1.9968433826e+00 -4.4664994766e+00 +1.4528828322e+01 1.3189398718e+02 1.3100000000e+02 0.0000e+00 0.0000e+00
      997  1    1    2    0    0 -1.0727491630e+00 +2.1119605304e+01 +4.7757783405e+02 4.8065348859e+02 5.0000000000e+01 0.0000e+00 0.0000e+00
</event>
<event>
 5      1 +5.6267200e-07 2.06723600e+02 7.95774700e-02 4.91952200e-01
       13 -1    0    0    0    0 +0.0000000000e+00 +0.0000000000e+00 +4.9999998884e+02 5.0000000000e+02 1.0566000000e-01 0.0000e+00 -1.0000e+00
      994 -1    0    0    0    0 -0.0000000000e+00 -0.0000000000e+00 +0.0000000000e+00 1.3100000000e+02 1.3100000000e+02 0.0000e+00 0.0000e+00
       13  1    1    2    0    0 -1.5499480048e+01 -6.8879254923e+00 +5.4509119808e+01 5.7087062506e+01 1.0566000000e-01 0.0000e+00 1.0000e+00
      994  1    1    2    0    0 -6.0245921791e+00 -1.5341594209e+01 +7.7709303977e+00 1.3226128528e+02 1.3100000000e+02 0.0000e+00 0.0000e+00
      997  1    1    2    0    0 +2.1524072227e+01 +2.2229519702e+01 +4.3771993863e+02 4.4165165222e+02 5.0000000000e+01 0.0000e+00 0.0000e+00
</event>
<event>
 5      1 +5.6267200e-07 2.09231700e+02 7.95774700e-02 4.87727500e-01
       13 -1    0    0    0    0 +0.0000000000e+00 +0.0000000000e+00 +4.9999998884e+02 5.0000000000e+02 1.0566000000e-01 0.0000e+00 -1.0000e+00
      994 -1    0    0    0    0 -0.0000000000e+00 -0.0000000000e+00 +0.0000000000e+00 1.3100000000e+02 1.3100000000e+02 0.0000e+00 0.0000e+00
       13  1    1    2    0    0 -4.4468410365e-01 -1.0468445736e+01 +2.6109620584e+01 2.8133779539e+01 1.0566000000e-01 0.0000e+00 1.0000e+00
      994  1    1    2    0    0 +4.8276479007e+00 +2.4767482726e+01 +7.5574069040e+00 1.3362203704e+02 1.3100000000e+02 0.0000e+00 0.0000e+00
      997  1    1    2    0    0 -4.3829637971e+00 -1.4299036990e+01 +4.6633296135e+02 4.6924418342e+02 5.0000000000e+01 0.0000e+00 0.0000e+00
</event>
<event>
 5      1 +5.6267200e-07 1.94952700e+02 7.95774700e-02 5.13676000e-01
       13 -1    0    0    0    0 +0.0000000000e+00 +0.0000000000e+00 +4.9999998884e+02 5.0000000000e+02 1.0566000000e-01 0.0000e+00 -1.0000e+00
      994 -1    0    0    0    0 -0.0000000000e+00 -0.0000000000e+00 +0.0000000000e+00 1.3100000000e+02 1.3100000000e+02 0.0000e+00 0.0000e+00
       13  1    1    2    0    0 +5.3917890219e+00 -1.7091304413e+01 +8.7861227450e+00 1.9959739285e+01 1.0566000000e-01 0.0000e+00 1.0000e+00
      994  1    1    2    0    0 -9.5573855381e+00 -4.7128911510e+01 +3.0069834460e+01 1.4275038656e+02 1.3100000000e+02 0.0000e+00 0.0000e+00
      997  1    1    2    0    0 +4.1655965162e+00 +6.4220215924e+01 +4.6114403163e+02 4.6828987416e+02 5.0000000000e+01 0.0000e+00 0.0000e+00
</event>
<event>
 5      1 +5.6267200e-07 2.15338400e+02 7.95774700e-02 4.77958800e-01
       13 -1    0    0    0    0 +0.0000000000e+00 +0.0000000000e+00 +4.9999998884e+02 5.0000000000e+02 1.0566000000e-01 0.0000e+00 1.0000e+00
      994 -1    0    0    0    0 -0.0000000000e+00 -0.0000000000e+00 +0.0000000000e+00 1.3100000000e+02 1.3100000000e+02 0.0000e+00 0.0000e+00
       13  1    1    2    0    0 -1.1574840133e+01 +2.7603727027e+01 -5.2723723265e+00 3.0393284519e+01 1.0566000000e-01 0.0000e+00 -1.0000e+00
      994  1    1    2    0    0 +5.4508622093e+00 -3.3422254162e+01 +5.2707178873e+01 1.4520952337e+02 1.3100000000e+02 0.0000e+00 0.0000e+00
      997  1    1    2    0    0 +6.1239779232e+00 +5.8185271349e+00 +4.5256518229e+02 4.5539719211e+02 5.0000000000e+01 0.0000e+00 0.0000e+00
</event>
<event>
 5      1 +5.6267200e-07 2.03811600e+02 7.95774700e-02 4.97024700e-01
       13 -1    0    0    0    0 +0.0000000000e+00 +0.0000000000e+00 +4.9999998884e+02 5.0000000000e+02 1.0566000000e-01 0.0000e+00 -1.0000e+00
      994 -1    0    0    0    0 -0.0000000000e+00 -0.0000000000e+00 +0.0000000000e+00 1.3100000000e+02 1.3100000000e+02 0.0000e+00 0.0000e+00
       13  1    1    2    0    0 +1.1119772121e+01 -2.2267631602e+01 +6.6148230901e+01 7.0675995674e+01 1.0566000000e-01 0.0000e+00 1.0000e+00
      994  1    1    2    0    0 -8.9379240235e+01 -2.7501845181e+01 +5.9779577854e+01 1.7169623759e+02 1.3100000000e+02 0.0000e+00 0.0000e+00
      997  1    1    2    0    0 +7.8259468115e+01 +4.9769476783e+01 +3.7407218008e+02 3.8862776674e+02 5.0000000000e+01 0.0000e+00 0.0000e+00
</event>
<event>
 5      1 +5.6267200e-07 1.97855500e+02 7.95774700e-02 5.08005000e-01
       13 -1    0    0    0    0 +0.0000000000e+00 +0.0000000000e+00 +4.9999998884e+02 5.0000000000e+02 1.0566000000e-01 0.0000e+00 -1.0000e+00
      994 -1    0    0    0    0 -0.0000000000e+00 -0.0000000000e+00 +0.0000000000e+00 1.3100000000e+02 1.3100000000e+02 0.0000e+00 0.0000e+00
       13  1    1    2    0    0 -1.5698375864e+01 +2.5320279567e+01 +2.8599216420e+01 4.1297480625e+01 1.0566000000e-01 0.0000e+00 1.0000e+00
      994  1    1    2    0    0 +3.0971251597e+01 -3.6503663251e+01 +2.6956500310e+01 1.4205417546e+02 1.3100000000e+02 0.0000e+00 0.0000e+00
      997  1    1    2    0    0 -1.5272875733e+01 +1.1183383684e+01 +4.4444427211e+02 4.4764834392e+02 5.0000000000e+01 0.0000e+00 0.0000e+00
</event>
<event>
 5      1 +5.6267200e-07 1.96565500e+02 7.95774700e-02 5.10498100e-01
       13 -1    0    0    0    0 +0.0000000000e+00 +0.0000000000e+00 +4.9999998884e+02 5.0000000000e+02 1.0566000000e-01 0.0000e+00 1.0000e+00
      994 -1    0    0    0    0 -0.0000000000e+00 -0.0000000000e+00 +0.0000000000e+00 1.3100000000e+02 1.3100000000e+02 0.0000e+00 0.0000e+00
       13  1    1    2    0    0 -1.8651724864e+00 -1.9651848020e+01 +9.2037144037e+00 2.1780576711e+01 1.0566000000e-01 0.0000e+00 -1.0000e+00
      994  1    1    2    0    0 -1.1405931653e+01 +3.1934859833e+01 +2.1612940532e+01 1.3703302430e+02 1.3100000000e+02 0.0000e+00 0.0000e+00
      997  1    1    2    0    0 +1.3271104140e+01 -1.2283011813e+01 +4.6918333390e+02 4.7218639899e+02 5.0000000000e+01 0.0000e+00 0.0000e+00
</event>
<event>
 5      1 +5.6267200e-07 2.05931500e+02 7.95774700e-02 4.93313800e-01
       13 -1    0    0    0    0 +0.0000000000e+00 +0.0000000000e+00 +4.9999998884e+02 5.0000000000e+02 1.0566000000e-01 0.0000e+00 -1.0000e+00
      994 -1    0    0    0    0 -0.0000000000e+00 -0.0000000000e+00 +0.0000000000e+00 1.3100000000e+02 1.3100000000e+02 0.0000e+00 0.0000e+00
       13  1    1    2    0    0 +1.0335083719e+01 -2.2429715719e+01 +9.4286925334e+01 9.7467643634e+01 1.0566000000e-01 0.0000e+00 1.0000e+00
      994  1    1    2    0    0 +2.1704210485e+00 +5.1355318111e+00 +7.1870388618e+00 1.3131541395e+02 1.3100000000e+02 0.0000e+00 0.0000e+00
      997  1    1    2    0    0 -1.2505504768e+01 +1.7294183908e+01 +3.9852602464e+02 4.0221694241e+02 5.0000000000e+01 0.0000e+00 0.0000e+00
</event>
<event>
 5      1 +5.6267200e-07 1.95373800e+02 7.95774700e-02 5.12839600e-01
       13 -1    0    0    0    0 +0.0000000000e+00 +0.0000000000e+00 +4.9999998884e+02 5.0000000000e+02 1.0566000000e-01 0.0000e+00 -1.0000e+00
      994 -1    0    0    0    0 -0.0000000000e+00 -0.0000000000e+00 +0.0000000000e+00 1.3100000000e+02 1.3100000000e+02 0.0000e+00 0.0000e+00
       13  1    1    2    0    0 +3.3730243510e+01 +2.9177487179e+01 +5.7085516171e+01 7.2441855345e+01 1.0566000000e-01 0.0000e+00 1.0000e+00
      994  1    1    2    0    0 -2.1684052532e+01 -5.4259312581e+01 +3.6334203611e+01 1.4797109680e+02 1.3100000000e+02 0.0000e+00 0.0000e+00
      997  1    1    2    0    0 -1.2046190978e+01 +2.5081825402e+01 +4.0658026905e+02 4.1058704786e+02 5.0000000000e+01 0.0000e+00 0.0000e+00
</event>
<event>
 5      1 +5.6267200e-07 2.06325100e+02 7.95774700e-02 4.92635600e-01
       13 -1    0    0    0    0 +0.0000000000e+00 +0.0000000000e+00 +4.9999998884e+02 5.0000000000e+02 1.0566000000e-01 0.0000e+00 1.0000e+00
      994 -1    0    0    0    0 -0.0000000000e+00 -0.0000000000e+00 +0.0000000000e+00 1.3100000000e+02 1.3100000000e+02 0.0000e+00 0.0000e+00
       13  1    1    2    0    0 -1.0189807147e+01 +4.2614481461e+00 +1.2770175960e+01 1.6884332029e+01 1.0566000000e-01 0.0000e+00 -1.0000e+00
      994  1    1    2    0    0 +1.8912952706e+01 +1.1136849698e+01 +9.1911402457e+00 1.3314355508e+02 1.3100000000e+02 0.0000e+00 0.0000e+00
      997  1    1    2    0    0 -8.7231455587e+00 -1.5398297844e+01 +4.7803867263e+02 4.8097211289e+02 5.0000000000e+01 0.0000e+00 0.0000e+00
</event>
<event>
 5      1 +5.6267200e-07 2.09019600e+02 7.95774700e-02 4.88079600e-01
       13 -1    0    0    0    0 +0.0000000000e+00 +0.0000000000e+00 +4.9999998884e+02 5.0000000000e+02 1.0566000000e-01 0.0000e+00 1.0000e+00
      994 -1    0    0    0    0 -0.0000000000e+00 -0.0000000000e+00 +0.0000000000e+00 1.3100000000e+02 1.3100000000e+02 0.0000e+00 0.0000e+00
       13  1    1    2    0    0 +1.2218731536e+01 +7.2535544284e+00 +7.0668895836e+01 7.2083392366e+01 1.0566000000e-01 0.0000e+00 -1.0000e+00
      994  1    1    2    0    0 -1.5869854499e+01 +1.3691417865e+01 +6.7295694987e+00 1.3283672049e+02 1.3100000000e+02 0.0000e+00 0.0000e+00
      997  1    1    2    0    0 +3.6511229622e+00 -2.0944972293e+01 +4.2260152350e+02 4.2607988714e+02 5.0000000000e+01 0.0000e+00 0.0000e+00
</event>
<event>
 5      1 +5.6267200e-07 1.95642100e+02 7.95774700e-02 5.12309100e-01
       13 -1    0    0    0    0 +0.0000000000e+00 +0.0000000000e+00 +4.9999998884e+02 5.0000000000e+02 1.0566000000e-01 0.0000e+00 -1.0000e+00
      994 -1    0    0    0    0 -0.0000000000e+00 -0.0000000000e+00 +0.0000000000e+00 1.3100000000e+02 1.3100000000e+02 0.0000e+00 0.0000e+00
       13  1    1    2    0    0 -8.2920197392e+00 -2.6900121347e+01 +2.2567376611e+01 3.6078688598e+01 1.0566000000e-01 0.0000e+00 1.0000e+00
      994  1    1    2    0    0 +1.7696478547e+01 +2.9298316038e+01 +2.2630384257e+01 1.3727596646e+02 1.3100000000e+02 0.0000e+00 0.0000e+00
      997  1    1    2    0    0 -9.4044588078e+00 -2.3981946903e+00 +4.5480222797e+02 4.5764534494e+02 5.0000000000e+01 0.0000e+00 0.0000e+00
</event>
<event>
 5      1 +5.6267200e-07 2.04663300e+02 7.95774700e-02 4.95521900e-01
       13 -1    0    0    0    0 +0.0000000000e+00 +0.0000000000e+00 +4.9999998884e+02 5.0000000000e+02 1.0566000000e-01 0.0000e+00 -1.0000e+00
      994 -1    0    0    0    0 -0.0000000000e+00 -0.0000000000e+00 +0.0000000000e+00 1.3100000000e+02 1.3100000000e+02 0.0000e+00 0.0000e+00
       13  1    1    2    0    0 -1.2477129845e+01 +1.2479143904e+01 +2.5724754247e+01 3.1195864259e+01 1.0566000000e-01 0.0000e+00 1.0000e+00
      994  1    1    2    0    0 +1.3740836518e+00 -2.3133075054e+01 +1.0894047663e+01 1.3347924012e+02 1.3100000000e+02 0.0000e+00 0.0000e+00
      997  1    1    2    0    0 +1.1103046194e+01 +1.0653931150e+01 +4.6338118693e+02 4.6632489563e+02 5.0000000000e+01 0.0000e+00 0.0000e+00
</event>
<event>
 5      1 +5.6267200e-07 2.06702100e+02 7.95774700e-02 4.91989100e-01
       13 -1    0    0    0    0 +0.0000000000e+00 +0.0000000000e+00 +4.9999998884e+02 5.0000000000e+02 1.0566000000e-01 0.0000e+00 -1.0000e+00
      994 -1    0    0    0    0 -0.0000000000e+00 -0.0000000000e+00 +0.0000000000e+00 1.3100000000e+02 1.3100000000e+02 0.0000e+00 0.0000e+00
       13  1    1    2    0    0 -1.9698510828e+01 -3.3829492957e+01 +1.8428348461e+02 1.8839554078e+02 1.0566000000e-01 0.0000e+00 1.0000e+00
      994  1    1    2    0    0 -8.2247086851e-01 +6.1338605071e+01 +2.6451134911e+01 1.4705020731e+02 1.3100000000e+02 0.0000e+00 0.0000e+00
      997  1    1    2    0    0 +2.0520981696e+01 -2.7509112114e+01 +2.8926536932e+02 2.9555425192e+02 5.0000000000e+01 0.0000e+00 0.0000e+00
</event>
<event>
 5      1 +5.6267200e-07 1.93445000e+02 7.95774700e-02 5.16710300e-01
       13 -1    0    0    0    0 +0.0000000000e+00 +0.0000000000e+00 +4.9999998884e+02 5.0000000000e+02 1.0566000000e-01 0.0000e+00 1.0000e+00
      994 -1    0    0    0    0 -0.0000000000e+00 -0.0000000000e+00 +0.0000000000e+00 1.3100000000e+02 1.3100000000e+02 0.0000e+00 0.0000e+00
       13  1    1    2    0    0 +4.9197770100e+00 +2.5989607002e+01 +1.5537330507e+01 3.0677087235e+01 1.0566000000e-01 0.0000e+00 -1.0000e+00
      994  1    1    2    0    0 +9.2648454986e+00 -3.2595326163e+01 +2.4654462360e+01 1.3753957672e+02 1.3100000000e+02 0.0000e+00 0.0000e+00
      997  1    1    2    0    0 -1.4184622509e+01 +6.6057191616e+00 +4.5980819597e+02 4.6278333605e+02 5.0000000000e+01 0.0000e+00 0.0000e+00
</event>
<event>
 5      1 +5.6267200e-07 2.05471400e+02 7.95774700e-02 4.94110800e-01
       13 -1    0    0    0    0 +0.0000000000e+00 +0.0000000000e+00 +4.9999998884e+02 5.0000000000e+02 1.0566000000e-01 0.0000e+00 1.0000e+00
      994 -1    0    0    0    0 -0.0000000000e+00 -0.0000000000e+00 +0.0000000000e+00 1.3100000000e+02 1.3100000000e+02 0.0000e+00 0.0000e+00
       13  1    1    2    0    0 -1.4738488325e+01 +1.0235460956e+01 +2.9012367188e+01 3.4113286459e+01 1.0566000000e-01 0.0000e+00 -1.0000e+00
      994  1    1    2    0    0 +1.4753042154e+01 -2.2129460241e+01 +1.1096198320e+01 1.3413236329e+02 1.3100000000e+02 0.0000e+00 0.0000e+00
      997  1    1    2    0    0 -1.4553828506e-02 +1.1893999285e+01 +4.5989142333e+02 4.6275435026e+02 5.0000000000e+01 0.0000e+00 0.0000e+00
</event>
<event>
 5      1 +5.6267200e-07 2.08542000e+02 7.95774700e-02 4.88876300e-01
       13 -1    0    0    0    0 +0.0000000000e+00 +0.0000000000e+00 +4.9999998884e+02 5.0000000000e+02 1.0566000000e-01 0.0000e+00 1.0000e+00
      994 -1    0    0    0    0 -0.0000000000e+00 -0.0000000000e+00 +0.0000000000e+00 1.3100000000e+02 1.3100000000e+02 0.0000e+00 0.0000e+00
       13  1    1    2    0    0 +7.0841210532e+00 -1.2196549471e+01 +5.9256192438e+01 6.0911805886e+01 1.0566000000e-01 0.0000e+00 -1.0000e+00
      994  1    1    2    0    0 -2.5543612502e+01 -1.3279778789e+01 +9.1149636713e+00 1.3443552814e+02 1.3100000000e+02 0.0000e+00 0.0000e+00
      997  1    1    2    0    0 +1.8459491449e+01 +2.5476328260e+01 +4.3162883273e+02 4.3565266597e+02 5.0000000000e+01 0.0000e+00 0.0000e+00
</event>
<event>
 5      1 +5.6267200e-07 2.05436300e+02 7.95774700e-02 4.94171900e-01
       13 -1    0    0    0    0 +0.0000000000e+00 +0.0000000000e+00 +4.9999998884e+02 5.0000000000e+02 1.0566000000e-01 0.0000e+00 -1.0000e+00
      994 -1    0    0    0    0 -0.0000000000e+00 -0.0000000000e+00 +0.0000000000e+00 1.3100000000e+02 1.3100000000e+02 0.0000e+00 0.0000e+00
       13  1    1    2    0    0 +2.1090196149e+01 -1.2077144889e+01 +5.1430815705e+01 5.6884037923e+01 1.0566000000e-01 0.0000e+00 1.0000e+00
      994  1    1    2    0    0 -2.1281477039e+01 +2.9600144726e+01 +1.4414118888e+01 1.3674003311e+02 1.3100000000e+02 0.0000e+00 0.0000e+00
      997  1    1    2    0    0 +1.9128088946e-01 -1.7522999838e+01 +4.3415505424e+02 4.3737592896e+02 5.0000000000e+01 0.0000e+00 0.0000e+00
</event>
<event>
 5      1 +5.6267200e-07 2.04735400e+02 7.95774700e-02 4.95395600e-01
       13 -1    0    0    0    0 +0.0000000000e+00 +0.0000000000e+00 +4.9999998884e+02 5.0000000000e+02 1.0566000000e-01 0.0000e+00 1.0000e+00
      994 -1    0    0    0    0 -0.0000000000e+00 -0.0000000000e+00 +0.0000000000e+00 1.3100000000e+02 1.3100000000e+02 0.0000e+00 0.0000e+00
       13  1    1    2    0    0 +2.0515651854e+01 +9.7889857910e-02 +3.4930424137e+01 4.0509841370e+01 1.0566000000e-01 0.0000e+00 -1.0000e+00
      994  1    1    2    0    0 -2.5447001578e+01 -6.3839795897e+01 +3.3925061930e+01 1.5177278826e+02 1.3100000000e+02 0.0000e+00 0.0000e+00
      997  1    1    2    0    0 +4.9313497245e+00 +6.3741906039e+01 +4.3114450277e+02 4.3871737037e+02 5.0000000000e+01 0.0000e+00 0.0000e+00
</event>
<event>
 5      1 +5.6267200e-07 2.04256000e+02 7.95774700e-02 4.96238600e-01
       13 -1    0    0    0    0 +0.0000000000e+00 +0.0000000000e+00 +4.9999998884e+02 5.0000000000e+02 1.0566000000e-01 0.0000e+00 -1.0000e+00
      994 -1    0    0    0    0 -0.0000000000e+00 -0.0000000000e+00 +0.0000000000e+00 1.3100000000e+02 1.3100000000e+02 0.0000e+00 0.0000e+00
       13  1    1    2    0    0 +1.0301556544e+01 +7.5114877497e+00 +1.0535387611e+01 1.6539349189e+01 1.0566000000e-01 0.0000e+00 1.0000e+00
      994  1    1    2    0    0 -2.2209209725e+01 -8.0506216753e+00 +1.1355507644e+01 1.3359644104e+02 1.3100000000e+02 0.0000e+00 0.0000e+00
      997  1    1    2    0    0 +1.1907653182e+01 +5.3913392566e-01 +4.7810909358e+02 4.8086420977e+02 5.0000000000e+01 0.0000e+00 0.0000e+00
</event>
<event>
 5      1 +5.6267200e-07 2.08821800e+02 7.95774700e-02 4.88409000e-01
       13 -1    0    0    0    0 +0.0000000000e+00 +0.0000000000e+00 +4.9999998884e+02 5.0000000000e+02 1.0566000000e-01 0.0000e+00 -1.0000e+00
      994 -1    0    0    0    0 -0.0000000000e+00 -0.0000000000e+00 +0.0000000000e+00 1.3100000000e+02 1.3100000000e+02 0.0000e+00 0.0000e+00
       13  1    1    2    0    0 +1.2608644787e+01 -7.4902692098e+00 +6.4684525868e+01 6.6326322882e+01 1.0566000000e-01 0.0000e+00 1.0000e+00
      994  1    1    2    0    0 -2.0970820143e+00 +8.5004887908e+00 +5.0555185990e+00 1.3138955183e+02 1.3100000000e+02 0.0000e+00 0.0000e+00
      997  1    1    2    0    0 -1.0511562773e+01 -1.0102195810e+00 +4.3025994437e+02 4.3328412528e+02 5.0000000000e+01 0.0000e+00 0.0000e+00
</event>
<event>
 5      1 +5.6267200e-07 2.09458200e+02 7.95774700e-02 4.87352200e-01
       13 -1    0    0    0    0 +0.0000000000e+00 +0.0000000000e+00 +4.9999998884e+02 5.0000000000e+02 1.0566000000e-01 0.0000e+00 1.0000e+00
      994 -1    0    0    0    0 -0.0000000000e+00 -0.0000000000e+00 +0.0000000000e+00 1.3100000000e+02 1.3100000000e+02 0.0000e+00 0.0000e+00
       13  1    1    2    0    0 +6.1994316864e+00 -1.4758826981e+01 +8.9595974897e+01 9.1014865867e+01 1.0566000000e-01 0.0000e+00 -1.0000e+00
      994  1    1    2    0    0 -3.3711679277e+01 +1.3314012962e+01 +1.0828876592e+01 1.3635250210e+02 1.3100000000e+02 0.0000e+00 0.0000e+00
      997  1    1    2    0    0 +2.7512247590e+01 +1.4448140184e+00 +3.9957513735e+02 4.0363263203e+02 5.0000000000e+01 0.0000e+00 0.0000e+00
</event>
<event>
 5      1 +5.6267200e-07 2.04894500e+02 7.95774700e-02 4.95116700e-01
       13 -1    0    0    0    0 +0.0000000000e+00 +0.0000000000e+00 +4.9999998884e+02 5.0000000000e+02 1.0566000000e-01 0.0000e+00 -1.0000e+00
      994 -1    0    0    0    0 -0.0000000000e+00 -0.0000000000e+00 +0.0000000000e+00 1.3100000000e+02 1.3100000000e+02 0.0000e+00 0.0000e+00
       13  1    1    2    0    0 -3.0066788700e+01 -6.1034834800e+00 +7.0050258886e+01 7.6474271670e+01 1.0566000000e-01 0.0000e+00 1.0000e+00
      994  1    1    2    0    0 +3.7672526534e+01 +3.1274388397e+01 +2.0675579561e+01 1.4137109399e+02 1.3100000000e+02 0.0000e+00 0.0000e+00
      997  1    1    2    0    0 -7.6057378343e+00 -2.5170904917e+01 +4.0927415039e+02 4.1315463434e+02 5.0000000000e+01 0.0000e+00 0.0000e+00
</event>
<event>
 5      1 +5.6267200e-07 2.09198900e+02 7.95774700e-02 4.87781900e-01
       13 -1    0    0    0    0 +0.0000000000e+00 +0.0000000000e+00 +4.9999998884e+02 5.0000000000e+02 1.0566000000e-01 0.0000e+00 -1.0000e+00
      994 -1    0    0    0    0 -0.0000000000e+00 -0.0000000000e+00 +0.0000000000e+00 1.3100000000e+02 1.3100000000e+02 0.0000e+00 0.0000e+00
       13  1    1    2    0    0 -6.3294909718e+00 +1.0977633829e+01 +2.9623177304e+01 3.2219787369e+01 1.0566000000e-01 0.0000e+00 1.0000e+00
      994  1    1    2    0    0 +2.9112726176e+01 -3.6423643844e+01 +1.5524541719e+01 1.3991513160e+02 1.3100000000e+02 0.0000e+00 0.0000e+00
      997  1    1    2    0    0 -2.2783235204e+01 +2.5446010015e+01 +4.5485226981e+02 4.5886508103e+02 5.0000000000e+01 0.0000e+00 0.0000e+00
</event>
<event>
 5      1 +5.6267200e-07 2.00519400e+02 7.95774700e-02 5.02989300e-01
       13 -1    0    0    0    0 +0.0000000000e+00 +0.0000000000e+00 +4.9999998884e+02 5.0000000000e+02 1.0566000000e-01 0.0000e+00 -1.0000e+00
      994 -1    0    0    0    0 -0.0000000000e+00 -0.0000000000e+00 +0.0000000000e+00 1.3100000000e+02 1.3100000000e+02 0.0000e+00 0.0000e+00
       13  1    1    2    0    0 -1.3829526527e+01 +1.5514802565e+01 +2.2619759193e+01 3.0718554207e+01 1.0566000000e-01 0.0000e+00 1.0000e+00
      994  1    1    2    0    0 +9.3245590855e+00 +3.9650509718e+00 +1.2157484883e+01 1.3195254249e+02 1.3100000000e+02 0.0000e+00 0.0000e+00
      997  1    1    2    0    0 +4.5049674415e+00 -1.9479853537e+01 +4.6522274476e+02 4.6832890330e+02 5.0000000000e+01 0.0000e+00 0.0000e+00
</event>
<event>
 5      1 +5.6267200e-07 1.93365400e+02 7.95774700e-02 5.16872300e-01
       13 -1    0    0    0    0 +0.0000000000e+00 +0.0000000000e+00 +4.9999998884e+02 5.0000000000e+02 1.0566000000e-01 0.0000e+00 -1.0000e+00
      994 -1    0    0    0    0 -0.0000000000e+00 -0.0000000000e+00 +0.0000000000e+00 1.3100000000e+02 1.3100000000e+02 0.0000e+00 0.0000e+00
       13  1    1    2    0    0 -6.2512934736e+00 -6.1845678191e+01 +4.4574296608e+01 7.6490820777e+01 1.0566000000e-01 0.0000e+00 1.0000e+00
      994  1    1    2    0    0 -1.6986735996e+01 +1.1891891062e+02 +1.3174302744e+02 2.2124077785e+02 1.3100000000e+02 0.0000e+00 0.0000e+00
      997  1    1    2    0    0 +2.3238029470e+01 -5.7073232427e+01 +3.2368266478e+02 3.3326840138e+02 5.0000000000e+01 0.0000e+00 0.0000e+00
</event>
<event>
 5      1 +5.6267200e-07 1.96821500e+02 7.95774700e-02 5.09999900e-01
       13 -1    0    0    0    0 +0.0000000000e+00 +0.0000000000e+00 +4.9999998884e+02 5.0000000000e+02 1.0566000000e-01 0.0000e+00 1.0000e+00
      994 -1    0    0    0    0 -0.0000000000e+00 -0.0000000000e+00 +0.0000000000e+00 1.3100000000e+02 1.3100000000e+02 0.0000e+00 0.0000e+00
       13  1    1    2    0    0 -6.3520768369e+00 -2.1731242953e+01 +1.6720235185e+01 2.8145572104e+01 1.0566000000e-01 0.0000e+00 -1.0000e+00
      994  1    1    2    0    0 +8.1431087032e+00 +1.0545231330e+01 +1.5855366997e+01 1.3262693839e+02 1.3100000000e+02 0.0000e+00 0.0000e+00
      997  1    1    2    0    0 -1.7910318663e+00 +1.1186011623e+01 +4.6742438665e+02 4.7022748951e+02 5.0000000000e+01 0.0000e+00 0.0000e+00
</event>
<event>
 5      1 +5.6267200e-07 1.93942000e+02 7.95774700e-02 5.15703100e-01
       13 -1    0    0    0    0 +0.0000000000e+00 +0.0000000000e+00 +4.9999998884e+02 5.0000000000e+02 1.0566000000e-01 0.0000e+00 -1.0000e+00
      994 -1    0    0    0    0 -0.0000000000e+00 -0.0000000000e+00 +0.0000000000e+00 1.3100000000e+02 1.3100000000e+02 0.0000e+00 0.0000e+00
       13  1    1    2    0    0 +1.2625267989e+01 -3.2410899149e+00 -9.7307285382e-01 1.3071346160e+01 1.0566000000e-01 0.0000e+00 1.0000e+00
      994  1    1    2    0    0 -9.0637763381e+00 +2.3252952788e+01 +2.1082393999e+01 1.3501229274e+02 1.3100000000e+02 0.0000e+00 0.0000e+00
      997  1    1    2    0    0 -3.5614916508e+00 -2.0011862873e+01 +4.7989066769e+02 4.8291636110e+02 5.0000000000e+01 0.0000e+00 0.0000e+00
</event>
<event>
 5      1 +5.6267200e-07 2.08483800e+02 7.95774700e-02 4.88973700e-01
       13 -1    0    0    0    0 +0.0000000000e+00 +0.0000000000e+00 +4.9999998884e+02 5.0000000000e+02 1.0566000000e-01 0.0000e+00 -1.0000e+00
      994 -1    0    0    0    0 -0.0000000000e+00 -0.0000000000e+00 +0.0000000000e+00 1.3100000000e+02 1.3100000000e+02 0.0000e+00 0.0000e+00
       13  1    1    2    0    0 -5.2174187697e+01 -1.4320733993e+01 +2.0562300033e+02 2.1262186791e+02 1.0566000000e-01 0.0000e+00 1.0000e+00
      994  1    1    2    0    0 +1.0578517360e+02 +2.8711835289e+01 +7.4854265872e+01 1.8649137663e+02 1.3100000000e+02 0.0000e+00 0.0000e+00
      997  1    1    2    0    0 -5.3610985899e+01 -1.4391101296e+01 +2.1952272263e+02 2.3188675546e+02 5.0000000000e+01 0.0000e+00 0.0000e+00
</event>
<event>
 5      1 +5.6267200e-07 2.09132900e+02 7.95774700e-02 4.87891300e-01
       13 -1    0    0    0    0 +0.0000000000e+00 +0.0000000000e+00 +4.9999998884e+02 5.0000000000e+02 1.0566000000e-01 0.0000e+00 1.0000e+00
      994 -1    0    0    0    0 -0.0000000000e+00 -0.0000000000e+00 +0.0000000000e+00 1.3100000000e+02 1.3100000000e+02 0.0000e+00 0.0000e+00
       13  1    1    2    0    0 +1.7647113388e+01 -6.6575012385e+00 +1.1202061115e+02 1.1359740939e+02 1.0566000000e-01 0.0000e+00 -1.0000e+00
      994  1    1    2    0    0 -1.7862911272e+01 +1.7702572323e+01 +7.6175560216e+00 1.3360947506e+02 1.3100000000e+02 0.0000e+00 0.0000e+00
      997  1    1    2    0    0 +2.1579788362e-01 -1.1045071085e+01 +3.8036182166e+02 3.8379311555e+02 5.0000000000e+01 0.0000e+00 0.0000e+00
</event>
<event>
 5      1 +5.6267200e-07 2.04531600e+02 7.95774700e-02 4.95753300e-01
       13 -1    0    0    0    0 +0.0000000000e+00 +0.0000000000e+00 +4.9999998884e+02 5.0000000000e+02 1.0566000000e-01 0.0000e+00 1.0000e+00
      994 -1    0    0    0    0 -0.0000000000e+00 -0.0000000000e+00 +0.0000000000e+00 1.3100000000e+02 1.3100000000e+02 0.0000e+00 0.0000e+00
       13  1    1    2    0    0 +9.1638823681e+00 +9.3397468612e+00 +1.3360876314e+01 1.8701117384e+01 1.0566000000e-01 0.0000e+00 -1.0000e+00
      994  1    1    2    0    0 -1.7711928351e+01 +7.8974592125e+00 +1.0159417191e+01 1.3281677615e+02 1.3100000000e+02 0.0000e+00 0.0000e+00
      997  1    1    2    0    0 +8.5480459827e+00 -1.7237206074e+01 +4.7647969533e+02 4.7948210647e+02 5.0000000000e+01 0.0000e+00 0.0000e+00
</event>
<event>
 5      1 +5.6267200e-07 2.08824600e+02 7.95774700e-02 4.88404300e-01
       13 -1    0    0    0    0 +0.0000000000e+00 +0.0000000000e+00 +4.9999998884e+02 5.0000000000e+02 1.0566000000e-01 0.0000e+00 1.0000e+00
      994 -1    0    0    0    0 -0.0000000000e+00 -0.0000000000e+00 +0.0000000000e+00 1.3100000000e+02 1.3100000000e+02 0.0000e+00 0.0000e+00
       13  1    1    2    0    0 -6.5605774252e+00 +1.1187403564e+01 +4.4951868106e+01 4.6785476218e+01 1.0566000000e-01 0.0000e+00 -1.0000e+00
      994  1    1    2    0    0 +6.8623491000e+00 -4.4190919896e+00 +5.0025851517e+00 1.3134932839e+02 1.3100000000e+02 0.0000e+00 0.0000e+00
      997  1    1    2    0    0 -3.0177167481e-01 -6.7683115745e+00 +4.5004553558e+02 4.5286519540e+02 5.0000000000e+01 0.0000e+00 0.0000e+00
</event>
<event>
 5      1 +5.6267200e-07 1.98818200e+02 7.95774700e-02 5.06172200e-01
       13 -1    0    0    0    0 +0.0000000000e+00 +0.0000000000e+00 +4.9999998884e+02 5.0000000000e+02 1.0566000000e-01 0.0000e+00 1.0000e+00
      994 -1    0    0    0    0 -0.0000000000e+00 -0.0000000000e+00 +0.0000000000e+00 1.3100000000e+02 1.3100000000e+02 0.0000e+00 0.0000e+00
       13  1    1    2    0    0 -4.4823144676e+00 -1.7818571155e+01 +1.0914901352e+01 2.1371449566e+01 1.0566000000e-01 0.0000e+00 -1.0000e+00
      994  1    1    2    0    0 +2.5415225464e+01 +1.8401780549e+01 +1.8544722925e+01 1.3597597568e+02 1.3100000000e+02 0.0000e+00 0.0000e+00
      997  1    1    2    0    0 -2.0932910997e+01 -5.8320939395e-01 +4.7054036456e+02 4.7365257476e+02 5.0000000000e+01 0.0000e+00 0.0000e+00
</event>
<event>
 5      1 +5.6267200e-07 2.08113600e+02 7.95774700e-02 4.89594800e-01
       13 -1    0    0    0    0 +0.0000000000e+00 +0.0000000000e+00 +4.9999998884e+02 5.0000000000e+02 1.0566000000e-01 0.0000e+00 -1.0000e+00
      994 -1    0    0    0    0 -0.0000000000e+00 -0.0000000000e+00 +0.0000000000e+00 1.3100000000e+02 1.3100000000e+02 0.0000e+00 0.0000e+00
       13  1    1    2    0    0 +1.5111700540e+01 +6.4767630748e+00 +6.3772097155e+01 6.5857448271e+01 1.0566000000e-01 0.0000e+00 1.0000e+00
      994  1    1    2    0    0 -9.0616638200e+00 +9.4745418574e+00 +6.1140282044e+00 1.3179628992e+02 1.3100000000e+02 0.0000e+00 0.0000e+00
      997  1    1    2    0    0 -6.0500367198e+00 -1.5951304932e+01 +4.3011386348e+02 4.3334626181e+02 5.0000000000e+01 0.0000e+00 0.0000e+00
</event>
<event>
 5      1 +5.6267200e-07 2.09665400e+02 7.95774700e-02 4.87009800e-01
       13 -1    0    0    0    0 +0.0000000000e+00 +0.0000000000e+00 +4.9999998884e+02 5.0000000000e+02 1.0566000000e-01 0.0000e+00 1.0000e+00
      994 -1    0    0    0    0 -0.0000000000e+00 -0.0000000000e+00 +0.0000000000e+00 1.3100000000e+02 1.3100000000e+02 0.0000e+00 0.0000e+00
       13  1    1    2    0    0 +1.1318004403e+01 -1.7778024054e+00 +5.2450513879e+01 5.3687292494e+01 1.0566000000e-01 0.0000e+00 -1.0000e+00
      994  1    1    2    0    0 -1.1766059092e+01 -4.5300882603e+00 +4.7882938054e+00 1.3169240526e+02 1.3100000000e+02 0.0000e+00 0.0000e+00
      997  1    1    2    0    0 +4.4805468920e-01 +6.3078906657e+00 +4.4276118115e+02 4.4562030224e+02 5.0000000000e+01 0.0000e+00 0.0000e+00
</event>
<event>
 5      1 +5.6267200e-07 2.05852000e+02 7.95774700e-02 4.93451100e-01
       13 -1    0    0    0    0 +0.0000000000e+00 +0.0000000000e+00 +4.9999998884e+02 5.0000000000e+02 1.0566000000e-01 0.0000e+00 -1.0000e+00
      994 -1    0    0    0    0 -0.0000000000e+00 -0.0000000000e+00 +0.0000000000e+00 1.3100000000e+02 1.3100000000e+02 0.0000e+00 0.0000e+00
       13  1    1    2    0    0 +1.1194034760e+01 -7.8739570531e-01 +2.0946144663e+01 2.3762965861e+01 1.0566000000e-01 0.0000e+00 1.0000e+00
      994  1    1    2    0    0 +5.3787802835e+01 +4.2698969085e+01 +3.2696825722e+01 1.5148073180e+02 1.3100000000e+02 0.0000e+00 0.0000e+00
      997  1    1    2    0    0 -6.4981837595e+01 -4.1911573380e+01 +4.4635701845e+02 4.5575630234e+02 5.0000000000e+01 0.0000e+00 0.0000e+00
</event>
<event>
 5      1 +5.6267200e-07 2.08513800e+02 7.95774700e-02 4.88923500e-01
       13 -1    0    0    0    0 +0.0000000000e+00 +0.0000000000e+00 +4.9999998884e+02 5.0000000000e+02 1.0566000000e-01 0.0000e+00 -1.0000e+00
      994 -1    0    0    0    0 -0.0000000000e+00 -0.0000000000e+00 +0.0000000000e+00 1.3100000000e+02 1.3100000000e+02 0.0000e+00 0.0000e+00
       13  1    1    2    0    0 -1.5161417214e+01 +1.4736234929e+01 +9.5397647861e+01 9.7712576331e+01 1.0566000000e-01 0.0000e+00 1.0000e+00
      994  1    1    2    0    0 +9.1097224231e+00 -2.7550646967e+01 +9.2064789320e+00 1.3449083406e+02 1.3100000000e+02 0.0000e+00 0.0000e+00
      997  1    1    2    0    0 +6.0516947908e+00 +1.2814412038e+01 +3.9539586204e+02 3.9879658961e+02 5.0000000000e+01 0.0000e+00 0.0000e+00
</event>
<event>
 5      1 +5.6267200e-07 1.92798100e+02 7.95774700e-02 5.18031500e-01
       13 -1    0    0    0    0 +0.0000000000e+00 +0.0000000000e+00 +4.9999998884e+02 5.0000000000e+02 1.0566000000e-01 0.0000e+00 -1.0000e+00
      994 -1    0    0    0    0 -0.0000000000e+00 -0.0000000000e+00 +0.0000000000e+00 1.3100000000e+02 1.3100000000e+02 0.0000e+00 0.0000e+00
       13  1    1    2    0    0 -2.6557771234e+01 +2.8170332445e+01 +1.3330518631e+02 1.3881342408e+02 1.0566000000e-01 0.0000e+00 1.0000e+00
      994  1    1    2    0    0 -3.1335673508e+01 +3.5768882649e+01 +3.2044289205e+01 1.4300060794e+02 1.3100000000e+02 0.0000e+00 0.0000e+00
      997  1    1    2    0    0 +5.7893444742e+01 -6.3939215094e+01 +3.3465051332e+02 3.4918596798e+02 5.0000000000e+01 0.0000e+00 0.0000e+00
</event>
<event>
 5      1 +5.6267200e-07 2.09275500e+02 7.95774700e-02 4.87654800e-01
       13 -1    0    0    0    0 +0.0000000000e+00 +0.0000000000e+00 +4.9999998884e+02 5.0000000000e+02 1.0566000000e-01 0.0000e+00 -1.0000e+00
      994 -1    0    0    0    0 -0.0000000000e+00 -0.0000000000e+00 +0.0000000000e+00 1.3100000000e+02 1.3100000000e+02 0.0000e+00 0.0000e+00
       13  1    1    2    0    0 +6.5730757612e+00 -8.6716265760e+00 +3.8342910816e+01 3.9857150002e+01 1.0566000000e-01 0.0000e+00 1.0000e+00
      994  1    1    2    0    0 -1.8169751135e+01 -5.2216643853e+00 +6.1049467530e+00 1.3249783398e+02 1.3100000000e+02 0.0000e+00 0.0000e+00
      997  1    1    2    0    0 +1.1596675373e+01 +1.3893290961e+01 +4.5555213127e+02 4.5864501602e+02 5.0000000000e+01 0.0000e+00 0.0000e+00
</event>
<event>
 5      1 +5.6267200e-07 1.98682800e+02 7.95774700e-02 5.06428600e-01
       13 -1    0    0    0    0 +0.0000000000e+00 +0.0000000000e+00 +4.9999998884e+02 5.0000000000e+02 1.0566000000e-01 0.0000e+00 -1.0000e+00
      994 -1    0    0    0    0 -0.0000000000e+00 -0.0000000000e+00 +0.0000000000e+00 1.3100000000e+02 1.3100000000e+02 0.0000e+00 0.0000e+00
       13  1    1    2    0    0 -1.2854432972e+00 -2.2709231288e+01 +2.1876702626e+01 3.1558878814e+01 1.0566000000e-01 0.0000e+00 1.0000e+00
      994  1    1    2    0    0 +9.8989439652e+00 +7.0086882338e+00 +1.4015911123e+01 1.3230478664e+02 1.3100000000e+02 0.0000e+00 0.0000e+00
      997  1    1    2    0    0 -8.6135006680e+00 +1.5700543054e+01 +4.6410737509e+02 4.6713633455e+02 5.0000000000e+01 0.0000e+00 0.0000e+00
</event>
<event>
 5      1 +5.6267200e-07 1.96931100e+02 7.95774700e-02 5.09787100e-01
       13 -1    0    0    0    0 +0.0000000000e+00 +0.0000000000e+00 +4.9999998884e+02 5.0000000000e+02 1.0566000000e-01 0.0000e+00 -1.0000e+00
      994 -1    0    0    0    0 -0.0000000000e+00 -0.0000000000e+00 +0.0000000000e+00 1.3100000000e+02 1.3100000000e+02 0.0000e+00 0.0000e+00
       13  1    1    2    0    0 +1.2333184231e+01 -4.6071023389e+01 +4.6072901349e+01 6.6312668715e+01 1.0566000000e-01 0.0000e+00 1.0000e+00
      994  1    1    2    0    0 -5.5567566358e+01 +2.5184824454e+01 +4.7092721874e+01 1.5198932287e+02 1.3100000000e+02 0.0000e+00 0.0000e+00
      997  1    1    2    0    0 +4.3234382126e+01 +2.0886198935e+01 +4.0683436561e+02 4.1269800841e+02 5.0000000000e+01 0.0000e+00 0.0000e+00
</event>
<event>
 5      1 +5.6267200e-07 2.03524700e+02 7.95774700e-02 4.97534600e-01
       13 -1    0    0    0    0 +0.0000000000e+00 +0.0000000000e+00 +4.9999998884e+02 5.0000000000e+02 1.0566000000e-01 0.0000e+00 1.0000e+00
      994 -1    0    0    0    0 -0.0000000000e+00 -0.0000000000e+00 +0.0000000000e+00 1.3100000000e+02 1.3100000000e+02 0.0000e+00 0.0000e+00
       13  1    1    2    0    0 -2.7718367204e+01 +2.4666771969e+01 +1.5933823492e+02 1.6360147246e+02 1.0566000000e-01 0.0000e+00 -1.0000e+00
      994  1    1    2    0    0 +4.3163607051e+01 +1.6454697782e+01 +2.0521841899e+01 1.4041367472e+02 1.3100000000e+02 0.0000e+00 0.0000e+00
      997  1    1    2    0    0 -1.5445239847e+01 -4.1121469751e+01 +3.2013991202e+02 3.2698485282e+02 5.0000000000e+01 0.0000e+00 0.0000e+00
</event>
<event>
 5      1 +5.6267200e-07 2.05169400e+02 7.95774700e-02 4.94636500e-01
       13 -1    0    0    0    0 +0.0000000000e+00 +0.0000000000e+00 +4.9999998884e+02 5.0000000000e+02 1.0566000000e-01 0.0000e+00 -1.0000e+00
      994 -1    0    0    0    0 -0.0000000000e+00 -0.0000000000e+00 +0.0000000000e+00 1.3100000000e+02 1.3100000000e+02 0.0000e+00 0.0000e+00
       13  1    1    2    0    0 +1.7083472492e+00 -2.1727229484e+01 +6.5998158429e+01 6.9503662001e+01 1.0566000000e-01 0.0000e+00 1.0000e+00
      994  1    1    2    0    0 -2.6878510973e+01 -8.9847126462e+00 +1.1861191426e+01 1.3455432834e+02 1.3100000000e+02 0.0000e+00 0.0000e+00
      997  1    1    2    0    0 +2.5170163724e+01 +3.0711942130e+01 +4.2214063898e+02 4.2694200966e+02 5.0000000000e+01 0.0000e+00 0.0000e+00
</event>
<event>
 5      1 +5.6267200e-07 1.93123800e+02 7.95774700e-02 5.17364700e-01
       13 -1    0    0    0    0 +0.0000000000e+00 +0.0000000000e+00 +4.9999998884e+02 5.0000000000e+02 1.0566000000e-01 0.0000e+00 -1.0000e+00
      994 -1    0    0    0    0 -0.0000000000e+00 -0.0000000000e+00 +0.0000000000e+00 1.3100000000e+02 1.3100000000e+02 0.0000e+00 0.0000e+00
       13  1    1    2    0    0 +2.1393798640e+01 +5.2428433745e+01 +6.6640783690e+01 8.7449645511e+01 1.0566000000e-01 0.0000e+00 1.0000e+00
      994  1    1    2    0    0 -5.3908107267e+01 -5.2307759945e+01 +5.5298290417e+01 1.6081382622e+02 1.3100000000e+02 0.0000e+00 0.0000e+00
      997  1    1    2    0    0 +3.2514308627e+01 -1.2067380016e-01 +3.7806091473e+02 3.8273652827e+02 5.0000000000e+01 0.0000e+00 0.0000e+00
</event>
<event>
 5      1 +5.6267200e-07 2.01302200e+02 7.95774700e-02 5.01548200e-01
       13 -1    0    0    0    0 +0.0000000000e+00 +0.0000000000e+00 +4.9999998884e+02 5.0000000000e+02 1.0566000000e-01 0.0000e+00 -1.0000e+00
      994 -1    0    0    0    0 -0.0000000000e+00 -0.0000000000e+00 +0.0000000000e+00 1.3100000000e+02 1.3100000000e+02 0.0000e+00 0.0000e+00
       13  1    1    2    0    0 +5.3208386930e+01 -3.5505995725e+01 +1.7024411009e+02 1.8186499486e+02 1.0566000000e-01 0.0000e+00 1.0000e+00
      994  1    1    2    0    0 -4.4754522910e+01 +5.9322571220e+01 +4.2533776049e+01 1.5650002199e+02 1.3100000000e+02 0.0000e+00 0.0000e+00
      997  1    1    2    0    0 -8.4538640199e+00 -2.3816575495e+01 +2.8722210270e+02 2.9263498315e+02 5.0000000000e+01 0.0000e+00 0.0000e+00
</event>
<event>
 5      1 +5.6267200e-07 2.07963000e+02 7.95774700e-02 4.89848300e-01
       13 -1    0    0    0    0 +0.0000000000e+00 +0.0000000000e+00 +4.9999998884e+02 5.0000000000e+02 1.0566000000e-01 0.0000e+00 -1.0000e+00
      994 -1    0    0    0    0 -0.0000000000e+00 -0.0000000000e+00 +0.0000000000e+00 1.3100000000e+02 1.3100000000e+02 0.0000e+00 0.0000e+00
       13  1    1    2    0    0 +5.6304143604e+00 +1.4204428321e+01 +4.9093479857e+01 5.1416420318e+01 1.0566000000e-01 0.0000e+00 1.0000e+00
      994  1    1    2    0    0 +2.2712854460e+00 -4.9733651832e+00 +5.5153488565e+00 1.3122999723e+02 1.3100000000e+02 0.0000e+00 0.0000e+00
      997  1    1    2    0    0 -7.9016998065e+00 -9.2310631373e+00 +4.4539116012e+02 4.4835358246e+02 5.0000000000e+01 0.0000e+00 0.0000e+00
</event>
<event>
 5      1 +5.6267200e-07 1.41889800e+02 7.95774700e-02 6.81448900e-01
       13 -1    0    0    0    0 +0.0000000000e+00 +0.0000000000e+00 +4.9999998884e+02 5.0000000000e+02 1.0566000000e-01 0.0000e+00 1.0000e+00
      994 -1    0    0    0    0 -0.0000000000e+00 -0.0000000000e+00 +0.0000000000e+00 1.3100000000e+02 1.3100000000e+02 0.0000e+00 0.0000e+00
       13  1    1    2    0    0 +7.0837007944e+01 -5.6722748545e+01 +1.3018958335e+02 1.5869685149e+02 1.0566000000e-01 0.0000e+00 -1.0000e+00
      994  1    1    2    0    0 +4.6422448350e+01 +2.1166097143e+00 +1.0796934299e+02 1.7600540552e+02 1.3100000000e+02 0.0000e+00 0.0000e+00
      997  1    1    2    0    0 -1.1725945629e+02 +5.4606138830e+01 +2.6184106250e+02 2.9629774299e+02 5.0000000000e+01 0.0000e+00 0.0000e+00
</event>
<event>
 5      1 +5.6267200e-07 1.99268500e+02 7.95774700e-02 5.05322800e-01
       13 -1    0    0    0    0 +0.0000000000e+00 +0.0000000000e+00 +4.9999998884e+02 5.0000000000e+02 1.0566000000e-01 0.0000e+00 1.0000e+00
      994 -1    0    0    0    0 -0.0000000000e+00 -0.0000000000e+00 +0.0000000000e+00 1.3100000000e+02 1.3100000000e+02 0.0000e+00 0.0000e+00
       13  1    1    2    0    0 -1.8799135339e+01 -3.0401747499e+01 +7.6212483123e+01 8.4178545296e+01 1.0566000000e-01 0.0000e+00 -1.0000e+00
      994  1    1    2    0    0 +6.8071852279e+00 +2.1113287740e+00 +1.2970001220e+01 1.3183329023e+02 1.3100000000e+02 0.0000e+00 0.0000e+00
      997  1    1    2    0    0 +1.1991950111e+01 +2.8290418725e+01 +4.1081750449e+02 4.1498816448e+02 5.0000000000e+01 0.0000e+00 0.0000e+00
</event>
<event>
 5      1 +5.6267200e-07 2.02362200e+02 7.95774700e-02 4.99619800e-01
       13 -1    0    0    0    0 +0.0000000000e+00 +0.0000000000e+00 +4.9999998884e+02 5.0000000000e+02 1.0566000000e-01 0.0000e+00 -1.0000e+00
      994 -1    0    0    0    0 -0.0000000000e+00 -0.0000000000e+00 +0.0000000000e+00 1.3100000000e+02 1.3100000000e+02 0.0000e+00 0.0000e+00
       13  1    1    2    0    0 +1.6570885802e+01 -2.1205834517e+01 +4.5619644339e+01 5.2966449640e+01 1.0566000000e-01 0.0000e+00 1.0000e+00
      994  1    1    2    0    0 +2.8379593290e+00 +3.1023874891e+01 +1.5230966380e+01 1.3551205542e+02 1.3100000000e+02 0.0000e+00 0.0000e+00
      997  1    1    2    0    0 -1.9408845131e+01 -9.8180403735e+00 +4.3914937812e+02 4.4252149494e+02 5.0000000000e+01 0.0000e+00 0.0000e+00
</event>
<event>
 5      1 +5.6267200e-07 2.08342500e+02 7.95774700e-02 4.89210400e-01
       13 -1    0    0    0    0 +0.0000000000e+00 +0.0000000000e+00 +4.9999998884e+02 5.0000000000e+02 1.0566000000e-01 0.0000e+00 1.0000e+00
      994 -1    0    0    0    0 -0.0000000000e+00 -0.0000000000e+00 +0.0000000000e+00 1.3100000000e+02 1.3100000000e+02 0.0000e+00 0.0000e+00
       13  1    1    2    0    0 -1.0747874009e+01 -1.3454903875e+01 +8.8535403072e+01 9.0194678308e+01 1.0566000000e-01 0.0000e+00 -1.0000e+00
      994  1    1    2    0    0 +6.0001052069e+00 -6.9359031409e-01 +5.2406546905e+00 1.3124384478e+02 1.3100000000e+02 0.0000e+00 0.0000e+00
      997  1    1    2    0    0 +4.7477688020e+00 +1.4148494189e+01 +4.0622393107e+02 4.0956147692e+02 5.0000000000e+01 0.0000e+00 0.0000e+00
</event>
<event>
 5      1 +5.6267200e-07 2.07643200e+02 7.95774700e-02 4.90388000e-01
       13 -1    0    0    0    0 +0.0000000000e+00 +0.0000000000e+00 +4.9999998884e+02 5.0000000000e+02 1.0566000000e-01 0.0000e+00 1.0000e+00
      994 -1    0    0    0    0 -0.0000000000e+00 -0.0000000000e+00 +0.0000000000e+00 1.3100000000e+02 1.3100000000e+02 0.0000e+00 0.0000e+00
       13  1    1    2    0    0 -7.3661300509e+00 +6.9423141325e+00 +1.8933632676e+01 2.1469727707e+01 1.0566000000e-01 0.0000e+00 -1.0000e+00
      994  1    1    2    0    0 +5.2831485102e-01 +1.6550040467e+01 +7.0221472572e+00 1.3222894353e+02 1.3100000000e+02 0.0000e+00 0.0000e+00
      997  1    1    2    0    0 +6.8378151999e+00 -2.3492354600e+01 +4.7404420890e+02 4.7730132876e+02 5.0000000000e+01 0.0000e+00 0.0000e+00
</event>
<event>
 5      1 +5.6267200e-07 2.05445600e+02 7.95774700e-02 4.94155700e-01
       13 -1    0    0    0    0 +0.0000000000e+00 +0.0000000000e+00 +4.9999998884e+02 5.0000000000e+02 1.0566000000e-01 0.0000e+00 -1.0000e+00
      994 -1    0    0    0    0 -0.0000000000e+00 -0.0000000000e+00 +0.0000000000e+00 1.3100000000e+02 1.3100000000e+02 0.0000e+00 0.0000e+00
       13  1    1    2    0    0 +1.6978081223e+01 +1.9550774405e+01 +7.5961017913e+01 8.0253195751e+01 1.0566000000e-01 0.0000e+00 1.0000e+00
      994  1    1    2    0    0 -2.6689564834e+01 +2.2956428315e+00 +1.1172204542e+01 1.3417682736e+02 1.3100000000e+02 0.0000e+00 0.0000e+00
      997  1    1    2    0    0 +9.7114836109e+00 -2.1846417236e+01 +4.1286676638e+02 4.1656997689e+02 5.0000000000e+01 0.0000e+00 0.0000e+00
</event>
<event>
 5      1 +5.6267200e-07 2.07802500e+02 7.95774700e-02 4.90118900e-01
       13 -1    0    0    0    0 +0.0000000000e+00 +0.0000000000e+00 +4.9999998884e+02 5.0000000000e+02 1.0566000000e-01 0.0000e+00 1.0000e+00
      994 -1    0    0    0    0 -0.0000000000e+00 -0.0000000000e+00 +0.0000000000e+00 1.3100000000e+02 1.3100000000e+02 0.0000e+00 0.0000e+00
       13  1    1    2    0    0 -1.2565125858e+01 +5.2759427284e+00 +3.2045406943e+01 3.4822941140e+01 1.0566000000e-01 0.0000e+00 -1.0000e+00
      994  1    1    2    0    0 +1.2418958024e+01 +3.0062631439e+00 +6.3248711151e+00 1.3177356386e+02 1.3100000000e+02 0.0000e+00 0.0000e+00
      997  1    1    2    0    0 +1.4616783449e-01 -8.2822058723e+00 +4.6162971078e+02 4.6440349500e+02 5.0000000000e+01 0.0000e+00 0.0000e+00
</event>
<event>
 5      1 +5.6267200e-07 2.01157900e+02 7.95774700e-02 5.01812700e-01
       13 -1    0    0    0    0 +0.0000000000e+00 +0.0000000000e+00 +4.9999998884e+02 5.0000000000e+02 1.0566000000e-01 0.0000e+00 -1.0000e+00
      994 -1    0    0    0    0 -0.0000000000e+00 -0.0000000000e+00 +0.0000000000e+00 1.3100000000e+02 1.3100000000e+02 0.0000e+00 0.0000e+00
       13  1    1    2    0    0 +3.6509263731e+01 +3.0010998075e+00 +1.2637150826e+02 1.3157394196e+02 1.0566000000e-01 0.0000e+00 1.0000e+00
      994  1    1    2    0    0 -5.3726493322e-01 +1.3942132832e+01 +1.2098482420e+01 1.3229529469e+02 1.3100000000e+02 0.0000e+00 0.0000e+00
      997  1    1    2    0    0 -3.5971998797e+01 -1.6943232639e+01 +3.6152999816e+02 3.6713076335e+02 5.0000000000e+01 0.0000e+00 0.0000e+00
</event>
<event>
 5      1 +5.6267200e-07 1.97518200e+02 7.95774700e-02 5.08652900e-01
       13 -1    0    0    0    0 +0.0000000000e+00 +0.0000000000e+00 +4.9999998884e+02 5.0000000000e+02 1.0566000000e-01 0.0000e+00 1.0000e+00
      994 -1    0    0    0    0 -0.0000000000e+00 -0.0000000000e+00 +0.0000000000e+00 1.3100000000e+02 1.3100000000e+02 0.0000e+00 0.0000e+00
       13  1    1    2    0    0 -1.5780419727e+01 -1.3111672421e+01 +2.2101296051e+00 2.0635732052e+01 1.0566000000e-01 0.0000e+00 -1.0000e+00
      994  1    1    2    0    0 +1.5194725966e+01 -3.0348474235e+01 +3.0914028774e+01 1.3881133513e+02 1.3100000000e+02 0.0000e+00 0.0000e+00
      997  1    1    2    0    0 +5.8569376050e-01 +4.3460146655e+01 +4.6687583046e+02 4.7155293282e+02 5.0000000000e+01 0.0000e+00 0.0000e+00
</event>
<event>
 5      1 +5.6267200e-07 1.96128600e+02 7.95774700e-02 5.11352200e-01
       13 -1    0    0    0    0 +0.0000000000e+00 +0.0000000000e+00 +4.9999998884e+02 5.0000000000e+02 1.0566000000e-01 0.0000e+00 1.0000e+00
      994 -1    0    0    0    0 -0.0000000000e+00 -0.0000000000e+00 +0.0000000000e+00 1.3100000000e+02 1.3100000000e+02 0.0000e+00 0.0000e+00
       13  1    1    2    0    0 -9.1382810180e+00 +2.7613208953e+01 +2.5099059037e+01 3.8418373432e+01 1.0566000000e-01 0.0000e+00 -1.0000e+00
      994  1    1    2    0    0 +7.0924269976e+01 -1.0237356132e+01 +4.6307669383e+01 1.5633443567e+02 1.3100000000e+02 0.0000e+00 0.0000e+00
      997  1    1    2    0    0 -6.1785988958e+01 -1.7375852821e+01 +4.2859326042e+02 4.3624719090e+02 5.0000000000e+01 0.0000e+00 0.0000e+00
</event>
<event>
 5      1 +5.6267200e-07 1.95614200e+02 7.95774700e-02 5.12364300e-01
       13 -1    0    0    0    0 +0.0000000000e+00 +0.0000000000e+00 +4.9999998884e+02 5.0000000000e+02 1.0566000000e-01 0.0000e+00 1.0000e+00
      994 -1    0    0    0    0 -0.0000000000e+00 -0.0000000000e+00 +0.0000000000e+00 1.3100000000e+02 1.3100000000e+02 0.0000e+00 0.0000e+00
       13  1    1    2    0    0 -1.5555647016e+01 -2.9813741096e+01 +7.1347063834e+01 7.8874913591e+01 1.0566000000e-01 0.0000e+00 -1.0000e+00
      994  1    1    2    0    0 -6.9046591287e+01 +1.2516935619e+00 +4.4581540786e+01 1.5465287674e+02 1.3100000000e+02 0.0000e+00 0.0000e+00
      997  1    1    2    0    0 +8.4602238303e+01 +2.8562047534e+01 +3.8407138422e+02 3.9747220967e+02 5.0000000000e+01 0.0000e+00 0.0000e+00
</event>
<event>
 5      1 +5.6267200e-07 2.06539900e+02 7.95774700e-02 4.92266800e-01
       13 -1    0    0    0    0 +0.0000000000e+00 +0.0000000000e+00 +4.9999998884e+02 5.0000000000e+02 1.0566000000e-01 0.0000e+00 1.0000e+00
      994 -1    0    0    0    0 -0.0000000000e+00 -0.0000000000e+00 +0.0000000000e+00 1.3100000000e+02 1.3100000000e+02 0.0000e+00 0.0000e+00
       13  1    1    2    0    0 +4.9121909373e+01 -2.8215783633e+01 +2.5189023402e+02 2.5818170653e+02 1.0566000000e-01 0.0000e+00 -1.0000e+00
      994  1    1    2    0    0 -6.5580192145e+01 +4.2727144167e+01 +4.0130022115e+01 1.5779033280e+02 1.3100000000e+02 0.0000e+00 0.0000e+00
      997  1    1    2    0    0 +1.6458282772e+01 -1.4511360534e+01 +2.0797973270e+02 2.1502796067e+02 5.0000000000e+01 0.0000e+00 0.0000e+00
</event>
<event>
 5      1 +5.6267200e-07 2.01871100e+02 7.95774700e-02 5.00509900e-01
       13 -1    0    0    0    0 +0.0000000000e+00 +0.0000000000e+00 +4.9999998884e+02 5.0000000000e+02 1.0566000000e-01 0.0000e+00 -1.0000e+00
      994 -1    0    0    0    0 -0.0000000000e+00 -0.0000000000e+00 +0.0000000000e+00 1.3100000000e+02 1.3100000000e+02 0.0000e+00 0.0000e+00
       13  1    1    2    0    0 -8.3503219946e+00 -3.0787955976e+01 +1.0203857077e+02 1.0690887335e+02 1.0566000000e-01 0.0000e+00 1.0000e+00
      994  1    1    2    0    0 +2.8054059602e+01 -1.2885685760e+01 +1.5577388889e+01 1.3548699643e+02 1.3100000000e+02 0.0000e+00 0.0000e+00
      997  1    1    2    0    0 -1.9703737607e+01 +4.3673641736e+01 +3.8238402917e+02 3.8860413022e+02 5.0000000000e+01 0.0000e+00 0.0000e+00
</event>
<event>
 5      1 +5.6267200e-07 2.02587200e+02 7.95774700e-02 4.99213700e-01
       13 -1    0    0    0    0 +0.0000000000e+00 +0.0000000000e+00 +4.9999998884e+02 5.0000000000e+02 1.0566000000e-01 0.0000e+00 1.0000e+00
      994 -1    0    0    0    0 -0.0000000000e+00 -0.0000000000e+00 +0.0000000000e+00 1.3100000000e+02 1.3100000000e+02 0.0000e+00 0.0000e+00
       13  1    1    2    0    0 +3.2537204647e+01 -1.6077295455e+01 +9.6806214911e+01 1.0338570271e+02 1.0566000000e-01 0.0000e+00 -1.0000e+00
      994  1    1    2    0    0 -1.6114111538e+01 +1.8303968913e+01 +1.3002339555e+01 1.3388338471e+02 1.3100000000e+02 0.0000e+00 0.0000e+00
      997  1    1    2    0    0 -1.6423093110e+01 -2.2266734573e+00 +3.9019143437e+02 3.9373091258e+02 5.0000000000e+01 0.0000e+00 0.0000e+00
</event>
<event>
 5      1 +5.6267200e-07 1.93197400e+02 7.95774700e-02 5.17214600e-01
       13 -1    0    0    0    0 +0.0000000000e+00 +0.0000000000e+00 +4.9999998884e+02 5.0000000000e+02 1.0566000000e-01 0.0000e+00 1.0000e+00
      994 -1    0    0    0    0 -0.0000000000e+00 -0.0000000000e+00 +0.0000000000e+00 1.3100000000e+02 1.3100000000e+02 0.0000e+00 0.0000e+00
       13  1    1    2    0    0 -1.6883211436e+01 +1.3216158270e+01 +8.4607731517e+00 2.3050065383e+01 1.0566000000e-01 0.0000e+00 -1.0000e+00
      994  1    1    2    0    0 +3.1228564972e+01 +1.7162742212e+01 +2.5624405245e+01 1.3815713204e+02 1.3100000000e+02 0.0000e+00 0.0000e+00
      997  1    1    2    0    0 -1.4345353535e+01 -3.0378900482e+01 +4.6591481044e+02 4.6979280257e+02 5.0000000000e+01 0.0000e+00 0.0000e+00
</event>
<event>
 5      1 +5.6267200e-07 2.09345700e+02 7.95774700e-02 4.87538400e-01
       13 -1    0    0    0    0 +0.0000000000e+00 +0.0000000000e+00 +4.9999998884e+02 5.0000000000e+02 1.0566000000e-01 0.0000e+00 1.0000e+00
      994 -1    0    0    0    0 -0.0000000000e+00 -0.0000000000e+00 +0.0000000000e+00 1.3100000000e+02 1.3100000000e+02 0.0000e+00 0.0000e+00
       13  1    1    2    0    0 -1.4881391008e+01 -2.1352724323e+00 +7.0121278832e+01 7.1714852686e+01 1.0566000000e-01 0.0000e+00 -1.0000e+00
      994  1    1    2    0    0 +1.7786633253e+01 +1.1871367124e+01 +6.5527844749e+00 1.3289557052e+02 1.3100000000e+02 0.0000e+00 0.0000e+00
      997  1    1    2    0    0 -2.9052422447e+00 -9.7360946919e+00 +4.2332592553e+02 4.2638957679e+02 5.0000000000e+01 0.0000e+00 0.0000e+00
</event>
<event>
 5      1 +5.6267200e-07 2.08301300e+02 7.95774700e-02 4.89279500e-01
       13 -1    0    0    0    0 +0.0000000000e+00 +0.0000000000e+00 +4.9999998884e+02 5.0000000000e+02 1.0566000000e-01 0.0000e+00 1.0000e+00
      994 -1    0    0    0    0 -0.0000000000e+00 -0.0000000000e+00 +0.0000000000e+00 1.3100000000e+02 1.3100000000e+02 0.0000e+00 0.0000e+00
       13  1    1    2    0    0 -2.6538304740e+00 +1.7541276565e+01 +9.7736860808e+01 9.9334003868e+01 1.0566000000e-01 0.0000e+00 -1.0000e+00
      994  1    1    2    0    0 -9.8456502647e+00 -5.2434733175e+00 +5.7198356691e+00 1.3159843222e+02 1.3100000000e+02 0.0000e+00 0.0000e+00
      997  1    1    2    0    0 +1.2499480739e+01 -1.2297803248e+01 +3.9654329236e+02 4.0006756392e+02 5.0000000000e+01 0.0000e+00 0.0000e+00
</event>
<event>
 5      1 +5.6267200e-07 1.92482600e+02 7.95774700e-02 5.18680100e-01
       13 -1    0    0    0    0 +0.0000000000e+00 +0.0000000000e+00 +4.9999998884e+02 5.0000000000e+02 1.0566000000e-01 0.0000e+00 -1.0000e+00
      994 -1    0    0    0    0 -0.0000000000e+00 -0.0000000000e+00 +0.0000000000e+00 1.3100000000e+02 1.3100000000e+02 0.0000e+00 0.0000e+00
       13  1    1    2    0    0 -1.1312547247e+01 -2.0092480267e-01 -2.6531324277e+00 1.1621719825e+01 1.0566000000e-01 0.0000e+00 1.0000e+00
      994  1    1    2    0    0 -3.1910276289e+01 +2.2451330341e+01 +2.7868026753e+01 1.3949894223e+02 1.3100000000e+02 0.0000e+00 0.0000e+00
      997  1    1    2    0    0 +4.3222823536e+01 -2.2250405538e+01 +4.7478509451e+02 4.7987933795e+02 5.0000000000e+01 0.0000e+00 0.0000e+00
</event>
<event>
 5      1 +5.6267200e-07 2.07671300e+02 7.95774700e-02 4.90340600e-01
       13 -1    0    0    0    0 +0.0000000000e+00 +0.0000000000e+00 +4.9999998884e+02 5.0000000000e+02 1.0566000000e-01 0.0000e+00 1.0000e+00
      994 -1    0    0    0    0 -0.0000000000e+00 -0.0000000000e+00 +0.0000000000e+00 1.3100000000e+02 1.3100000000e+02 0.0000e+00 0.0000e+00
       13  1    1    2    0    0 +6.9627575626e-01 -1.5084530534e+01 +5.7255255129e+01 5.9213201782e+01 1.0566000000e-01 0.0000e+00 -1.0000e+00
      994  1    1    2    0    0 -6.3339811750e+00 -1.1753125747e+01 +6.5089142364e+00 1.3183937669e+02 1.3100000000e+02 0.0000e+00 0.0000e+00
      997  1    1    2    0    0 +5.6377054188e+00 +2.6837656281e+01 +4.3623581947e+02 4.3994742152e+02 5.0000000000e+01 0.0000e+00 0.0000e+00
</event>
<event>
 5      1 +5.6267200e-07 2.04188400e+02 7.95774700e-02 4.96357900e-01
       13 -1    0    0    0    0 +0.0000000000e+00 +0.0000000000e+00 +4.9999998884e+02 5.0000000000e+02 1.0566000000e-01 0.0000e+00 1.0000e+00
      994 -1    0    0    0    0 -0.0000000000e+00 -0.0000000000e+00 +0.0000000000e+00 1.3100000000e+02 1.3100000000e+02 0.0000e+00 0.0000e+00
       13  1    1    2    0    0 +1.6257147300e+00 -1.7856142253e+01 +2.9886292635e+01 3.4852351658e+01 1.0566000000e-01 0.0000e+00 -1.0000e+00
      994  1    1    2    0    0 +8.6970730537e+00 -4.1096925870e+00 +8.9612687265e+00 1.3165801529e+02 1.3100000000e+02 0.0000e+00 0.0000e+00
      997  1    1    2    0    0 -1.0322787784e+01 +2.1965834840e+01 +4.6115242747e+02 4.6448963305e+02 5.0000000000e+01 0.0000e+00 0.0000e+00
</event>
<event>
 5      1 +5.6267200e-07 2.05580800e+02 7.95774700e-02 4.93921000e-01
       13 -1    0    0    0    0 +0.0000000000e+00 +0.0000000000e+00 +4.9999998884e+02 5.0000000000e+02 1.0566000000e-01 0.0000e+00 -1.0000e+00
      994 -1    0    0    0    0 -0.0000000000e+00 -0.0000000000e+00 +0.0000000000e+00 1.3100000000e+02 1.3100000000e+02 0.0000e+00 0.0000e+00
       13  1    1    2    0    0 -1.3430685218e+01 -2.1569920751e+01 +6.8381330917e+01 7.2949724939e+01 1.0566000000e-01 0.0000e+00 1.0000e+00
      994  1    1    2    0    0 +1.8417672704e+01 +1.2518713298e+01 +9.8950776611e+00 1.3324729420e+02 1.3100000000e+02 0.0000e+00 0.0000e+00
      997  1    1    2    0    0 -4.9869874866e+00 +9.0512074528e+00 +4.2172358026e+02 4.2480298086e+02 5.0000000000e+01 0.0000e+00 0.0000e+00
</event>
<event>
 5      1 +5.6267200e-07 1.55409900e+02 7.95774700e-02 6.22075200e-01
       13 -1    0    0    0    0 +0.0000000000e+00 +0.0000000000e+00 +4.9999998884e+02 5.0000000000e+02 1.0566000000e-01 0.0000e+00 1.0000e+00
      994 -1    0    0    0    0 -0.0000000000e+00 -0.0000000000e+00 +0.0000000000e+00 1.3100000000e+02 1.3100000000e+02 0.0000e+00 0.0000e+00
       13  1    1    2    0    0 -5.8838628931e+01 +5.3589756135e+01 +5.0928916655e+01 9.4486040941e+01 1.0566000000e-01 0.0000e+00 -1.0000e+00
      994  1    1    2    0    0 +7.6997160685e+01 -5.0356744331e+01 +1.1227527600e+02 1.9552775265e+02 1.3100000000e+02 0.0000e+00 0.0000e+00
      997  1    1    2    0    0 -1.8158531753e+01 -3.2330118038e+00 +3.3679579618e+02 3.4098620641e+02 5.0000000000e+01 0.0000e+00 0.0000e+00
</event>
<event>
 5      1 +5.6267200e-07 2.02561300e+02 7.95774700e-02 4.99260500e-01
       13 -1    0    0    0    0 +0.0000000000e+00 +0.0000000000e+00 +4.9999998884e+02 5.0000000000e+02 1.0566000000e-01 0.0000e+00 -1.0000e+00
      994 -1    0    0    0    0 -0.0000000000e+00 -0.0000000000e+00 +0.0000000000e+00 1.3100000000e+02 1.3100000000e+02 0.0000e+00 0.0000e+00
       13  1    1    2    0    0 +1.1412492840e+01 -2.2304465090e+01 +4.5235858349e+01 5.1711006569e+01 1.0566000000e-01 0.0000e+00 1.0000e+00
      994  1    1    2    0    0 -1.5198355205e+01 +2.4298985878e+00 +1.1110093856e+01 1.3236815551e+02 1.3100000000e+02 0.0000e+00 0.0000e+00
      997  1    1    2    0    0 +3.7858623643e+00 +1.9874566503e+01 +4.4365403663e+02 4.4692083792e+02 5.0000000000e+01 0.0000e+00 0.0000e+00
</event>
<event>
 5      1 +5.6267200e-07 2.05434500e+02 7.95774700e-02 4.94175000e-01
       13 -1    0    0    0    0 +0.0000000000e+00 +0.0000000000e+00 +4.9999998884e+02 5.0000000000e+02 1.0566000000e-01 0.0000e+00 1.0000e+00
      994 -1    0    0    0    0 -0.0000000000e+00 -0.0000000000e+00 +0.0000000000e+00 1.3100000000e+02 1.3100000000e+02 0.0000e+00 0.0000e+00
       13  1    1    2    0    0 -1.8340522723e+01 +2.1768049737e+01 +1.0641642566e+02 1.1015756704e+02 1.0566000000e-01 0.0000e+00 -1.0000e+00
      994  1    1    2    0    0 -1.9713638703e+00 -1.6904737622e+01 +8.9424794523e+00 1.3240326419e+02 1.3100000000e+02 0.0000e+00 0.0000e+00
      997  1    1    2    0    0 +2.0311886594e+01 -4.8633121152e+00 +3.8464108373e+02 3.8843916877e+02 5.0000000000e+01 0.0000e+00 0.0000e+00
</event>
<event>
 5      1 +5.6267200e-07 2.05455700e+02 7.95774700e-02 4.94138200e-01
       13 -1    0    0    0    0 +0.0000000000e+00 +0.0000000000e+00 +4.9999998884e+02 5.0000000000e+02 1.0566000000e-01 0.0000e+00 -1.0000e+00
      994 -1    0    0    0    0 -0.0000000000e+00 -0.0000000000e+00 +0.0000000000e+00 1.3100000000e+02 1.3100000000e+02 0.0000e+00 0.0000e+00
       13  1    1    2    0    0 +3.5759025156e+01 +3.0704550381e+01 +2.4674719732e+02 2.5120841515e+02 1.0566000000e-01 0.0000e+00 1.0000e+00
      994  1    1    2    0    0 -2.6568983440e+01 -5.5929603157e+01 +2.8099579630e+01 1.4759613059e+02 1.3100000000e+02 0.0000e+00 0.0000e+00
      997  1    1    2    0    0 -9.1900417165e+00 +2.5225052776e+01 +2.2515321189e+02 2.3219545426e+02 5.0000000000e+01 0.0000e+00 0.0000e+00
</event>
<event>
 5      1 +5.6267200e-07 2.08376000e+02 7.95774700e-02 4.89154200e-01
       13 -1    0    0    0    0 +0.0000000000e+00 +0.0000000000e+00 +4.9999998884e+02 5.0000000000e+02 1.0566000000e-01 0.0000e+00 1.0000e+00
      994 -1    0    0    0    0 -0.0000000000e+00 -0.0000000000e+00 +0.0000000000e+00 1.3100000000e+02 1.3100000000e+02 0.0000e+00 0.0000e+00
       13  1    1    2    0    0 +9.2832859604e+00 +1.7190556760e+01 +7.8241813362e+01 8.0644201045e+01 1.0566000000e-01 0.0000e+00 -1.0000e+00
      994  1    1    2    0    0 -1.3263835987e+01 -1.7123843236e+01 +7.4126119272e+00 1.3298534569e+02 1.3100000000e+02 0.0000e+00 0.0000e+00
      997  1    1    2    0    0 +3.9805500265e+00 -6.6713524125e-02 +4.1434556355e+02 4.1737045327e+02 5.0000000000e+01 0.0000e+00 0.0000e+00
</event>
<event>
 5      1 +5.6267200e-07 2.07979900e+02 7.95774700e-02 4.89819800e-01
       13 -1    0    0    0    0 +0.0000000000e+00 +0.0000000000e+00 +4.9999998884e+02 5.0000000000e+02 1.0566000000e-01 0.0000e+00 1.0000e+00
      994 -1    0    0    0    0 -0.0000000000e+00 -0.0000000000e+00 +0.0000000000e+00 1.3100000000e+02 1.3100000000e+02 0.0000e+00 0.0000e+00
       13  1    1    2    0    0 +1.6878977818e+01 +1.4525195748e+00 +5.9391297852e+01 6.1760400985e+01 1.0566000000e-01 0.0000e+00 -1.0000e+00
      994  1    1    2    0    0 -7.8874466867e+00 -1.1544949613e+01 +6.3436737327e+00 1.3189670153e+02 1.3100000000e+02 0.0000e+00 0.0000e+00
      997  1    1    2    0    0 -8.9915311313e+00 +1.0092430038e+01 +4.3426501725e+02 4.3734289749e+02 5.0000000000e+01 0.0000e+00 0.0000e+00
</event>
<event>
 5      1 +5.6267200e-07 1.98464800e+02 7.95774700e-02 5.06842400e-01
       13 -1    0    0    0    0 +0.0000000000e+00 +0.0000000000e+00 +4.9999998884e+02 5.0000000000e+02 1.0566000000e-01 0.0000e+00 -1.0000e+00
      994 -1    0    0    0    0 -0.0000000000e+00 -0.0000000000e+00 +0.0000000000e+00 1.3100000000e+02 1.3100000000e+02 0.0000e+00 0.0000e+00
       13  1    1    2    0    0 -1.6943789779e+00 -4.4343544465e+01 +1.8185552751e+02 1.8719151932e+02 1.0566000000e-01 0.0000e+00 1.0000e+00
      994  1    1    2    0    0 -2.6253363844e+01 +2.9879030984e+00 +1.7268726584e+01 1.3474930648e+02 1.3100000000e+02 0.0000e+00 0.0000e+00
      997  1    1    2    0    0 +2.7947742822e+01 +4.1355641367e+01 +3.0087573474e+02 3.0905917420e+02 5.0000000000e+01 0.0000e+00 0.0000e+00
</event>
<event>
 5      1 +5.6267200e-07 2.08958700e+02 7.95774700e-02 4.88181000e-01
       13 -1    0    0    0    0 +0.0000000000e+00 +0.0000000000e+00 +4.9999998884e+02 5.0000000000e+02 1.0566000000e-01 0.0000e+00 1.0000e+00
      994 -1    0    0    0    0 -0.0000000000e+00 -0.0000000000e+00 +0.0000000000e+00 1.3100000000e+02 1.3100000000e+02 0.0000e+00 0.0000e+00
       13  1    1    2    0    0 +3.4360113676e+00 +1.2718867149e+01 +5.1759291453e+01 5.3409841522e+01 1.0566000000e-01 0.0000e+00 -1.0000e+00
      994  1    1    2    0    0 +3.4244347406e+00 -7.2761239068e+00 +4.8844197752e+00 1.3133745197e+02 1.3100000000e+02 0.0000e+00 0.0000e+00
      997  1    1    2    0    0 -6.8604461082e+00 -5.4427432423e+00 +4.4335627761e+02 4.4625270651e+02 5.0000000000e+01 0.0000e+00 0.0000e+00
</event>
<event>
 5      1 +5.6267200e-07 2.17235300e+02 7.95774700e-02 4.75064100e-01
       13 -1    0    0    0    0 +0.0000000000e+00 +0.0000000000e+00 +4.9999998884e+02 5.0000000000e+02 1.0566000000e-01 0.0000e+00 -1.0000e+00
      994 -1    0    0    0    0 -0.0000000000e+00 -0.0000000000e+00 +0.0000000000e+00 1.3100000000e+02 1.3100000000e+02 0.0000e+00 0.0000e+00
       13  1    1    2    0    0 -5.5752131899e+00 +5.7794264734e+01 +1.9360546787e+01 6.1205408047e+01 1.0566000000e-01 0.0000e+00 1.0000e+00
      994  1    1    2    0    0 -8.0162872484e+00 -6.1321213418e+01 +7.9377543432e+01 1.6518579381e+02 1.3100000000e+02 0.0000e+00 0.0000e+00
      997  1    1    2    0    0 +1.3591500438e+01 +3.5269486842e+00 +4.0126189862e+02 4.0460879814e+02 5.0000000000e+01 0.0000e+00 0.0000e+00
</event>
<event>
 5      1 +5.6267200e-07 2.00155900e+02 7.95774700e-02 5.03663400e-01
       13 -1    0    0    0    0 +0.0000000000e+00 +0.0000000000e+00 +4.9999998884e+02 5.0000000000e+02 1.0566000000e-01 0.0000e+00 -1.0000e+00
      994 -1    0    0    0    0 -0.0000000000e+00 -0.0000000000e+00 +0.0000000000e+00 1.3100000000e+02 1.3100000000e+02 0.0000e+00 0.0000e+00
       13  1    1    2    0    0 -1.7614265489e+01 -3.0474576196e+01 +3.5464233678e+01 4.9966840780e+01 1.0566000000e-01 0.0000e+00 1.0000e+00
      994  1    1    2    0    0 +1.3564724612e+01 +9.2573800800e+01 +6.5013517642e+01 1.7361355887e+02 1.3100000000e+02 0.0000e+00 0.0000e+00
      997  1    1    2    0    0 +4.0495408771e+00 -6.2099224604e+01 +3.9952223752e+02 4.0741960035e+02 5.0000000000e+01 0.0000e+00 0.0000e+00
</event>
<event>
 5      1 +5.6267200e-07 2.01301700e+02 7.95774700e-02 5.01549000e-01
       13 -1    0    0    0    0 +0.0000000000e+00 +0.0000000000e+00 +4.9999998884e+02 5.0000000000e+02 1.0566000000e-01 0.0000e+00 1.0000e+00
      994 -1    0    0    0    0 -0.0000000000e+00 -0.0000000000e+00 +0.0000000000e+00 1.3100000000e+02 1.3100000000e+02 0.0000e+00 0.0000e+00
       13  1    1    2    0    0 +1.8028729724e+01 +3.5485378920e+00 +2.0035387186e+01 2.7185568237e+01 1.0566000000e-01 0.0000e+00 -1.0000e+00
      994  1    1    2    0    0 +1.0109281283e+01 -1.0059456291e+01 +1.2020373770e+01 1.3232112309e+02 1.3100000000e+02 0.0000e+00 0.0000e+00
      997  1    1    2    0    0 -2.8138011007e+01 +6.5109183993e+00 +4.6794422788e+02 4.7149330868e+02 5.0000000000e+01 0.0000e+00 0.0000e+00
</event>
<event>
 5      1 +5.6267200e-07 2.18375600e+02 7.95774700e-02 4.73354300e-01
       13 -1    0    0    0    0 +0.0000000000e+00 +0.0000000000e+00 +4.9999998884e+02 5.0000000000e+02 1.0566000000e-01 0.0000e+00 -1.0000e+00
      994 -1    0    0    0    0 -0.0000000000e+00 -0.0000000000e+00 +0.0000000000e+00 1.3100000000e+02 1.3100000000e+02 0.0000e+00 0.0000e+00
       13  1    1    2    0    0 +3.6254127527e+01 -1.3014171710e+01 +4.0107840387e-02 3.8519387336e+01 1.0566000000e-01 0.0000e+00 1.0000e+00
      994  1    1    2    0    0 -3.8213276283e+01 -3.1434867393e+01 +6.8553684065e+01 1.5591347912e+02 1.3100000000e+02 0.0000e+00 0.0000e+00
      997  1    1    2    0    0 +1.9591487561e+00 +4.4449039103e+01 +4.3140619693e+02 4.3656713354e+02 5.0000000000e+01 0.0000e+00 0.0000e+00
</event>
<event>
 5      1 +5.6267200e-07 2.08877700e+02 7.95774700e-02 4.88315800e-01
       13 -1    0    0    0    0 +0.0000000000e+00 +0.0000000000e+00 +4.9999998884e+02 5.0000000000e+02 1.0566000000e-01 0.0000e+00 1.0000e+00
      994 -1    0    0    0    0 -0.0000000000e+00 -0.0000000000e+00 +0.0000000000e+00 1.3100000000e+02 1.3100000000e+02 0.0000e+00 0.0000e+00
       13  1    1    2    0    0 +7.6106548449e+00 -1.4098058976e+01 +6.8588336389e+01 7.0434710099e+01 1.0566000000e-01 0.0000e+00 -1.0000e+00
      994  1    1    2    0    0 -1.5377418498e+01 +9.0555711820e+00 +6.2331389144e+00 1.3235679200e+02 1.3100000000e+02 0.0000e+00 0.0000e+00
      997  1    1    2    0    0 +7.7667636531e+00 +5.0424877944e+00 +4.2517851353e+02 4.2820849790e+02 5.0000000000e+01 0.0000e+00 0.0000e+00
</event>
<event>
 5      1 +5.6267200e-07 2.08304100e+02 7.95774700e-02 4.89274800e-01
       13 -1    0    0    0    0 +0.0000000000e+00 +0.0000000000e+00 +4.9999998884e+02 5.0000000000e+02 1.0566000000e-01 0.0000e+00 1.0000e+00
      994 -1    0    0    0    0 -0.0000000000e+00 -0.0000000000e+00 +0.0000000000e+00 1.3100000000e+02 1.3100000000e+02 0.0000e+00 0.0000e+00
       13  1    1    2    0    0 -1.6177482203e+01 -4.5324993973e+00 +9.1002445167e+01 9.2540319167e+01 1.0566000000e-01 0.0000e+00 -1.0000e+00
      994  1    1    2    0    0 -2.1181707468e+00 +6.6411851225e+00 +5.3331249056e+00 1.3129369447e+02 1.3100000000e+02 0.0000e+00 0.0000e+00
      997  1    1    2    0    0 +1.8295652950e+01 -2.1086857252e+00 +4.0366441876e+02 4.0716598636e+02 5.0000000000e+01 0.0000e+00 0.0000e+00
</event>
<event>
 5      1 +5.6267200e-07 2.04158900e+02 7.95774700e-02 4.96410100e-01
       13 -1    0    0    0    0 +0.0000000000e+00 +0.0000000000e+00 +4.9999998884e+02 5.0000000000e+02 1.0566000000e-01 0.0000e+00 1.0000e+00
      994 -1    0    0    0    0 -0.0000000000e+00 -0.0000000000e+00 +0.0000000000e+00 1.3100000000e+02 1.3100000000e+02 0.0000e+00 0.0000e+00
       13  1    1    2    0    0 +3.7948960163e+01 +1.6817712790e+01 +5.7033310304e+01 7.0539128781e+01 1.0566000000e-01 0.0000e+00 -1.0000e+00
      994  1    1    2    0    0 -1.1828001450e+02 -2.1787453868e-01 +9.6981927048e+01 2.0138694961e+02 1.3100000000e+02 0.0000e+00 0.0000e+00
      997  1    1    2    0    0 +8.0331054336e+01 -1.6599838252e+01 +3.4598475148e+02 3.5907392161e+02 5.0000000000e+01 0.0000e+00 0.0000e+00
</event>
<event>
 5      1 +5.6267200e-07 2.00206900e+02 7.95774700e-02 5.03568700e-01
       13 -1    0    0    0    0 +0.0000000000e+00 +0.0000000000e+00 +4.9999998884e+02 5.0000000000e+02 1.0566000000e-01 0.0000e+00 1.0000e+00
      994 -1    0    0    0    0 -0.0000000000e+00 -0.0000000000e+00 +0.0000000000e+00 1.3100000000e+02 1.3100000000e+02 0.0000e+00 0.0000e+00
       13  1    1    2    0    0 -6.7302718764e+00 -8.3351530728e+00 +2.5200382176e+00 1.1006048016e+01 1.0566000000e-01 0.0000e+00 -1.0000e+00
      994  1    1    2    0    0 -7.4517472207e+00 -3.9867550989e+00 +1.2260655636e+01 1.3184364387e+02 1.3100000000e+02 0.0000e+00 0.0000e+00
      997  1    1    2    0    0 +1.4182019097e+01 +1.2321908172e+01 +4.8521929498e+02 4.8815030811e+02 5.0000000000e+01 0.0000e+00 0.0000e+00
</event>
<event>
 5      1 +5.6267200e-07 1.70265000e+02 7.95774700e-02 5.72871500e-01
       13 -1    0    0    0    0 +0.0000000000e+00 +0.0000000000e+00 +4.9999998884e+02 5.0000000000e+02 1.0566000000e-01 0.0000e+00 -1.0000e+00
      994 -1    0    0    0    0 -0.0000000000e+00 -0.0000000000e+00 +0.0000000000e+00 1.3100000000e+02 1.3100000000e+02 0.0000e+00 0.0000e+00
       13  1    1    2    0    0 -7.9265352781e+01 -2.3999032424e+01 +1.9193828056e+02 2.0904369021e+02 1.0566000000e-01 0.0000e+00 1.0000e+00
      994  1    1    2    0    0 +7.2923037692e+01 +3.8647732278e+01 +5.6248054127e+01 1.6473087212e+02 1.3100000000e+02 0.0000e+00 0.0000e+00
      997  1    1    2    0    0 +6.3423150897e+00 -1.4648699853e+01 +2.5181365415e+02 2.5722543767e+02 5.0000000000e+01 0.0000e+00 0.0000e+00
</event>
<event>
 5      1 +5.6267200e-07 2.04644300e+02 7.95774700e-02 4.95555300e-01
       13 -1    0    0    0    0 +0.0000000000e+00 +0.0000000000e+00 +4.9999998884e+02 5.0000000000e+02 1.0566000000e-01 0.0000e+00 1.0000e+00
      994 -1    0    0    0    0 -0.0000000000e+00 -0.0000000000e+00 +0.0000000000e+00 1.3100000000e+02 1.3100000000e+02 0.0000e+00 0.0000e+00
       13  1    1    2    0    0 -1.5395565761e+01 +2.3507357267e+01 +6.3496419638e+01 6.9436487250e+01 1.0566000000e-01 0.0000e+00 -1.0000e+00
      994  1    1    2    0    0 +3.5705729577e+01 -1.4626816724e+01 +1.5977774972e+01 1.3749593516e+02 1.3100000000e+02 0.0000e+00 0.0000e+00
      997  1    1    2    0    0 -2.0310163816e+01 -8.8805405423e+00 +4.2052579423e+02 4.2406757759e+02 5.0000000000e+01 0.0000e+00 0.0000e+00
</event>
<event>
 5      1 +5.6267200e-07 1.97150300e+02 7.95774700e-02 5.09362500e-01
       13 -1    0    0    0    0 +0.0000000000e+00 +0.0000000000e+00 +4.9999998884e+02 5.0000000000e+02 1.0566000000e-01 0.0000e+00 1.0000e+00
      994 -1    0    0    0    0 -0.0000000000e+00 -0.0000000000e+00 +0.0000000000e+00 1.3100000000e+02 1.3100000000e+02 0.0000e+00 0.0000e+00
       13  1    1    2    0    0 -2.9936815433e+01 -8.0794528052e+01 +1.6528920969e+02 1.8639877329e+02 1.0566000000e-01 0.0000e+00 -1.0000e+00
      994  1    1    2    0    0 +1.4883318383e+01 +9.8537655771e+01 +7.8200144032e+01 1.8222910113e+02 1.3100000000e+02 0.0000e+00 0.0000e+00
      997  1    1    2    0    0 +1.5053497050e+01 -1.7743127719e+01 +2.5651063511e+02 2.6237212558e+02 5.0000000000e+01 0.0000e+00 0.0000e+00
</event>
<event>
 5      1 +5.6267200e-07 1.93805400e+02 7.95774700e-02 5.15979400e-01
       13 -1    0    0    0    0 +0.0000000000e+00 +0.0000000000e+00 +4.9999998884e+02 5.0000000000e+02 1.0566000000e-01 0.0000e+00 1.0000e+00
      994 -1    0    0    0    0 -0.0000000000e+00 -0.0000000000e+00 +0.0000000000e+00 1.3100000000e+02 1.3100000000e+02 0.0000e+00 0.0000e+00
       13  1    1    2    0    0 -1.5194799839e+01 -4.2499896371e+01 +4.3413338452e+01 6.2624693638e+01 1.0566000000e-01 0.0000e+00 -1.0000e+00
      994  1    1    2    0    0 +1.9012427545e+01 +7.0393998995e+01 +5.0422458259e+01 1.5817778539e+02 1.3100000000e+02 0.0000e+00 0.0000e+00
      997  1    1    2    0    0 -3.8176277058e+00 -2.7894102624e+01 +4.0616419213e+02 4.1019752097e+02 5.0000000000e+01 0.0000e+00 0.0000e+00
</event>
<event>
 5      1 +5.6267200e-07 1.92971500e+02 7.95774700e-02 5.17676300e-01
       13 -1    0    0    0    0 +0.0000000000e+00 +0.0000000000e+00 +4.9999998884e+02 5.0000000000e+02 1.0566000000e-01 0.0000e+00 1.0000e+00
      994 -1    0    0    0    0 -0.0000000000e+00 -0.0000000000e+00 +0.0000000000e+00 1.3100000000e+02 1.3100000000e+02 0.0000e+00 0.0000e+00
       13  1    1    2    0    0 -1.8993379731e+01 +5.5126017752e+01 +1.0852797509e+02 1.2319885895e+02 1.0566000000e-01 0.0000e+00 -1.0000e+00
      994  1    1    2    0    0 +5.5643476625e+01 -1.6321991631e+01 +3.9915103155e+01 1.4871724635e+02 1.3100000000e+02 0.0000e+00 0.0000e+00
      997  1    1    2    0    0 -3.6650096894e+01 -3.8804026121e+01 +3.5155691059e+02 3.5908389470e+02 5.0000000000e+01 0.0000e+00 0.0000e+00
</event>
<event>
 5      1 +5.6267200e-07 2.00001600e+02 7.95774700e-02 5.03950600e-01
       13 -1    0    0    0    0 +0.0000000000e+00 +0.0000000000e+00 +4.9999998884e+02 5.0000000000e+02 1.0566000000e-01 0.0000e+00 -1.0000e+00
      994 -1    0    0    0    0 -0.0000000000e+00 -0.0000000000e+00 +0.0000000000e+00 1.3100000000e+02 1.3100000000e+02 0.0000e+00 0.0000e+00
       13  1    1    2    0    0 -1.2701302477e+01 +1.2508216207e+01 +1.1825801451e+01 2.1392505728e+01 1.0566000000e-01 0.0000e+00 1.0000e+00
      994  1    1    2    0    0 +3.2573273465e+01 -3.4486668315e+00 +1.7941199467e+01 1.3621966850e+02 1.3100000000e+02 0.0000e+00 0.0000e+00
      997  1    1    2    0    0 -1.9871970988e+01 -9.0595493759e+00 +4.7023298792e+02 4.7338782578e+02 5.0000000000e+01 0.0000e+00 0.0000e+00
</event>
<event>
 5      1 +5.6267200e-07 2.09591600e+02 7.95774700e-02 4.87131600e-01
       13 -1    0    0    0    0 +0.0000000000e+00 +0.0000000000e+00 +4.9999998884e+02 5.0000000000e+02 1.0566000000e-01 0.0000e+00 1.0000e+00
      994 -1    0    0    0    0 -0.0000000000e+00 -0.0000000000e+00 +0.0000000000e+00 1.3100000000e+02 1.3100000000e+02 0.0000e+00 0.0000e+00
       13  1    1    2    0    0 +1.9767056792e+00 +1.1263947092e+01 +5.8926752476e+01 6.0026304157e+01 1.0566000000e-01 0.0000e+00 -1.0000e+00
      994  1    1    2    0    0 -1.2464224104e+01 -2.9980562231e+00 +4.8748948580e+00 1.3171601962e+02 1.3100000000e+02 0.0000e+00 0.0000e+00
      997  1    1    2    0    0 +1.0487518425e+01 -8.2658908689e+00 +4.3619834150e+02 4.3925767623e+02 5.0000000000e+01 0.0000e+00 0.0000e+00
</event>
<event>
 5      1 +5.6267200e-07 1.93540000e+02 7.95774700e-02 5.16517300e-01
       13 -1    0    0    0    0 +0.0000000000e+00 +0.0000000000e+00 +4.9999998884e+02 5.0000000000e+02 1.0566000000e-01 0.0000e+00 -1.0000e+00
      994 -1    0    0    0    0 -0.0000000000e+00 -0.0000000000e+00 +0.0000000000e+00 1.3100000000e+02 1.3100000000e+02 0.0000e+00 0.0000e+00
       13  1    1    2    0    0 +3.3712866422e+00 +4.5863574434e+01 +5.8509362184e+01 7.4419014108e+01 1.0566000000e-01 0.0000e+00 1.0000e+00
      994  1    1    2    0    0 -1.6105433805e+01 -4.2200140675e+01 +2.9906277197e+01 1.4175902894e+02 1.3100000000e+02 0.0000e+00 0.0000e+00
      997  1    1    2    0    0 +1.2734147163e+01 -3.6634337593e+00 +4.1158434946e+02 4.1482195695e+02 5.0000000000e+01 0.0000e+00 0.0000e+00
</event>
<event>
 5      1 +5.6267200e-07 2.06062300e+02 7.95774700e-02 4.93088100e-01
       13 -1    0    0    0    0 +0.0000000000e+00 +0.0000000000e+00 +4.9999998884e+02 5.0000000000e+02 1.0566000000e-01 0.0000e+00 1.0000e+00
      994 -1    0    0    0    0 -0.0000000000e+00 -0.0000000000e+00 +0.0000000000e+00 1.3100000000e+02 1.3100000000e+02 0.0000e+00 0.0000e+00
       13  1    1    2    0    0 -3.3136896105e+01 -1.2134703680e+01 +1.6290705284e+02 1.6668540412e+02 1.0566000000e-01 0.0000e+00 -1.0000e+00
      994  1    1    2    0    0 +3.6622599870e+01 -7.8902110996e+00 +1.4254083270e+01 1.3699506977e+02 1.3100000000e+02 0.0000e+00 0.0000e+00
      997  1    1    2    0    0 -3.4857037646e+00 +2.0024914779e+01 +3.2283885272e+02 3.2731952610e+02 5.0000000000e+01 0.0000e+00 0.0000e+00
</event>
<event>
 5      1 +5.6267200e-07 2.08598100e+02 7.95774700e-02 4.88782500e-01
       13 -1    0    0    0    0 +0.0000000000e+00 +0.0000000000e+00 +4.9999998884e+02 5.0000000000e+02 1.0566000000e-01 0.0000e+00 -1.0000e+00
      994 -1    0    0    0    0 -0.0000000000e+00 -0.0000000000e+00 +0.0000000000e+00 1.3100000000e+02 1.3100000000e+02 0.0000e+00 0.0000e+00
       13  1    1    2    0    0 -1.0482728804e+01 +2.9932147742e+00 +3.2255572656e+01 3.4048202144e+01 1.0566000000e-01 0.0000e+00 1.0000e+00
      994  1    1    2    0    0 -4.8335598986e+00 +5.4540941300e+00 +5.1176947456e+00 1.3130232764e+02 1.3100000000e+02 0.0000e+00 0.0000e+00
      997  1    1    2    0    0 +1.5316288702e+01 -8.4473089041e+00 +4.6262672143e+02 4.6564947022e+02 5.0000000000e+01 0.0000e+00 0.0000e+00
</event>
<event>
 5      1 +5.6267200e-07 2.08767900e+02 7.95774700e-02 4.88498900e-01
       13 -1    0    0    0    0 +0.0000000000e+00 +0.0000000000e+00 +4.9999998884e+02 5.0000000000e+02 1.0566000000e-01 0.0000e+00 1.0000e+00
      994 -1    0    0    0    0 -0.0000000000e+00 -0.0000000000e+00 +0.0000000000e+00 1.3100000000e+02 1.3100000000e+02 0.0000e+00 0.0000e+00
       13  1    1    2    0    0 -6.2681240477e-01 -1.4291467711e+01 +6.7384146431e+01 6.8885944120e+01 1.0566000000e-01 0.0000e+00 -1.0000e+00
      994  1    1    2    0    0 -5.9346462452e+00 +1.1162601911e+00 +4.8962913726e+00 1.3123048324e+02 1.3100000000e+02 0.0000e+00 0.0000e+00
      997  1    1    2    0    0 +6.5614586499e+00 +1.3175207520e+01 +4.2771955103e+02 4.3088357264e+02 5.0000000000e+01 0.0000e+00 0.0000e+00
</event>
<event>
 5      1 +5.6267200e-07 2.07609700e+02 7.95774700e-02 4.90444800e-01
       13 -1    0    0    0    0 +0.0000000000e+00 +0.0000000000e+00 +4.9999998884e+02 5.0000000000e+02 1.0566000000e-01 0.0000e+00 -1.0000e+00
      994 -1    0    0    0    0 -0.0000000000e+00 -0.0000000000e+00 +0.0000000000e+00 1.3100000000e+02 1.3100000000e+02 0.0000e+00 0.0000e+00
       13  1    1    2    0    0 +1.0346036700e+01 -1.0735543975e+01 +3.7933260751e+01 4.0758260697e+01 1.0566000000e-01 0.0000e+00 1.0000e+00
      994  1    1    2    0    0 +9.7732609565e+00 +2.2529301182e+01 +8.7380074730e+00 1.3356810553e+02 1.3100000000e+02 0.0000e+00 0.0000e+00
      997  1    1    2    0    0 -2.0119297657e+01 -1.1793757206e+01 +4.5332872061e+02 4.5667363377e+02 5.0000000000e+01 0.0000e+00 0.0000e+00
</event>
<event>
 5      1 +5.6267200e-07 2.08432500e+02 7.95774700e-02 4.89059600e-01
       13 -1    0    0    0    0 +0.0000000000e+00 +0.0000000000e+00 +4.9999998884e+02 5.0000000000e+02 1.0566000000e-01 0.0000e+00 1.0000e+00
      994 -1    0    0    0    0 -0.0000000000e+00 -0.0000000000e+00 +0.0000000000e+00 1.3100000000e+02 1.3100000000e+02 0.0000e+00 0.0000e+00
       13  1    1    2    0    0 -2.2062304731e+01 -1.4969005517e+01 +9.1221710915e+01 9.5038035136e+01 1.0566000000e-01 0.0000e+00 -1.0000e+00
      994  1    1    2    0    0 +3.8800994043e+01 +3.6998646069e+01 +1.9936506687e+01 1.4294362962e+02 1.3100000000e+02 0.0000e+00 0.0000e+00
      997  1    1    2    0    0 -1.6738689312e+01 -2.2029640552e+01 +3.8884177123e+02 3.9301833525e+02 5.0000000000e+01 0.0000e+00 0.0000e+00
</event>
<event>
 5      1 +5.6267200e-07 1.99727600e+02 7.95774700e-02 5.04461900e-01
       13 -1    0    0    0    0 +0.0000000000e+00 +0.0000000000e+00 +4.9999998884e+02 5.0000000000e+02 1.0566000000e-01 0.0000e+00 -1.0000e+00
      994 -1    0    0    0    0 -0.0000000000e+00 -0.0000000000e+00 +0.0000000000e+00 1.3100000000e+02 1.3100000000e+02 0.0000e+00 0.0000e+00
       13  1    1    2    0    0 -1.6839007182e+01 +6.3198854024e+00 +1.2933869372e+01 2.2153763909e+01 1.0566000000e-01 0.0000e+00 1.0000e+00
      994  1    1    2    0    0 +1.7672263506e+00 -2.7616327110e+01 +1.6489984520e+01 1.3490257300e+02 1.3100000000e+02 0.0000e+00 0.0000e+00
      997  1    1    2    0    0 +1.5071780832e+01 +2.1296441708e+01 +4.7057613494e+02 4.7394366309e+02 5.0000000000e+01 0.0000e+00 0.0000e+00
</event>
<event>
 5      1 +5.6267200e-07 2.10041200e+02 7.95774700e-02 4.86391100e-01
       13 -1    0    0    0    0 +0.0000000000e+00 +0.0000000000e+00 +4.9999998884e+02 5.0000000000e+02 1.0566000000e-01 0.0000e+00 1.0000e+00
      994 -1    0    0    0    0 -0.0000000000e+00 -0.0000000000e+00 +0.0000000000e+00 1.3100000000e+02 1.3100000000e+02 0.0000e+00 0.0000e+00
       13  1    1    2    0    0 +4.6421474920e+00 -9.8426049503e+00 +4.4941378013e+01 4.6240296575e+01 1.0566000000e-01 0.0000e+00 -1.0000e+00
      994  1    1    2    0    0 -1.8877327488e+01 +1.9683959677e+01 +7.4300783040e+00 1.3401499105e+02 1.3100000000e+02 0.0000e+00 0.0000e+00
      997  1    1    2    0    0 +1.4235179996e+01 -9.8413547270e+00 +4.4762853252e+02 4.5074471238e+02 5.0000000000e+01 0.0000e+00 0.0000e+00
</event>
<event>
 5      1 +5.6267200e-07 1.99686300e+02 7.95774700e-02 5.04539300e-01
       13 -1    0    0    0    0 +0.0000000000e+00 +0.0000000000e+00 +4.9999998884e+02 5.0000000000e+02 1.0566000000e-01 0.0000e+00 1.0000e+00
      994 -1    0    0    0    0 -0.0000000000e+00 -0.0000000000e+00 +0.0000000000e+00 1.3100000000e+02 1.3100000000e+02 0.0000e+00 0.0000e+00
       13  1    1    2    0    0 +1.4592863616e+00 -2.0420042998e+01 +2.1882474602e+01 2.9966006266e+01 1.0566000000e-01 0.0000e+00 -1.0000e+00
      994  1    1    2    0    0 +3.9227349576e+00 -1.2251857541e+01 +1.3228831434e+01 1.3229322675e+02 1.3100000000e+02 0.0000e+00 0.0000e+00
      997  1    1    2    0    0 -5.3820213192e+00 +3.2671900540e+01 +4.6488868280e+02 4.6874076698e+02 5.0000000000e+01 0.0000e+00 0.0000e+00
</event>
<event>
 5      1 +5.6267200e-07 2.06569300e+02 7.95774700e-02 4.92216400e-01
       13 -1    0    0    0    0 +0.0000000000e+00 +0.0000000000e+00 +4.9999998884e+02 5.0000000000e+02 1.0566000000e-01 0.0000e+00 1.0000e+00
      994 -1    0    0    0    0 -0.0000000000e+00 -0.0000000000e+00 +0.0000000000e+00 1.3100000000e+02 1.3100000000e+02 0.0000e+00 0.0000e+00
       13  1    1    2    0    0 -4.6505170416e+00 -2.2492241627e+01 +5.3581127307e+01 5.8296454520e+01 1.0566000000e-01 0.0000e+00 -1.0000e+00
      994  1    1    2    0    0 +4.4392979618e+00 +3.6905588902e+01 +1.3691059936e+01 1.3685822950e+02 1.3100000000e+02 0.0000e+00 0.0000e+00
      997  1    1    2    0    0 +2.1121907982e-01 -1.4413347275e+01 +4.3272780159e+02 4.3584531598e+02 5.0000000000e+01 0.0000e+00 0.0000e+00
</event>
<event>
 5      1 +5.6267200e-07 2.01290500e+02 7.95774700e-02 5.01569500e-01
       13 -1    0    0    0    0 +0.0000000000e+00 +0.0000000000e+00 +4.9999998884e+02 5.0000000000e+02 1.0566000000e-01 0.0000e+00 1.0000e+00
      994 -1    0    0    0    0 -0.0000000000e+00 -0.0000000000e+00 +0.0000000000e+00 1.3100000000e+02 1.3100000000e+02 0.0000e+00 0.0000e+00
       13  1    1    2    0    0 -2.8705372170e+01 -7.4069219321e+00 +5.2511344152e+01 6.0301851651e+01 1.0566000000e-01 0.0000e+00 -1.0000e+00
      994  1    1    2    0    0 +1.9909993265e+01 -6.6289054884e+00 +1.3309829696e+01 1.3333604834e+02 1.3100000000e+02 0.0000e+00 0.0000e+00
      997  1    1    2    0    0 +8.7953789053e+00 +1.4035827421e+01 +4.3417881499e+02 4.3736210001e+02 5.0000000000e+01 0.0000e+00 0.0000e+00
</event>
<event>
 5      1 +5.6267200e-07 2.08269300e+02 7.95774700e-02 4.89333200e-01
       13 -1    0    0    0    0 +0.0000000000e+00 +0.0000000000e+00 +4.9999998884e+02 5.0000000000e+02 1.0566000000e-01 0.0000e+00 1.0000e+00
      994 -1    0    0    0    0 -0.0000000000e+00 -0.0000000000e+00 +0.0000000000e+00 1.3100000000e+02 1.3100000000e+02 0.0000e+00 0.0000e+00
       13  1    1    2    0    0 -1.1374970817e+01 +9.9359753197e+00 +4.5278735773e+01 4.7731421976e+01 1.0566000000e-01 0.0000e+00 -1.0000e+00
      994  1    1    2    0    0 +1.2564414411e+01 -7.4155668880e+00 +6.1950015678e+00 1.3195542121e+02 1.3100000000e+02 0.0000e+00 0.0000e+00
      997  1    1    2    0    0 -1.1894435947e+00 -2.5204084317e+00 +4.4852625150e+02 4.5131315682e+02 5.0000000000e+01 0.0000e+00 0.0000e+00
</event>
<event>
 5      1 +5.6267200e-07 2.07560400e+02 7.95774700e-02 4.90528100e-01
       13 -1    0    0    0    0 +0.0000000000e+00 +0.0000000000e+00 +4.9999998884e+02 5.0000000000e+02 1.0566000000e-01 0.0000e+00 1.0000e+00
      994 -1    0    0    0    0 -0.0000000000e+00 -0.0000000000e+00 +0.0000000000e+00 1.3100000000e+02 1.3100000000e+02 0.0000e+00 0.0000e+00
       13  1    1    2    0    0 +6.0581305099e+00 +1.0974849997e+01 +2.7731355905e+01 3.0433329461e+01 1.0566000000e-01 0.0000e+00 -1.0000e+00
      994  1    1    2    0    0 +7.9600417065e+00 -3.3850391788e+00 +6.0720861511e+00 1.3142561008e+02 1.3100000000e+02 0.0000e+00 0.0000e+00
      997  1    1    2    0    0 -1.4018172216e+01 -7.5898108181e+00 +4.6619654678e+02 4.6914106046e+02 5.0000000000e+01 0.0000e+00 0.0000e+00
</event>
<event>
 5      1 +5.6267200e-07 1.99168100e+02 7.95774700e-02 5.05511800e-01
       13 -1    0    0    0    0 +0.0000000000e+00 +0.0000000000e+00 +4.9999998884e+02 5.0000000000e+02 1.0566000000e-01 0.0000e+00 1.0000e+00
      994 -1    0    0    0    0 -0.0000000000e+00 -0.0000000000e+00 +0.0000000000e+00 1.3100000000e+02 1.3100000000e+02 0.0000e+00 0.0000e+00
       13  1    1    2    0    0 -3.1516509134e+01 +2.9412623778e+01 +1.3984256069e+02 1.4633641287e+02 1.0566000000e-01 0.0000e+00 -1.0000e+00
      994  1    1    2    0    0 +1.9021899313e+01 +1.1533511293e+01 +1.5499295632e+01 1.3377624117e+02 1.3100000000e+02 0.0000e+00 0.0000e+00
      997  1    1    2    0    0 +1.2494609821e+01 -4.0946135071e+01 +3.4465813251e+02 3.5088734596e+02 5.0000000000e+01 0.0000e+00 0.0000e+00
</event>
<event>
 5      1 +5.6267200e-07 2.03898400e+02 7.95774700e-02 4.96871000e-01
       13 -1    0    0    0    0 +0.0000000000e+00 +0.0000000000e+00 +4.9999998884e+02 5.0000000000e+02 1.0566000000e-01 0.0000e+00 1.0000e+00
      994 -1    0    0    0    0 -0.0000000000e+00 -0.0000000000e+00 +0.0000000000e+00 1.3100000000e+02 1.3100000000e+02 0.0000e+00 0.0000e+00
       13  1    1    2    0    0 -2.8089181545e+01 -1.6624022236e+01 +8.9685077170e+01 9.5439952149e+01 1.0566000000e-01 0.0000e+00 -1.0000e+00
      994  1    1    2    0    0 +1.3049394018e+01 +2.3592461722e+01 +1.2562006034e+01 1.3433426566e+02 1.3100000000e+02 0.0000e+00 0.0000e+00
      997  1    1    2    0    0 +1.5039787526e+01 -6.9684394863e+00 +3.9775290563e+02 4.0122578219e+02 5.0000000000e+01 0.0000e+00 0.0000e+00
</event>
<event>
 5      1 +5.6267200e-07 2.08947200e+02 7.95774700e-02 4.88200100e-01
       13 -1    0    0    0    0 +0.0000000000e+00 +0.0000000000e+00 +4.9999998884e+02 5.0000000000e+02 1.0566000000e-01 0.0000e+00 -1.0000e+00
      994 -1    0    0    0    0 -0.0000000000e+00 -0.0000000000e+00 +0.0000000000e+00 1.3100000000e+02 1.3100000000e+02 0.0000e+00 0.0000e+00
       13  1    1    2    0    0 +1.3777879894e+01 -9.2551227064e+00 +8.8453130911e+01 8.9996971075e+01 1.0566000000e-01 0.0000e+00 1.0000e+00
      994  1    1    2    0    0 -2.0655092090e+01 -6.3726261289e+00 +6.9310249180e+00 1.3295218050e+02 1.3100000000e+02 0.0000e+00 0.0000e+00
      997  1    1    2    0    0 +6.8772121956e+00 +1.5627748835e+01 +4.0461583301e+02 4.0805084843e+02 5.0000000000e+01 0.0000e+00 0.0000e+00
</event>
<event>
 5      1 +5.6267200e-07 2.09067600e+02 7.95774700e-02 4.87999900e-01
       13 -1    0    0    0    0 +0.0000000000e+00 +0.0000000000e+00 +4.9999998884e+02 5.0000000000e+02 1.0566000000e-01 0.0000e+00 1.0000e+00
      994 -1    0    0    0    0 -0.0000000000e+00 -0.0000000000e+00 +0.0000000000e+00 1.3100000000e+02 1.3100000000e+02 0.0000e+00 0.0000e+00
       13  1    1    2    0    0 -1.6109702286e+01 +3.1647364466e+00 +9.9141313080e+01 1.0049153789e+02 1.0566000000e-01 0.0000e+00 -1.0000e+00
      994  1    1    2    0    0 +1.2915533213e+01 +5.0109363224e+00 +5.4381972416e+00 1.3184268835e+02 1.3100000000e+02 0.0000e+00 0.0000e+00
      997  1    1    2    0    0 +3.1941690732e+00 -8.1756727691e+00 +3.9542047851e+02 3.9866577376e+02 5.0000000000e+01 0.0000e+00 0.0000e+00
</event>
<event>
 5      1 +5.6267200e-07 2.05961400e+02 7.95774700e-02 4.93262100e-01
       13 -1    0    0    0    0 +0.0000000000e+00 +0.0000000000e+00 +4.9999998884e+02 5.0000000000e+02 1.0566000000e-01 0.0000e+00 1.0000e+00
      994 -1    0    0    0    0 -0.0000000000e+00 -0.0000000000e+00 +0.0000000000e+00 1.3100000000e+02 1.3100000000e+02 0.0000e+00 0.0000e+00
       13  1    1    2    0    0 -1.8587395941e+01 +1.7805096553e+01 +5.9848489623e+01 6.5148796039e+01 1.0566000000e-01 0.0000e+00 -1.0000e+00
      994  1    1    2    0    0 +2.5215163354e+01 -2.9170559388e+01 +1.4785702264e+01 1.3735480694e+02 1.3100000000e+02 0.0000e+00 0.0000e+00
      997  1    1    2    0    0 -6.6277674128e+00 +1.1365462835e+01 +4.2536579695e+02 4.2849639702e+02 5.0000000000e+01 0.0000e+00 0.0000e+00
</event>
<event>
 5      1 +5.6267200e-07 1.99166900e+02 7.95774700e-02 5.05514000e-01
       13 -1    0    0    0    0 +0.0000000000e+00 +0.0000000000e+00 +4.9999998884e+02 5.0000000000e+02 1.0566000000e-01 0.0000e+00 1.0000e+00
      994 -1    0    0    0    0 -0.0000000000e+00 -0.0000000000e+00 +0.0000000000e+00 1.3100000000e+02 1.3100000000e+02 0.0000e+00 0.0000e+00
       13  1    1    2    0    0 +1.3116643233e+01 -1.5355098026e+01 +3.1756725558e+01 3.7634108828e+01 1.0566000000e-01 0.0000e+00 -1.0000e+00
      994  1    1    2    0    0 +7.6108159037e+01 -2.3207807027e+01 +5.0221882672e+01 1.6128946549e+02 1.3100000000e+02 0.0000e+00 0.0000e+00
      997  1    1    2    0    0 -8.9224802270e+01 +3.8562905052e+01 +4.1802138061e+02 4.3207642568e+02 5.0000000000e+01 0.0000e+00 0.0000e+00
</event>
<event>
 5      1 +5.6267200e-07 2.07748600e+02 7.95774700e-02 4.90209900e-01
       13 -1    0    0    0    0 +0.0000000000e+00 +0.0000000000e+00 +4.9999998884e+02 5.0000000000e+02 1.0566000000e-01 0.0000e+00 -1.0000e+00
      994 -1    0    0    0    0 -0.0000000000e+00 -0.0000000000e+00 +0.0000000000e+00 1.3100000000e+02 1.3100000000e+02 0.0000e+00 0.0000e+00
       13  1    1    2    0    0 +1.4616736720e+01 -1.2937370166e+01 +9.6011983303e+01 9.7976204463e+01 1.0566000000e-01 0.0000e+00 1.0000e+00
      994  1    1    2    0    0 -8.6366272370e+00 -4.6356028462e+00 +6.0266059350e+00 1.3150437302e+02 1.3100000000e+02 0.0000e+00 0.0000e+00
      997  1    1    2    0    0 -5.9801094835e+00 +1.7572973012e+01 +3.9796139960e+02 4.0151942252e+02 5.0000000000e+01 0.0000e+00 0.0000e+00
</event>
<event>
 5      1 +5.6267200e-07 2.07774400e+02 7.95774700e-02 4.90166400e-01
       13 -1    0    0    0    0 +0.0000000000e+00 +0.0000000000e+00 +4.9999998884e+02 5.0000000000e+02 1.0566000000e-01 0.0000e+00 1.0000e+00
      994 -1    0    0    0    0 -0.0000000000e+00 -0.0000000000e+00 +0.0000000000e+00 1.3100000000e+02 1.3100000000e+02 0.0000e+00 0.0000e+00
       13  1    1    2    0    0 -1.4188356217e+01 -1.1513393961e+01 +7.7489593090e+01 7.9614796953e+01 1.0566000000e-01 0.0000e+00 -1.0000e+00
      994  1    1    2    0    0 +5.6788331665e+00 -2.7735684236e+00 +5.7198637264e+00 1.3127703024e+02 1.3100000000e+02 0.0000e+00 0.0000e+00
      997  1    1    2    0    0 +8.5095230503e+00 +1.4286962384e+01 +4.1679053202e+02 4.2010817281e+02 5.0000000000e+01 0.0000e+00 0.0000e+00
</event>
<event>
 5      1 +5.6267200e-07 1.97017700e+02 7.95774700e-02 5.09619200e-01
       13 -1    0    0    0    0 +0.0000000000e+00 +0.0000000000e+00 +4.9999998884e+02 5.0000000000e+02 1.0566000000e-01 0.0000e+00 1.0000e+00
      994 -1    0    0    0    0 -0.0000000000e+00 -0.0000000000e+00 +0.0000000000e+00 1.3100000000e+02 1.3100000000e+02 0.0000e+00 0.0000e+00
       13  1    1    2    0    0 +4.1825076039e-01 -4.4049757670e+01 +1.1068662640e+02 1.1913058596e+02 1.0566000000e-01 0.0000e+00 -1.0000e+00
      994  1    1    2    0    0 +2.5447797753e+01 +5.6078441670e+00 +1.8499212948e+01 1.3484160785e+02 1.3100000000e+02 0.0000e+00 0.0000e+00
      997  1    1    2    0    0 -2.5866048513e+01 +3.8441913503e+01 +3.7081414949e+02 3.7702780619e+02 5.0000000000e+01 0.0000e+00 0.0000e+00
</event>
<event>
 5      1 +5.6267200e-07 2.00124200e+02 7.95774700e-02 5.03722400e-01
       13 -1    0    0    0    0 +0.0000000000e+00 +0.0000000000e+00 +4.9999998884e+02 5.0000000000e+02 1.0566000000e-01 0.0000e+00 -1.0000e+00
      994 -1    0    0    0    0 -0.0000000000e+00 -0.0000000000e+00 +0.0000000000e+00 1.3100000000e+02 1.3100000000e+02 0.0000e+00 0.0000e+00
       13  1    1    2    0    0 -2.5917685483e+01 +2.7644656812e+01 +1.9659418949e+02 2.0021298653e+02 1.0566000000e-01 0.0000e+00 1.0000e+00
      994  1    1    2    0    0 -2.5280982593e+01 -1.9361105490e+01 +1.7501291797e+01 1.3594585577e+02 1.3100000000e+02 0.0000e+00 0.0000e+00
      997  1    1    2    0    0 +5.1198668076e+01 -8.2835513217e+00 +2.8590450755e+02 2.9484115770e+02 5.0000000000e+01 0.0000e+00 0.0000e+00
</event>
<event>
 5      1 +5.6267200e-07 2.12245000e+02 7.95774700e-02 4.82818600e-01
       13 -1    0    0    0    0 +0.0000000000e+00 +0.0000000000e+00 +4.9999998884e+02 5.0000000000e+02 1.0566000000e-01 0.0000e+00 1.0000e+00
      994 -1    0    0    0    0 -0.0000000000e+00 -0.0000000000e+00 +0.0000000000e+00 1.3100000000e+02 1.3100000000e+02 0.0000e+00 0.0000e+00
       13  1    1    2    0    0 -2.0249049878e+01 -3.0762981725e+00 -8.9605411427e+00 2.2355985620e+01 1.0566000000e-01 0.0000e+00 -1.0000e+00
      994  1    1    2    0    0 +1.0437581047e+01 -5.6543686617e+00 +4.0916487309e+01 1.3775367116e+02 1.3100000000e+02 0.0000e+00 0.0000e+00
      997  1    1    2    0    0 +9.8114688311e+00 +8.7306668343e+00 +4.6804404267e+02 4.7089034323e+02 5.0000000000e+01 0.0000e+00 0.0000e+00
</event>
<event>
 5      1 +5.6267200e-07 2.08943200e+02 7.95774700e-02 4.88206800e-01
       13 -1    0    0    0    0 +0.0000000000e+00 +0.0000000000e+00 +4.9999998884e+02 5.0000000000e+02 1.0566000000e-01 0.0000e+00 -1.0000e+00
      994 -1    0    0    0    0 -0.0000000000e+00 -0.0000000000e+00 +0.0000000000e+00 1.3100000000e+02 1.3100000000e+02 0.0000e+00 0.0000e+00
       13  1    1    2    0    0 +1.3294151905e+01 +6.3999218690e-01 +3.7373780574e+01 3.9673097979e+01 1.0566000000e-01 0.0000e+00 1.0000e+00
      994  1    1    2    0    0 -2.6608582618e+01 -2.1534378842e+01 +1.0538083330e+01 1.3580794285e+02 1.3100000000e+02 0.0000e+00 0.0000e+00
      997  1    1    2    0    0 +1.3314430713e+01 +2.0894386655e+01 +4.5208812493e+02 4.5551895917e+02 5.0000000000e+01 0.0000e+00 0.0000e+00
</event>
<event>
 5      1 +5.6267200e-07 2.03174100e+02 7.95774700e-02 4.98160200e-01
       13 -1    0    0    0    0 +0.0000000000e+00 +0.0000000000e+00 +4.9999998884e+02 5.0000000000e+02 1.0566000000e-01 0.0000e+00 1.0000e+00
      994 -1    0    0    0    0 -0.0000000000e+00 -0.0000000000e+00 +0.0000000000e+00 1.3100000000e+02 1.3100000000e+02 0.0000e+00 0.0000e+00
       13  1    1    2    0    0 +3.7958485004e+00 +9.3420213362e+00 +4.9230398805e+00 1.1221823122e+01 1.0566000000e-01 0.0000e+00 -1.0000e+00
      994  1    1    2    0    0 -7.7040936791e+00 +4.8428232635e+00 +9.7679305386e+00 1.3167846621e+02 1.3100000000e+02 0.0000e+00 0.0000e+00
      997  1    1    2    0    0 +3.9082451786e+00 -1.4184844600e+01 +4.8530901842e+02 4.8809971067e+02 5.0000000000e+01 0.0000e+00 0.0000e+00
</event>
<event>
 5      1 +5.6267200e-07 1.97513800e+02 7.95774700e-02 5.08661300e-01
       13 -1    0    0    0    0 +0.0000000000e+00 +0.0000000000e+00 +4.9999998884e+02 5.0000000000e+02 1.0566000000e-01 0.0000e+00 -1.0000e+00
      994 -1    0    0    0    0 -0.0000000000e+00 -0.0000000000e+00 +0.0000000000e+00 1.3100000000e+02 1.3100000000e+02 0.0000e+00 0.0000e+00
       13  1    1    2    0    0 -3.5611580059e+01 -1.0903735456e+01 +3.0136266912e+01 4.7909099643e+01 1.0566000000e-01 0.0000e+00 1.0000e+00
      994  1    1    2    0    0 -1.3417130545e+01 +5.1393110064e+01 +4.1739803807e+01 1.4739227380e+02 1.3100000000e+02 0.0000e+00 0.0000e+00
      997  1    1    2    0    0 +4.9028710603e+01 -4.0489374608e+01 +4.2812391812e+02 4.3569862656e+02 5.0000000000e+01 0.0000e+00 0.0000e+00
</event>
<event>
 5      1 +5.6267200e-07 1.98648000e+02 7.95774700e-02 5.06494500e-01
       13 -1    0    0    0    0 +0.0000000000e+00 +0.0000000000e+00 +4.9999998884e+02 5.0000000000e+02 1.0566000000e-01 0.0000e+00 -1.0000e+00
      994 -1    0    0    0    0 -0.0000000000e+00 -0.0000000000e+00 +0.0000000000e+00 1.3100000000e+02 1.3100000000e+02 0.0000e+00 0.0000e+00
       13  1    1    2    0    0 -1.6413568384e+00 +1.9828632795e+01 +1.6551095337e+01 2.5880854926e+01 1.0566000000e-01 0.0000e+00 1.0000e+00
      994  1    1    2    0    0 -3.6725150704e+01 +2.5684268659e+00 +2.0793803820e+01 1.3765433443e+02 1.3100000000e+02 0.0000e+00 0.0000e+00
      997  1    1    2    0    0 +3.8366507542e+01 -2.2397059661e+01 +4.6265508968e+02 4.6746481064e+02 5.0000000000e+01 0.0000e+00 0.0000e+00
</event>
<event>
 5      1 +5.6267200e-07 2.07632000e+02 7.95774700e-02 4.90407000e-01
       13 -1    0    0    0    0 +0.0000000000e+00 +0.0000000000e+00 +4.9999998884e+02 5.0000000000e+02 1.0566000000e-01 0.0000e+00 -1.0000e+00
      994 -1    0    0    0    0 -0.0000000000e+00 -0.0000000000e+00 +0.0000000000e+00 1.3100000000e+02 1.3100000000e+02 0.0000e+00 0.0000e+00
       13  1    1    2    0    0 +1.7715266409e+00 +1.9297984319e+01 +9.4349162645e+01 9.6318877492e+01 1.0566000000e-01 0.0000e+00 1.0000e+00
      994  1    1    2    0    0 +9.4233339576e+00 -2.0687546745e+00 +6.1066562204e+00 1.3149665478e+02 1.3100000000e+02 0.0000e+00 0.0000e+00
      997  1    1    2    0    0 -1.1194860598e+01 -1.7229229644e+01 +3.9954416997e+02 4.0318446773e+02 5.0000000000e+01 0.0000e+00 0.0000e+00
</event>
<event>
 5      1 +5.6267200e-07 2.02687400e+02 7.95774700e-02 4.99033400e-01
       13 -1    0    0    0    0 +0.0000000000e+00 +0.0000000000e+00 +4.9999998884e+02 5.0000000000e+02 1.0566000000e-01 0.0000e+00 -1.0000e+00
      994 -1    0    0    0    0 -0.0000000000e+00 -0.0000000000e+00 +0.0000000000e+00 1.3100000000e+02 1.3100000000e+02 0.0000e+00 0.0000e+00
       13  1    1    2    0    0 +2.5000751173e+01 -1.3344005572e+01 +6.3607372349e+01 6.9634826237e+01 1.0566000000e-01 0.0000e+00 1.0000e+00
      994  1    1    2    0    0 -1.3315263257e+01 -8.0210608835e+00 +1.1026846318e+01 1.3237909576e+02 1.3100000000e+02 0.0000e+00 0.0000e+00
      997  1    1    2    0    0 -1.1685487916e+01 +2.1365066455e+01 +4.2536577017e+02 4.2898607801e+02 5.0000000000e+01 0.0000e+00 0.0000e+00
</event>
<event>
 5      1 +5.6267200e-07 2.05591600e+02 7.95774700e-02 4.93902100e-01
       13 -1    0    0    0    0 +0.0000000000e+00 +0.0000000000e+00 +4.9999998884e+02 5.0000000000e+02 1.0566000000e-01 0.0000e+00 1.0000e+00
      994 -1    0    0    0    0 -0.0000000000e+00 -0.0000000000e+00 +0.0000000000e+00 1.3100000000e+02 1.3100000000e+02 0.0000e+00 0.0000e+00
       13  1    1    2    0    0 +1.0200942691e+01 -1.7210206399e+01 +4.1499541631e+01 4.6070311001e+01 1.0566000000e-01 0.0000e+00 -1.0000e+00
      994  1    1    2    0    0 -1.1992969440e+01 +1.0949465312e+01 +8.6754439922e+00 1.3228751050e+02 1.3100000000e+02 0.0000e+00 0.0000e+00
      997  1    1    2    0    0 +1.7920267493e+00 +6.2607410870e+00 +4.4982500321e+02 4.5264217850e+02 5.0000000000e+01 0.0000e+00 0.0000e+00
</event>
<event>
 5      1 +5.6267200e-07 2.00879400e+02 7.95774700e-02 5.02324700e-01
       13 -1    0    0    0    0 +0.0000000000e+00 +0.0000000000e+00 +4.9999998884e+02 5.0000000000e+02 1.0566000000e-01 0.0000e+00 1.0000e+00
      994 -1    0    0    0    0 -0.0000000000e+00 -0.0000000000e+00 +0.0000000000e+00 1.3100000000e+02 1.3100000000e+02 0.0000e+00 0.0000e+00
       13  1    1    2    0    0 +2.9194799838e+01 -6.6180601231e+01 +1.1123624334e+02 1.3268655287e+02 1.0566000000e-01 0.0000e+00 -1.0000e+00
      994  1    1    2    0    0 -4.1600278790e+01 +1.0796927159e+02 +9.8625059360e+01 2.0068843798e+02 1.3100000000e+02 0.0000e+00 0.0000e+00
      997  1    1    2    0    0 +1.2405478952e+01 -4.1788670364e+01 +2.9013868613e+02 2.9762500915e+02 5.0000000000e+01 0.0000e+00 0.0000e+00
</event>
<event>
 5      1 +5.6267200e-07 2.02287500e+02 7.95774700e-02 4.99754800e-01
       13 -1    0    0    0    0 +0.0000000000e+00 +0.0000000000e+00 +4.9999998884e+02 5.0000000000e+02 1.0566000000e-01 0.0000e+00 1.0000e+00
      994 -1    0    0    0    0 -0.0000000000e+00 -0.0000000000e+00 +0.0000000000e+00 1.3100000000e+02 1.3100000000e+02 0.0000e+00 0.0000e+00
       13  1    1    2    0    0 -3.2440599080e+01 +7.3662726263e+00 +7.0896297728e+01 7.8313157494e+01 1.0566000000e-01 0.0000e+00 -1.0000e+00
      994  1    1    2    0    0 +2.4394527163e+01 -1.2171656863e+01 +1.4066942344e+01 1.3454412307e+02 1.3100000000e+02 0.0000e+00 0.0000e+00
      997  1    1    2    0    0 +8.0460719178e+00 +4.8053842363e+00 +4.1503674876e+02 4.1814271943e+02 5.0000000000e+01 0.0000e+00 0.0000e+00
</event>
<event>
 5      1 +5.6267200e-07 2.07273200e+02 7.95774700e-02 4.91015200e-01
       13 -1    0    0    0    0 +0.0000000000e+00 +0.0000000000e+00 +4.9999998884e+02 5.0000000000e+02 1.0566000000e-01 0.0000e+00 1.0000e+00
      994 -1    0    0    0    0 -0.0000000000e+00 -0.0000000000e+00 +0.0000000000e+00 1.3100000000e+02 1.3100000000e+02 0.0000e+00 0.0000e+00
       13  1    1    2    0    0 +1.8407179667e+01 +3.9676318507e+01 +1.0125485359e+02 1.1029773820e+02 1.0566000000e-01 0.0000e+00 -1.0000e+00
      994  1    1    2    0    0 -8.7754955122e+01 -7.4959898371e+01 +8.6100506292e+01 1.9466436679e+02 1.3100000000e+02 0.0000e+00 0.0000e+00
      997  1    1    2    0    0 +6.9347775454e+01 +3.5283579864e+01 +3.1264462895e+02 3.2603789501e+02 5.0000000000e+01 0.0000e+00 0.0000e+00
</event>
<event>
 5      1 +5.6267200e-07 2.02966500e+02 7.95774700e-02 4.98532000e-01
       13 -1    0    0    0    0 +0.0000000000e+00 +0.0000000000e+00 +4.9999998884e+02 5.0000000000e+02 1.0566000000e-01 0.0000e+00 -1.0000e+00
      994 -1    0    0    0    0 -0.0000000000e+00 -0.0000000000e+00 +0.0000000000e+00 1.3100000000e+02 1.3100000000e+02 0.0000e+00 0.0000e+00
       13  1    1    2    0    0 +3.1727084135e+01 +3.2246388489e+01 +1.1246086927e+02 1.2121838029e+02 1.0566000000e-01 0.0000e+00 1.0000e+00
      994  1    1    2    0    0 -3.3637234493e+01 -4.0295577257e+01 +2.4516451820e+01 1.4323844980e+02 1.3100000000e+02 0.0000e+00 0.0000e+00
      997  1    1    2    0    0 +1.9101503588e+00 +8.0491887680e+00 +3.6302266774e+02 3.6654316991e+02 5.0000000000e+01 0.0000e+00 0.0000e+00
</event>
<event>
 5      1 +5.6267200e-07 2.05462300e+02 7.95774700e-02 4.94126700e-01
       13 -1    0    0    0    0 +0.0000000000e+00 +0.0000000000e+00 +4.9999998884e+02 5.0000000000e+02 1.0566000000e-01 0.0000e+00 -1.0000e+00
      994 -1    0    0    0    0 -0.0000000000e+00 -0.0000000000e+00 +0.0000000000e+00 1.3100000000e+02 1.3100000000e+02 0.0000e+00 0.0000e+00
       13  1    1    2    0    0 +1.0382541822e+01 +1.2223940887e+01 +2.2989408058e+01 2.8031160382e+01 1.0566000000e-01 0.0000e+00 1.0000e+00
      994  1    1    2    0    0 -4.4176087872e+00 -2.5958375511e+01 +1.1030422913e+01 1.3407469096e+02 1.3100000000e+02 0.0000e+00 0.0000e+00
      997  1    1    2    0    0 -5.9649330346e+00 +1.3734434624e+01 +4.6598015787e+02 4.6889414866e+02 5.0000000000e+01 0.0000e+00 0.0000e+00
</event>
<event>
 5      1 +5.6267200e-07 2.05014400e+02 7.95774700e-02 4.94907200e-01
       13 -1    0    0    0    0 +0.0000000000e+00 +0.0000000000e+00 +4.9999998884e+02 5.0000000000e+02 1.0566000000e-01 0.0000e+00 1.0000e+00
      994 -1    0    0    0    0 -0.0000000000e+00 -0.0000000000e+00 +0.0000000000e+00 1.3100000000e+02 1.3100000000e+02 0.0000e+00 0.0000e+00
       13  1    1    2    0    0 +1.5383047961e+01 -4.1162822304e+01 +2.4544169072e+02 2.4934444211e+02 1.0566000000e-01 0.0000e+00 -1.0000e+00
      994  1    1    2    0    0 -2.4112939777e+01 +3.3036826846e+01 +1.6632886044e+01 1.3824079966e+02 1.3100000000e+02 0.0000e+00 0.0000e+00
      997  1    1    2    0    0 +8.7298918155e+00 +8.1259954576e+00 +2.3792541207e+02 2.4341475822e+02 5.0000000000e+01 0.0000e+00 0.0000e+00
</event>
<event>
 5      1 +5.6267200e-07 2.07527000e+02 7.95774700e-02 4.90584700e-01
       13 -1    0    0    0    0 +0.0000000000e+00 +0.0000000000e+00 +4.9999998884e+02 5.0000000000e+02 1.0566000000e-01 0.0000e+00 -1.0000e+00
      994 -1    0    0    0    0 -0.0000000000e+00 -0.0000000000e+00 +0.0000000000e+00 1.3100000000e+02 1.3100000000e+02 0.0000e+00 0.0000e+00
       13  1    1    2    0    0 -1.3800246208e+01 +1.7691901880e+01 +1.0724532336e+02 1.0956742552e+02 1.0566000000e-01 0.0000e+00 1.0000e+00
      994  1    1    2    0    0 -1.2091277707e+01 -2.7949164593e+01 +1.0483652595e+01 1.3490093317e+02 1.3100000000e+02 0.0000e+00 0.0000e+00
      997  1    1    2    0    0 +2.5891523915e+01 +1.0257262713e+01 +3.8227101288e+02 3.8653164132e+02 5.0000000000e+01 0.0000e+00 0.0000e+00
</event>
<event>
 5      1 +5.6267200e-07 2.06592300e+02 7.95774700e-02 4.92177000e-01
       13 -1    0    0    0    0 +0.0000000000e+00 +0.0000000000e+00 +4.9999998884e+02 5.0000000000e+02 1.0566000000e-01 0.0000e+00 1.0000e+00
      994 -1    0    0    0    0 -0.0000000000e+00 -0.0000000000e+00 +0.0000000000e+00 1.3100000000e+02 1.3100000000e+02 0.0000e+00 0.0000e+00
       13  1    1    2    0    0 -3.0954714579e+01 -1.0305531168e+01 +6.1031653559e+01 6.9204567967e+01 1.0566000000e-01 0.0000e+00 -1.0000e+00
      994  1    1    2    0    0 +8.7910118765e+01 +1.2980220807e+01 +5.0739717273e+01 1.6622934164e+02 1.3100000000e+02 0.0000e+00 0.0000e+00
      997  1    1    2    0    0 -5.6955404186e+01 -2.6746896397e+00 +3.8822861800e+02 3.9556609039e+02 5.0000000000e+01 0.0000e+00 0.0000e+00
</event>
<event>
 5      1 +5.6267200e-07 2.05880800e+02 7.95774700e-02 4.93401400e-01
       13 -1    0    0    0    0 +0.0000000000e+00 +0.0000000000e+00 +4.9999998884e+02 5.0000000000e+02 1.0566000000e-01 0.0000e+00 1.0000e+00
      994 -1    0    0    0    0 -0.0000000000e+00 -0.0000000000e+00 +0.0000000000e+00 1.3100000000e+02 1.3100000000e+02 0.0000e+00 0.0000e+00
       13  1    1    2    0    0 -6.6498696241e+00 +8.2710634203e+00 +1.1779916887e+01 1.5855877838e+01 1.0566000000e-01 0.0000e+00 -1.0000e+00
      994  1    1    2    0    0 +1.9489929721e+00 +7.1283976057e+00 +7.3504637729e+00 1.3141400969e+02 1.3100000000e+02 0.0000e+00 0.0000e+00
      997  1    1    2    0    0 +4.7008766519e+00 -1.5399461026e+01 +4.8086960818e+02 4.8373011247e+02 5.0000000000e+01 0.0000e+00 0.0000e+00
</event>
<event>
 5      1 +5.6267200e-07 1.96744200e+02 7.95774700e-02 5.10150100e-01
       13 -1    0    0    0    0 +0.0000000000e+00 +0.0000000000e+00 +4.9999998884e+02 5.0000000000e+02 1.0566000000e-01 0.0000e+00 1.0000e+00
      994 -1    0    0    0    0 -0.0000000000e+00 -0.0000000000e+00 +0.0000000000e+00 1.3100000000e+02 1.3100000000e+02 0.0000e+00 0.0000e+00
       13  1    1    2    0    0 -4.6144033874e+01 +2.4921863520e+01 +8.2184001909e+01 9.7491499513e+01 1.0566000000e-01 0.0000e+00 -1.0000e+00
      994  1    1    2    0    0 +3.8586235267e+01 -5.9581840600e+01 +4.4939736618e+01 1.5562606854e+02 1.3100000000e+02 0.0000e+00 0.0000e+00
      997  1    1    2    0    0 +7.5577986077e+00 +3.4659977080e+01 +3.7287625031e+02 3.7788243195e+02 5.0000000000e+01 0.0000e+00 0.0000e+00
</event>
<event>
 5      1 +5.6267200e-07 2.02146200e+02 7.95774700e-02 5.00010500e-01
       13 -1    0    0    0    0 +0.0000000000e+00 +0.0000000000e+00 +4.9999998884e+02 5.0000000000e+02 1.0566000000e-01 0.0000e+00 1.0000e+00
      994 -1    0    0    0    0 -0.0000000000e+00 -0.0000000000e+00 +0.0000000000e+00 1.3100000000e+02 1.3100000000e+02 0.0000e+00 0.0000e+00
       13  1    1    2    0    0 -4.9244413694e+00 -1.9868771426e+01 +2.0001090439e+01 2.8619451140e+01 1.0566000000e-01 0.0000e+00 -1.0000e+00
      994  1    1    2    0    0 -2.6259515530e+01 +4.9494300684e+01 +2.7510530200e+01 1.4511056897e+02 1.3100000000e+02 0.0000e+00 0.0000e+00
      997  1    1    2    0    0 +3.1183956899e+01 -2.9625529259e+01 +4.5248836820e+02 4.5726997989e+02 5.0000000000e+01 0.0000e+00 0.0000e+00
</event>
<event>
 5      1 +5.6267200e-07 1.94043300e+02 7.95774700e-02 5.15498700e-01
       13 -1    0    0    0    0 +0.0000000000e+00 +0.0000000000e+00 +4.9999998884e+02 5.0000000000e+02 1.0566000000e-01 0.0000e+00 -1.0000e+00
      994 -1    0    0    0    0 -0.0000000000e+00 -0.0000000000e+00 +0.0000000000e+00 1.3100000000e+02 1.3100000000e+02 0.0000e+00 0.0000e+00
       13  1    1    2    0    0 -4.1197702180e+01 +4.7018768911e+01 +1.3827387192e+02 1.5174877303e+02 1.0566000000e-01 0.0000e+00 1.0000e+00
      994  1    1    2    0    0 -1.0155619447e+00 -3.2555291029e+01 +2.6719712546e+01 1.3760749027e+02 1.3100000000e+02 0.0000e+00 0.0000e+00
      997  1    1    2    0    0 +4.2213264125e+01 -1.4463477883e+01 +3.3500640437e+02 3.4164373670e+02 5.0000000000e+01 0.0000e+00 0.0000e+00
</event>
<event>
 5      1 +5.6267200e-07 2.03023900e+02 7.95774700e-02 4.98429200e-01
       13 -1    0    0    0    0 +0.0000000000e+00 +0.0000000000e+00 +4.9999998884e+02 5.0000000000e+02 1.0566000000e-01 0.0000e+00 -1.0000e+00
      994 -1    0    0    0    0 -0.0000000000e+00 -0.0000000000e+00 +0.0000000000e+00 1.3100000000e+02 1.3100000000e+02 0.0000e+00 0.0000e+00
       13  1    1    2    0    0 +1.6517072317e+01 -2.5652497567e+01 +6.6203691135e+01 7.2895844829e+01 1.0566000000e-01 0.0000e+00 1.0000e+00
      994  1    1    2    0    0 -3.1767023078e+01 +8.0865008987e+00 +1.5200934401e+01 1.3589188224e+02 1.3100000000e+02 0.0000e+00 0.0000e+00
      997  1    1    2    0    0 +1.5249950761e+01 +1.7565996669e+01 +4.1859536330e+02 4.2221227293e+02 5.0000000000e+01 0.0000e+00 0.0000e+00
</event>
<event>
 5      1 +5.6267200e-07 1.98088200e+02 7.95774700e-02 5.07560000e-01
       13 -1    0    0    0    0 +0.0000000000e+00 +0.0000000000e+00 +4.9999998884e+02 5.0000000000e+02 1.0566000000e-01 0.0000e+00 -1.0000e+00
      994 -1    0    0    0    0 -0.0000000000e+00 -0.0000000000e+00 +0.0000000000e+00 1.3100000000e+02 1.3100000000e+02 0.0000e+00 0.0000e+00
       13  1    1    2    0    0 -1.8030140486e+01 -1.2770715308e+01 +1.9102674785e+00 2.2177407903e+01 1.0566000000e-01 0.0000e+00 1.0000e+00
      994  1    1    2    0    0 +2.5780620640e+01 +7.6475728191e+00 +2.8815552598e+01 1.3680081082e+02 1.3100000000e+02 0.0000e+00 0.0000e+00
      997  1    1    2    0    0 -7.7504801537e+00 +5.1231424886e+00 +4.6927416876e+02 4.7202178127e+02 5.0000000000e+01 0.0000e+00 0.0000e+00
</event>
<event>
 5      1 +5.6267200e-07 2.18084600e+02 7.95774700e-02 4.73788500e-01
       13 -1    0    0    0    0 +0.0000000000e+00 +0.0000000000e+00 +4.9999998884e+02 5.0000000000e+02 1.0566000000e-01 0.0000e+00 -1.0000e+00
      994 -1    0    0    0    0 -0.0000000000e+00 -0.0000000000e+00 +0.0000000000e+00 1.3100000000e+02 1.3100000000e+02 0.0000e+00 0.0000e+00
       13  1    1    2    0    0 -1.2217688664e+01 -5.2681498037e+01 +1.7609620891e+01 5.6874617042e+01 1.0566000000e-01 0.0000e+00 1.0000e+00
      994  1    1    2    0    0 -1.5609967773e+01 +4.6282485756e+01 +6.7486917694e+01 1.5524568800e+02 1.3100000000e+02 0.0000e+00 0.0000e+00
      997  1    1    2    0    0 +2.7827656438e+01 +6.3990122813e+00 +4.1490345025e+02 4.1887969496e+02 5.0000000000e+01 0.0000e+00 0.0000e+00
</event>
<event>
 5      1 +5.6267200e-07 1.98206700e+02 7.95774700e-02 5.07333800e-01
       13 -1    0    0    0    0 +0.0000000000e+00 +0.0000000000e+00 +4.9999998884e+02 5.0000000000e+02 1.0566000000e-01 0.0000e+00 1.0000e+00
      994 -1    0    0    0    0 -0.0000000000e+00 -0.0000000000e+00 +0.0000000000e+00 1.3100000000e+02 1.3100000000e+02 0.0000e+00 0.0000e+00
       13  1    1    2    0    0 -6.4157813045e+00 -1.6092030040e+01 -1.3328276808e+00 1.7375364002e+01 1.0566000000e-01 0.0000e+00 -1.0000e+00
      994  1    1    2    0    0 +2.3907276897e+00 -1.9378040766e+01 +2.6799780679e+01 1.3513124097e+02 1.3100000000e+02 0.0000e+00 0.0000e+00
      997  1    1    2    0    0 +4.0250536148e+00 +3.5470070806e+01 +4.7453303584e+02 4.7849339502e+02 5.0000000000e+01 0.0000e+00 0.0000e+00
</event>
<event>
 5      1 +5.6267200e-07 2.04632500e+02 7.95774700e-02 4.95576000e-01
       13 -1    0    0    0    0 +0.0000000000e+00 +0.0000000000e+00 +4.9999998884e+02 5.0000000000e+02 1.0566000000e-01 0.0000e+00 1.0000e+00
      994 -1    0    0    0    0 -0.0000000000e+00 -0.0000000000e+00 +0.0000000000e+00 1.3100000000e+02 1.3100000000e+02 0.0000e+00 0.0000e+00
       13  1    1    2    0    0 -5.3532940070e+01 -6.8501322842e+01 +7.8379290400e+01 1.1705354002e+02 1.0566000000e-01 0.0000e+00 -1.0000e+00
      994  1    1    2    0    0 +1.2212496834e+02 +9.7837929198e+01 +2.9049605225e+02 3.5501510482e+02 1.3100000000e+02 0.0000e+00 0.0000e+00
      997  1    1    2    0    0 -6.8592028265e+01 -2.9336606356e+01 +1.3112464619e+02 1.5893135516e+02 5.0000000000e+01 0.0000e+00 0.0000e+00
</event>
<event>
 5      1 +5.6267200e-07 2.06050900e+02 7.95774700e-02 4.93107700e-01
       13 -1    0    0    0    0 +0.0000000000e+00 +0.0000000000e+00 +4.9999998884e+02 5.0000000000e+02 1.0566000000e-01 0.0000e+00 -1.0000e+00
      994 -1    0    0    0    0 -0.0000000000e+00 -0.0000000000e+00 +0.0000000000e+00 1.3100000000e+02 1.3100000000e+02 0.0000e+00 0.0000e+00
       13  1    1    2    0    0 -1.4220456278e+01 -1.1934862586e+01 +4.4816604552e+01 4.8509808589e+01 1.0566000000e-01 0.0000e+00 1.0000e+00
      994  1    1    2    0    0 +1.6474417616e+01 -1.4160875300e+01 +9.3716842205e+00 1.3311936482e+02 1.3100000000e+02 0.0000e+00 0.0000e+00
      997  1    1    2    0    0 -2.2539613381e+00 +2.6095737886e+01 +4.4581170006e+02 4.4937082659e+02 5.0000000000e+01 0.0000e+00 0.0000e+00
</event>
<event>
 5      1 +5.6267200e-07 1.95524600e+02 7.95774700e-02 5.12541300e-01
       13 -1    0    0    0    0 +0.0000000000e+00 +0.0000000000e+00 +4.9999998884e+02 5.0000000000e+02 1.0566000000e-01 0.0000e+00 -1.0000e+00
      994 -1    0    0    0    0 -0.0000000000e+00 -0.0000000000e+00 +0.0000000000e+00 1.3100000000e+02 1.3100000000e+02 0.0000e+00 0.0000e+00
       13  1    1    2    0    0 -4.4601478371e+01 +4.8327533035e+01 +5.5205091085e+01 8.5863004652e+01 1.0566000000e-01 0.0000e+00 1.0000e+00
      994  1    1    2    0    0 +9.7111394958e+01 -8.3456209231e+01 +1.4191682970e+02 2.3172602021e+02 1.3100000000e+02 0.0000e+00 0.0000e+00
      997  1    1    2    0    0 -5.2509916587e+01 +3.5128676196e+01 +3.0287806805e+02 3.1341097514e+02 5.0000000000e+01 0.0000e+00 0.0000e+00
</event>
<event>
 5      1 +5.6267200e-07 2.07640900e+02 7.95774700e-02 4.90391900e-01
       13 -1    0    0    0    0 +0.0000000000e+00 +0.0000000000e+00 +4.9999998884e+02 5.0000000000e+02 1.0566000000e-01 0.0000e+00 -1.0000e+00
      994 -1    0    0    0    0 -0.0000000000e+00 -0.0000000000e+00 +0.0000000000e+00 1.3100000000e+02 1.3100000000e+02 0.0000e+00 0.0000e+00
       13  1    1    2    0    0 -7.5368363486e+00 +1.2674230730e+01 +3.0289520506e+01 3.3688369554e+01 1.0566000000e-01 0.0000e+00 1.0000e+00
      994  1    1    2    0    0 +3.8991516143e+00 -2.8835237066e+01 +9.9688030997e+00 1.3456244393e+02 1.3100000000e+02 0.0000e+00 0.0000e+00
      997  1    1    2    0    0 +3.6376847343e+00 +1.6161006336e+01 +4.5974166523e+02 4.6274918652e+02 5.0000000000e+01 0.0000e+00 0.0000e+00
</event>
<event>
 5      1 +5.6267200e-07 2.05347900e+02 7.95774700e-02 4.94325600e-01
       13 -1    0    0    0    0 +0.0000000000e+00 +0.0000000000e+00 +4.9999998884e+02 5.0000000000e+02 1.0566000000e-01 0.0000e+00 -1.0000e+00
      994 -1    0    0    0    0 -0.0000000000e+00 -0.0000000000e+00 +0.0000000000e+00 1.3100000000e+02 1.3100000000e+02 0.0000e+00 0.0000e+00
       13  1    1    2    0    0 +1.4175156689e+01 -9.2804199480e-01 +2.0041725886e+01 2.4565794708e+01 1.0566000000e-01 0.0000e+00 1.0000e+00
      994  1    1    2    0    0 -2.7037979229e+00 -1.9574209667e-01 +7.5477620276e+00 1.3124525725e+02 1.3100000000e+02 0.0000e+00 0.0000e+00
      997  1    1    2    0    0 -1.1471358766e+01 +1.1237840915e+00 +4.7241050092e+02 4.7518894804e+02 5.0000000000e+01 0.0000e+00 0.0000e+00
</event>
<event>
 5      1 +5.6267200e-07 1.98322800e+02 7.95774700e-02 5.07112500e-01
       13 -1    0    0    0    0 +0.0000000000e+00 +0.0000000000e+00 +4.9999998884e+02 5.0000000000e+02 1.0566000000e-01 0.0000e+00 -1.0000e+00
      994 -1    0    0    0    0 -0.0000000000e+00 -0.0000000000e+00 +0.0000000000e+00 1.3100000000e+02 1.3100000000e+02 0.0000e+00 0.0000e+00
       13  1    1    2    0    0 +3.7762779310e+00 +2.1421334043e+01 +1.4629975020e+01 2.6214140465e+01 1.0566000000e-01 0.0000e+00 1.0000e+00
      994  1    1    2    0    0 -1.2390054070e+01 -3.7279181754e+01 +2.2173720016e+01 1.3854935832e+02 1.3100000000e+02 0.0000e+00 0.0000e+00
      997  1    1    2    0    0 +8.6137761390e+00 +1.5857847712e+01 +4.6319629380e+02 4.6623650121e+02 5.0000000000e+01 0.0000e+00 0.0000e+00
</event>
<event>
 5      1 +5.6267200e-07 1.99447000e+02 7.95774700e-02 5.04987400e-01
       13 -1    0    0    0    0 +0.0000000000e+00 +0.0000000000e+00 +4.9999998884e+02 5.0000000000e+02 1.0566000000e-01 0.0000e+00 1.0000e+00
      994 -1    0    0    0    0 -0.0000000000e+00 -0.0000000000e+00 +0.0000000000e+00 1.3100000000e+02 1.3100000000e+02 0.0000e+00 0.0000e+00
       13  1    1    2    0    0 -7.3178337068e+00 +1.1570371750e+01 +6.6588517167e+00 1.5224180202e+01 1.0566000000e-01 0.0000e+00 -1.0000e+00
      994  1    1    2    0    0 +5.9058995506e+00 +3.0757890005e+01 +1.7941601147e+01 1.3588167094e+02 1.3100000000e+02 0.0000e+00 0.0000e+00
      997  1    1    2    0    0 +1.4119341562e+00 -4.2328261754e+01 +4.7539953597e+02 4.7989414885e+02 5.0000000000e+01 0.0000e+00 0.0000e+00
</event>
<event>
 5      1 +5.6267200e-07 1.99658800e+02 7.95774700e-02 5.04590600e-01
       13 -1    0    0    0    0 +0.0000000000e+00 +0.0000000000e+00 +4.9999998884e+02 5.0000000000e+02 1.0566000000e-01 0.0000e+00 1.0000e+00
      994 -1    0    0    0    0 -0.0000000000e+00 -0.0000000000e+00 +0.0000000000e+00 1.3100000000e+02 1.3100000000e+02 0.0000e+00 0.0000e+00
       13  1    1    2    0    0 +5.3338979535e+01 +2.3163759026e+01 +9.4547798818e+01 1.1099956710e+02 1.0566000000e-01 0.0000e+00 -1.0000e+00
      994  1    1    2    0    0 +1.4630284728e+01 -5.1642180177e+01 +4.4760062897e+01 1.4847701248e+02 1.3100000000e+02 0.0000e+00 0.0000e+00
      997  1    1    2    0    0 -6.7969264264e+01 +2.8478421152e+01 +3.6069212712e+02 3.7152342042e+02 5.0000000000e+01 0.0000e+00 0.0000e+00
</event>
<event>
 5      1 +5.6267200e-07 2.00941700e+02 7.95774700e-02 5.02210100e-01
       13 -1    0    0    0    0 +0.0000000000e+00 +0.0000000000e+00 +4.9999998884e+02 5.0000000000e+02 1.0566000000e-01 0.0000e+00 1.0000e+00
      994 -1    0    0    0    0 -0.0000000000e+00 -0.0000000000e+00 +0.0000000000e+00 1.3100000000e+02 1.3100000000e+02 0.0000e+00 0.0000e+00
       13  1    1    2    0    0 -4.2468459297e+01 +2.7626313208e+00 +8.9622947351e+01 9.9214343836e+01 1.0566000000e-01 0.0000e+00 -1.0000e+00
      994  1    1    2    0    0 +4.1881739418e+01 -7.4604758700e+00 +2.1170238615e+01 1.3935177717e+02 1.3100000000e+02 0.0000e+00 0.0000e+00
      997  1    1    2    0    0 +5.8671987926e-01 +4.6978445492e+00 +3.8920680287e+02 3.9243387900e+02 5.0000000000e+01 0.0000e+00 0.0000e+00
</event>
<event>
 5      1 +5.6267200e-07 2.01068900e+02 7.95774700e-02 5.01976100e-01
       13 -1    0    0    0    0 +0.0000000000e+00 +0.0000000000e+00 +4.9999998884e+02 5.0000000000e+02 1.0566000000e-01 0.0000e+00 1.0000e+00
      994 -1    0    0    0    0 -0.0000000000e+00 -0.0000000000e+00 +0.0000000000e+00 1.3100000000e+02 1.3100000000e+02 0.0000e+00 0.0000e+00
       13  1    1    2    0    0 -2.5321291706e+01 +2.9948589161e+00 +6.5256115557e+01 7.0060750604e+01 1.0566000000e-01 0.0000e+00 -1.0000e+00
      994  1    1    2    0    0 -3.0806814794e+01 +2.1740830906e+01 +1.8887724176e+01 1.3762074586e+02 1.3100000000e+02 0.0000e+00 0.0000e+00
      997  1    1    2    0    0 +5.6128106500e+01 -2.4735689822e+01 +4.1585614910e+02 4.2331850354e+02 5.0000000000e+01 0.0000e+00 0.0000e+00
</event>
<event>
 5      1 +5.6267200e-07 2.02613800e+02 7.95774700e-02 4.99165800e-01
       13 -1    0    0    0    0 +0.0000000000e+00 +0.0000000000e+00 +4.9999998884e+02 5.0000000000e+02 1.0566000000e-01 0.0000e+00 1.0000e+00
      994 -1    0    0    0    0 -0.0000000000e+00 -0.0000000000e+00 +0.0000000000e+00 1.3100000000e+02 1.3100000000e+02 0.0000e+00 0.0000e+00
       13  1    1    2    0    0 +1.0150258774e+01 +2.3757059729e+01 +4.9907975000e+01 5.6198245282e+01 1.0566000000e-01 0.0000e+00 -1.0000e+00
      994  1    1    2    0    0 +7.5102086214e+00 -1.1534738801e+01 +1.0812156259e+01 1.3216412583e+02 1.3100000000e+02 0.0000e+00 0.0000e+00
      997  1    1    2    0    0 -1.7660467395e+01 -1.2222320927e+01 +4.3927985758e+02 4.4263762889e+02 5.0000000000e+01 0.0000e+00 0.0000e+00
</event>
<event>
 5      1 +5.6267200e-07 2.07975800e+02 7.95774700e-02 4.89826700e-01
       13 -1    0    0    0    0 +0.0000000000e+00 +0.0000000000e+00 +4.9999998884e+02 5.0000000000e+02 1.0566000000e-01 0.0000e+00 -1.0000e+00
      994 -1    0    0    0    0 -0.0000000000e+00 -0.0000000000e+00 +0.0000000000e+00 1.3100000000e+02 1.3100000000e+02 0.0000e+00 0.0000e+00
       13  1    1    2    0    0 -1.0132260327e+00 +1.2471883320e+01 +2.4021819613e+01 2.7085669312e+01 1.0566000000e-01 0.0000e+00 1.0000e+00
      994  1    1    2    0    0 +8.7626343327e+00 -2.4022185346e+01 +8.6920348945e+00 1.3375500222e+02 1.3100000000e+02 0.0000e+00 0.0000e+00
      997  1    1    2    0    0 -7.7494082999e+00 +1.1550302025e+01 +4.6728613433e+02 4.7015932846e+02 5.0000000000e+01 0.0000e+00 0.0000e+00
</event>
<event>
 5      1 +5.6267200e-07 2.06958700e+02 7.95774700e-02 4.91550700e-01
       13 -1    0    0    0    0 +0.0000000000e+00 +0.0000000000e+00 +4.9999998884e+02 5.0000000000e+02 1.0566000000e-01 0.0000e+00 -1.0000e+00
      994 -1    0    0    0    0 -0.0000000000e+00 -0.0000000000e+00 +0.0000000000e+00 1.3100000000e+02 1.3100000000e+02 0.0000e+00 0.0000e+00
       13  1    1    2    0    0 -5.4379540158e+00 +1.5299532953e+01 +7.4240701911e+01 7.5995658012e+01 1.0566000000e-01 0.0000e+00 1.0000e+00
      994  1    1    2    0    0 +5.7132613468e+00 +2.6305859101e+01 +9.9158556224e+00 1.3410430184e+02 1.3100000000e+02 0.0000e+00 0.0000e+00
      997  1    1    2    0    0 -2.7530733103e-01 -4.1605392054e+01 +4.1584343130e+02 4.2090004015e+02 5.0000000000e+01 0.0000e+00 0.0000e+00
</event>
<event>
 5      1 +5.6267200e-07 2.06060500e+02 7.95774700e-02 4.93091200e-01
       13 -1    0    0    0    0 +0.0000000000e+00 +0.0000000000e+00 +4.9999998884e+02 5.0000000000e+02 1.0566000000e-01 0.0000e+00 1.0000e+00
      994 -1    0    0    0    0 -0.0000000000e+00 -0.0000000000e+00 +0.0000000000e+00 1.3100000000e+02 1.3100000000e+02 0.0000e+00 0.0000e+00
       13  1    1    2    0    0 -1.5578468156e+01 -1.0091532105e+01 +4.3227396504e+01 4.7044092751e+01 1.0566000000e-01 0.0000e+00 -1.0000e+00
      994  1    1    2    0    0 -1.7952801936e+00 +1.3658317238e+01 +7.8999835590e+00 1.3195901788e+02 1.3100000000e+02 0.0000e+00 0.0000e+00
      997  1    1    2    0    0 +1.7373748349e+01 -3.5667851336e+00 +4.4887260877e+02 4.5199688936e+02 5.0000000000e+01 0.0000e+00 0.0000e+00
</event>
<event>
 5      1 +5.6267200e-07 2.05838700e+02 7.95774700e-02 4.93474100e-01
       13 -1    0    0    0    0 +0.0000000000e+00 +0.0000000000e+00 +4.9999998884e+02 5.0000000000e+02 1.0566000000e-01 0.0000e+00 1.0000e+00
      994 -1    0    0    0    0 -0.0000000000e+00 -0.0000000000e+00 +0.0000000000e+00 1.3100000000e+02 1.3100000000e+02 0.0000e+00 0.0000e+00
       13  1    1    2    0    0 -3.1005407974e+01 +1.1093891324e+01 +1.1129323284e+02 1.1606293374e+02 1.0566000000e-01 0.0000e+00 -1.0000e+00
      994  1    1    2    0    0 +2.4232187608e+01 -4.0346600161e+01 +1.8801250957e+01 1.4046185994e+02 1.3100000000e+02 0.0000e+00 0.0000e+00
      997  1    1    2    0    0 +6.7732203663e+00 +2.9252708838e+01 +3.6990550504e+02 3.7447520632e+02 5.0000000000e+01 0.0000e+00 0.0000e+00
</event>
<event>
 5      1 +5.6267200e-07 1.96779000e+02 7.95774700e-02 5.10082400e-01
       13 -1    0    0    0    0 +0.0000000000e+00 +0.0000000000e+00 +4.9999998884e+02 5.0000000000e+02 1.0566000000e-01 0.0000e+00 1.0000e+00
      994 -1    0    0    0    0 -0.0000000000e+00 -0.0000000000e+00 +0.0000000000e+00 1.3100000000e+02 1.3100000000e+02 0.0000e+00 0.0000e+00
       13  1    1    2    0    0 +2.3837089078e+01 +4.4805116192e+01 +1.5558131310e+02 1.6364981333e+02 1.0566000000e-01 0.0000e+00 -1.0000e+00
      994  1    1    2    0    0 -1.4654640204e+01 -5.1915152374e+00 +1.6253977764e+01 1.3291689924e+02 1.3100000000e+02 0.0000e+00 0.0000e+00
      997  1    1    2    0    0 -9.1824488736e+00 -3.9613600955e+01 +3.2816469798e+02 3.3443328744e+02 5.0000000000e+01 0.0000e+00 0.0000e+00
</event>
<event>
 5      1 +5.6267200e-07 2.08363500e+02 7.95774700e-02 4.89175200e-01
       13 -1    0    0    0    0 +0.0000000000e+00 +0.0000000000e+00 +4.9999998884e+02 5.0000000000e+02 1.0566000000e-01 0.0000e+00 1.0000e+00
      994 -1    0    0    0    0 -0.0000000000e+00 -0.0000000000e+00 +0.0000000000e+00 1.3100000000e+02 1.3100000000e+02 0.0000e+00 0.0000e+00
       13  1    1    2    0    0 -9.3484245986e+00 -1.7278665451e+01 +5.6137711391e+01 5.9476038255e+01 1.0566000000e-01 0.0000e+00 -1.0000e+00
      994  1    1    2    0    0 -8.3237413298e+00 +5.5910366601e+01 +2.1726777601e+01 1.4432015323e+02 1.3100000000e+02 0.0000e+00 0.0000e+00
      997  1    1    2    0    0 +1.7672165928e+01 -3.8631701149e+01 +4.2213549984e+02 4.2720380852e+02 5.0000000000e+01 0.0000e+00 0.0000e+00
</event>
<event>
 5      1 +5.6267200e-07 2.01466300e+02 7.95774700e-02 5.01247900e-01
       13 -1    0    0    0    0 +0.0000000000e+00 +0.0000000000e+00 +4.9999998884e+02 5.0000000000e+02 1.0566000000e-01 0.0000e+00 -1.0000e+00
      994 -1    0    0    0    0 -0.0000000000e+00 -0.0000000000e+00 +0.0000000000e+00 1.3100000000e+02 1.3100000000e+02 0.0000e+00 0.0000e+00
       13  1    1    2    0    0 -4.9289427986e+00 +8.5072424894e+01 +2.6260003382e+02 2.7608042466e+02 1.0566000000e-01 0.0000e+00 1.0000e+00
      994  1    1    2    0    0 -8.0862955268e+00 -9.2918896649e+01 +6.2753019208e+01 1.7262169895e+02 1.3100000000e+02 0.0000e+00 0.0000e+00
      997  1    1    2    0    0 +1.3015238325e+01 +7.8464717551e+00 +1.7464693580e+02 1.8229787638e+02 5.0000000000e+01 0.0000e+00 0.0000e+00
</event>
<event>
 5      1 +5.6267200e-07 2.04039500e+02 7.95774700e-02 4.96621100e-01
       13 -1    0    0    0    0 +0.0000000000e+00 +0.0000000000e+00 +4.9999998884e+02 5.0000000000e+02 1.0566000000e-01 0.0000e+00 -1.0000e+00
      994 -1    0    0    0    0 -0.0000000000e+00 -0.0000000000e+00 +0.0000000000e+00 1.3100000000e+02 1.3100000000e+02 0.0000e+00 0.0000e+00
       13  1    1    2    0    0 +1.0902404944e+01 +1.2664682061e+01 +2.1629162355e+01 2.7332918496e+01 1.0566000000e-01 0.0000e+00 1.0000e+00
      994  1    1    2    0    0 -5.3027961468e+01 +3.3266393820e+01 +3.0029036694e+01 1.4826112336e+02 1.3100000000e+02 0.0000e+00 0.0000e+00
      997  1    1    2    0    0 +4.2125556524e+01 -4.5931075881e+01 +4.4834178979e+02 4.5540595814e+02 5.0000000000e+01 0.0000e+00 0.0000e+00
</event>
<event>
 5      1 +5.6267200e-07 2.06942100e+02 7.95774700e-02 4.91578900e-01
       13 -1    0    0    0    0 +0.0000000000e+00 +0.0000000000e+00 +4.9999998884e+02 5.0000000000e+02 1.0566000000e-01 0.0000e+00 -1.0000e+00
      994 -1    0    0    0    0 -0.0000000000e+00 -0.0000000000e+00 +0.0000000000e+00 1.3100000000e+02 1.3100000000e+02 0.0000e+00 0.0000e+00
       13  1    1    2    0    0 -1.6854763275e+01 +9.5947766144e+00 +6.7828544633e+01 7.0546902231e+01 1.0566000000e-01 0.0000e+00 1.0000e+00
      994  1    1    2    0    0 +3.5199842802e+00 +4.5545566605e+00 +6.3653501459e+00 1.3128081337e+02 1.3100000000e+02 0.0000e+00 0.0000e+00
      997  1    1    2    0    0 +1.3334778995e+01 -1.4149333275e+01 +4.2580609406e+02 4.2917228440e+02 5.0000000000e+01 0.0000e+00 0.0000e+00
</event>
<event>
 5      1 +5.6267200e-07 2.06203000e+02 7.95774700e-02 4.92845600e-01
       13 -1    0    0    0    0 +0.0000000000e+00 +0.0000000000e+00 +4.9999998884e+02 5.0000000000e+02 1.0566000000e-01 0.0000e+00 -1.0000e+00
      994 -1    0    0    0    0 -0.0000000000e+00 -0.0000000000e+00 +0.0000000000e+00 1.3100000000e+02 1.3100000000e+02 0.0000e+00 0.0000e+00
       13  1    1    2    0    0 -4.5424703061e+00 -2.5950622305e+01 +9.0849749054e+01 9.4592583757e+01 1.0566000000e-01 0.0000e+00 1.0000e+00
      994  1    1    2    0    0 +3.3918727715e+01 +1.5150817205e+01 +1.4005309785e+01 1.3688380494e+02 1.3100000000e+02 0.0000e+00 0.0000e+00
      997  1    1    2    0    0 -2.9376257409e+01 +1.0799805100e+01 +3.9514493000e+02 3.9952361131e+02 5.0000000000e+01 0.0000e+00 0.0000e+00
</event>
<event>
 5      1 +5.6267200e-07 1.48189800e+02 7.95774700e-02 6.51616400e-01
       13 -1    0    0    0    0 +0.0000000000e+00 +0.0000000000e+00 +4.9999998884e+02 5.0000000000e+02 1.0566000000e-01 0.0000e+00 -1.0000e+00
      994 -1    0    0    0    0 -0.0000000000e+00 -0.0000000000e+00 +0.0000000000e+00 1.3100000000e+02 1.3100000000e+02 0.0000e+00 0.0000e+00
       13  1    1    2    0    0 +3.9902103832e+01 -2.1039700486e+01 -1.8029408419e+01 4.8578983303e+01 1.0566000000e-01 0.0000e+00 1.0000e+00
      994  1    1    2    0    0 -4.3606688373e+01 +4.2637330596e+01 +1.4250265343e+02 2.0294701640e+02 1.3100000000e+02 0.0000e+00 0.0000e+00
      997  1    1    2    0    0 +3.7045845408e+00 -2.1597630110e+01 +3.7552674383e+02 3.7947400030e+02 5.0000000000e+01 0.0000e+00 0.0000e+00
</event>
<event>
 5      1 +5.6267200e-07 2.07555200e+02 7.95774700e-02 4.90537100e-01
       13 -1    0    0    0    0 +0.0000000000e+00 +0.0000000000e+00 +4.9999998884e+02 5.0000000000e+02 1.0566000000e-01 0.0000e+00 -1.0000e+00
      994 -1    0    0    0    0 -0.0000000000e+00 -0.0000000000e+00 +0.0000000000e+00 1.3100000000e+02 1.3100000000e+02 0.0000e+00 0.0000e+00
       13  1    1    2    0    0 -7.7253711285e+00 -7.8810181019e+00 +1.7685467280e+01 2.0846551809e+01 1.0566000000e-01 0.0000e+00 1.0000e+00
      994  1    1    2    0    0 +6.2445502845e-01 +1.9882340955e+01 +7.7175641322e+00 1.3272625295e+02 1.3100000000e+02 0.0000e+00 0.0000e+00
      997  1    1    2    0    0 +7.1009161001e+00 -1.2001322853e+01 +4.7459695742e+02 4.7742719524e+02 5.0000000000e+01 0.0000e+00 0.0000e+00
</event>
<event>
 5      1 +5.6267200e-07 2.07921100e+02 7.95774700e-02 4.89918800e-01
       13 -1    0    0    0    0 +0.0000000000e+00 +0.0000000000e+00 +4.9999998884e+02 5.0000000000e+02 1.0566000000e-01 0.0000e+00 1.0000e+00
      994 -1    0    0    0    0 -0.0000000000e+00 -0.0000000000e+00 +0.0000000000e+00 1.3100000000e+02 1.3100000000e+02 0.0000e+00 0.0000e+00
       13  1    1    2    0    0 +1.0262849180e+01 +1.7291679290e+01 +9.3547757648e+01 9.5684493890e+01 1.0566000000e-01 0.0000e+00 -1.0000e+00
      994  1    1    2    0    0 +4.4236668724e+00 -1.4459244203e+01 +6.5608006945e+00 1.3203288483e+02 1.3100000000e+02 0.0000e+00 0.0000e+00
      997  1    1    2    0    0 -1.4686516052e+01 -2.8324350865e+00 +3.9989143049e+02 4.0328262128e+02 5.0000000000e+01 0.0000e+00 0.0000e+00
</event>
<event>
 5      1 +5.6267200e-07 2.07672400e+02 7.95774700e-02 4.90338700e-01
       13 -1    0    0    0    0 +0.0000000000e+00 +0.0000000000e+00 +4.9999998884e+02 5.0000000000e+02 1.0566000000e-01 0.0000e+00 1.0000e+00
      994 -1    0    0    0    0 -0.0000000000e+00 -0.0000000000e+00 +0.0000000000e+00 1.3100000000e+02 1.3100000000e+02 0.0000e+00 0.0000e+00
       13  1    1    2    0    0 +1.4539629584e+01 -1.0385649216e+01 +4.3837770715e+01 4.7339453348e+01 1.0566000000e-01 0.0000e+00 -1.0000e+00
      994  1    1    2    0    0 -2.5678913536e+01 +1.6693037989e+01 +1.0415129073e+01 1.3493531425e+02 1.3100000000e+02 0.0000e+00 0.0000e+00
      997  1    1    2    0    0 +1.1139283952e+01 -6.3073887730e+00 +4.4574708905e+02 4.4872523240e+02 5.0000000000e+01 0.0000e+00 0.0000e+00
</event>
<event>
 5      1 +5.6267200e-07 2.04175900e+02 7.95774700e-02 4.96379900e-01
       13 -1    0    0    0    0 +0.0000000000e+00 +0.0000000000e+00 +4.9999998884e+02 5.0000000000e+02 1.0566000000e-01 0.0000e+00 -1.0000e+00
      994 -1    0    0    0    0 -0.0000000000e+00 -0.0000000000e+00 +0.0000000000e+00 1.3100000000e+02 1.3100000000e+02 0.0000e+00 0.0000e+00
       13  1    1    2    0    0 -2.2342372232e+01 -1.2217161589e+01 +4.9631824679e+01 5.5783239591e+01 1.0566000000e-01 0.0000e+00 1.0000e+00
      994  1    1    2    0    0 +2.2374505932e+01 +1.4911263666e+01 +1.2299156460e+01 1.3429532214e+02 1.3100000000e+02 0.0000e+00 0.0000e+00
      997  1    1    2    0    0 -3.2133699545e-02 -2.6941020773e+00 +4.3806900770e+02 4.4092143827e+02 5.0000000000e+01 0.0000e+00 0.0000e+00
</event>
<event>
 5      1 +5.6267200e-07 1.99776000e+02 7.95774700e-02 5.04371500e-01
       13 -1    0    0    0    0 +0.0000000000e+00 +0.0000000000e+00 +4.9999998884e+02 5.0000000000e+02 1.0566000000e-01 0.0000e+00 -1.0000e+00
      994 -1    0    0    0    0 -0.0000000000e+00 -0.0000000000e+00 +0.0000000000e+00 1.3100000000e+02 1.3100000000e+02 0.0000e+00 0.0000e+00
       13  1    1    2    0    0 -6.9012004637e+01 -4.6072371858e+01 +2.5996261487e+02 2.7288439407e+02 1.0566000000e-01 0.0000e+00 1.0000e+00
      994  1    1    2    0    0 +6.4093736016e+01 +4.7496350922e+01 +4.9663193912e+01 1.6121830906e+02 1.3100000000e+02 0.0000e+00 0.0000e+00
      997  1    1    2    0    0 +4.9182686213e+00 -1.4239790648e+00 +1.9037418006e+02 1.9689729687e+02 5.0000000000e+01 0.0000e+00 0.0000e+00
</event>
<event>
 5      1 +5.6267200e-07 1.93845100e+02 7.95774700e-02 5.15898900e-01
       13 -1    0    0    0    0 +0.0000000000e+00 +0.0000000000e+00 +4.9999998884e+02 5.0000000000e+02 1.0566000000e-01 0.0000e+00 1.0000e+00
      994 -1    0    0    0    0 -0.0000000000e+00 -0.0000000000e+00 +0.0000000000e+00 1.3100000000e+02 1.3100000000e+02 0.0000e+00 0.0000e+00
       13  1    1    2    0    0 +1.0277816778e+01 -2.7927740054e+01 +3.1696602981e+01 4.3477327273e+01 1.0566000000e-01 0.0000e+00 -1.0000e+00
      994  1    1    2    0    0 +3.0998245649e+01 -3.4847095904e+00 +2.3224673220e+01 1.3665072221e+02 1.3100000000e+02 0.0000e+00 0.0000e+00
      997  1    1    2    0    0 -4.1276062428e+01 +3.1412449644e+01 +4.4507871264e+02 4.5087195052e+02 5.0000000000e+01 0.0000e+00 0.0000e+00
</event>
<event>
 5      1 +5.6267200e-07 1.99362800e+02 7.95774700e-02 5.05145700e-01
       13 -1    0    0    0    0 +0.0000000000e+00 +0.0000000000e+00 +4.9999998884e+02 5.0000000000e+02 1.0566000000e-01 0.0000e+00 1.0000e+00
      994 -1    0    0    0    0 -0.0000000000e+00 -0.0000000000e+00 +0.0000000000e+00 1.3100000000e+02 1.3100000000e+02 0.0000e+00 0.0000e+00
       13  1    1    2    0    0 -1.0710972629e+01 -7.2432622147e+00 +3.6102474529e+00 1.3425156717e+01 1.0566000000e-01 0.0000e+00 -1.0000e+00
      994  1    1    2    0    0 +2.5116256665e+01 -3.0087692717e+00 +1.6125053998e+01 1.3439083454e+02 1.3100000000e+02 0.0000e+00 0.0000e+00
      997  1    1    2    0    0 -1.4405284036e+01 +1.0252031486e+01 +4.8026468739e+02 4.8318400875e+02 5.0000000000e+01 0.0000e+00 0.0000e+00
</event>
<event>
 5      1 +5.6267200e-07 2.00600100e+02 7.95774700e-02 5.02840100e-01
       13 -1    0    0    0    0 +0.0000000000e+00 +0.0000000000e+00 +4.9999998884e+02 5.0000000000e+02 1.0566000000e-01 0.0000e+00 -1.0000e+00
      994 -1    0    0    0    0 -0.0000000000e+00 -0.0000000000e+00 +0.0000000000e+00 1.3100000000e+02 1.3100000000e+02 0.0000e+00 0.0000e+00
       13  1    1    2    0    0 +2.9121311787e+01 +4.5571384126e+01 +1.8049335518e+02 1.8842150694e+02 1.0566000000e-01 0.0000e+00 1.0000e+00
      994  1    1    2    0    0 +5.5657350167e+00 -5.2771405601e+01 +2.7218919889e+01 1.4393633403e+02 1.3100000000e+02 0.0000e+00 0.0000e+00
      997  1    1    2    0    0 -3.4687046804e+01 +7.2000214754e+00 +2.9228771377e+02 2.9864215902e+02 5.0000000000e+01 0.0000e+00 0.0000e+00
</event>
<event>
 5      1 +5.6267200e-07 2.05898300e+02 7.95774700e-02 4.93371200e-01
       13 -1    0    0    0    0 +0.0000000000e+00 +0.0000000000e+00 +4.9999998884e+02 5.0000000000e+02 1.0566000000e-01 0.0000e+00 1.0000e+00
      994 -1    0    0    0    0 -0.0000000000e+00 -0.0000000000e+00 +0.0000000000e+00 1.3100000000e+02 1.3100000000e+02 0.0000e+00 0.0000e+00
       13  1    1    2    0    0 -1.4961278365e+01 -8.0947108540e+00 +3.8373254485e+01 4.1974778355e+01 1.0566000000e-01 0.0000e+00 -1.0000e+00
      994  1    1    2    0    0 +7.6197856031e+00 -2.3646345618e+01 +1.0258539770e+01 1.3372901118e+02 1.3100000000e+02 0.0000e+00 0.0000e+00
      997  1    1    2    0    0 +7.3414927623e+00 +3.1741056472e+01 +4.5136819458e+02 4.5529621046e+02 5.0000000000e+01 0.0000e+00 0.0000e+00
</event>
<event>
 5      1 +5.6267200e-07 2.09146600e+02 7.95774700e-02 4.87868600e-01
       13 -1    0    0    0    0 +0.0000000000e+00 +0.0000000000e+00 +4.9999998884e+02 5.0000000000e+02 1.0566000000e-01 0.0000e+00 1.0000e+00
      994 -1    0    0    0    0 -0.0000000000e+00 -0.0000000000e+00 +0.0000000000e+00 1.3100000000e+02 1.3100000000e+02 0.0000e+00 0.0000e+00
       13  1    1    2    0    0 +1.4108065529e+01 +5.9417149798e+00 +8.8918171733e+01 9.0226348249e+01 1.0566000000e-01 0.0000e+00 -1.0000e+00
      994  1    1    2    0    0 -1.0557896027e+01 +1.1302530740e+00 +4.9748497982e+00 1.3152374603e+02 1.3100000000e+02 0.0000e+00 0.0000e+00
      997  1    1    2    0    0 -3.5501695019e+00 -7.0719680539e+00 +4.0610696730e+02 4.0924990572e+02 5.0000000000e+01 0.0000e+00 0.0000e+00
</event>
<event>
 5      1 +5.6267200e-07 2.05669600e+02 7.95774700e-02 4.93767000e-01
       13 -1    0    0    0    0 +0.0000000000e+00 +0.0000000000e+00 +4.9999998884e+02 5.0000000000e+02 1.0566000000e-01 0.0000e+00 1.0000e+00
      994 -1    0    0    0    0 -0.0000000000e+00 -0.0000000000e+00 +0.0000000000e+00 1.3100000000e+02 1.3100000000e+02 0.0000e+00 0.0000e+00
       13  1    1    2    0    0 +1.1100248286e+01 +4.0302455717e+00 +1.3298684432e+01 1.7785515540e+01 1.0566000000e-01 0.0000e+00 -1.0000e+00
      994  1    1    2    0    0 -1.0915440325e+01 +7.7028357396e+00 +8.1674636678e+00 1.3193251297e+02 1.3100000000e+02 0.0000e+00 0.0000e+00
      997  1    1    2    0    0 -1.8480796093e-01 -1.1733081311e+01 +4.7853384074e+02 4.8128197149e+02 5.0000000000e+01 0.0000e+00 0.0000e+00
</event>
<event>
 5      1 +5.6267200e-07 2.08214600e+02 7.95774700e-02 4.89425100e-01
       13 -1    0    0    0    0 +0.0000000000e+00 +0.0000000000e+00 +4.9999998884e+02 5.0000000000e+02 1.0566000000e-01 0.0000e+00 1.0000e+00
      994 -1    0    0    0    0 -0.0000000000e+00 -0.0000000000e+00 +0.0000000000e+00 1.3100000000e+02 1.3100000000e+02 0.0000e+00 0.0000e+00
       13  1    1    2    0    0 -8.0284210758e+00 -1.4355865178e+01 +8.3176769443e+01 8.4787573082e+01 1.0566000000e-01 0.0000e+00 -1.0000e+00
      994  1    1    2    0    0 +2.3387562712e+01 -1.1933663191e+01 +8.6743433208e+00 1.3388664847e+02 1.3100000000e+02 0.0000e+00 0.0000e+00
      997  1    1    2    0    0 -1.5359141636e+01 +2.6289528369e+01 +4.0814887607e+02 4.1232577845e+02 5.0000000000e+01 0.0000e+00 0.0000e+00
</event>
<event>
 5      1 +5.6267200e-07 1.80246400e+02 7.95774700e-02 5.46236600e-01
       13 -1    0    0    0    0 +0.0000000000e+00 +0.0000000000e+00 +4.9999998884e+02 5.0000000000e+02 1.0566000000e-01 0.0000e+00 -1.0000e+00
      994 -1    0    0    0    0 -0.0000000000e+00 -0.0000000000e+00 +0.0000000000e+00 1.3100000000e+02 1.3100000000e+02 0.0000e+00 0.0000e+00
       13  1    1    2    0    0 +9.3435518973e+01 -8.6919453919e+00 +2.6494281696e+02 2.8107019326e+02 1.0566000000e-01 0.0000e+00 1.0000e+00
      994  1    1    2    0    0 -8.7160767411e+01 -3.4165541887e+01 +7.6776754782e+01 1.7838148363e+02 1.3100000000e+02 0.0000e+00 0.0000e+00
      997  1    1    2    0    0 -6.2747515615e+00 +4.2857487279e+01 +1.5828041710e+02 1.7154832310e+02 5.0000000000e+01 0.0000e+00 0.0000e+00
</event>
<event>
 5      1 +5.6267200e-07 1.99278400e+02 7.95774700e-02 5.05304100e-01
       13 -1    0    0    0    0 +0.0000000000e+00 +0.0000000000e+00 +4.9999998884e+02 5.0000000000e+02 1.0566000000e-01 0.0000e+00 -1.0000e+00
      994 -1    0    0    0    0 -0.0000000000e+00 -0.0000000000e+00 +0.0000000000e+00 1.3100000000e+02 1.3100000000e+02 0.0000e+00 0.0000e+00
       13  1    1    2    0    0 -1.1040263678e+01 -2.9096122799e+01 +5.3487679141e+01 6.1882265375e+01 1.0566000000e-01 0.0000e+00 1.0000e+00
      994  1    1    2    0    0 +1.3120084437e+01 -2.8252169348e-01 +1.3625648613e+01 1.3235888612e+02 1.3100000000e+02 0.0000e+00 0.0000e+00
      997  1    1    2    0    0 -2.0798207587e+00 +2.9378644493e+01 +4.3288666108e+02 4.3675884851e+02 5.0000000000e+01 0.0000e+00 0.0000e+00
</event>
<event>
 5      1 +5.6267200e-07 1.98509200e+02 7.95774700e-02 5.06757900e-01
       13 -1    0    0    0    0 +0.0000000000e+00 +0.0000000000e+00 +4.9999998884e+02 5.0000000000e+02 1.0566000000e-01 0.0000e+00 1.0000e+00
      994 -1    0    0    0    0 -0.0000000000e+00 -0.0000000000e+00 +0.0000000000e+00 1.3100000000e+02 1.3100000000e+02 0.0000e+00 0.0000e+00
       13  1    1    2    0    0 -3.3004755800e+01 +3.1146457653e+01 +1.3733148094e+02 1.4463527423e+02 1.0566000000e-01 0.0000e+00 -1.0000e+00
      994  1    1    2    0    0 +1.1475782395e+01 -7.9500516880e-01 +1.4088778435e+01 1.3225664177e+02 1.3100000000e+02 0.0000e+00 0.0000e+00
      997  1    1    2    0    0 +2.1528973404e+01 -3.0351452484e+01 +3.4857972946e+02 3.5410808400e+02 5.0000000000e+01 0.0000e+00 0.0000e+00
</event>
<event>
 5      1 +5.6267200e-07 2.07275600e+02 7.95774700e-02 4.91011100e-01
       13 -1    0    0    0    0 +0.0000000000e+00 +0.0000000000e+00 +4.9999998884e+02 5.0000000000e+02 1.0566000000e-01 0.0000e+00 1.0000e+00
      994 -1    0    0    0    0 -0.0000000000e+00 -0.0000000000e+00 +0.0000000000e+00 1.3100000000e+02 1.3100000000e+02 0.0000e+00 0.0000e+00
       13  1    1    2    0    0 +1.4043856001e+01 +4.5387817169e-01 +3.0499525437e+01 3.3580769984e+01 1.0566000000e-01 0.0000e+00 -1.0000e+00
      994  1    1    2    0    0 -6.3650190057e+00 -2.6859366279e+00 +6.1667761772e+00 1.3132690833e+02 1.3100000000e+02 0.0000e+00 0.0000e+00
      997  1    1    2    0    0 -7.6788369956e+00 +2.2320584562e+00 +4.6333368722e+02 4.6609232169e+02 5.0000000000e+01 0.0000e+00 0.0000e+00
</event>
<event>
 5      1 +5.6267200e-07 2.00100600e+02 7.95774700e-02 5.03766400e-01
       13 -1    0    0    0    0 +0.0000000000e+00 +0.0000000000e+00 +4.9999998884e+02 5.0000000000e+02 1.0566000000e-01 0.0000e+00 -1.0000e+00
      994 -1    0    0    0    0 -0.0000000000e+00 -0.0000000000e+00 +0.0000000000e+00 1.3100000000e+02 1.3100000000e+02 0.0000e+00 0.0000e+00
       13  1    1    2    0    0 -1.1166969226e+01 +9.5052221483e+00 +8.3454076149e+00 1.6873275974e+01 1.0566000000e-01 0.0000e+00 1.0000e+00
      994  1    1    2    0    0 -1.4885783296e+01 -1.2769418365e+01 +1.4059297054e+01 1.3320401054e+02 1.3100000000e+02 0.0000e+00 0.0000e+00
      997  1    1    2    0    0 +2.6052752522e+01 +3.2641962167e+00 +4.7759528417e+02 4.8092271349e+02 5.0000000000e+01 0.0000e+00 0.0000e+00
</event>
<event>
 5      1 +5.6267200e-07 2.08038200e+02 7.95774700e-02 4.89721700e-01
       13 -1    0    0    0    0 +0.0000000000e+00 +0.0000000000e+00 +4.9999998884e+02 5.0000000000e+02 1.0566000000e-01 0.0000e+00 -1.0000e+00
      994 -1    0    0    0    0 -0.0000000000e+00 -0.0000000000e+00 +0.0000000000e+00 1.3100000000e+02 1.3100000000e+02 0.0000e+00 0.0000e+00
       13  1    1    2    0    0 +4.3680475970e+00 -1.6728796350e+01 +4.6028308752e+01 4.9168575714e+01 1.0566000000e-01 0.0000e+00 1.0000e+00
      994  1    1    2    0    0 -4.3540480228e+01 +2.2294330419e+01 +1.7729700625e+01 1.4095443545e+02 1.3100000000e+02 0.0000e+00 0.0000e+00
      997  1    1    2    0    0 +3.9172432631e+01 -5.5655340697e+00 +4.3624197946e+02 4.4087698884e+02 5.0000000000e+01 0.0000e+00 0.0000e+00
</event>
<event>
 5      1 +5.6267200e-07 2.08952000e+02 7.95774700e-02 4.88192100e-01
       13 -1    0    0    0    0 +0.0000000000e+00 +0.0000000000e+00 +4.9999998884e+02 5.0000000000e+02 1.0566000000e-01 0.0000e+00 1.0000e+00
      994 -1    0    0    0    0 -0.0000000000e+00 -0.0000000000e+00 +0.0000000000e+00 1.3100000000e+02 1.3100000000e+02 0.0000e+00 0.0000e+00
       13  1    1    2    0    0 -6.0486618523e+00 +8.9447445166e+00 +2.9493381008e+01 3.1408047567e+01 1.0566000000e-01 0.0000e+00 -1.0000e+00
      994  1    1    2    0    0 +2.7973411228e+01 +4.7824788448e+00 +8.6504575352e+00 1.3431758729e+02 1.3100000000e+02 0.0000e+00 0.0000e+00
      997  1    1    2    0    0 -2.1924749376e+01 -1.3727223361e+01 +4.6185615029e+02 4.6527436514e+02 5.0000000000e+01 0.0000e+00 0.0000e+00
</event>
<event>
 5      1 +5.6267200e-07 2.04838100e+02 7.95774700e-02 4.95215500e-01
       13 -1    0    0    0    0 +0.0000000000e+00 +0.0000000000e+00 +4.9999998884e+02 5.0000000000e+02 1.0566000000e-01 0.0000e+00 1.0000e+00
      994 -1    0    0    0    0 -0.0000000000e+00 -0.0000000000e+00 +0.0000000000e+00 1.3100000000e+02 1.3100000000e+02 0.0000e+00 0.0000e+00
       13  1    1    2    0    0 +1.6701487657e+01 -1.4566090647e+01 +6.5198376334e+01 6.8861819083e+01 1.0566000000e-01 0.0000e+00 -1.0000e+00
      994  1    1    2    0    0 -1.3751990010e+01 -2.8019285554e+01 +1.3055180022e+01 1.3529831971e+02 1.3100000000e+02 0.0000e+00 0.0000e+00
      997  1    1    2    0    0 -2.9494976473e+00 +4.2585376200e+01 +4.2174643248e+02 4.2683986120e+02 5.0000000000e+01 0.0000e+00 0.0000e+00
</event>
<event>
 5      1 +5.6267200e-07 1.97439200e+02 7.95774700e-02 5.08804900e-01
       13 -1    0    0    0    0 +0.0000000000e+00 +0.0000000000e+00 +4.9999998884e+02 5.0000000000e+02 1.0566000000e-01 0.0000e+00 -1.0000e+00
      994 -1    0    0    0    0 -0.0000000000e+00 -0.0000000000e+00 +0.0000000000e+00 1.3100000000e+02 1.3100000000e+02 0.0000e+00 0.0000e+00
       13  1    1    2    0    0 +3.6575324067e+01 +1.4656393540e+01 +7.6027910385e+01 8.5631877965e+01 1.0566000000e-01 0.0000e+00 1.0000e+00
      994  1    1    2    0    0 +6.8004427376e+00 -5.4687179070e+01 +3.1792209205e+01 1.4563199560e+02 1.3100000000e+02 0.0000e+00 0.0000e+00
      997  1    1    2    0    0 -4.3375766805e+01 +4.0030785530e+01 +3.9217986925e+02 3.9973612644e+02 5.0000000000e+01 0.0000e+00 0.0000e+00
</event>
<event>
 5      1 +5.6267200e-07 2.08523700e+02 7.95774700e-02 4.88906900e-01
       13 -1    0    0    0    0 +0.0000000000e+00 +0.0000000000e+00 +4.9999998884e+02 5.0000000000e+02 1.0566000000e-01 0.0000e+00 -1.0000e+00
      994 -1    0    0    0    0 -0.0000000000e+00 -0.0000000000e+00 +0.0000000000e+00 1.3100000000e+02 1.3100000000e+02 0.0000e+00 0.0000e+00
       13  1    1    2    0    0 -2.0547943966e+00 -1.1348954469e+01 +3.1764208699e+01 3.3793447084e+01 1.0566000000e-01 0.0000e+00 1.0000e+00
      994  1    1    2    0    0 +7.0177759271e+00 +6.6620918695e-01 +5.1606737351e+00 1.3129099576e+02 1.3100000000e+02 0.0000e+00 0.0000e+00
      997  1    1    2    0    0 -4.9629815306e+00 +1.0682745282e+01 +4.6307510640e+02 4.6591555716e+02 5.0000000000e+01 0.0000e+00 0.0000e+00
</event>
<event>
 5      1 +5.6267200e-07 1.93296400e+02 7.95774700e-02 5.17012700e-01
       13 -1    0    0    0    0 +0.0000000000e+00 +0.0000000000e+00 +4.9999998884e+02 5.0000000000e+02 1.0566000000e-01 0.0000e+00 1.0000e+00
      994 -1    0    0    0    0 -0.0000000000e+00 -0.0000000000e+00 +0.0000000000e+00 1.3100000000e+02 1.3100000000e+02 0.0000e+00 0.0000e+00
       13  1    1    2    0    0 +1.4598378358e+01 -2.9931969239e+00 -4.5089185106e-01 1.4909270472e+01 1.0566000000e-01 0.0000e+00 -1.0000e+00
      994  1    1    2    0    0 +4.5718704090e+00 +1.5076920652e+01 +2.1116389582e+01 1.3362304234e+02 1.3100000000e+02 0.0000e+00 0.0000e+00
      997  1    1    2    0    0 -1.9170248767e+01 -1.2083723728e+01 +4.7933449110e+02 4.8246768719e+02 5.0000000000e+01 0.0000e+00 0.0000e+00
</event>
<event>
 5      1 +5.6267200e-07 2.06082000e+02 7.95774700e-02 4.93054100e-01
       13 -1    0    0    0    0 +0.0000000000e+00 +0.0000000000e+00 +4.9999998884e+02 5.0000000000e+02 1.0566000000e-01 0.0000e+00 -1.0000e+00
      994 -1    0    0    0    0 -0.0000000000e+00 -0.0000000000e+00 +0.0000000000e+00 1.3100000000e+02 1.3100000000e+02 0.0000e+00 0.0000e+00
       13  1    1    2    0    0 -1.1884563702e+00 -2.1671213758e+01 +6.0605569318e+01 6.4374685481e+01 1.0566000000e-01 0.0000e+00 1.0000e+00
      994  1    1    2    0    0 -2.9389652420e+00 +9.8434301536e+00 +7.4467711673e+00 1.3161301241e+02 1.3100000000e+02 0.0000e+00 0.0000e+00
      997  1    1    2    0    0 +4.1274216122e+00 +1.1827783605e+01 +4.3194764835e+02 4.3501230211e+02 5.0000000000e+01 0.0000e+00 0.0000e+00
</event>
<event>
 5      1 +5.6267200e-07 2.08431300e+02 7.95774700e-02 4.89061600e-01
       13 -1    0    0    0    0 +0.0000000000e+00 +0.0000000000e+00 +4.9999998884e+02 5.0000000000e+02 1.0566000000e-01 0.0000e+00 1.0000e+00
      994 -1    0    0    0    0 -0.0000000000e+00 -0.0000000000e+00 +0.0000000000e+00 1.3100000000e+02 1.3100000000e+02 0.0000e+00 0.0000e+00
       13  1    1    2    0    0 +1.2859863635e+01 -3.4276305106e+00 +4.2414280702e+01 4.4453426360e+01 1.0566000000e-01 0.0000e+00 -1.0000e+00
      994  1    1    2    0    0 -2.0945975337e+00 +5.4816652320e+00 +5.1583278299e+00 1.3123278683e+02 1.3100000000e+02 0.0000e+00 0.0000e+00
      997  1    1    2    0    0 -1.0765266101e+01 -2.0540347214e+00 +4.5242738030e+02 4.5531378681e+02 5.0000000000e+01 0.0000e+00 0.0000e+00
</event>
<event>
 5      1 +5.6267200e-07 2.09135800e+02 7.95774700e-02 4.87886600e-01
       13 -1    0    0    0    0 +0.0000000000e+00 +0.0000000000e+00 +4.9999998884e+02 5.0000000000e+02 1.0566000000e-01 0.0000e+00 1.0000e+00
      994 -1    0    0    0    0 -0.0000000000e+00 -0.0000000000e+00 +0.0000000000e+00 1.3100000000e+02 1.3100000000e+02 0.0000e+00 0.0000e+00
       13  1    1    2    0    0 +6.5888356593e+00 -9.2352291482e+00 +3.5064478731e+01 3.6854186268e+01 1.0566000000e-01 0.0000e+00 -1.0000e+00
      994  1    1    2    0    0 +4.7895281465e+00 +1.9406471502e+01 +6.4326009200e+00 1.3267226187e+02 1.3100000000e+02 0.0000e+00 0.0000e+00
      997  1    1    2    0    0 -1.1378363806e+01 -1.0171242353e+01 +4.5850290919e+02 4.6147355186e+02 5.0000000000e+01 0.0000e+00 0.0000e+00
</event>
<event>
 5      1 +5.6267200e-07 1.92561000e+02 7.95774700e-02 5.18518700e-01
       13 -1    0    0    0    0 +0.0000000000e+00 +0.0000000000e+00 +4.9999998884e+02 5.0000000000e+02 1.0566000000e-01 0.0000e+00 -1.0000e+00
      994 -1    0    0    0    0 -0.0000000000e+00 -0.0000000000e+00 +0.0000000000e+00 1.3100000000e+02 1.3100000000e+02 0.0000e+00 0.0000e+00
       13  1    1    2    0    0 +1.5906425236e+01 -3.2309434864e-01 -8.4525619230e-01 1.5932494338e+01 1.0566000000e-01 0.0000e+00 1.0000e+00
      994  1    1    2    0    0 -4.9096266131e+01 +6.1161996098e+00 +3.3676396284e+01 1.4402413309e+02 1.3100000000e+02 0.0000e+00 0.0000e+00
      997  1    1    2    0    0 +3.3189840895e+01 -5.7931052611e+00 +4.6716884874e+02 4.7104337257e+02 5.0000000000e+01 0.0000e+00 0.0000e+00
</event>
<event>
 5      1 +5.6267200e-07 2.04881700e+02 7.95774700e-02 4.95139300e-01
       13 -1    0    0    0    0 +0.0000000000e+00 +0.0000000000e+00 +4.9999998884e+02 5.0000000000e+02 1.0566000000e-01 0.0000e+00 -1.0000e+00
      994 -1    0    0    0    0 -0.0000000000e+00 -0.0000000000e+00 +0.0000000000e+00 1.3100000000e+02 1.3100000000e+02 0.0000e+00 0.0000e+00
       13  1    1    2    0    0 -7.3048833610e+01 -1.0728703047e+01 +2.3973178793e+02 2.5084373317e+02 1.0566000000e-01 0.0000e+00 1.0000e+00
      994  1    1    2    0    0 +9.2783591736e+01 +1.2521896975e+01 +5.8455650199e+01 1.7129990029e+02 1.3100000000e+02 0.0000e+00 0.0000e+00
      997  1    1    2    0    0 -1.9734758126e+01 -1.7931939279e+00 +2.0181255071e+02 2.0885636654e+02 5.0000000000e+01 0.0000e+00 0.0000e+00
</event>
<event>
 5      1 +5.6267200e-07 2.09093600e+02 7.95774700e-02 4.87956600e-01
       13 -1    0    0    0    0 +0.0000000000e+00 +0.0000000000e+00 +4.9999998884e+02 5.0000000000e+02 1.0566000000e-01 0.0000e+00 -1.0000e+00
      994 -1    0    0    0    0 -0.0000000000e+00 -0.0000000000e+00 +0.0000000000e+00 1.3100000000e+02 1.3100000000e+02 0.0000e+00 0.0000e+00
       13  1    1    2    0    0 +7.5911812341e+00 -1.2214221254e+01 +4.3482265241e+01 4.5798818630e+01 1.0566000000e-01 0.0000e+00 1.0000e+00
      994  1    1    2    0    0 -1.2353652950e+01 +2.9922919639e+01 +9.7739473705e+00 1.3529421240e+02 1.3100000000e+02 0.0000e+00 0.0000e+00
      997  1    1    2    0    0 +4.7624717155e+00 -1.7708698386e+01 +4.4674377622e+02 4.4990696897e+02 5.0000000000e+01 0.0000e+00 0.0000e+00
</event>
<event>
 5      1 +5.6267200e-07 2.07584400e+02 7.95774700e-02 4.90487600e-01
       13 -1    0    0    0    0 +0.0000000000e+00 +0.0000000000e+00 +4.9999998884e+02 5.0000000000e+02 1.0566000000e-01 0.0000e+00 1.0000e+00
      994 -1    0    0    0    0 -0.0000000000e+00 -0.0000000000e+00 +0.0000000000e+00 1.3100000000e+02 1.3100000000e+02 0.0000e+00 0.0000e+00
       13  1    1    2    0    0 +1.3520722117e+01 -1.1121791948e+01 +5.4835691739e+01 5.7562734779e+01 1.0566000000e-01 0.0000e+00 -1.0000e+00
      994  1    1    2    0    0 -2.0077278190e+01 -8.1075014577e+00 +8.0686690074e+00 1.3302229925e+02 1.3100000000e+02 0.0000e+00 0.0000e+00
      997  1    1    2    0    0 +6.5565560735e+00 +1.9229293405e+01 +4.3709562809e+02 4.4041496597e+02 5.0000000000e+01 0.0000e+00 0.0000e+00
</event>
<event>
 5      1 +5.6267200e-07 2.02314400e+02 7.95774700e-02 4.99706200e-01
       13 -1    0    0    0    0 +0.0000000000e+00 +0.0000000000e+00 +4.9999998884e+02 5.0000000000e+02 1.0566000000e-01 0.0000e+00 -1.0000e+00
      994 -1    0    0    0    0 -0.0000000000e+00 -0.0000000000e+00 +0.0000000000e+00 1.3100000000e+02 1.3100000000e+02 0.0000e+00 0.0000e+00
       13  1    1    2    0    0 -1.3824166398e+01 +1.2763262635e+00 +1.0581753905e+01 1.7456267215e+01 1.0566000000e-01 0.0000e+00 1.0000e+00
      994  1    1    2    0    0 +1.6527833844e-01 +1.6751988972e+00 +1.0075403211e+01 1.3139766877e+02 1.3100000000e+02 0.0000e+00 0.0000e+00
      997  1    1    2    0    0 +1.3658888060e+01 -2.9515251607e+00 +4.7934283172e+02 4.8214606402e+02 5.0000000000e+01 0.0000e+00 0.0000e+00
</event>
<event>
 5      1 +5.6267200e-07 1.99130600e+02 7.95774700e-02 5.05582400e-01
       13 -1    0    0    0    0 +0.0000000000e+00 +0.0000000000e+00 +4.9999998884e+02 5.0000000000e+02 1.0566000000e-01 0.0000e+00 -1.0000e+00
      994 -1    0    0    0    0 -0.0000000000e+00 -0.0000000000e+00 +0.0000000000e+00 1.3100000000e+02 1.3100000000e+02 0.0000e+00 0.0000e+00
       13  1    1    2    0    0 -1.7277201816e+01 -5.7323563989e+00 +1.2963530415e+01 2.2347838762e+01 1.0566000000e-01 0.0000e+00 1.0000e+00
      994  1    1    2    0    0 +1.4553378828e+01 -3.6753255725e+01 +2.1507406321e+01 1.3851415512e+02 1.3100000000e+02 0.0000e+00 0.0000e+00
      997  1    1    2    0    0 +2.7238229877e+00 +4.2485612124e+01 +4.6552905210e+02 4.7013800612e+02 5.0000000000e+01 0.0000e+00 0.0000e+00
</event>
<event>
 5      1 +5.6267200e-07 2.07901200e+02 7.95774700e-02 4.89952300e-01
       13 -1    0    0    0    0 +0.0000000000e+00 +0.0000000000e+00 +4.9999998884e+02 5.0000000000e+02 1.0566000000e-01 0.0000e+00 -1.0000e+00
      994 -1    0    0    0    0 -0.0000000000e+00 -0.0000000000e+00 +0.0000000000e+00 1.3100000000e+02 1.3100000000e+02 0.0000e+00 0.0000e+00
       13  1    1    2    0    0 -7.2183877078e+00 -1.1363635841e+01 +2.5076739303e+01 2.8462103905e+01 1.0566000000e-01 0.0000e+00 1.0000e+00
      994  1    1    2    0    0 +5.5335596603e+00 +3.6685115115e+01 +1.2496935780e+01 1.3672450899e+02 1.3100000000e+02 0.0000e+00 0.0000e+00
      997  1    1    2    0    0 +1.6848280475e+00 -2.5321479275e+01 +4.6242631375e+02 4.6581338711e+02 5.0000000000e+01 0.0000e+00 0.0000e+00
</event>
<event>
 5      1 +5.6267200e-07 1.97411900e+02 7.95774700e-02 5.08857500e-01
       13 -1    0    0    0    0 +0.0000000000e+00 +0.0000000000e+00 +4.9999998884e+02 5.0000000000e+02 1.0566000000e-01 0.0000e+00 1.0000e+00
      994 -1    0    0    0    0 -0.0000000000e+00 -0.0000000000e+00 +0.0000000000e+00 1.3100000000e+02 1.3100000000e+02 0.0000e+00 0.0000e+00
       13  1    1    2    0    0 -1.0753303863e+01 +2.2290778963e+01 +2.5521624260e+01 3.5551045549e+01 1.0566000000e-01 0.0000e+00 -1.0000e+00
      994  1    1    2    0    0 +1.8087020947e+00 +4.0739595367e+00 +1.4444701997e+01 1.3186932155e+02 1.3100000000e+02 0.0000e+00 0.0000e+00
      997  1    1    2    0    0 +8.9446017686e+00 -2.6364738499e+01 +4.6003366258e+02 4.6357963290e+02 5.0000000000e+01 0.0000e+00 0.0000e+00
</event>
<event>
 5      1 +5.6267200e-07 2.08988200e+02 7.95774700e-02 4.88131900e-01
       13 -1    0    0    0    0 +0.0000000000e+00 +0.0000000000e+00 +4.9999998884e+02 5.0000000000e+02 1.0566000000e-01 0.0000e+00 -1.0000e+00
      994 -1    0    0    0    0 -0.0000000000e+00 -0.0000000000e+00 +0.0000000000e+00 1.3100000000e+02 1.3100000000e+02 0.0000e+00 0.0000e+00
       13  1    1    2    0    0 +7.8975375441e+00 +8.3655709195e+00 +3.3887283969e+01 3.5787051497e+01 1.0566000000e-01 0.0000e+00 1.0000e+00
      994  1    1    2    0    0 -1.6362439999e+01 -1.3297816365e+00 +5.8948827878e+00 1.3215614781e+02 1.3100000000e+02 0.0000e+00 0.0000e+00
      997  1    1    2    0    0 +8.4649024551e+00 -7.0357892830e+00 +4.6021782208e+02 4.6305680069e+02 5.0000000000e+01 0.0000e+00 0.0000e+00
</event>
<event>
 5      1 +5.6267200e-07 2.07325600e+02 7.95774700e-02 4.90926200e-01
       13 -1    0    0    0    0 +0.0000000000e+00 +0.0000000000e+00 +4.9999998884e+02 5.0000000000e+02 1.0566000000e-01 0.0000e+00 -1.0000e+00
      994 -1    0    0    0    0 -0.0000000000e+00 -0.0000000000e+00 +0.0000000000e+00 1.3100000000e+02 1.3100000000e+02 0.0000e+00 0.0000e+00
       13  1    1    2    0    0 +1.3126130423e+01 -1.2256055466e+01 +5.9185791602e+01 6.1850426733e+01 1.0566000000e-01 0.0000e+00 1.0000e+00
      994  1    1    2    0    0 -8.6967667615e-01 +4.4114781506e+00 +5.9854441538e+00 1.3121373030e+02 1.3100000000e+02 0.0000e+00 0.0000e+00
      997  1    1    2    0    0 -1.2256453746e+01 +7.8445773158e+00 +4.3482875308e+02 4.3793584297e+02 5.0000000000e+01 0.0000e+00 0.0000e+00
</event>
<event>
 5      1 +5.6267200e-07 2.06811000e+02 7.95774700e-02 4.91802800e-01
       13 -1    0    0    0    0 +0.0000000000e+00 +0.0000000000e+00 +4.9999998884e+02 5.0000000000e+02 1.0566000000e-01 0.0000e+00 -1.0000e+00
      994 -1    0    0    0    0 -0.0000000000e+00 -0.0000000000e+00 +0.0000000000e+00 1.3100000000e+02 1.3100000000e+02 0.0000e+00 0.0000e+00
       13  1    1    2    0    0 +2.3373921727e+00 -1.7120582814e+01 +5.3250424216e+01 5.5983895910e+01 1.0566000000e-01 0.0000e+00 1.0000e+00
      994  1    1    2    0    0 -5.0305464828e+00 -7.0334995352e+00 +6.6864432395e+00 1.3145525869e+02 1.3100000000e+02 0.0000e+00 0.0000e+00
      997  1    1    2    0    0 +2.6931543100e+00 +2.4154082349e+01 +4.4006312138e+02 4.4356084540e+02 5.0000000000e+01 0.0000e+00 0.0000e+00
</event>
<event>
 5      1 +5.6267200e-07 2.05064200e+02 7.95774700e-02 4.94820200e-01
       13 -1    0    0    0    0 +0.0000000000e+00 +0.0000000000e+00 +4.9999998884e+02 5.0000000000e+02 1.0566000000e-01 0.0000e+00 1.0000e+00
      994 -1    0    0    0    0 -0.0000000000e+00 -0.0000000000e+00 +0.0000000000e+00 1.3100000000e+02 1.3100000000e+02 0.0000e+00 0.0000e+00
       13  1    1    2    0    0 -1.8642632776e+01 +9.7997684157e+00 +5.0161723772e+01 5.4403978840e+01 1.0566000000e-01 0.0000e+00 -1.0000e+00
      994  1    1    2    0    0 -8.8867409505e-01 -3.6675111612e+00 +7.8193907278e+00 1.3128740705e+02 1.3100000000e+02 0.0000e+00 0.0000e+00
      997  1    1    2    0    0 +1.9531306871e+01 -6.1322572545e+00 +4.4201887434e+02 4.4530861411e+02 5.0000000000e+01 0.0000e+00 0.0000e+00
</event>
<event>
 5      1 +5.6267200e-07 2.06188700e+02 7.95774700e-02 4.92870200e-01
       13 -1    0    0    0    0 +0.0000000000e+00 +0.0000000000e+00 +4.9999998884e+02 5.0000000000e+02 1.0566000000e-01 0.0000e+00 1.0000e+00
      994 -1    0    0    0    0 -0.0000000000e+00 -0.0000000000e+00 +0.0000000000e+00 1.3100000000e+02 1.3100000000e+02 0.0000e+00 0.0000e+00
       13  1    1    2    0    0 -1.3231784769e+01 -1.7455372661e+01 +5.7930491350e+01 6.1933215281e+01 1.0566000000e-01 0.0000e+00 -1.0000e+00
      994  1    1    2    0    0 +3.6138593062e+00 +1.7561726352e+01 +8.4746558959e+00 1.3249261868e+02 1.3100000000e+02 0.0000e+00 0.0000e+00
      997  1    1    2    0    0 +9.6179254630e+00 -1.0635369029e-01 +4.3359484159e+02 4.3657416604e+02 5.0000000000e+01 0.0000e+00 0.0000e+00
</event>
<event>
 5      1 +5.6267200e-07 1.95331700e+02 7.95774700e-02 5.12923000e-01
       13 -1    0    0    0    0 +0.0000000000e+00 +0.0000000000e+00 +4.9999998884e+02 5.0000000000e+02 1.0566000000e-01 0.0000e+00 -1.0000e+00
      994 -1    0    0    0    0 -0.0000000000e+00 -0.0000000000e+00 +0.0000000000e+00 1.3100000000e+02 1.3100000000e+02 0.0000e+00 0.0000e+00
       13  1    1    2    0    0 -2.6022309706e+01 +2.3394254913e+01 +3.5953068196e+01 5.0170569481e+01 1.0566000000e-01 0.0000e+00 1.0000e+00
      994  1    1    2    0    0 +3.5482660609e+01 -1.9556679376e+01 +2.5684871368e+01 1.3950697305e+02 1.3100000000e+02 0.0000e+00 0.0000e+00
      997  1    1    2    0    0 -9.4603509030e+00 -3.8375755370e+00 +4.3836204927e+02 4.4132245747e+02 5.0000000000e+01 0.0000e+00 0.0000e+00
</event>
<event>
 5      1 +5.6267200e-07 2.07078200e+02 7.95774700e-02 4.91347000e-01
       13 -1    0    0    0    0 +0.0000000000e+00 +0.0000000000e+00 +4.9999998884e+02 5.0000000000e+02 1.0566000000e-01 0.0000e+00 -1.0000e+00
      994 -1    0    0    0    0 -0.0000000000e+00 -0.0000000000e+00 +0.0000000000e+00 1.3100000000e+02 1.3100000000e+02 0.0000e+00 0.0000e+00
       13  1    1    2    0    0 -1.2199794524e+00 +1.2814267156e+01 +2.3288405119e+01 2.6609298556e+01 1.0566000000e-01 0.0000e+00 1.0000e+00
      994  1    1    2    0    0 -2.1005418200e+01 -9.9110037916e+00 +8.8561256180e+00 1.3333749117e+02 1.3100000000e+02 0.0000e+00 0.0000e+00
      997  1    1    2    0    0 +2.2225397652e+01 -2.9032633643e+00 +4.6785545810e+02 4.7105321028e+02 5.0000000000e+01 0.0000e+00 0.0000e+00
</event>
<event>
 5      1 +5.6267200e-07 2.06777100e+02 7.95774700e-02 4.91860700e-01
       13 -1    0    0    0    0 +0.0000000000e+00 +0.0000000000e+00 +4.9999998884e+02 5.0000000000e+02 1.0566000000e-01 0.0000e+00 1.0000e+00
      994 -1    0    0    0    0 -0.0000000000e+00 -0.0000000000e+00 +0.0000000000e+00 1.3100000000e+02 1.3100000000e+02 0.0000e+00 0.0000e+00
       13  1    1    2    0    0 +1.4089385753e+01 -3.6059691470e+00 +2.7956329041e+01 3.1513192505e+01 1.0566000000e-01 0.0000e+00 -1.0000e+00
      994  1    1    2    0    0 -4.8112771102e+00 +1.9394206934e+01 +8.3846355265e+00 1.3278021601e+02 1.3100000000e+02 0.0000e+00 0.0000e+00
      997  1    1    2    0    0 -9.2781086426e+00 -1.5788237787e+01 +4.6365902427e+02 4.6670659149e+02 5.0000000000e+01 0.0000e+00 0.0000e+00
</event>
<event>
 5      1 +5.6267200e-07 1.97079600e+02 7.95774700e-02 5.09499300e-01
       13 -1    0    0    0    0 +0.0000000000e+00 +0.0000000000e+00 +4.9999998884e+02 5.0000000000e+02 1.0566000000e-01 0.0000e+00 -1.0000e+00
      994 -1    0    0    0    0 -0.0000000000e+00 -0.0000000000e+00 +0.0000000000e+00 1.3100000000e+02 1.3100000000e+02 0.0000e+00 0.0000e+00
       13  1    1    2    0    0 +1.1375387048e+01 -1.6013903546e+01 -2.1644733361e+00 1.9762101258e+01 1.0566000000e-01 0.0000e+00 1.0000e+00
      994  1    1    2    0    0 -8.6881117369e+01 -1.0644451961e+01 +7.6336012960e+01 1.7507089932e+02 1.3100000000e+02 0.0000e+00 0.0000e+00
      997  1    1    2    0    0 +7.5505730321e+01 +2.6658355507e+01 +4.2582844921e+02 4.3616699943e+02 5.0000000000e+01 0.0000e+00 0.0000e+00
</event>
<event>
 5      1 +5.6267200e-07 2.07341600e+02 7.95774700e-02 4.90899100e-01
       13 -1    0    0    0    0 +0.0000000000e+00 +0.0000000000e+00 +4.9999998884e+02 5.0000000000e+02 1.0566000000e-01 0.0000e+00 -1.0000e+00
      994 -1    0    0    0    0 -0.0000000000e+00 -0.0000000000e+00 +0.0000000000e+00 1.3100000000e+02 1.3100000000e+02 0.0000e+00 0.0000e+00
       13  1    1    2    0    0 -2.1797832433e+01 -2.1755498649e+00 +1.0346390066e+02 1.0575759273e+02 1.0566000000e-01 0.0000e+00 1.0000e+00
      994  1    1    2    0    0 +6.3577372136e+00 +1.9594311931e+01 +8.0424802457e+00 1.3285345073e+02 1.3100000000e+02 0.0000e+00 0.0000e+00
      997  1    1    2    0    0 +1.5440095219e+01 -1.7418762067e+01 +3.8849360793e+02 3.9238895654e+02 5.0000000000e+01 0.0000e+00 0.0000e+00
</event>
<event>
 5      1 +5.6267200e-07 2.07140900e+02 7.95774700e-02 4.91240300e-01
       13 -1    0    0    0    0 +0.0000000000e+00 +0.0000000000e+00 +4.9999998884e+02 5.0000000000e+02 1.0566000000e-01 0.0000e+00 1.0000e+00
      994 -1    0    0    0    0 -0.0000000000e+00 -0.0000000000e+00 +0.0000000000e+00 1.3100000000e+02 1.3100000000e+02 0.0000e+00 0.0000e+00
       13  1    1    2    0    0 +8.6678665559e+00 +1.6415158768e+01 +4.7109877768e+01 5.0635373953e+01 1.0566000000e-01 0.0000e+00 -1.0000e+00
      994  1    1    2    0    0 -4.4620996779e+00 -2.0602641998e+01 +8.3131041618e+00 1.3294542825e+02 1.3100000000e+02 0.0000e+00 0.0000e+00
      997  1    1    2    0    0 -4.2057668780e+00 +4.1874832297e+00 +4.4457700691e+02 4.4741919780e+02 5.0000000000e+01 0.0000e+00 0.0000e+00
</event>
<event>
 5      1 +5.6267200e-07 2.04432800e+02 7.95774700e-02 4.95927100e-01
       13 -1    0    0    0    0 +0.0000000000e+00 +0.0000000000e+00 +4.9999998884e+02 5.0000000000e+02 1.0566000000e-01 0.0000e+00 -1.0000e+00
      994 -1    0    0    0    0 -0.0000000000e+00 -0.0000000000e+00 +0.0000000000e+00 1.3100000000e+02 1.3100000000e+02 0.0000e+00 0.0000e+00
       13  1    1    2    0    0 +1.0838373888e+00 -1.4744167267e+01 -8.4555941299e+00 1.7031541563e+01 1.0566000000e-01 0.0000e+00 1.0000e+00
      994  1    1    2    0    0 +4.8760414792e+00 +2.6021236193e+01 +3.5603847520e+01 1.3830948800e+02 1.3100000000e+02 0.0000e+00 0.0000e+00
      997  1    1    2    0    0 -5.9598788680e+00 -1.1277068925e+01 +4.7285173545e+02 4.7565897043e+02 5.0000000000e+01 0.0000e+00 0.0000e+00
</event>
<event>
 5      1 +5.6267200e-07 2.04396700e+02 7.95774700e-02 4.95990600e-01
       13 -1    0    0    0    0 +0.0000000000e+00 +0.0000000000e+00 +4.9999998884e+02 5.0000000000e+02 1.0566000000e-01 0.0000e+00 -1.0000e+00
      994 -1    0    0    0    0 -0.0000000000e+00 -0.0000000000e+00 +0.0000000000e+00 1.3100000000e+02 1.3100000000e+02 0.0000e+00 0.0000e+00
       13  1    1    2    0    0 +7.9058473185e+00 -1.3207316395e+01 +1.9713078278e+01 2.5011042510e+01 1.0566000000e-01 0.0000e+00 1.0000e+00
      994  1    1    2    0    0 +1.1095524663e+01 +1.1992233636e+01 +9.7004112101e+00 1.3237077590e+02 1.3100000000e+02 0.0000e+00 0.0000e+00
      997  1    1    2    0    0 -1.9001371981e+01 +1.2150827587e+00 +4.7058649935e+02 4.7361818159e+02 5.0000000000e+01 0.0000e+00 0.0000e+00
</event>
<event>
 5      1 +5.6267200e-07 2.08753200e+02 7.95774700e-02 4.88523500e-01
       13 -1    0    0    0    0 +0.0000000000e+00 +0.0000000000e+00 +4.9999998884e+02 5.0000000000e+02 1.0566000000e-01 0.0000e+00 -1.0000e+00
      994 -1    0    0    0    0 -0.0000000000e+00 -0.0000000000e+00 +0.0000000000e+00 1.3100000000e+02 1.3100000000e+02 0.0000e+00 0.0000e+00
       13  1    1    2    0    0 -1.0971133466e+01 -1.0580519178e+01 +7.2084162598e+01 7.3678021262e+01 1.0566000000e-01 0.0000e+00 1.0000e+00
      994  1    1    2    0    0 +9.6365119808e+00 -2.4640150916e+00 +5.2236136970e+00 1.3148087265e+02 1.3100000000e+02 0.0000e+00 0.0000e+00
      997  1    1    2    0    0 +1.3346214851e+00 +1.3044534270e+01 +4.2269221254e+02 4.2584110608e+02 5.0000000000e+01 0.0000e+00 0.0000e+00
</event>
<event>
 5      1 +5.6267200e-07 2.04207200e+02 7.95774700e-02 4.96324700e-01
       13 -1    0    0    0    0 +0.0000000000e+00 +0.0000000000e+00 +4.9999998884e+02 5.0000000000e+02 1.0566000000e-01 0.0000e+00 -1.0000e+00
      994 -1    0    0    0    0 -0.0000000000e+00 -0.0000000000e+00 +0.0000000000e+00 1.3100000000e+02 1.3100000000e+02 0.0000e+00 0.0000e+00
       13  1    1    2    0    0 -1.1227093739e+01 +1.1127493936e+01 +2.0115726086e+01 2.5583634517e+01 1.0566000000e-01 0.0000e+00 1.0000e+00
      994  1    1    2    0    0 -6.4890913538e-01 -8.6443648986e+00 +8.8543288225e+00 1.3158474557e+02 1.3100000000e+02 0.0000e+00 0.0000e+00
      997  1    1    2    0    0 +1.1876002874e+01 -2.4831290376e+00 +4.7102993393e+02 4.7383161991e+02 5.0000000000e+01 0.0000e+00 0.0000e+00
</event>
<event>
 5      1 +5.6267200e-07 1.97716500e+02 7.95774700e-02 5.08271600e-01
       13 -1    0    0    0    0 +0.0000000000e+00 +0.0000000000e+00 +4.9999998884e+02 5.0000000000e+02 1.0566000000e-01 0.0000e+00 -1.0000e+00
      994 -1    0    0    0    0 -0.0000000000e+00 -0.0000000000e+00 +0.0000000000e+00 1.3100000000e+02 1.3100000000e+02 0.0000e+00 0.0000e+00
       13  1    1    2    0    0 +2.7402760117e+01 -5.5750862070e+00 +5.2477896604e+00 2.8452474560e+01 1.0566000000e-01 0.0000e+00 1.0000e+00
      994  1    1    2    0    0 -6.5622143103e+01 -4.7979108824e+01 +6.9103366067e+01 1.6895128218e+02 1.3100000000e+02 0.0000e+00 0.0000e+00
      997  1    1    2    0    0 +3.8219382987e+01 +5.3554195031e+01 +4.2564883311e+02 4.3359624326e+02 5.0000000000e+01 0.0000e+00 0.0000e+00
</event>
<event>
 5      1 +5.6267200e-07 2.05959600e+02 7.95774700e-02 4.93265200e-01
       13 -1    0    0    0    0 +0.0000000000e+00 +0.0000000000e+00 +4.9999998884e+02 5.0000000000e+02 1.0566000000e-01 0.0000e+00 1.0000e+00
      994 -1    0    0    0    0 -0.0000000000e+00 -0.0000000000e+00 +0.0000000000e+00 1.3100000000e+02 1.3100000000e+02 0.0000e+00 0.0000e+00
       13  1    1    2    0    0 -1.4185581875e+01 -7.2231388449e+00 +2.4011212848e+01 2.8808921784e+01 1.0566000000e-01 0.0000e+00 -1.0000e+00
      994  1    1    2    0    0 +3.4029098705e+01 -6.5549627891e+00 +1.3272573389e+01 1.3615472192e+02 1.3100000000e+02 0.0000e+00 0.0000e+00
      997  1    1    2    0    0 -1.9843516830e+01 +1.3778101634e+01 +4.6271620260e+02 4.6603635630e+02 5.0000000000e+01 0.0000e+00 0.0000e+00
</event>
<event>
 5      1 +5.6267200e-07 1.93659700e+02 7.95774700e-02 5.16274400e-01
       13 -1    0    0    0    0 +0.0000000000e+00 +0.0000000000e+00 +4.9999998884e+02 5.0000000000e+02 1.0566000000e-01 0.0000e+00 -1.0000e+00
      994 -1    0    0    0    0 -0.0000000000e+00 -0.0000000000e+00 +0.0000000000e+00 1.3100000000e+02 1.3100000000e+02 0.0000e+00 0.0000e+00
       13  1    1    2    0    0 +3.7427109348e+01 +2.0946367708e-01 +2.9918774375e+01 4.7916350167e+01 1.0566000000e-01 0.0000e+00 1.0000e+00
      994  1    1    2    0    0 -4.1055891958e+01 +4.9065795936e+01 +4.5500108615e+01 1.5272294680e+02 1.3100000000e+02 0.0000e+00 0.0000e+00
      997  1    1    2    0    0 +3.6287826097e+00 -4.9275259613e+01 +4.2458110585e+02 4.3036070303e+02 5.0000000000e+01 0.0000e+00 0.0000e+00
</event>
<event>
 5      1 +5.6267200e-07 2.06978700e+02 7.95774700e-02 4.91516500e-01
       13 -1    0    0    0    0 +0.0000000000e+00 +0.0000000000e+00 +4.9999998884e+02 5.0000000000e+02 1.0566000000e-01 0.0000e+00 -1.0000e+00
      994 -1    0    0    0    0 -0.0000000000e+00 -0.0000000000e+00 +0.0000000000e+00 1.3100000000e+02 1.3100000000e+02 0.0000e+00 0.0000e+00
       13  1    1    2    0    0 +5.5173567602e+00 -1.3947034398e+01 +5.0314066159e+01 5.2502165780e+01 1.0566000000e-01 0.0000e+00 1.0000e+00
      994  1    1    2    0    0 +1.9707470321e+01 -1.4954110072e+01 +9.3150680729e+00 1.3364048895e+02 1.3100000000e+02 0.0000e+00 0.0000e+00
      997  1    1    2    0    0 -2.5224827081e+01 +2.8901144470e+01 +4.4037085460e+02 4.4485734527e+02 5.0000000000e+01 0.0000e+00 0.0000e+00
</event>
<event>
 5      1 +5.6267200e-07 1.99585500e+02 7.95774700e-02 5.04727800e-01
       13 -1    0    0    0    0 +0.0000000000e+00 +0.0000000000e+00 +4.9999998884e+02 5.0000000000e+02 1.0566000000e-01 0.0000e+00 1.0000e+00
      994 -1    0    0    0    0 -0.0000000000e+00 -0.0000000000e+00 +0.0000000000e+00 1.3100000000e+02 1.3100000000e+02 0.0000e+00 0.0000e+00
       13  1    1    2    0    0 +4.5494488827e+00 +2.5986943059e+01 +8.3898654537e+01 8.7948928884e+01 1.0566000000e-01 0.0000e+00 -1.0000e+00
      994  1    1    2    0    0 +1.3493666296e+01 +4.9922527945e+01 +2.7429357655e+01 1.4348417156e+02 1.3100000000e+02 0.0000e+00 0.0000e+00
      997  1    1    2    0    0 -1.8043115178e+01 -7.5909471004e+01 +3.8867197664e+02 3.9956689956e+02 5.0000000000e+01 0.0000e+00 0.0000e+00
</event>
<event>
 5      1 +5.6267200e-07 2.09766300e+02 7.95774700e-02 4.86843500e-01
       13 -1    0    0    0    0 +0.0000000000e+00 +0.0000000000e+00 +4.9999998884e+02 5.0000000000e+02 1.0566000000e-01 0.0000e+00 1.0000e+00
      994 -1    0    0    0    0 -0.0000000000e+00 -0.0000000000e+00 +0.0000000000e+00 1.3100000000e+02 1.3100000000e+02 0.0000e+00 0.0000e+00
       13  1    1    2    0    0 +7.7855241499e+00 -9.4442873375e+00 +6.7288967772e+01 6.8393167038e+01 1.0566000000e-01 0.0000e+00 -1.0000e+00
      994  1    1    2    0    0 -1.8890553329e+01 +2.0632113848e+00 +5.7232209864e+00 1.3249477388e+02 1.3100000000e+02 0.0000e+00 0.0000e+00
      997  1    1    2    0    0 +1.1105029179e+01 +7.3810759527e+00 +4.2698780008e+02 4.3011205909e+02 5.0000000000e+01 0.0000e+00 0.0000e+00
</event>
<event>
 5      1 +5.6267200e-07 2.07213700e+02 7.95774700e-02 4.91116400e-01
       13 -1    0    0    0    0 +0.0000000000e+00 +0.0000000000e+00 +4.9999998884e+02 5.0000000000e+02 1.0566000000e-01 0.0000e+00 -1.0000e+00
      994 -1    0    0    0    0 -0.0000000000e+00 -0.0000000000e+00 +0.0000000000e+00 1.3100000000e+02 1.3100000000e+02 0.0000e+00 0.0000e+00
       13  1    1    2    0    0 -1.7188170299e+01 -3.5613546726e+00 +4.8115278247e+01 5.1217258909e+01 1.0566000000e-01 0.0000e+00 1.0000e+00
      994  1    1    2    0    0 +1.1376370473e+01 -2.7481032323e+00 +6.6739329471e+00 1.3169098396e+02 1.3100000000e+02 0.0000e+00 0.0000e+00
      997  1    1    2    0    0 +5.8117998262e+00 +6.3094579049e+00 +4.4521077764e+02 4.4809175713e+02 5.0000000000e+01 0.0000e+00 0.0000e+00
</event>
<event>
 5      1 +5.6267200e-07 2.08246900e+02 7.95774700e-02 4.89370800e-01
       13 -1    0    0    0    0 +0.0000000000e+00 +0.0000000000e+00 +4.9999998884e+02 5.0000000000e+02 1.0566000000e-01 0.0000e+00 1.0000e+00
      994 -1    0    0    0    0 -0.0000000000e+00 -0.0000000000e+00 +0.0000000000e+00 1.3100000000e+02 1.3100000000e+02 0.0000e+00 0.0000e+00
       13  1    1    2    0    0 +1.4099467898e+01 -2.7838498084e+00 +4.4439802015e+01 4.6706016549e+01 1.0566000000e-01 0.0000e+00 -1.0000e+00
      994  1    1    2    0    0 -6.6932920017e+00 +4.0241766556e+00 +5.4423905288e+00 1.3134539874e+02 1.3100000000e+02 0.0000e+00 0.0000e+00
      997  1    1    2    0    0 -7.4061758960e+00 -1.2403268473e+00 +4.5011779629e+02 4.5294858471e+02 5.0000000000e+01 0.0000e+00 0.0000e+00
</event>
<event>
 5      1 +5.6267200e-07 2.00836000e+02 7.95774700e-02 5.02404700e-01
       13 -1    0    0    0    0 +0.0000000000e+00 +0.0000000000e+00 +4.9999998884e+02 5.0000000000e+02 1.0566000000e-01 0.0000e+00 1.0000e+00
      994 -1    0    0    0    0 -0.0000000000e+00 -0.0000000000e+00 +0.0000000000e+00 1.3100000000e+02 1.3100000000e+02 0.0000e+00 0.0000e+00
       13  1    1    2    0    0 +2.0333400800e+01 -3.7221535132e+01 +7.6273523597e+01 8.7272856213e+01 1.0566000000e-01 0.0000e+00 -1.0000e+00
      994  1    1    2    0    0 -1.1846757508e+01 +5.6623982379e+01 +3.0050217544e+01 1.4632373908e+02 1.3100000000e+02 0.0000e+00 0.0000e+00
      997  1    1    2    0    0 -8.4866432917e+00 -1.9402447247e+01 +3.9367624769e+02 3.9740340471e+02 5.0000000000e+01 0.0000e+00 0.0000e+00
</event>
<event>
 5      1 +5.6267200e-07 2.09581300e+02 7.95774700e-02 4.87148800e-01
       13 -1    0    0    0    0 +0.0000000000e+00 +0.0000000000e+00 +4.9999998884e+02 5.0000000000e+02 1.0566000000e-01 0.0000e+00 1.0000e+00
      994 -1    0    0    0    0 -0.0000000000e+00 -0.0000000000e+00 +0.0000000000e+00 1.3100000000e+02 1.3100000000e+02 0.0000e+00 0.0000e+00
       13  1    1    2    0    0 +1.3063655669e+01 -3.7822305098e+00 +7.3638695234e+01 7.4884130274e+01 1.0566000000e-01 0.0000e+00 -1.0000e+00
      994  1    1    2    0    0 -1.0421520648e+01 +2.3146061310e+01 +7.3066278723e+00 1.3363657829e+02 1.3100000000e+02 0.0000e+00 0.0000e+00
      997  1    1    2    0    0 -2.6421350215e+00 -1.9363830800e+01 +4.1905466573e+02 4.2247929143e+02 5.0000000000e+01 0.0000e+00 0.0000e+00
</event>
<event>
 5      1 +5.6267200e-07 2.06301200e+02 7.95774700e-02 4.92676700e-01
       13 -1    0    0    0    0 +0.0000000000e+00 +0.0000000000e+00 +4.9999998884e+02 5.0000000000e+02 1.0566000000e-01 0.0000e+00 1.0000e+00
      994 -1    0    0    0    0 -0.0000000000e+00 -0.0000000000e+00 +0.0000000000e+00 1.3100000000e+02 1.3100000000e+02 0.0000e+00 0.0000e+00
       13  1    1    2    0    0 -1.7752091423e+01 -1.1794660061e+00 +3.7217281439e+01 4.1251243517e+01 1.0566000000e-01 0.0000e+00 -1.0000e+00
      994  1    1    2    0    0 +1.3966547985e+01 +2.1257632883e+01 +1.0070664120e+01 1.3382589321e+02 1.3100000000e+02 0.0000e+00 0.0000e+00
      997  1    1    2    0    0 +3.7855434387e+00 -2.0078166877e+01 +4.5271204328e+02 4.5592286327e+02 5.0000000000e+01 0.0000e+00 0.0000e+00
</event>
<event>
 5      1 +5.6267200e-07 2.01828000e+02 7.95774700e-02 5.00588400e-01
       13 -1    0    0    0    0 +0.0000000000e+00 +0.0000000000e+00 +4.9999998884e+02 5.0000000000e+02 1.0566000000e-01 0.0000e+00 1.0000e+00
      994 -1    0    0    0    0 -0.0000000000e+00 -0.0000000000e+00 +0.0000000000e+00 1.3100000000e+02 1.3100000000e+02 0.0000e+00 0.0000e+00
       13  1    1    2    0    0 -7.5266064130e+00 -6.3148446109e+01 +1.1150606552e+02 1.2836662285e+02 1.0566000000e-01 0.0000e+00 -1.0000e+00
      994  1    1    2    0    0 +6.4811372864e+01 +6.8566137647e-01 +5.7061218486e+01 1.5690113715e+02 1.3100000000e+02 0.0000e+00 0.0000e+00
      997  1    1    2    0    0 -5.7284766451e+01 +6.2462784733e+01 +3.3143270483e+02 3.4573224000e+02 5.0000000000e+01 0.0000e+00 0.0000e+00
</event>
<event>
 5      1 +5.6267200e-07 2.08305300e+02 7.95774700e-02 4.89272800e-01
       13 -1    0    0    0    0 +0.0000000000e+00 +0.0000000000e+00 +4.9999998884e+02 5.0000000000e+02 1.0566000000e-01 0.0000e+00 -1.0000e+00
      994 -1    0    0    0    0 -0.0000000000e+00 -0.0000000000e+00 +0.0000000000e+00 1.3100000000e+02 1.3100000000e+02 0.0000e+00 0.0000e+00
       13  1    1    2    0    0 +1.6394903138e+01 +7.4486586959e+00 +1.0478121532e+02 1.0631740033e+02 1.0566000000e-01 0.0000e+00 1.0000e+00
      994  1    1    2    0    0 -1.0584340660e+00 -6.2524547404e+00 +5.2896986756e+00 1.3126002585e+02 1.3100000000e+02 0.0000e+00 0.0000e+00
      997  1    1    2    0    0 -1.5336469072e+01 -1.1962039555e+00 +3.8992907484e+02 3.9342257383e+02 5.0000000000e+01 0.0000e+00 0.0000e+00
</event>
<event>
 5      1 +5.6267200e-07 1.96385000e+02 7.95774700e-02 5.10850300e-01
       13 -1    0    0    0    0 +0.0000000000e+00 +0.0000000000e+00 +4.9999998884e+02 5.0000000000e+02 1.0566000000e-01 0.0000e+00 1.0000e+00
      994 -1    0    0    0    0 -0.0000000000e+00 -0.0000000000e+00 +0.0000000000e+00 1.3100000000e+02 1.3100000000e+02 0.0000e+00 0.0000e+00
       13  1    1    2    0    0 -4.5967473117e+01 +3.5328330370e+01 +1.8951925825e+02 1.9818844548e+02 1.0566000000e-01 0.0000e+00 -1.0000e+00
      994  1    1    2    0    0 +8.0929203092e+00 -2.9057455866e+01 +2.0407885208e+01 1.3596805830e+02 1.3100000000e+02 0.0000e+00 0.0000e+00
      997  1    1    2    0    0 +3.7874552808e+01 -6.2708745040e+00 +2.9007284538e+02 2.9684349621e+02 5.0000000000e+01 0.0000e+00 0.0000e+00
</event>
<event>
 5      1 +5.6267200e-07 2.09758300e+02 7.95774700e-02 4.86856700e-01
       13 -1    0    0    0    0 +0.0000000000e+00 +0.0000000000e+00 +4.9999998884e+02 5.0000000000e+02 1.0566000000e-01 0.0000e+00 -1.0000e+00
      994 -1    0    0    0    0 -0.0000000000e+00 -0.0000000000e+00 +0.0000000000e+00 1.3100000000e+02 1.3100000000e+02 0.0000e+00 0.0000e+00
       13  1    1    2    0    0 -7.7407823883e+00 +7.6983393024e+00 +5.3831483674e+01 5.4927442491e+01 1.0566000000e-01 0.0000e+00 1.0000e+00
      994  1    1    2    0    0 +8.9484625240e+00 -2.5078562241e+00 +4.3493136395e+00 1.3140122090e+02 1.3100000000e+02 0.0000e+00 0.0000e+00
      997  1    1    2    0    0 -1.2076801357e+00 -5.1904830783e+00 +4.4181919152e+02 4.4467133661e+02 5.0000000000e+01 0.0000e+00 0.0000e+00
</event>
<event>
 5      1 +5.6267200e-07 2.10049400e+02 7.95774700e-02 4.86377700e-01
       13 -1    0    0    0    0 +0.0000000000e+00 +0.0000000000e+00 +4.9999998884e+02 5.0000000000e+02 1.0566000000e-01 0.0000e+00 1.0000e+00
      994 -1    0    0    0    0 -0.0000000000e+00 -0.0000000000e+00 +0.0000000000e+00 1.3100000000e+02 1.3100000000e+02 0.0000e+00 0.0000e+00
       13  1    1    2    0    0 +5.6746914689e+00 +8.7718984621e+00 +5.6873894367e+01 5.7825594251e+01 1.0566000000e-01 0.0000e+00 -1.0000e+00
      994  1    1    2    0    0 -2.6689338776e+00 -1.3477669233e+01 +4.6282617087e+00 1.3179981632e+02 1.3100000000e+02 0.0000e+00 0.0000e+00
      997  1    1    2    0    0 -3.0057575913e+00 +4.7057707708e+00 +4.3849783276e+02 4.4137458943e+02 5.0000000000e+01 0.0000e+00 0.0000e+00
</event>
<event>
 5      1 +5.6267200e-07 2.07697000e+02 7.95774700e-02 4.90297100e-01
       13 -1    0    0    0    0 +0.0000000000e+00 +0.0000000000e+00 +4.9999998884e+02 5.0000000000e+02 1.0566000000e-01 0.0000e+00 -1.0000e+00
      994 -1    0    0    0    0 -0.0000000000e+00 -0.0000000000e+00 +0.0000000000e+00 1.3100000000e+02 1.3100000000e+02 0.0000e+00 0.0000e+00
       13  1    1    2    0    0 +4.6235645733e+00 +9.6514833904e+00 +1.9538097321e+01 2.2277272992e+01 1.0566000000e-01 0.0000e+00 1.0000e+00
      994  1    1    2    0    0 +8.6559735217e+00 -5.3924887318e+00 +6.1091931281e+00 1.3153831021e+02 1.3100000000e+02 0.0000e+00 0.0000e+00
      997  1    1    2    0    0 -1.3279538095e+01 -4.2589946586e+00 +4.7435269839e+02 4.7718441680e+02 5.0000000000e+01 0.0000e+00 0.0000e+00
</event>
<event>
 5      1 +5.6267200e-07 2.05236600e+02 7.95774700e-02 4.94519400e-01
       13 -1    0    0    0    0 +0.0000000000e+00 +0.0000000000e+00 +4.9999998884e+02 5.0000000000e+02 1.0566000000e-01 0.0000e+00 1.0000e+00
      994 -1    0    0    0    0 -0.0000000000e+00 -0.0000000000e+00 +0.0000000000e+00 1.3100000000e+02 1.3100000000e+02 0.0000e+00 0.0000e+00
       13  1    1    2    0    0 -2.7994135585e+01 -1.8136158998e+00 +1.3617942434e+02 1.3903887085e+02 1.0566000000e-01 0.0000e+00 -1.0000e+00
      994  1    1    2    0    0 +1.4070247748e+00 +1.9677850914e+01 +9.6291301150e+00 1.3282664523e+02 1.3100000000e+02 0.0000e+00 0.0000e+00
      997  1    1    2    0    0 +2.6587110810e+01 -1.7864235015e+01 +3.5419143438e+02 3.5913448392e+02 5.0000000000e+01 0.0000e+00 0.0000e+00
</event>
<event>
 5      1 +5.6267200e-07 2.03017100e+02 7.95774700e-02 4.98441400e-01
       13 -1    0    0    0    0 +0.0000000000e+00 +0.0000000000e+00 +4.9999998884e+02 5.0000000000e+02 1.0566000000e-01 0.0000e+00 1.0000e+00
      994 -1    0    0    0    0 -0.0000000000e+00 -0.0000000000e+00 +0.0000000000e+00 1.3100000000e+02 1.3100000000e+02 0.0000e+00 0.0000e+00
       13  1    1    2    0    0 +1.0030209036e+01 +2.9066591012e+01 +9.0011714172e+01 9.5118829149e+01 1.0566000000e-01 0.0000e+00 -1.0000e+00
      994  1    1    2    0    0 +6.5505623902e+00 -6.1423241976e+00 +9.8899432252e+00 1.3167934155e+02 1.3100000000e+02 0.0000e+00 0.0000e+00
      997  1    1    2    0    0 -1.6580771426e+01 -2.2924266815e+01 +4.0009833144e+02 4.0420182930e+02 5.0000000000e+01 0.0000e+00 0.0000e+00
</event>
<event>
 5      1 +5.6267200e-07 2.03203500e+02 7.95774700e-02 4.98107600e-01
       13 -1    0    0    0    0 +0.0000000000e+00 +0.0000000000e+00 +4.9999998884e+02 5.0000000000e+02 1.0566000000e-01 0.0000e+00 -1.0000e+00
      994 -1    0    0    0    0 -0.0000000000e+00 -0.0000000000e+00 +0.0000000000e+00 1.3100000000e+02 1.3100000000e+02 0.0000e+00 0.0000e+00
       13  1    1    2    0    0 +4.5681313429e+00 +2.5812392164e+01 +4.5613836574e+01 5.2609701237e+01 1.0566000000e-01 0.0000e+00 1.0000e+00
      994  1    1    2    0    0 -2.1575679078e+01 -2.4575163423e+01 +1.5012546418e+01 1.3585221800e+02 1.3100000000e+02 0.0000e+00 0.0000e+00
      997  1    1    2    0    0 +1.7007547735e+01 -1.2372287408e+00 +4.3937360584e+02 4.4253808076e+02 5.0000000000e+01 0.0000e+00 0.0000e+00
</event>
<event>
 5      1 +5.6267200e-07 2.03574900e+02 7.95774700e-02 4.97445300e-01
       13 -1    0    0    0    0 +0.0000000000e+00 +0.0000000000e+00 +4.9999998884e+02 5.0000000000e+02 1.0566000000e-01 0.0000e+00 -1.0000e+00
      994 -1    0    0    0    0 -0.0000000000e+00 -0.0000000000e+00 +0.0000000000e+00 1.3100000000e+02 1.3100000000e+02 0.0000e+00 0.0000e+00
       13  1    1    2    0    0 +5.5963599260e+00 -1.8289024975e+01 +3.0691781778e+01 3.6163577142e+01 1.0566000000e-01 0.0000e+00 1.0000e+00
      994  1    1    2    0    0 +4.4860422243e+00 -1.3949740587e+00 +9.1083044396e+00 1.3140027297e+02 1.3100000000e+02 0.0000e+00 0.0000e+00
      997  1    1    2    0    0 -1.0082402150e+01 +1.9683999033e+01 +4.6019990262e+02 4.6343614989e+02 5.0000000000e+01 0.0000e+00 0.0000e+00
</event>
<event>
 5      1 +5.6267200e-07 2.07717000e+02 7.95774700e-02 4.90263400e-01
       13 -1    0    0    0    0 +0.0000000000e+00 +0.0000000000e+00 +4.9999998884e+02 5.0000000000e+02 1.0566000000e-01 0.0000e+00 1.0000e+00
      994 -1    0    0    0    0 -0.0000000000e+00 -0.0000000000e+00 +0.0000000000e+00 1.3100000000e+02 1.3100000000e+02 0.0000e+00 0.0000e+00
       13  1    1    2    0    0 +1.9780317503e+01 -8.0056457704e+00 +1.2597741811e+02 1.2777195452e+02 1.0566000000e-01 0.0000e+00 -1.0000e+00
      994  1    1    2    0    0 -6.6076132478e+00 +7.5306493915e-02 +5.7856192363e+00 1.3129409588e+02 1.3100000000e+02 0.0000e+00 0.0000e+00
      997  1    1    2    0    0 -1.3172704255e+01 +7.9303392764e+00 +3.6823695149e+02 3.7193394960e+02 5.0000000000e+01 0.0000e+00 0.0000e+00
</event>
<event>
 5      1 +5.6267200e-07 2.08701100e+02 7.95774700e-02 4.88610400e-01
       13 -1    0    0    0    0 +0.0000000000e+00 +0.0000000000e+00 +4.9999998884e+02 5.0000000000e+02 1.0566000000e-01 0.0000e+00 1.0000e+00
      994 -1    0    0    0    0 -0.0000000000e+00 -0.0000000000e+00 +0.0000000000e+00 1.3100000000e+02 1.3100000000e+02 0.0000e+00 0.0000e+00
       13  1    1    2    0    0 +8.5572511632e+00 +1.0920027802e+01 +7.2275313713e+01 7.3594875440e+01 1.0566000000e-01 0.0000e+00 -1.0000e+00
      994  1    1    2    0    0 +7.1442146913e+00 +1.4351652254e+00 +5.0342550720e+00 1.3129906027e+02 1.3100000000e+02 0.0000e+00 0.0000e+00
      997  1    1    2    0    0 -1.5701465854e+01 -1.2355193028e+01 +4.2269042005e+02 4.2610606429e+02 5.0000000000e+01 0.0000e+00 0.0000e+00
</event>
<event>
 5      1 +5.6267200e-07 2.06164800e+02 7.95774700e-02 4.92911400e-01
       13 -1    0    0    0    0 +0.0000000000e+00 +0.0000000000e+00 +4.9999998884e+02 5.0000000000e+02 1.0566000000e-01 0.0000e+00 -1.0000e+00
      994 -1    0    0    0    0 -0.0000000000e+00 -0.0000000000e+00 +0.0000000000e+00 1.3100000000e+02 1.3100000000e+02 0.0000e+00 0.0000e+00
       13  1    1    2    0    0 -1.4428024086e+01 +4.0503268846e+01 +1.7880385035e+02 1.8390081765e+02 1.0566000000e-01 0.0000e+00 1.0000e+00
      994  1    1    2    0    0 +1.0052956826e+00 -5.3684596768e+01 +2.2126397186e+01 1.4329558263e+02 1.3100000000e+02 0.0000e+00 0.0000e+00
      997  1    1    2    0    0 +1.3422728403e+01 +1.3181327922e+01 +2.9906974130e+02 3.0380359972e+02 5.0000000000e+01 0.0000e+00 0.0000e+00
</event>
<event>
 5      1 +5.6267200e-07 2.07602400e+02 7.95774700e-02 4.90457100e-01
       13 -1    0    0    0    0 +0.0000000000e+00 +0.0000000000e+00 +4.9999998884e+02 5.0000000000e+02 1.0566000000e-01 0.0000e+00 -1.0000e+00
      994 -1    0    0    0    0 -0.0000000000e+00 -0.0000000000e+00 +0.0000000000e+00 1.3100000000e+02 1.3100000000e+02 0.0000e+00 0.0000e+00
       13  1    1    2    0    0 -2.0210787600e+01 -5.9953815797e+00 +1.0624660542e+02 1.0831792494e+02 1.0566000000e-01 0.0000e+00 1.0000e+00
      994  1    1    2    0    0 +1.9196450339e+00 +3.2789047351e+01 +1.1205526604e+01 1.3551889348e+02 1.3100000000e+02 0.0000e+00 0.0000e+00
      997  1    1    2    0    0 +1.8291142566e+01 -2.6793665772e+01 +3.8254785681e+02 3.8716318158e+02 5.0000000000e+01 0.0000e+00 0.0000e+00
</event>
<event>
 5      1 +5.6267200e-07 2.09247200e+02 7.95774700e-02 4.87701700e-01
       13 -1    0    0    0    0 +0.0000000000e+00 +0.0000000000e+00 +4.9999998884e+02 5.0000000000e+02 1.0566000000e-01 0.0000e+00 1.0000e+00
      994 -1    0    0    0    0 -0.0000000000e+00 -0.0000000000e+00 +0.0000000000e+00 1.3100000000e+02 1.3100000000e+02 0.0000e+00 0.0000e+00
       13  1    1    2    0    0 +1.0961801337e+01 +4.3576147354e+00 +4.4872819492e+01 4.6397532132e+01 1.0566000000e-01 0.0000e+00 -1.0000e+00
      994  1    1    2    0    0 -5.4441626082e+00 -6.4669930977e+00 +4.6858294545e+00 1.3135607296e+02 1.3100000000e+02 0.0000e+00 0.0000e+00
      997  1    1    2    0    0 -5.5176387290e+00 +2.1093783623e+00 +4.5044133989e+02 4.5324639491e+02 5.0000000000e+01 0.0000e+00 0.0000e+00
</event>
<event>
 5      1 +5.6267200e-07 2.09658700e+02 7.95774700e-02 4.87021000e-01
       13 -1    0    0    0    0 +0.0000000000e+00 +0.0000000000e+00 +4.9999998884e+02 5.0000000000e+02 1.0566000000e-01 0.0000e+00 -1.0000e+00
      994 -1    0    0    0    0 -0.0000000000e+00 -0.0000000000e+00 +0.0000000000e+00 1.3100000000e+02 1.3100000000e+02 0.0000e+00 0.0000e+00
       13  1    1    2    0    0 +1.3779708904e+01 -8.8494084199e+00 +9.4365599575e+01 9.5776145016e+01 1.0566000000e-01 0.0000e+00 1.0000e+00
      994  1    1    2    0    0 -2.1639580460e+01 +1.5057137157e+01 +7.4994501272e+00 1.3383658160e+02 1.3100000000e+02 0.0000e+00 0.0000e+00
      997  1    1    2    0    0 +7.8598715561e+00 -6.2077287369e+00 +3.9813493913e+02 4.0138727339e+02 5.0000000000e+01 0.0000e+00 0.0000e+00
</event>
<event>
 5      1 +5.6267200e-07 1.52621300e+02 7.95774700e-02 6.32965000e-01
       13 -1    0    0    0    0 +0.0000000000e+00 +0.0000000000e+00 +4.9999998884e+02 5.0000000000e+02 1.0566000000e-01 0.0000e+00 1.0000e+00
      994 -1    0    0    0    0 -0.0000000000e+00 -0.0000000000e+00 +0.0000000000e+00 1.3100000000e+02 1.3100000000e+02 0.0000e+00 0.0000e+00
       13  1    1    2    0    0 +4.8976438318e+01 -4.6750156759e+01 +7.3871356090e+00 6.8109100742e+01 1.0566000000e-01 0.0000e+00 -1.0000e+00
      994  1    1    2    0    0 -3.8419126722e+01 +6.6481380193e+01 +1.4157982088e+02 2.0760936609e+02 1.3100000000e+02 0.0000e+00 0.0000e+00
      997  1    1    2    0    0 -1.0557311596e+01 -1.9731223435e+01 +3.5103303235e+02 3.5528153316e+02 5.0000000000e+01 0.0000e+00 0.0000e+00
</event>
<event>
 5      1 +5.6267200e-07 1.94606200e+02 7.95774700e-02 5.14367800e-01
       13 -1    0    0    0    0 +0.0000000000e+00 +0.0000000000e+00 +4.9999998884e+02 5.0000000000e+02 1.0566000000e-01 0.0000e+00 1.0000e+00
      994 -1    0    0    0    0 -0.0000000000e+00 -0.0000000000e+00 +0.0000000000e+00 1.3100000000e+02 1.3100000000e+02 0.0000e+00 0.0000e+00
       13  1    1    2    0    0 -1.1164521690e+01 -9.0437782140e+00 -3.3720213567e+00 1.4758663931e+01 1.0566000000e-01 0.0000e+00 -1.0000e+00
      994  1    1    2    0    0 +2.3330033193e+01 +3.9601998006e+01 +3.3818471619e+01 1.4288910986e+02 1.3100000000e+02 0.0000e+00 0.0000e+00
      997  1    1    2    0    0 -1.2165511503e+01 -3.0558219792e+01 +4.6955353857e+02 4.7335222621e+02 5.0000000000e+01 0.0000e+00 0.0000e+00
</event>
<event>
 5      1 +5.6267200e-07 2.16077600e+02 7.95774700e-02 4.76823300e-01
       13 -1    0    0    0    0 +0.0000000000e+00 +0.0000000000e+00 +4.9999998884e+02 5.0000000000e+02 1.0566000000e-01 0.0000e+00 1.0000e+00
      994 -1    0    0    0    0 -0.0000000000e+00 -0.0000000000e+00 +0.0000000000e+00 1.3100000000e+02 1.3100000000e+02 0.0000e+00 0.0000e+00
       13  1    1    2    0    0 +2.9517838641e+01 -8.9177690352e+00 -4.9382669291e+00 3.1228625441e+01 1.0566000000e-01 0.0000e+00 -1.0000e+00
      994  1    1    2    0    0 -3.3565949407e+01 -6.1542118380e+00 +5.3909384170e+01 1.4571125209e+02 1.3100000000e+02 0.0000e+00 0.0000e+00
      997  1    1    2    0    0 +4.0481107655e+00 +1.5071980873e+01 +4.5102887159e+02 4.5406012247e+02 5.0000000000e+01 0.0000e+00 0.0000e+00
</event>
<event>
 5      1 +5.6267200e-07 2.02054800e+02 7.95774700e-02 5.00176400e-01
       13 -1    0    0    0    0 +0.0000000000e+00 +0.0000000000e+00 +4.9999998884e+02 5.0000000000e+02 1.0566000000e-01 0.0000e+00 -1.0000e+00
      994 -1    0    0    0    0 -0.0000000000e+00 -0.0000000000e+00 +0.0000000000e+00 1.3100000000e+02 1.3100000000e+02 0.0000e+00 0.0000e+00
       13  1    1    2    0    0 +6.6960258180e+00 +1.3172507937e+01 +1.0132100309e+01 1.7917096523e+01 1.0566000000e-01 0.0000e+00 1.0000e+00
      994  1    1    2    0    0 -1.8885170725e+01 -1.6155712652e+01 +1.3594593925e+01 1.3402786915e+02 1.3100000000e+02 0.0000e+00 0.0000e+00
      997  1    1    2    0    0 +1.2189144907e+01 +2.9832047150e+00 +4.7627329460e+02 4.7905503433e+02 5.0000000000e+01 0.0000e+00 0.0000e+00
</event>
<event>
 5      1 +5.6267200e-07 2.08111300e+02 7.95774700e-02 4.89598700e-01
       13 -1    0    0    0    0 +0.0000000000e+00 +0.0000000000e+00 +4.9999998884e+02 5.0000000000e+02 1.0566000000e-01 0.0000e+00 -1.0000e+00
      994 -1    0    0    0    0 -0.0000000000e+00 -0.0000000000e+00 +0.0000000000e+00 1.3100000000e+02 1.3100000000e+02 0.0000e+00 0.0000e+00
       13  1    1    2    0    0 -2.0625865978e+01 -2.5378072437e+01 +1.6401835889e+02 1.6724684190e+02 1.0566000000e-01 0.0000e+00 1.0000e+00
      994  1    1    2    0    0 +3.2828617551e+01 +3.2309685896e+01 +1.6224791503e+01 1.3980657278e+02 1.3100000000e+02 0.0000e+00 0.0000e+00
      997  1    1    2    0    0 -1.2202751573e+01 -6.9316134585e+00 +3.1975683844e+02 3.2394658532e+02 5.0000000000e+01 0.0000e+00 0.0000e+00
</event>
<event>
 5      1 +5.6267200e-07 1.93999200e+02 7.95774700e-02 5.15587800e-01
       13 -1    0    0    0    0 +0.0000000000e+00 +0.0000000000e+00 +4.9999998884e+02 5.0000000000e+02 1.0566000000e-01 0.0000e+00 1.0000e+00
      994 -1    0    0    0    0 -0.0000000000e+00 -0.0000000000e+00 +0.0000000000e+00 1.3100000000e+02 1.3100000000e+02 0.0000e+00 0.0000e+00
       13  1    1    2    0    0 +4.1225278379e+01 +2.5787379459e+01 +8.0863942444e+01 9.4358364062e+01 1.0566000000e-01 0.0000e+00 -1.0000e+00
      994  1    1    2    0    0 -4.5931350948e+01 +1.9151046415e+01 +3.2075039311e+01 1.4375764232e+02 1.3100000000e+02 0.0000e+00 0.0000e+00
      997  1    1    2    0    0 +4.7060725693e+00 -4.4938425874e+01 +3.8706100708e+02 3.9288399362e+02 5.0000000000e+01 0.0000e+00 0.0000e+00
</event>
<event>
 5      1 +5.6267200e-07 2.03860800e+02 7.95774700e-02 4.96937500e-01
       13 -1    0    0    0    0 +0.0000000000e+00 +0.0000000000e+00 +4.9999998884e+02 5.0000000000e+02 1.0566000000e-01 0.0000e+00 1.0000e+00
      994 -1    0    0    0    0 -0.0000000000e+00 -0.0000000000e+00 +0.0000000000e+00 1.3100000000e+02 1.3100000000e+02 0.0000e+00 0.0000e+00
       13  1    1    2    0    0 -1.2789843834e+01 -1.9196800677e+01 +4.8071722147e+01 5.3319779592e+01 1.0566000000e-01 0.0000e+00 -1.0000e+00
      994  1    1    2    0    0 +3.9551221706e+00 +1.9608546021e+00 +8.8538253640e+00 1.3137304962e+02 1.3100000000e+02 0.0000e+00 0.0000e+00
      997  1    1    2    0    0 +8.8347216632e+00 +1.7235946075e+01 +4.4307444133e+02 4.4630717079e+02 5.0000000000e+01 0.0000e+00 0.0000e+00
</event>
<event>
 5      1 +5.6267200e-07 1.99632600e+02 7.95774700e-02 5.04639700e-01
       13 -1    0    0    0    0 +0.0000000000e+00 +0.0000000000e+00 +4.9999998884e+02 5.0000000000e+02 1.0566000000e-01 0.0000e+00 1.0000e+00
      994 -1    0    0    0    0 -0.0000000000e+00 -0.0000000000e+00 +0.0000000000e+00 1.3100000000e+02 1.3100000000e+02 0.0000e+00 0.0000e+00
       13  1    1    2    0    0 +1.5904304990e+01 -3.5549432552e+01 +6.6681825802e+01 7.7221668775e+01 1.0566000000e-01 0.0000e+00 -1.0000e+00
      994  1    1    2    0    0 -4.0353479652e+01 +2.5575159236e+01 +2.5122519716e+01 1.4168497834e+02 1.3100000000e+02 0.0000e+00 0.0000e+00
      997  1    1    2    0    0 +2.4449174661e+01 +9.9742733163e+00 +4.0819564332e+02 4.1209335289e+02 5.0000000000e+01 0.0000e+00 0.0000e+00
</event>
<event>
 5      1 +5.6267200e-07 2.05405300e+02 7.95774700e-02 4.94225800e-01
       13 -1    0    0    0    0 +0.0000000000e+00 +0.0000000000e+00 +4.9999998884e+02 5.0000000000e+02 1.0566000000e-01 0.0000e+00 -1.0000e+00
      994 -1    0    0    0    0 -0.0000000000e+00 -0.0000000000e+00 +0.0000000000e+00 1.3100000000e+02 1.3100000000e+02 0.0000e+00 0.0000e+00
       13  1    1    2    0    0 -2.5639759088e+01 -2.7991838540e+00 +8.9912114302e+01 9.3538399274e+01 1.0566000000e-01 0.0000e+00 1.0000e+00
      994  1    1    2    0    0 +3.7288425953e+00 +1.3259675158e+01 +8.4468397135e+00 1.3199269811e+02 1.3100000000e+02 0.0000e+00 0.0000e+00
      997  1    1    2    0    0 +2.1910916493e+01 -1.0460491304e+01 +4.0164103482e+02 4.0546890262e+02 5.0000000000e+01 0.0000e+00 0.0000e+00
</event>
<event>
 5      1 +5.6267200e-07 1.98678500e+02 7.95774700e-02 5.06436700e-01
       13 -1    0    0    0    0 +0.0000000000e+00 +0.0000000000e+00 +4.9999998884e+02 5.0000000000e+02 1.0566000000e-01 0.0000e+00 -1.0000e+00
      994 -1    0    0    0    0 -0.0000000000e+00 -0.0000000000e+00 +0.0000000000e+00 1.3100000000e+02 1.3100000000e+02 0.0000e+00 0.0000e+00
       13  1    1    2    0    0 +4.8740012412e+01 +2.3187868371e+01 +5.4001934426e+01 7.6351071605e+01 1.0566000000e-01 0.0000e+00 1.0000e+00
      994  1    1    2    0    0 -4.9093895213e+01 -5.2318706509e+00 +4.0570294476e+01 1.4575504043e+02 1.3100000000e+02 0.0000e+00 0.0000e+00
      997  1    1    2    0    0 +3.5388280121e-01 -1.7955997720e+01 +4.0542775993e+02 4.0889388796e+02 5.0000000000e+01 0.0000e+00 0.0000e+00
</event>
<event>
 5      1 +5.6267200e-07 2.08420500e+02 7.95774700e-02 4.89079700e-01
       13 -1    0    0    0    0 +0.0000000000e+00 +0.0000000000e+00 +4.9999998884e+02 5.0000000000e+02 1.0566000000e-01 0.0000e+00 -1.0000e+00
      994 -1    0    0    0    0 -0.0000000000e+00 -0.0000000000e+00 +0.0000000000e+00 1.3100000000e+02 1.3100000000e+02 0.0000e+00 0.0000e+00
       13  1    1    2    0    0 +2.5878591053e+01 +5.3485404017e+01 +8.3288279293e+01 1.0231001197e+02 1.0566000000e-01 0.0000e+00 1.0000e+00
      994  1    1    2    0    0 +4.4663906677e+01 +5.7875423844e+00 +4.9975020138e+01 1.4726460146e+02 1.3100000000e+02 0.0000e+00 0.0000e+00
      997  1    1    2    0    0 -7.0542497731e+01 -5.9272946401e+01 +3.6673668940e+02 3.8142538657e+02 5.0000000000e+01 0.0000e+00 0.0000e+00
</event>
<event>
 5      1 +5.6267200e-07 1.57412900e+02 7.95774700e-02 6.14617900e-01
       13 -1    0    0    0    0 +0.0000000000e+00 +0.0000000000e+00 +4.9999998884e+02 5.0000000000e+02 1.0566000000e-01 0.0000e+00 -1.0000e+00
      994 -1    0    0    0    0 -0.0000000000e+00 -0.0000000000e+00 +0.0000000000e+00 1.3100000000e+02 1.3100000000e+02 0.0000e+00 0.0000e+00
       13  1    1    2    0    0 +8.1300878734e+01 +3.4764128622e+01 +8.3582754251e+01 1.2167360229e+02 1.0566000000e-01 0.0000e+00 1.0000e+00
      994  1    1    2    0    0 -6.3892292463e+01 -5.4426595986e+01 +9.3516103111e+01 1.8152338948e+02 1.3100000000e+02 0.0000e+00 0.0000e+00
      997  1    1    2    0    0 -1.7408586271e+01 +1.9662467364e+01 +3.2290113147e+02 3.2780300823e+02 5.0000000000e+01 0.0000e+00 0.0000e+00
</event>
<event>
 5      1 +5.6267200e-07 2.03136500e+02 7.95774700e-02 4.98227500e-01
       13 -1    0    0    0    0 +0.0000000000e+00 +0.0000000000e+00 +4.9999998884e+02 5.0000000000e+02 1.0566000000e-01 0.0000e+00 1.0000e+00
      994 -1    0    0    0    0 -0.0000000000e+00 -0.0000000000e+00 +0.0000000000e+00 1.3100000000e+02 1.3100000000e+02 0.0000e+00 0.0000e+00
       13  1    1    2    0    0 -5.2345189288e+01 -2.0237166197e+01 +6.7250257930e+01 8.7590924719e+01 1.0566000000e-01 0.0000e+00 -1.0000e+00
      994  1    1    2    0    0 -8.3138900222e+00 +4.1364182300e+01 +4.1450923930e+01 1.4373341796e+02 1.3100000000e+02 0.0000e+00 0.0000e+00
      997  1    1    2    0    0 +6.0659079311e+01 -2.1127016103e+01 +3.9129880698e+02 3.9967565732e+02 5.0000000000e+01 0.0000e+00 0.0000e+00
</event>
<event>
 5      1 +5.6267200e-07 1.99704100e+02 7.95774700e-02 5.04505900e-01
       13 -1    0    0    0    0 +0.0000000000e+00 +0.0000000000e+00 +4.9999998884e+02 5.0000000000e+02 1.0566000000e-01 0.0000e+00 -1.0000e+00
      994 -1    0    0    0    0 -0.0000000000e+00 -0.0000000000e+00 +0.0000000000e+00 1.3100000000e+02 1.3100000000e+02 0.0000e+00 0.0000e+00
       13  1    1    2    0    0 +3.8945754017e+00 -1.4502036512e+01 +1.0542752369e+01 1.8347685742e+01 1.0566000000e-01 0.0000e+00 1.0000e+00
      994  1    1    2    0    0 +1.4953694899e+01 -3.3922469534e+01 +1.9901484841e+01 1.3759148240e+02 1.3100000000e+02 0.0000e+00 0.0000e+00
      997  1    1    2    0    0 -1.8848270300e+01 +4.8424506046e+01 +4.6955575163e+02 4.7506083186e+02 5.0000000000e+01 0.0000e+00 0.0000e+00
</event>
<event>
 5      1 +5.6267200e-07 2.04206300e+02 7.95774700e-02 4.96326400e-01
       13 -1    0    0    0    0 +0.0000000000e+00 +0.0000000000e+00 +4.9999998884e+02 5.0000000000e+02 1.0566000000e-01 0.0000e+00 1.0000e+00
      994 -1    0    0    0    0 -0.0000000000e+00 -0.0000000000e+00 +0.0000000000e+00 1.3100000000e+02 1.3100000000e+02 0.0000e+00 0.0000e+00
       13  1    1    2    0    0 +2.6111905232e+01 -4.9284992404e+01 +9.4212802440e+01 1.0948472669e+02 1.0566000000e-01 0.0000e+00 -1.0000e+00
      994  1    1    2    0    0 -2.3994174244e+01 +1.1356977625e+02 +9.2817118026e+01 1.9811570325e+02 1.3100000000e+02 0.0000e+00 0.0000e+00
      997  1    1    2    0    0 -2.1177309873e+00 -6.4284783847e+01 +3.1297006837e+02 3.2339957006e+02 5.0000000000e+01 0.0000e+00 0.0000e+00
</event>
<event>
 5      1 +5.6267200e-07 2.06821500e+02 7.95774700e-02 4.91784900e-01
       13 -1    0    0    0    0 +0.0000000000e+00 +0.0000000000e+00 +4.9999998884e+02 5.0000000000e+02 1.0566000000e-01 0.0000e+00 1.0000e+00
      994 -1    0    0    0    0 -0.0000000000e+00 -0.0000000000e+00 +0.0000000000e+00 1.3100000000e+02 1.3100000000e+02 0.0000e+00 0.0000e+00
       13  1    1    2    0    0 +1.4246470995e+01 -1.0620620068e+01 +5.2241907983e+01 5.5181406472e+01 1.0566000000e-01 0.0000e+00 -1.0000e+00
      994  1    1    2    0    0 +6.4503203140e+00 +7.9859986634e+00 +6.8348452436e+00 1.3157924577e+02 1.3100000000e+02 0.0000e+00 0.0000e+00
      997  1    1    2    0    0 -2.0696791309e+01 +2.6346214045e+00 +4.4092323561e+02 4.4423934776e+02 5.0000000000e+01 0.0000e+00 0.0000e+00
</event>
<event>
 5      1 +5.6267200e-07 2.07907400e+02 7.95774700e-02 4.89941900e-01
       13 -1    0    0    0    0 +0.0000000000e+00 +0.0000000000e+00 +4.9999998884e+02 5.0000000000e+02 1.0566000000e-01 0.0000e+00 1.0000e+00
      994 -1    0    0    0    0 -0.0000000000e+00 -0.0000000000e+00 +0.0000000000e+00 1.3100000000e+02 1.3100000000e+02 0.0000e+00 0.0000e+00
       13  1    1    2    0    0 -1.6482764035e+01 +1.3591505610e+00 +5.2133999605e+01 5.4694550727e+01 1.0566000000e-01 0.0000e+00 -1.0000e+00
      994  1    1    2    0    0 +1.0106734656e+01 -1.3586694195e+01 +6.8685248073e+00 1.3226836726e+02 1.3100000000e+02 0.0000e+00 0.0000e+00
      997  1    1    2    0    0 +6.3760293781e+00 +1.2227543634e+01 +4.4099746442e+02 4.4403708201e+02 5.0000000000e+01 0.0000e+00 0.0000e+00
</event>
<event>
 5      1 +5.6267200e-07 2.02111500e+02 7.95774700e-02 5.00073500e-01
       13 -1    0    0    0    0 +0.0000000000e+00 +0.0000000000e+00 +4.9999998884e+02 5.0000000000e+02 1.0566000000e-01 0.0000e+00 -1.0000e+00
      994 -1    0    0    0    0 -0.0000000000e+00 -0.0000000000e+00 +0.0000000000e+00 1.3100000000e+02 1.3100000000e+02 0.0000e+00 0.0000e+00
       13  1    1    2    0    0 -1.5181402660e+00 -2.0482110097e+01 +2.2891256981e+01 3.0754550787e+01 1.0566000000e-01 0.0000e+00 1.0000e+00
      994  1    1    2    0    0 -1.4302289872e+01 +2.7000890575e+01 +1.5255369004e+01 1.3537846901e+02 1.3100000000e+02 0.0000e+00 0.0000e+00
      997  1    1    2    0    0 +1.5820430138e+01 -6.5187804783e+00 +4.6185336285e+02 4.6486698021e+02 5.0000000000e+01 0.0000e+00 0.0000e+00
</event>
<event>
 5      1 +5.6267200e-07 2.08795900e+02 7.95774700e-02 4.88452200e-01
       13 -1    0    0    0    0 +0.0000000000e+00 +0.0000000000e+00 +4.9999998884e+02 5.0000000000e+02 1.0566000000e-01 0.0000e+00 -1.0000e+00
      994 -1    0    0    0    0 -0.0000000000e+00 -0.0000000000e+00 +0.0000000000e+00 1.3100000000e+02 1.3100000000e+02 0.0000e+00 0.0000e+00
       13  1    1    2    0    0 +3.1075391936e+00 -1.5979787017e+01 +6.4196345138e+01 6.6228334466e+01 1.0566000000e-01 0.0000e+00 1.0000e+00
      994  1    1    2    0    0 -1.1840363937e+01 +1.6041322904e+01 +6.7013821310e+00 1.3267790615e+02 1.3100000000e+02 0.0000e+00 0.0000e+00
      997  1    1    2    0    0 +8.7328247438e+00 -6.1535887682e-02 +4.2910226157e+02 4.3209375938e+02 5.0000000000e+01 0.0000e+00 0.0000e+00
</event>
<event>
 5      1 +5.6267200e-07 2.04329500e+02 7.95774700e-02 4.96109000e-01
       13 -1    0    0    0    0 +0.0000000000e+00 +0.0000000000e+00 +4.9999998884e+02 5.0000000000e+02 1.0566000000e-01 0.0000e+00 1.0000e+00
      994 -1    0    0    0    0 -0.0000000000e+00 -0.0000000000e+00 +0.0000000000e+00 1.3100000000e+02 1.3100000000e+02 0.0000e+00 0.0000e+00
       13  1    1    2    0    0 +5.4164469356e+01 -6.4627694940e+00 +2.1646837317e+02 2.2323558156e+02 1.0566000000e-01 0.0000e+00 -1.0000e+00
      994  1    1    2    0    0 -5.6217840059e+01 +2.8313057946e+01 +2.9977451766e+01 1.4839717789e+02 1.3100000000e+02 0.0000e+00 0.0000e+00
      997  1    1    2    0    0 +2.0533707032e+00 -2.1850288452e+01 +2.5355416390e+02 2.5936724055e+02 5.0000000000e+01 0.0000e+00 0.0000e+00
</event>
<event>
 5      1 +5.6267200e-07 1.99077200e+02 7.95774700e-02 5.05683100e-01
       13 -1    0    0    0    0 +0.0000000000e+00 +0.0000000000e+00 +4.9999998884e+02 5.0000000000e+02 1.0566000000e-01 0.0000e+00 -1.0000e+00
      994 -1    0    0    0    0 -0.0000000000e+00 -0.0000000000e+00 +0.0000000000e+00 1.3100000000e+02 1.3100000000e+02 0.0000e+00 0.0000e+00
       13  1    1    2    0    0 +8.8876496220e+00 +8.2907385450e+00 +2.2892475669e+00 1.2368446947e+01 1.0566000000e-01 0.0000e+00 1.0000e+00
      994  1    1    2    0    0 -2.4375868768e+01 -4.3896828083e+00 +1.6237936679e+01 1.3430607909e+02 1.3100000000e+02 0.0000e+00 0.0000e+00
      997  1    1    2    0    0 +1.5488219146e+01 -3.9010557367e+00 +4.8147280459e+02 4.8432547396e+02 5.0000000000e+01 0.0000e+00 0.0000e+00
</event>
<event>
 5      1 +5.6267200e-07 2.04918500e+02 7.95774700e-02 4.95074900e-01
       13 -1    0    0    0    0 +0.0000000000e+00 +0.0000000000e+00 +4.9999998884e+02 5.0000000000e+02 1.0566000000e-01 0.0000e+00 1.0000e+00
      994 -1    0    0    0    0 -0.0000000000e+00 -0.0000000000e+00 +0.0000000000e+00 1.3100000000e+02 1.3100000000e+02 0.0000e+00 0.0000e+00
       13  1    1    2    0    0 -1.3127038405e+01 +4.1411662893e+00 +1.4264279716e+01 1.9822947192e+01 1.0566000000e-01 0.0000e+00 -1.0000e+00
      994  1    1    2    0    0 +3.6931243362e+01 +3.7072715115e+01 +2.2526258301e+01 1.4285214473e+02 1.3100000000e+02 0.0000e+00 0.0000e+00
      997  1    1    2    0    0 -2.3804204958e+01 -4.1213881404e+01 +4.6320945082e+02 4.6832490807e+02 5.0000000000e+01 0.0000e+00 0.0000e+00
</event>
<event>
 5      1 +5.6267200e-07 2.00543500e+02 7.95774700e-02 5.02944700e-01
       13 -1    0    0    0    0 +0.0000000000e+00 +0.0000000000e+00 +4.9999998884e+02 5.0000000000e+02 1.0566000000e-01 0.0000e+00 1.0000e+00
      994 -1    0    0    0    0 -0.0000000000e+00 -0.0000000000e+00 +0.0000000000e+00 1.3100000000e+02 1.3100000000e+02 0.0000e+00 0.0000e+00
       13  1    1    2    0    0 -2.2767093355e+01 +3.9245797479e+01 +1.3595464255e+02 1.4332567514e+02 1.0566000000e-01 0.0000e+00 -1.0000e+00
      994  1    1    2    0    0 +2.3982241066e+01 -1.3080068318e+01 +1.5643014713e+01 1.3472913561e+02 1.3100000000e+02 0.0000e+00 0.0000e+00
      997  1    1    2    0    0 -1.2151477113e+00 -2.6165729161e+01 +3.4840233157e+02 3.5294518925e+02 5.0000000000e+01 0.0000e+00 0.0000e+00
</event>
<event>
 5      1 +5.6267200e-07 2.00213300e+02 7.95774700e-02 5.03556900e-01
       13 -1    0    0    0    0 +0.0000000000e+00 +0.0000000000e+00 +4.9999998884e+02 5.0000000000e+02 1.0566000000e-01 0.0000e+00 -1.0000e+00
      994 -1    0    0    0    0 -0.0000000000e+00 -0.0000000000e+00 +0.0000000000e+00 1.3100000000e+02 1.3100000000e+02 0.0000e+00 0.0000e+00
       13  1    1    2    0    0 +4.7166421272e+01 +5.5339118190e+00 +1.0725600000e+02 1.1729942956e+02 1.0566000000e-01 0.0000e+00 1.0000e+00
      994  1    1    2    0    0 +5.3889464474e+01 -1.1531664030e+01 +4.6533478357e+01 1.4954403453e+02 1.3100000000e+02 0.0000e+00 0.0000e+00
      997  1    1    2    0    0 -1.0105588575e+02 +5.9977522115e+00 +3.4621051048e+02 3.6415653590e+02 5.0000000000e+01 0.0000e+00 0.0000e+00
</event>
<event>
 5      1 +5.6267200e-07 2.00830000e+02 7.95774700e-02 5.02415700e-01
       13 -1    0    0    0    0 +0.0000000000e+00 +0.0000000000e+00 +4.9999998884e+02 5.0000000000e+02 1.0566000000e-01 0.0000e+00 -1.0000e+00
      994 -1    0    0    0    0 -0.0000000000e+00 -0.0000000000e+00 +0.0000000000e+00 1.3100000000e+02 1.3100000000e+02 0.0000e+00 0.0000e+00
       13  1    1    2    0    0 +2.4460621270e+00 -2.6891214036e+01 +3.5973663319e+01 4.4980398274e+01 1.0566000000e-01 0.0000e+00 1.0000e+00
      994  1    1    2    0    0 +1.0441009373e+01 +3.0057938382e+01 +1.6846642005e+01 1.3585765964e+02 1.3100000000e+02 0.0000e+00 0.0000e+00
      997  1    1    2    0    0 -1.2887071500e+01 -3.1667243458e+00 +4.4717968351e+02 4.5016194208e+02 5.0000000000e+01 0.0000e+00 0.0000e+00
</event>
<event>
 5      1 +5.6267200e-07 1.94769700e+02 7.95774700e-02 5.14041100e-01
       13 -1    0    0    0    0 +0.0000000000e+00 +0.0000000000e+00 +4.9999998884e+02 5.0000000000e+02 1.0566000000e-01 0.0000e+00 -1.0000e+00
      994 -1    0    0    0    0 -0.0000000000e+00 -0.0000000000e+00 +0.0000000000e+00 1.3100000000e+02 1.3100000000e+02 0.0000e+00 0.0000e+00
       13  1    1    2    0    0 +8.1210361173e+00 +6.2637192542e+00 -2.5392833559e+00 1.0566197543e+01 1.0566000000e-01 0.0000e+00 1.0000e+00
      994  1    1    2    0    0 -2.1200809659e+01 +3.5514804688e+01 +2.6661306885e+01 1.3993784680e+02 1.3100000000e+02 0.0000e+00 0.0000e+00
      997  1    1    2    0    0 +1.3079773541e+01 -4.1778523942e+01 +4.7587796531e+02 4.8049595566e+02 5.0000000000e+01 0.0000e+00 0.0000e+00
</event>
<event>
 5      1 +5.6267200e-07 2.08065800e+02 7.95774700e-02 4.89675300e-01
       13 -1    0    0    0    0 +0.0000000000e+00 +0.0000000000e+00 +4.9999998884e+02 5.0000000000e+02 1.0566000000e-01 0.0000e+00 -1.0000e+00
      994 -1    0    0    0    0 -0.0000000000e+00 -0.0000000000e+00 +0.0000000000e+00 1.3100000000e+02 1.3100000000e+02 0.0000e+00 0.0000e+00
       13  1    1    2    0    0 -5.1969647520e+00 -1.4643262339e+01 +4.4101143973e+01 4.6758481993e+01 1.0566000000e-01 0.0000e+00 1.0000e+00
      994  1    1    2    0    0 -9.6039148934e+00 +2.0629507003e+01 +7.9189540563e+00 1.3319730318e+02 1.3100000000e+02 0.0000e+00 0.0000e+00
      997  1    1    2    0    0 +1.4800879645e+01 -5.9862446643e+00 +4.4797989081e+02 4.5104421483e+02 5.0000000000e+01 0.0000e+00 0.0000e+00
</event>
<event>
 5      1 +5.6267200e-07 2.01779200e+02 7.95774700e-02 5.00677200e-01
       13 -1    0    0    0    0 +0.0000000000e+00 +0.0000000000e+00 +4.9999998884e+02 5.0000000000e+02 1.0566000000e-01 0.0000e+00 1.0000e+00
      994 -1    0    0    0    0 -0.0000000000e+00 -0.0000000000e+00 +0.0000000000e+00 1.3100000000e+02 1.3100000000e+02 0.0000e+00 0.0000e+00
       13  1    1    2    0    0 -1.0355143681e+01 -5.0242465216e+00 +4.0593788831e+00 1.2204989747e+01 1.0566000000e-01 0.0000e+00 -1.0000e+00
      994  1    1    2    0    0 +2.4549222281e+01 +1.7156024074e+01 +1.5354669503e+01 1.3525442452e+02 1.3100000000e+02 0.0000e+00 0.0000e+00
      997  1    1    2    0    0 -1.4194078600e+01 -1.2131777552e+01 +4.8058594045e+02 4.8354058573e+02 5.0000000000e+01 0.0000e+00 0.0000e+00
</event>
<event>
 5      1 +5.6267200e-07 2.07158200e+02 7.95774700e-02 4.91210700e-01
       13 -1    0    0    0    0 +0.0000000000e+00 +0.0000000000e+00 +4.9999998884e+02 5.0000000000e+02 1.0566000000e-01 0.0000e+00 -1.0000e+00
      994 -1    0    0    0    0 -0.0000000000e+00 -0.0000000000e+00 +0.0000000000e+00 1.3100000000e+02 1.3100000000e+02 0.0000e+00 0.0000e+00
       13  1    1    2    0    0 +5.4416749989e+01 +1.1480745786e+01 +3.8115148406e+01 6.7422295313e+01 1.0566000000e-01 0.0000e+00 1.0000e+00
      994  1    1    2    0    0 -3.5275435765e+01 -3.8769631688e+01 +5.3664314490e+01 1.5095793904e+02 1.3100000000e+02 0.0000e+00 0.0000e+00
      997  1    1    2    0    0 -1.9141314224e+01 +2.7288885901e+01 +4.0822052594e+02 4.1261976565e+02 5.0000000000e+01 0.0000e+00 0.0000e+00
</event>
<event>
 5      1 +5.6267200e-07 2.07437000e+02 7.95774700e-02 4.90737300e-01
       13 -1    0    0    0    0 +0.0000000000e+00 +0.0000000000e+00 +4.9999998884e+02 5.0000000000e+02 1.0566000000e-01 0.0000e+00 1.0000e+00
      994 -1    0    0    0    0 -0.0000000000e+00 -0.0000000000e+00 +0.0000000000e+00 1.3100000000e+02 1.3100000000e+02 0.0000e+00 0.0000e+00
       13  1    1    2    0    0 +1.1969850331e+01 +2.7935541981e+01 +1.6961922574e+02 1.7232052904e+02 1.0566000000e-01 0.0000e+00 -1.0000e+00
      994  1    1    2    0    0 +2.9371040906e+00 -3.5881081825e+01 +1.2481345955e+01 1.3642896544e+02 1.3100000000e+02 0.0000e+00 0.0000e+00
      997  1    1    2    0    0 -1.4906954422e+01 +7.9455398438e+00 +3.1789941714e+02 3.2225050552e+02 5.0000000000e+01 0.0000e+00 0.0000e+00
</event>
<event>
 5      1 +5.6267200e-07 2.04582500e+02 7.95774700e-02 4.95663900e-01
       13 -1    0    0    0    0 +0.0000000000e+00 +0.0000000000e+00 +4.9999998884e+02 5.0000000000e+02 1.0566000000e-01 0.0000e+00 -1.0000e+00
      994 -1    0    0    0    0 -0.0000000000e+00 -0.0000000000e+00 +0.0000000000e+00 1.3100000000e+02 1.3100000000e+02 0.0000e+00 0.0000e+00
       13  1    1    2    0    0 +2.1908324494e+01 -1.0234995326e+01 +4.2267780647e+01 4.8696059967e+01 1.0566000000e-01 0.0000e+00 1.0000e+00
      994  1    1    2    0    0 -4.1618133903e+01 +4.3855840460e-01 +1.7346819124e+01 1.3854303857e+02 1.3100000000e+02 0.0000e+00 0.0000e+00
      997  1    1    2    0    0 +1.9709809408e+01 +9.7964369211e+00 +4.4038538907e+02 4.4376090146e+02 5.0000000000e+01 0.0000e+00 0.0000e+00
</event>
<event>
 5      1 +5.6267200e-07 2.05265600e+02 7.95774700e-02 4.94469000e-01
       13 -1    0    0    0    0 +0.0000000000e+00 +0.0000000000e+00 +4.9999998884e+02 5.0000000000e+02 1.0566000000e-01 0.0000e+00 1.0000e+00
      994 -1    0    0    0    0 -0.0000000000e+00 -0.0000000000e+00 +0.0000000000e+00 1.3100000000e+02 1.3100000000e+02 0.0000e+00 0.0000e+00
       13  1    1    2    0    0 +1.2539777348e+01 -2.9938885430e+00 +1.4518672644e+01 1.9416807253e+01 1.0566000000e-01 0.0000e+00 -1.0000e+00
      994  1    1    2    0    0 -1.5120511046e+01 -1.2471556383e+01 +9.5783512032e+00 1.3280404506e+02 1.3100000000e+02 0.0000e+00 0.0000e+00
      997  1    1    2    0    0 +2.5807336984e+00 +1.5465444926e+01 +4.7590296499e+02 4.7877914769e+02 5.0000000000e+01 0.0000e+00 0.0000e+00
</event>
<event>
 5      1 +5.6267200e-07 1.95073900e+02 7.95774700e-02 5.13434800e-01
       13 -1    0    0    0    0 +0.0000000000e+00 +0.0000000000e+00 +4.9999998884e+02 5.0000000000e+02 1.0566000000e-01 0.0000e+00 -1.0000e+00
      994 -1    0    0    0    0 -0.0000000000e+00 -0.0000000000e+00 +0.0000000000e+00 1.3100000000e+02 1.3100000000e+02 0.0000e+00 0.0000e+00
       13  1    1    2    0    0 -5.9130809419e+00 -5.5928006070e+01 +1.6686253502e+02 1.7608527238e+02 1.0566000000e-01 0.0000e+00 1.0000e+00
      994  1    1    2    0    0 +2.0748241001e+01 +1.4832549987e+01 +2.0163000197e+01 1.3497422206e+02 1.3100000000e+02 0.0000e+00 0.0000e+00
      997  1    1    2    0    0 -1.4835160059e+01 +4.1095456083e+01 +3.1297445362e+02 3.1994050556e+02 5.0000000000e+01 0.0000e+00 0.0000e+00
</event>
<event>
 5      1 +5.6267200e-07 2.02850500e+02 7.95774700e-02 4.98740100e-01
       13 -1    0    0    0    0 +0.0000000000e+00 +0.0000000000e+00 +4.9999998884e+02 5.0000000000e+02 1.0566000000e-01 0.0000e+00 1.0000e+00
      994 -1    0    0    0    0 -0.0000000000e+00 -0.0000000000e+00 +0.0000000000e+00 1.3100000000e+02 1.3100000000e+02 0.0000e+00 0.0000e+00
       13  1    1    2    0    0 +2.1544373420e+01 +3.0950655056e+00 +3.5803462747e+01 4.1900340873e+01 1.0566000000e-01 0.0000e+00 -1.0000e+00
      994  1    1    2    0    0 -4.8327221061e+00 +1.7004573828e+01 +1.1263853516e+01 1.3266644312e+02 1.3100000000e+02 0.0000e+00 0.0000e+00
      997  1    1    2    0    0 -1.6711651314e+01 -2.0099639333e+01 +4.5293267257e+02 4.5643321601e+02 5.0000000000e+01 0.0000e+00 0.0000e+00
</event>
<event>
 5      1 +5.6267200e-07 2.01775000e+02 7.95774700e-02 5.00684700e-01
       13 -1    0    0    0    0 +0.0000000000e+00 +0.0000000000e+00 +4.9999998884e+02 5.0000000000e+02 1.0566000000e-01 0.0000e+00 1.0000e+00
      994 -1    0    0    0    0 -0.0000000000e+00 -0.0000000000e+00 +0.0000000000e+00 1.3100000000e+02 1.3100000000e+02 0.0000e+00 0.0000e+00
       13  1    1    2    0    0 -9.8040568878e+00 -2.7232030725e+01 +4.4617919069e+01 5.3183389276e+01 1.0566000000e-01 0.0000e+00 -1.0000e+00
      994  1    1    2    0    0 +4.4735384076e-01 +3.6685150776e+01 +1.7815748301e+01 1.3720204554e+02 1.3100000000e+02 0.0000e+00 0.0000e+00
      997  1    1    2    0    0 +9.3567030470e+00 -9.4531200506e+00 +4.3756632147e+02 4.4061456518e+02 5.0000000000e+01 0.0000e+00 0.0000e+00
</event>
<event>
 5      1 +5.6267200e-07 1.95415000e+02 7.95774700e-02 5.12758000e-01
       13 -1    0    0    0    0 +0.0000000000e+00 +0.0000000000e+00 +4.9999998884e+02 5.0000000000e+02 1.0566000000e-01 0.0000e+00 -1.0000e+00
      994 -1    0    0    0    0 -0.0000000000e+00 -0.0000000000e+00 +0.0000000000e+00 1.3100000000e+02 1.3100000000e+02 0.0000e+00 0.0000e+00
       13  1    1    2    0    0 -1.0121734405e+01 +1.8544905389e+01 +1.2372173517e+01 2.4483563156e+01 1.0566000000e-01 0.0000e+00 1.0000e+00
      994  1    1    2    0    0 +1.3965768250e+01 +6.0385423702e+00 +1.7446318451e+01 1.3302962341e+02 1.3100000000e+02 0.0000e+00 0.0000e+00
      997  1    1    2    0    0 -3.8440338446e+00 -2.4583447759e+01 +4.7018149687e+02 4.7348681344e+02 5.0000000000e+01 0.0000e+00 0.0000e+00
</event>
<event>
 5      1 +5.6267200e-07 2.09592300e+02 7.95774700e-02 4.87130500e-01
       13 -1    0    0    0    0 +0.0000000000e+00 +0.0000000000e+00 +4.9999998884e+02 5.0000000000e+02 1.0566000000e-01 0.0000e+00 -1.0000e+00
      994 -1    0    0    0    0 -0.0000000000e+00 -0.0000000000e+00 +0.0000000000e+00 1.3100000000e+02 1.3100000000e+02 0.0000e+00 0.0000e+00
       13  1    1    2    0    0 -1.1441531243e+01 +4.8562011203e+00 +7.2174866689e+01 7.3237380292e+01 1.0566000000e-01 0.0000e+00 1.0000e+00
      994  1    1    2    0    0 +3.5406725638e+00 -1.0732484450e+01 +4.6903811797e+00 1.3157021798e+02 1.3100000000e+02 0.0000e+00 0.0000e+00
      997  1    1    2    0    0 +7.9008586790e+00 +5.8762833292e+00 +4.2313474097e+02 4.2619240172e+02 5.0000000000e+01 0.0000e+00 0.0000e+00
</event>
<event>
 5      1 +5.6267200e-07 2.07200400e+02 7.95774700e-02 4.91139100e-01
       13 -1    0    0    0    0 +0.0000000000e+00 +0.0000000000e+00 +4.9999998884e+02 5.0000000000e+02 1.0566000000e-01 0.0000e+00 -1.0000e+00
      994 -1    0    0    0    0 -0.0000000000e+00 -0.0000000000e+00 +0.0000000000e+00 1.3100000000e+02 1.3100000000e+02 0.0000e+00 0.0000e+00
       13  1    1    2    0    0 -1.1595528182e+00 -1.3002565011e+01 +2.4347311150e+01 2.7626327730e+01 1.0566000000e-01 0.0000e+00 1.0000e+00
      994  1    1    2    0    0 -7.7604294118e+00 +1.0497223333e+01 +6.8561443119e+00 1.3182724558e+02 1.3100000000e+02 0.0000e+00 0.0000e+00
      997  1    1    2    0    0 +8.9199822300e+00 +2.5053416780e+00 +4.6879653337e+02 4.7154642669e+02 5.0000000000e+01 0.0000e+00 0.0000e+00
</event>
<event>
 5      1 +5.6267200e-07 2.07579500e+02 7.95774700e-02 4.90495800e-01
       13 -1    0    0    0    0 +0.0000000000e+00 +0.0000000000e+00 +4.9999998884e+02 5.0000000000e+02 1.0566000000e-01 0.0000e+00 1.0000e+00
      994 -1    0    0    0    0 -0.0000000000e+00 -0.0000000000e+00 +0.0000000000e+00 1.3100000000e+02 1.3100000000e+02 0.0000e+00 0.0000e+00
       13  1    1    2    0    0 +1.4756290476e+01 -8.4552115219e-01 +3.7297821789e+01 4.0119841586e+01 1.0566000000e-01 0.0000e+00 -1.0000e+00
      994  1    1    2    0    0 -7.0428369958e+00 +8.2947899218e+00 +6.2787445634e+00 1.3160101719e+02 1.3100000000e+02 0.0000e+00 0.0000e+00
      997  1    1    2    0    0 -7.7134534802e+00 -7.4492687696e+00 +4.5642342248e+02 4.5927914122e+02 5.0000000000e+01 0.0000e+00 0.0000e+00
</event>
<event>
 5      1 +5.6267200e-07 2.02003400e+02 7.95774700e-02 5.00269600e-01
       13 -1    0    0    0    0 +0.0000000000e+00 +0.0000000000e+00 +4.9999998884e+02 5.0000000000e+02 1.0566000000e-01 0.0000e+00 -1.0000e+00
      994 -1    0    0    0    0 -0.0000000000e+00 -0.0000000000e+00 +0.0000000000e+00 1.3100000000e+02 1.3100000000e+02 0.0000e+00 0.0000e+00
       13  1    1    2    0    0 -2.9495571591e+00 -3.3211571557e+01 +1.9978055515e+02 2.0254379712e+02 1.0566000000e-01 0.0000e+00 1.0000e+00
      994  1    1    2    0    0 +2.7145462115e+01 -6.3316293167e+00 +1.4501950298e+01 1.3471552325e+02 1.3100000000e+02 0.0000e+00 0.0000e+00
      997  1    1    2    0    0 -2.4195904956e+01 +3.9543200874e+01 +2.8571748339e+02 2.9374067962e+02 5.0000000000e+01 0.0000e+00 0.0000e+00
</event>
<event>
 5      1 +5.6267200e-07 2.07089300e+02 7.95774700e-02 4.91328100e-01
       13 -1    0    0    0    0 +0.0000000000e+00 +0.0000000000e+00 +4.9999998884e+02 5.0000000000e+02 1.0566000000e-01 0.0000e+00 -1.0000e+00
      994 -1    0    0    0    0 -0.0000000000e+00 -0.0000000000e+00 +0.0000000000e+00 1.3100000000e+02 1.3100000000e+02 0.0000e+00 0.0000e+00
       13  1    1    2    0    0 +8.1681378210e+00 -1.9572640122e+01 +6.3339089348e+01 6.6795644471e+01 1.0566000000e-01 0.0000e+00 1.0000e+00
      994  1    1    2    0    0 +1.3217495624e+01 +2.8985804847e+01 +1.1314004673e+01 1.3529185406e+02 1.3100000000e+02 0.0000e+00 0.0000e+00
      997  1    1    2    0    0 -2.1385633445e+01 -9.4131647257e+00 +4.2534689481e+02 4.2891250147e+02 5.0000000000e+01 0.0000e+00 0.0000e+00
</event>
<event>
 5      1 +5.6267200e-07 2.20837200e+02 7.95774700e-02 4.69737500e-01
       13 -1    0    0    0    0 +0.0000000000e+00 +0.0000000000e+00 +4.9999998884e+02 5.0000000000e+02 1.0566000000e-01 0.0000e+00 -1.0000e+00
      994 -1    0    0    0    0 -0.0000000000e+00 -0.0000000000e+00 +0.0000000000e+00 1.3100000000e+02 1.3100000000e+02 0.0000e+00 0.0000e+00
       13  1    1    2    0    0 -2.2715237388e+01 +6.8053019631e+00 -1.5519953397e+01 2.8340329249e+01 1.0566000000e-01 0.0000e+00 1.0000e+00
      994  1    1    2    0    0 +6.0130471056e+01 +6.5529921068e+00 +8.5075393803e+01 1.6750354589e+02 1.3100000000e+02 0.0000e+00 0.0000e+00
      997  1    1    2    0    0 -3.7415233668e+01 -1.3358294070e+01 +4.3044454843e+02 4.3515612486e+02 5.0000000000e+01 0.0000e+00 0.0000e+00
</event>
<event>
 5      1 +5.6267200e-07 1.96748300e+02 7.95774700e-02 5.10142300e-01
       13 -1    0    0    0    0 +0.0000000000e+00 +0.0000000000e+00 +4.9999998884e+02 5.0000000000e+02 1.0566000000e-01 0.0000e+00 1.0000e+00
      994 -1    0    0    0    0 -0.0000000000e+00 -0.0000000000e+00 +0.0000000000e+00 1.3100000000e+02 1.3100000000e+02 0.0000e+00 0.0000e+00
       13  1    1    2    0    0 -2.6479755914e+01 -5.3586744429e+00 +1.9741754308e+01 3.3461035433e+01 1.0566000000e-01 0.0000e+00 -1.0000e+00
      994  1    1    2    0    0 +2.6472754414e+01 +8.1690720165e+01 +6.0399598042e+01 1.6787880132e+02 1.3100000000e+02 0.0000e+00 0.0000e+00
      997  1    1    2    0    0 +7.0014999013e-03 -7.6332045722e+01 +4.1985863649e+02 4.2966016325e+02 5.0000000000e+01 0.0000e+00 0.0000e+00
</event>
<event>
 5      1 +5.6267200e-07 2.05498400e+02 7.95774700e-02 4.94063900e-01
       13 -1    0    0    0    0 +0.0000000000e+00 +0.0000000000e+00 +4.9999998884e+02 5.0000000000e+02 1.0566000000e-01 0.0000e+00 1.0000e+00
      994 -1    0    0    0    0 -0.0000000000e+00 -0.0000000000e+00 +0.0000000000e+00 1.3100000000e+02 1.3100000000e+02 0.0000e+00 0.0000e+00
       13  1    1    2    0    0 +3.3080028746e+01 -1.5177227295e+01 +1.7707286961e+02 1.8077458019e+02 1.0566000000e-01 0.0000e+00 -1.0000e+00
      994  1    1    2    0    0 -3.4157960821e+01 -6.9108668203e+00 +1.3750334435e+01 1.3625196536e+02 1.3100000000e+02 0.0000e+00 0.0000e+00
      997  1    1    2    0    0 +1.0779320743e+00 +2.2088094115e+01 +3.0917678480e+02 3.1397345444e+02 5.0000000000e+01 0.0000e+00 0.0000e+00
</event>
<event>
 5      1 +5.6267200e-07 1.93028600e+02 7.95774700e-02 5.17559300e-01
       13 -1    0    0    0    0 +0.0000000000e+00 +0.0000000000e+00 +4.9999998884e+02 5.0000000000e+02 1.0566000000e-01 0.0000e+00 1.0000e+00
      994 -1    0    0    0    0 -0.0000000000e+00 -0.0000000000e+00 +0.0000000000e+00 1.3100000000e+02 1.3100000000e+02 0.0000e+00 0.0000e+00
       13  1    1    2    0    0 +2.7334279941e+01 +4.9175758831e+01 +6.1307405459e+01 8.3210739960e+01 1.0566000000e-01 0.0000e+00 -1.0000e+00
      994  1    1    2    0    0 -4.0851718726e+01 -7.1974872522e+01 +6.2042698900e+01 1.6691177815e+02 1.3100000000e+02 0.0000e+00 0.0000e+00
      997  1    1    2    0    0 +1.3517438785e+01 +2.2799113691e+01 +3.7664988448e+02 3.8087748189e+02 5.0000000000e+01 0.0000e+00 0.0000e+00
</event>
<event>
 5      1 +5.6267200e-07 2.07268900e+02 7.95774700e-02 4.91022500e-01
       13 -1    0    0    0    0 +0.0000000000e+00 +0.0000000000e+00 +4.9999998884e+02 5.0000000000e+02 1.0566000000e-01 0.0000e+00 -1.0000e+00
      994 -1    0    0    0    0 -0.0000000000e+00 -0.0000000000e+00 +0.0000000000e+00 1.3100000000e+02 1.3100000000e+02 0.0000e+00 0.0000e+00
       13  1    1    2    0    0 -1.1618088108e+00 -2.0815953223e+01 +1.0095135579e+02 1.0308172053e+02 1.0566000000e-01 0.0000e+00 1.0000e+00
      994  1    1    2    0    0 +4.7551033162e+01 +9.7074592555e+00 +1.8235540323e+01 1.4088601936e+02 1.3100000000e+02 0.0000e+00 0.0000e+00
      997  1    1    2    0    0 -4.6389224352e+01 +1.1108493968e+01 +3.8081309273e+02 3.8703226011e+02 5.0000000000e+01 0.0000e+00 0.0000e+00
</event>
<event>
 5      1 +5.6267200e-07 2.01172500e+02 7.95774700e-02 5.01785900e-01
       13 -1    0    0    0    0 +0.0000000000e+00 +0.0000000000e+00 +4.9999998884e+02 5.0000000000e+02 1.0566000000e-01 0.0000e+00 1.0000e+00
      994 -1    0    0    0    0 -0.0000000000e+00 -0.0000000000e+00 +0.0000000000e+00 1.3100000000e+02 1.3100000000e+02 0.0000e+00 0.0000e+00
       13  1    1    2    0    0 -3.0712969886e+01 -1.8323001477e+01 +1.5563651228e+02 1.5969268618e+02 1.0566000000e-01 0.0000e+00 -1.0000e+00
      994  1    1    2    0    0 +9.3178281950e+00 -2.5773606162e+01 +1.5103895772e+01 1.3468566503e+02 1.3100000000e+02 0.0000e+00 0.0000e+00
      997  1    1    2    0    0 +2.1395141691e+01 +4.4096607639e+01 +3.2925958078e+02 3.3662164879e+02 5.0000000000e+01 0.0000e+00 0.0000e+00
</event>
<event>
 5      1 +5.6267200e-07 2.06675800e+02 7.95774700e-02 4.92034000e-01
       13 -1    0    0    0    0 +0.0000000000e+00 +0.0000000000e+00 +4.9999998884e+02 5.0000000000e+02 1.0566000000e-01 0.0000e+00 -1.0000e+00
      994 -1    0    0    0    0 -0.0000000000e+00 -0.0000000000e+00 +0.0000000000e+00 1.3100000000e+02 1.3100000000e+02 0.0000e+00 0.0000e+00
       13  1    1    2    0    0 +1.7959070323e+01 +3.4162502371e+00 +5.0150459120e+01 5.3378635114e+01 1.0566000000e-01 0.0000e+00 1.0000e+00
      994  1    1    2    0    0 -5.3818452305e+00 +7.0553291702e+00 +6.8180823723e+00 1.3147710133e+02 1.3100000000e+02 0.0000e+00 0.0000e+00
      997  1    1    2    0    0 -1.2577225093e+01 -1.0471579407e+01 +4.4303144734e+02 4.4614426355e+02 5.0000000000e+01 0.0000e+00 0.0000e+00
</event>
<event>
 5      1 +5.6267200e-07 2.05924100e+02 7.95774700e-02 4.93326600e-01
       13 -1    0    0    0    0 +0.0000000000e+00 +0.0000000000e+00 +4.9999998884e+02 5.0000000000e+02 1.0566000000e-01 0.0000e+00 1.0000e+00
      994 -1    0    0    0    0 -0.0000000000e+00 -0.0000000000e+00 +0.0000000000e+00 1.3100000000e+02 1.3100000000e+02 0.0000e+00 0.0000e+00
       13  1    1    2    0    0 +4.2169165309e+00 +1.6454716049e+01 +3.5724908638e+01 3.9557809931e+01 1.0566000000e-01 0.0000e+00 -1.0000e+00
      994  1    1    2    0    0 +3.9980909919e+00 -1.8347428027e+00 +7.1325672668e+00 1.3126775891e+02 1.3100000000e+02 0.0000e+00 0.0000e+00
      997  1    1    2    0    0 -8.2150075228e+00 -1.4619973246e+01 +4.5714251293e+02 4.6017443116e+02 5.0000000000e+01 0.0000e+00 0.0000e+00
</event>
<event>
 5      1 +5.6267200e-07 1.93878400e+02 7.95774700e-02 5.15831700e-01
       13 -1    0    0    0    0 +0.0000000000e+00 +0.0000000000e+00 +4.9999998884e+02 5.0000000000e+02 1.0566000000e-01 0.0000e+00 -1.0000e+00
      994 -1    0    0    0    0 -0.0000000000e+00 -0.0000000000e+00 +0.0000000000e+00 1.3100000000e+02 1.3100000000e+02 0.0000e+00 0.0000e+00
       13  1    1    2    0    0 +6.0768568809e+00 -2.1211532320e+01 +9.4226613042e+00 2.3992811486e+01 1.0566000000e-01 0.0000e+00 1.0000e+00
      994  1    1    2    0    0 -1.8523345809e+01 -2.9232964706e+01 +2.7382738066e+01 1.3823347970e+02 1.3100000000e+02 0.0000e+00 0.0000e+00
      997  1    1    2    0    0 +1.2446488928e+01 +5.0444497026e+01 +4.6319458947e+02 4.6877370882e+02 5.0000000000e+01 0.0000e+00 0.0000e+00
</event>
<event>
 5      1 +5.6267200e-07 2.08784100e+02 7.95774700e-02 4.88472000e-01
       13 -1    0    0    0    0 +0.0000000000e+00 +0.0000000000e+00 +4.9999998884e+02 5.0000000000e+02 1.0566000000e-01 0.0000e+00 1.0000e+00
      994 -1    0    0    0    0 -0.0000000000e+00 -0.0000000000e+00 +0.0000000000e+00 1.3100000000e+02 1.3100000000e+02 0.0000e+00 0.0000e+00
       13  1    1    2    0    0 +6.8330958799e+00 -1.3674778590e+01 +8.3903504430e+01 8.5284816869e+01 1.0566000000e-01 0.0000e+00 -1.0000e+00
      994  1    1    2    0    0 -1.5516658323e+01 -3.9220069212e+00 +5.9939090778e+00 1.3211008958e+02 1.3100000000e+02 0.0000e+00 0.0000e+00
      997  1    1    2    0    0 +8.6835624426e+00 +1.7596785511e+01 +4.1010257533e+02 4.1360509355e+02 5.0000000000e+01 0.0000e+00 0.0000e+00
</event>
<event>
 5      1 +5.6267200e-07 2.08656800e+02 7.95774700e-02 4.88684400e-01
       13 -1    0    0    0    0 +0.0000000000e+00 +0.0000000000e+00 +4.9999998884e+02 5.0000000000e+02 1.0566000000e-01 0.0000e+00 1.0000e+00
      994 -1    0    0    0    0 -0.0000000000e+00 -0.0000000000e+00 +0.0000000000e+00 1.3100000000e+02 1.3100000000e+02 0.0000e+00 0.0000e+00
       13  1    1    2    0    0 -9.4437322260e+00 -1.0237452255e+01 +4.8895093829e+01 5.0840248540e+01 1.0566000000e-01 0.0000e+00 -1.0000e+00
      994  1    1    2    0    0 -5.6216735501e+00 +1.7050114589e+01 +6.4336394099e+00 1.3238089491e+02 1.3100000000e+02 0.0000e+00 0.0000e+00
      997  1    1    2    0    0 +1.5065405776e+01 -6.8126623342e+00 +4.4467125560e+02 4.4777885655e+02 5.0000000000e+01 0.0000e+00 0.0000e+00
</event>
<event>
 5      1 +5.6267200e-07 2.03949200e+02 7.95774700e-02 4.96780900e-01
       13 -1    0    0    0    0 +0.0000000000e+00 +0.0000000000e+00 +4.9999998884e+02 5.0000000000e+02 1.0566000000e-01 0.0000e+00 -1.0000e+00
      994 -1    0    0    0    0 -0.0000000000e+00 -0.0000000000e+00 +0.0000000000e+00 1.3100000000e+02 1.3100000000e+02 0.0000e+00 0.0000e+00
       13  1    1    2    0    0 +2.1363672320e+01 -4.7170666213e+00 +4.0755204672e+01 4.6256405874e+01 1.0566000000e-01 0.0000e+00 1.0000e+00
      994  1    1    2    0    0 -1.0415277012e+01 -7.5285457226e+00 +9.5448198615e+00 1.3197446943e+02 1.3100000000e+02 0.0000e+00 0.0000e+00
      997  1    1    2    0    0 -1.0948395307e+01 +1.2245612344e+01 +4.4969996430e+02 4.5276912469e+02 5.0000000000e+01 0.0000e+00 0.0000e+00
</event>
<event>
 5      1 +5.6267200e-07 2.06303200e+02 7.95774700e-02 4.92673200e-01
       13 -1    0    0    0    0 +0.0000000000e+00 +0.0000000000e+00 +4.9999998884e+02 5.0000000000e+02 1.0566000000e-01 0.0000e+00 -1.0000e+00
      994 -1    0    0    0    0 -0.0000000000e+00 -0.0000000000e+00 +0.0000000000e+00 1.3100000000e+02 1.3100000000e+02 0.0000e+00 0.0000e+00
       13  1    1    2    0    0 +2.1475488356e+01 -6.3130947713e+00 +1.3032617698e+02 1.3223454668e+02 1.0566000000e-01 0.0000e+00 1.0000e+00
      994  1    1    2    0    0 +5.9321840439e+00 -8.3835302980e+00 +7.2632259565e+00 1.3160254116e+02 1.3100000000e+02 0.0000e+00 0.0000e+00
      997  1    1    2    0    0 -2.7407672400e+01 +1.4696625069e+01 +3.6241058590e+02 3.6716291217e+02 5.0000000000e+01 0.0000e+00 0.0000e+00
</event>
<event>
 5      1 +5.6267200e-07 1.98991100e+02 7.95774700e-02 5.05845400e-01
       13 -1    0    0    0    0 +0.0000000000e+00 +0.0000000000e+00 +4.9999998884e+02 5.0000000000e+02 1.0566000000e-01 0.0000e+00 1.0000e+00
      994 -1    0    0    0    0 -0.0000000000e+00 -0.0000000000e+00 +0.0000000000e+00 1.3100000000e+02 1.3100000000e+02 0.0000e+00 0.0000e+00
       13  1    1    2    0    0 +4.3142434151e+01 +3.5652192176e+01 +1.1136452431e+02 1.2463714081e+02 1.0566000000e-01 0.0000e+00 -1.0000e+00
      994  1    1    2    0    0 +2.0210488484e+01 -5.8206062498e+00 +2.7993507636e+01 1.3559859797e+02 1.3100000000e+02 0.0000e+00 0.0000e+00
      997  1    1    2    0    0 -6.3352922635e+01 -2.9831585926e+01 +3.6064195689e+02 3.7076426122e+02 5.0000000000e+01 0.0000e+00 0.0000e+00
</event>
<event>
 5      1 +5.6267200e-07 2.03871100e+02 7.95774700e-02 4.96919200e-01
       13 -1    0    0    0    0 +0.0000000000e+00 +0.0000000000e+00 +4.9999998884e+02 5.0000000000e+02 1.0566000000e-01 0.0000e+00 1.0000e+00
      994 -1    0    0    0    0 -0.0000000000e+00 -0.0000000000e+00 +0.0000000000e+00 1.3100000000e+02 1.3100000000e+02 0.0000e+00 0.0000e+00
       13  1    1    2    0    0 -2.5154830851e+01 +2.2493337838e+01 +1.6490968726e+02 1.6832686024e+02 1.0566000000e-01 0.0000e+00 -1.0000e+00
      994  1    1    2    0    0 -1.3539141116e+01 -3.0884702369e+01 +1.4780879793e+01 1.3607588908e+02 1.3100000000e+02 0.0000e+00 0.0000e+00
      997  1    1    2    0    0 +3.8693971967e+01 +8.3913645311e+00 +3.2030942179e+02 3.2659725068e+02 5.0000000000e+01 0.0000e+00 0.0000e+00
</event>
<event>
 5      1 +5.6267200e-07 1.99068900e+02 7.95774700e-02 5.05698700e-01
       13 -1    0    0    0    0 +0.0000000000e+00 +0.0000000000e+00 +4.9999998884e+02 5.0000000000e+02 1.0566000000e-01 0.0000e+00 -1.0000e+00
      994 -1    0    0    0    0 -0.0000000000e+00 -0.0000000000e+00 +0.0000000000e+00 1.3100000000e+02 1.3100000000e+02 0.0000e+00 0.0000e+00
       13  1    1    2    0    0 -2.0484933499e+01 -2.1515766563e+01 +3.4888025149e+01 4.5822987398e+01 1.0566000000e-01 0.0000e+00 1.0000e+00
      994  1    1    2    0    0 +2.9288629697e+01 +2.2803222511e+01 +2.0521219510e+01 1.3769506613e+02 1.3100000000e+02 0.0000e+00 0.0000e+00
      997  1    1    2    0    0 -8.8036961974e+00 -1.2874559471e+00 +4.4459074418e+02 4.4748194647e+02 5.0000000000e+01 0.0000e+00 0.0000e+00
</event>
<event>
 5      1 +5.6267200e-07 1.99966600e+02 7.95774700e-02 5.04015900e-01
       13 -1    0    0    0    0 +0.0000000000e+00 +0.0000000000e+00 +4.9999998884e+02 5.0000000000e+02 1.0566000000e-01 0.0000e+00 1.0000e+00
      994 -1    0    0    0    0 -0.0000000000e+00 -0.0000000000e+00 +0.0000000000e+00 1.3100000000e+02 1.3100000000e+02 0.0000e+00 0.0000e+00
       13  1    1    2    0    0 +3.6294872170e+01 -3.2847353824e+00 +5.6648671207e+01 6.7358669419e+01 1.0566000000e-01 0.0000e+00 -1.0000e+00
      994  1    1    2    0    0 -4.1349403575e+01 +3.4851864450e+01 +2.8492059814e+01 1.4455871853e+02 1.3100000000e+02 0.0000e+00 0.0000e+00
      997  1    1    2    0    0 +5.0545314051e+00 -3.1567129067e+01 +4.1485925782e+02 4.1908261205e+02 5.0000000000e+01 0.0000e+00 0.0000e+00
</event>
<event>
 5      1 +5.6267200e-07 2.03332500e+02 7.95774700e-02 4.97877200e-01
       13 -1    0    0    0    0 +0.0000000000e+00 +0.0000000000e+00 +4.9999998884e+02 5.0000000000e+02 1.0566000000e-01 0.0000e+00 1.0000e+00
      994 -1    0    0    0    0 -0.0000000000e+00 -0.0000000000e+00 +0.0000000000e+00 1.3100000000e+02 1.3100000000e+02 0.0000e+00 0.0000e+00
       13  1    1    2    0    0 -3.4465503100e+01 -6.9227126157e+00 +1.2833401000e+01 3.7423284185e+01 1.0566000000e-01 0.0000e+00 -1.0000e+00
      994  1    1    2    0    0 +2.1803689892e+01 +2.4068169495e+01 +3.6732061742e+01 1.3987466545e+02 1.3100000000e+02 0.0000e+00 0.0000e+00
      997  1    1    2    0    0 +1.2661813208e+01 -1.7145456880e+01 +4.5043452609e+02 4.5370205036e+02 5.0000000000e+01 0.0000e+00 0.0000e+00
</event>
<event>
 5      1 +5.6267200e-07 1.87913100e+02 7.95774700e-02 5.28403200e-01
       13 -1    0    0    0    0 +0.0000000000e+00 +0.0000000000e+00 +4.9999998884e+02 5.0000000000e+02 1.0566000000e-01 0.0000e+00 1.0000e+00
      994 -1    0    0    0    0 -0.0000000000e+00 -0.0000000000e+00 +0.0000000000e+00 1.3100000000e+02 1.3100000000e+02 0.0000e+00 0.0000e+00
       13  1    1    2    0    0 +6.8170562216e+01 -7.7706079463e+01 +2.9035808302e+02 3.0820981145e+02 1.0566000000e-01 0.0000e+00 -1.0000e+00
      994  1    1    2    0    0 -7.2279440300e+01 +6.7395251455e+01 +7.8308175220e+01 1.8182301206e+02 1.3100000000e+02 0.0000e+00 0.0000e+00
      997  1    1    2    0    0 +4.1088780845e+00 +1.0310828008e+01 +1.3133373060e+02 1.4096717649e+02 5.0000000000e+01 0.0000e+00 0.0000e+00
</event>
<event>
 5      1 +5.6267200e-07 2.09084200e+02 7.95774700e-02 4.87972300e-01
       13 -1    0    0    0    0 +0.0000000000e+00 +0.0000000000e+00 +4.9999998884e+02 5.0000000000e+02 1.0566000000e-01 0.0000e+00 1.0000e+00
      994 -1    0    0    0    0 -0.0000000000e+00 -0.0000000000e+00 +0.0000000000e+00 1.3100000000e+02 1.3100000000e+02 0.0000e+00 0.0000e+00
       13  1    1    2    0    0 -5.9328165576e+00 -1.3109564933e+01 +5.3479471621e+01 5.5381621987e+01 1.0566000000e-01 0.0000e+00 -1.0000e+00
      994  1    1    2    0    0 +1.8475854705e+00 +2.0061054659e+01 +6.5069037302e+00 1.3269965818e+02 1.3100000000e+02 0.0000e+00 0.0000e+00
      997  1    1    2    0    0 +4.0852310871e+00 -6.9514897258e+00 +4.4001361349e+02 4.4291871983e+02 5.0000000000e+01 0.0000e+00 0.0000e+00
</event>
<event>
 5      1 +5.6267200e-07 1.98047900e+02 7.95774700e-02 5.07636900e-01
       13 -1    0    0    0    0 +0.0000000000e+00 +0.0000000000e+00 +4.9999998884e+02 5.0000000000e+02 1.0566000000e-01 0.0000e+00 -1.0000e+00
      994 -1    0    0    0    0 -0.0000000000e+00 -0.0000000000e+00 +0.0000000000e+00 1.3100000000e+02 1.3100000000e+02 0.0000e+00 0.0000e+00
       13  1    1    2    0    0 -3.5209938759e+01 +2.1643766044e+01 +6.7714277562e+01 7.9331122176e+01 1.0566000000e-01 0.0000e+00 1.0000e+00
      994  1    1    2    0    0 +1.3878156285e+01 -5.0431501922e+01 +2.9366157763e+01 1.4408091765e+02 1.3100000000e+02 0.0000e+00 0.0000e+00
      997  1    1    2    0    0 +2.1331782474e+01 +2.8787735878e+01 +4.0291955351e+02 4.0758796018e+02 5.0000000000e+01 0.0000e+00 0.0000e+00
</event>
<event>
 5      1 +5.6267200e-07 2.08648300e+02 7.95774700e-02 4.88698600e-01
       13 -1    0    0    0    0 +0.0000000000e+00 +0.0000000000e+00 +4.9999998884e+02 5.0000000000e+02 1.0566000000e-01 0.0000e+00 1.0000e+00
      994 -1    0    0    0    0 -0.0000000000e+00 -0.0000000000e+00 +0.0000000000e+00 1.3100000000e+02 1.3100000000e+02 0.0000e+00 0.0000e+00
       13  1    1    2    0    0 -1.1427132883e+01 -5.9626512965e+00 +3.7067025700e+01 3.9244211480e+01 1.0566000000e-01 0.0000e+00 -1.0000e+00
      994  1    1    2    0    0 +1.8548994081e+01 -6.0111848490e+00 +6.7347616258e+00 1.3261431498e+02 1.3100000000e+02 0.0000e+00 0.0000e+00
      997  1    1    2    0    0 -7.1218611972e+00 +1.1973836145e+01 +4.5619820151e+02 4.5914147354e+02 5.0000000000e+01 0.0000e+00 0.0000e+00
</event>
<event>
 5      1 +5.6267200e-07 1.99211800e+02 7.95774700e-02 5.05429500e-01
       13 -1    0    0    0    0 +0.0000000000e+00 +0.0000000000e+00 +4.9999998884e+02 5.0000000000e+02 1.0566000000e-01 0.0000e+00 -1.0000e+00
      994 -1    0    0    0    0 -0.0000000000e+00 -0.0000000000e+00 +0.0000000000e+00 1.3100000000e+02 1.3100000000e+02 0.0000e+00 0.0000e+00
       13  1    1    2    0    0 -1.7908931235e+01 +1.7158415503e+01 +2.6235514314e+01 3.6103385103e+01 1.0566000000e-01 0.0000e+00 1.0000e+00
      994  1    1    2    0    0 -1.7628724674e-01 -2.9527242972e+01 +1.7551015233e+01 1.3542867972e+02 1.3100000000e+02 0.0000e+00 0.0000e+00
      997  1    1    2    0    0 +1.8085218481e+01 +1.2368827470e+01 +4.5621345929e+02 4.5946793518e+02 5.0000000000e+01 0.0000e+00 0.0000e+00
</event>
<event>
 5      1 +5.6267200e-07 2.07663700e+02 7.95774700e-02 4.90353300e-01
       13 -1    0    0    0    0 +0.0000000000e+00 +0.0000000000e+00 +4.9999998884e+02 5.0000000000e+02 1.0566000000e-01 0.0000e+00 -1.0000e+00
      994 -1    0    0    0    0 -0.0000000000e+00 -0.0000000000e+00 +0.0000000000e+00 1.3100000000e+02 1.3100000000e+02 0.0000e+00 0.0000e+00
       13  1    1    2    0    0 -2.1457460518e+01 -1.6186521357e+01 +4.8685657520e+01 5.5612323254e+01 1.0566000000e-01 0.0000e+00 1.0000e+00
      994  1    1    2    0    0 +5.4698254226e+01 +8.2516858447e+01 +6.1343591988e+01 1.7528538793e+02 1.3100000000e+02 0.0000e+00 0.0000e+00
      997  1    1    2    0    0 -3.3240793708e+01 -6.6330337090e+01 +3.8997073933e+02 4.0010228882e+02 5.0000000000e+01 0.0000e+00 0.0000e+00
</event>
<event>
 5      1 +5.6267200e-07 1.71548100e+02 7.95774700e-02 5.69199900e-01
       13 -1    0    0    0    0 +0.0000000000e+00 +0.0000000000e+00 +4.9999998884e+02 5.0000000000e+02 1.0566000000e-01 0.0000e+00 1.0000e+00
      994 -1    0    0    0    0 -0.0000000000e+00 -0.0000000000e+00 +0.0000000000e+00 1.3100000000e+02 1.3100000000e+02 0.0000e+00 0.0000e+00
       13  1    1    2    0    0 -3.8599700559e+01 -1.1456294251e+02 +1.9867778048e+02 2.3256714364e+02 1.0566000000e-01 0.0000e+00 -1.0000e+00
      994  1    1    2    0    0 +4.0923474474e-01 +7.4479703832e+01 +9.2817378545e+01 1.7698434822e+02 1.3100000000e+02 0.0000e+00 0.0000e+00
      997  1    1    2    0    0 +3.8190465814e+01 +4.0083238679e+01 +2.0850482981e+02 2.2144850814e+02 5.0000000000e+01 0.0000e+00 0.0000e+00
</event>
<event>
 5      1 +5.6267200e-07 1.94174100e+02 7.95774700e-02 5.15235200e-01
       13 -1    0    0    0    0 +0.0000000000e+00 +0.0000000000e+00 +4.9999998884e+02 5.0000000000e+02 1.0566000000e-01 0.0000e+00 -1.0000e+00
      994 -1    0    0    0    0 -0.0000000000e+00 -0.0000000000e+00 +0.0000000000e+00 1.3100000000e+02 1.3100000000e+02 0.0000e+00 0.0000e+00
       13  1    1    2    0    0 -9.4768354789e+00 -2.7005391576e+01 +3.0071885318e+01 4.1514226905e+01 1.0566000000e-01 0.0000e+00 1.0000e+00
      994  1    1    2    0    0 -2.7742710653e+00 -1.6851953657e+01 +1.8944870939e+01 1.3346008039e+02 1.3100000000e+02 0.0000e+00 0.0000e+00
      997  1    1    2    0    0 +1.2251106544e+01 +4.3857345233e+01 +4.5098323258e+02 4.5602569271e+02 5.0000000000e+01 0.0000e+00 0.0000e+00
</event>
<event>
 5      1 +5.6267200e-07 1.93419400e+02 7.95774700e-02 5.16762300e-01
       13 -1    0    0    0    0 +0.0000000000e+00 +0.0000000000e+00 +4.9999998884e+02 5.0000000000e+02 1.0566000000e-01 0.0000e+00 -1.0000e+00
      994 -1    0    0    0    0 -0.0000000000e+00 -0.0000000000e+00 +0.0000000000e+00 1.3100000000e+02 1.3100000000e+02 0.0000e+00 0.0000e+00
       13  1    1    2    0    0 +4.1282589421e+01 +1.4987797179e+01 +4.5231593393e+01 6.3045970993e+01 1.0566000000e-01 0.0000e+00 1.0000e+00
      994  1    1    2    0    0 -3.4223660874e+01 -3.5092438434e+01 +3.4336197798e+01 1.4402330602e+02 1.3100000000e+02 0.0000e+00 0.0000e+00
      997  1    1    2    0    0 -7.0589285465e+00 +2.0104641255e+01 +4.2043219764e+02 4.2393072298e+02 5.0000000000e+01 0.0000e+00 0.0000e+00
</event>
<event>
 5      1 +5.6267200e-07 2.05658700e+02 7.95774700e-02 4.93785800e-01
       13 -1    0    0    0    0 +0.0000000000e+00 +0.0000000000e+00 +4.9999998884e+02 5.0000000000e+02 1.0566000000e-01 0.0000e+00 -1.0000e+00
      994 -1    0    0    0    0 -0.0000000000e+00 -0.0000000000e+00 +0.0000000000e+00 1.3100000000e+02 1.3100000000e+02 0.0000e+00 0.0000e+00
       13  1    1    2    0    0 +3.8624213457e+01 +6.4914181896e-01 +1.2279774481e+02 1.2873052685e+02 1.0566000000e-01 0.0000e+00 1.0000e+00
      994  1    1    2    0    0 -4.7990509150e+01 +1.0227758685e+01 +2.0013388013e+01 1.4131253206e+02 1.3100000000e+02 0.0000e+00 0.0000e+00
      997  1    1    2    0    0 +9.3662956926e+00 -1.0876900504e+01 +3.5718885602e+02 3.6095694109e+02 5.0000000000e+01 0.0000e+00 0.0000e+00
</event>
<event>
 5      1 +5.6267200e-07 2.09541600e+02 7.95774700e-02 4.87214300e-01
       13 -1    0    0    0    0 +0.0000000000e+00 +0.0000000000e+00 +4.9999998884e+02 5.0000000000e+02 1.0566000000e-01 0.0000e+00 1.0000e+00
      994 -1    0    0    0    0 -0.0000000000e+00 -0.0000000000e+00 +0.0000000000e+00 1.3100000000e+02 1.3100000000e+02 0.0000e+00 0.0000e+00
       13  1    1    2    0    0 -4.1985991308e+00 +1.3190145453e+01 +5.1898253404e+01 5.3712643225e+01 1.0566000000e-01 0.0000e+00 -1.0000e+00
      994  1    1    2    0    0 +6.3440417951e+00 -2.8386329975e+01 +8.3645899515e+00 1.3445072317e+02 1.3100000000e+02 0.0000e+00 0.0000e+00
      997  1    1    2    0    0 -2.1454426643e+00 +1.5196184522e+01 +4.3973714548e+02 4.4283663361e+02 5.0000000000e+01 0.0000e+00 0.0000e+00
</event>
<event>
 5      1 +5.6267200e-07 2.08888000e+02 7.95774700e-02 4.88298600e-01
       13 -1    0    0    0    0 +0.0000000000e+00 +0.0000000000e+00 +4.9999998884e+02 5.0000000000e+02 1.0566000000e-01 0.0000e+00 1.0000e+00
      994 -1    0    0    0    0 -0.0000000000e+00 -0.0000000000e+00 +0.0000000000e+00 1.3100000000e+02 1.3100000000e+02 0.0000e+00 0.0000e+00
       13  1    1    2    0    0 +5.3637956941e+00 +1.2374769709e+01 +5.2614967473e+01 5.4316214852e+01 1.0566000000e-01 0.0000e+00 -1.0000e+00
      994  1    1    2    0    0 +7.2784639574e-01 -7.1924510164e+00 +4.8789122347e+00 1.3129000303e+02 1.3100000000e+02 0.0000e+00 0.0000e+00
      997  1    1    2    0    0 -6.0916420898e+00 -5.1823186930e+00 +4.4250610913e+02 4.4539378211e+02 5.0000000000e+01 0.0000e+00 0.0000e+00
</event>
<event>
 5      1 +5.6267200e-07 2.09870700e+02 7.95774700e-02 4.86671500e-01
       13 -1    0    0    0    0 +0.0000000000e+00 +0.0000000000e+00 +4.9999998884e+02 5.0000000000e+02 1.0566000000e-01 0.0000e+00 -1.0000e+00
      994 -1    0    0    0    0 -0.0000000000e+00 -0.0000000000e+00 +0.0000000000e+00 1.3100000000e+02 1.3100000000e+02 0.0000e+00 0.0000e+00
       13  1    1    2    0    0 +2.2882653714e+00 -1.0307425314e+01 +5.9123176244e+01 6.0058640579e+01 1.0566000000e-01 0.0000e+00 1.0000e+00
      994  1    1    2    0    0 +1.3448992486e+01 +1.0697012957e+01 +5.3072377039e+00 1.3222884805e+02 1.3100000000e+02 0.0000e+00 0.0000e+00
      997  1    1    2    0    0 -1.5737257857e+01 -3.8958764330e-01 +4.3556957489e+02 4.3871251137e+02 5.0000000000e+01 0.0000e+00 0.0000e+00
</event>
<event>
 5      1 +5.6267200e-07 2.08791800e+02 7.95774700e-02 4.88459000e-01
       13 -1    0    0    0    0 +0.0000000000e+00 +0.0000000000e+00 +4.9999998884e+02 5.0000000000e+02 1.0566000000e-01 0.0000e+00 -1.0000e+00
      994 -1    0    0    0    0 -0.0000000000e+00 -0.0000000000e+00 +0.0000000000e+00 1.3100000000e+02 1.3100000000e+02 0.0000e+00 0.0000e+00
       13  1    1    2    0    0 -5.9230443058e-01 +2.0474403789e+01 +9.2887726656e+01 9.5119361659e+01 1.0566000000e-01 0.0000e+00 1.0000e+00
      994  1    1    2    0    0 +2.7212397113e+01 -3.1146732499e+01 +1.3461425861e+01 1.3803203791e+02 1.3100000000e+02 0.0000e+00 0.0000e+00
      997  1    1    2    0    0 -2.6620092683e+01 +1.0672328711e+01 +3.9365083632e+02 3.9784860044e+02 5.0000000000e+01 0.0000e+00 0.0000e+00
</event>
<event>
 5      1 +5.6267200e-07 1.97537200e+02 7.95774700e-02 5.08616300e-01
       13 -1    0    0    0    0 +0.0000000000e+00 +0.0000000000e+00 +4.9999998884e+02 5.0000000000e+02 1.0566000000e-01 0.0000e+00 1.0000e+00
      994 -1    0    0    0    0 -0.0000000000e+00 -0.0000000000e+00 +0.0000000000e+00 1.3100000000e+02 1.3100000000e+02 0.0000e+00 0.0000e+00
       13  1    1    2    0    0 -2.3584174283e+01 +1.5555195930e+00 +1.6523186564e+01 2.8838512029e+01 1.0566000000e-01 0.0000e+00 -1.0000e+00
      994  1    1    2    0    0 +3.8207966808e+01 -1.8631905372e+01 +2.4456419657e+01 1.3987892296e+02 1.3100000000e+02 0.0000e+00 0.0000e+00
      997  1    1    2    0    0 -1.4623792526e+01 +1.7076385779e+01 +4.5902038261e+02 4.6228256501e+02 5.0000000000e+01 0.0000e+00 0.0000e+00
</event>
<event>
 5      1 +5.6267200e-07 1.97629700e+02 7.95774700e-02 5.08438300e-01
       13 -1    0    0    0    0 +0.0000000000e+00 +0.0000000000e+00 +4.9999998884e+02 5.0000000000e+02 1.0566000000e-01 0.0000e+00 -1.0000e+00
      994 -1    0    0    0    0 -0.0000000000e+00 -0.0000000000e+00 +0.0000000000e+00 1.3100000000e+02 1.3100000000e+02 0.0000e+00 0.0000e+00
       13  1    1    2    0    0 -2.3445928452e+01 +2.5293691975e+01 +6.2687650988e+01 7.1548830634e+01 1.0566000000e-01 0.0000e+00 1.0000e+00
      994  1    1    2    0    0 -1.2521427292e+01 -8.8553363472e+00 +1.5446615047e+01 1.3279608819e+02 1.3100000000e+02 0.0000e+00 0.0000e+00
      997  1    1    2    0    0 +3.5967355743e+01 -1.6438355628e+01 +4.2186572280e+02 4.2665508117e+02 5.0000000000e+01 0.0000e+00 0.0000e+00
</event>
<event>
 5      1 +5.6267200e-07 1.93691900e+02 7.95774700e-02 5.16209100e-01
       13 -1    0    0    0    0 +0.0000000000e+00 +0.0000000000e+00 +4.9999998884e+02 5.0000000000e+02 1.0566000000e-01 0.0000e+00 1.0000e+00
      994 -1    0    0    0    0 -0.0000000000e+00 -0.0000000000e+00 +0.0000000000e+00 1.3100000000e+02 1.3100000000e+02 0.0000e+00 0.0000e+00
       13  1    1    2    0    0 +6.9969020735e+00 +4.9480345209e+01 +5.8414003081e+01 7.6873064987e+01 1.0566000000e-01 0.0000e+00 -1.0000e+00
      994  1    1    2    0    0 +2.2608826595e+01 -5.2256667780e+01 +3.9978522198e+01 1.4832801692e+02 1.3100000000e+02 0.0000e+00 0.0000e+00
      997  1    1    2    0    0 -2.9605728669e+01 +2.7763225714e+00 +4.0160746356e+02 4.0579891809e+02 5.0000000000e+01 0.0000e+00 0.0000e+00
</event>
<event>
 5      1 +5.6267200e-07 2.01414000e+02 7.95774700e-02 5.01343500e-01
       13 -1    0    0    0    0 +0.0000000000e+00 +0.0000000000e+00 +4.9999998884e+02 5.0000000000e+02 1.0566000000e-01 0.0000e+00 1.0000e+00
      994 -1    0    0    0    0 -0.0000000000e+00 -0.0000000000e+00 +0.0000000000e+00 1.3100000000e+02 1.3100000000e+02 0.0000e+00 0.0000e+00
       13  1    1    2    0    0 +4.5682294274e+01 -2.4929331749e+01 +7.4221732056e+01 9.0648884522e+01 1.0566000000e-01 0.0000e+00 -1.0000e+00
      994  1    1    2    0    0 +8.0801407102e+00 -1.5881509586e+01 +2.9749687725e+01 1.3551219480e+02 1.3100000000e+02 0.0000e+00 0.0000e+00
      997  1    1    2    0    0 -5.3762434984e+01 +4.0810841335e+01 +3.9602856905e+02 4.0483892067e+02 5.0000000000e+01 0.0000e+00 0.0000e+00
</event>
<event>
 5      1 +5.6267200e-07 2.02186100e+02 7.95774700e-02 4.99938200e-01
       13 -1    0    0    0    0 +0.0000000000e+00 +0.0000000000e+00 +4.9999998884e+02 5.0000000000e+02 1.0566000000e-01 0.0000e+00 1.0000e+00
      994 -1    0    0    0    0 -0.0000000000e+00 -0.0000000000e+00 +0.0000000000e+00 1.3100000000e+02 1.3100000000e+02 0.0000e+00 0.0000e+00
       13  1    1    2    0    0 -3.5014890805e+00 -1.7430262571e+01 +1.7357034987e+01 2.4846575351e+01 1.0566000000e-01 0.0000e+00 -1.0000e+00
      994  1    1    2    0    0 -2.4896980503e+01 +2.2844160108e+01 +1.6321070889e+01 1.3626845799e+02 1.3100000000e+02 0.0000e+00 0.0000e+00
      997  1    1    2    0    0 +2.8398469583e+01 -5.4138975370e+00 +4.6632188296e+02 4.6988496665e+02 5.0000000000e+01 0.0000e+00 0.0000e+00
</event>
<event>
 5      1 +5.6267200e-07 2.07445200e+02 7.95774700e-02 4.90723400e-01
       13 -1    0    0    0    0 +0.0000000000e+00 +0.0000000000e+00 +4.9999998884e+02 5.0000000000e+02 1.0566000000e-01 0.0000e+00 -1.0000e+00
      994 -1    0    0    0    0 -0.0000000000e+00 -0.0000000000e+00 +0.0000000000e+00 1.3100000000e+02 1.3100000000e+02 0.0000e+00 0.0000e+00
       13  1    1    2    0    0 -9.7234577292e+00 +1.9221888557e+01 +5.3718833847e+01 5.7877032610e+01 1.0566000000e-01 0.0000e+00 1.0000e+00
      994  1    1    2    0    0 +1.2155427675e+01 -4.0298618579e+01 +1.4973304183e+01 1.3840857242e+02 1.3100000000e+02 0.0000e+00 0.0000e+00
      997  1    1    2    0    0 -2.4319699455e+00 +2.1076730023e+01 +4.3130785081e+02 4.3471439497e+02 5.0000000000e+01 0.0000e+00 0.0000e+00
</event>
<event>
 5      1 +5.6267200e-07 1.99621300e+02 7.95774700e-02 5.04660900e-01
       13 -1    0    0    0    0 +0.0000000000e+00 +0.0000000000e+00 +4.9999998884e+02 5.0000000000e+02 1.0566000000e-01 0.0000e+00 1.0000e+00
      994 -1    0    0    0    0 -0.0000000000e+00 -0.0000000000e+00 +0.0000000000e+00 1.3100000000e+02 1.3100000000e+02 0.0000e+00 0.0000e+00
       13  1    1    2    0    0 +2.2202797465e+01 -1.7683755407e+01 +3.3300226748e+01 4.3756093131e+01 1.0566000000e-01 0.0000e+00 -1.0000e+00
      994  1    1    2    0    0 -4.8948949303e+01 -3.6158285642e+00 +2.5861223524e+01 1.4226340617e+02 1.3100000000e+02 0.0000e+00 0.0000e+00
      997  1    1    2    0    0 +2.6746151837e+01 +2.1299583971e+01 +4.4083853856e+02 4.4498050070e+02 5.0000000000e+01 0.0000e+00 0.0000e+00
</event>
<event>
 5      1 +5.6267200e-07 1.97106300e+02 7.95774700e-02 5.09447800e-01
       13 -1    0    0    0    0 +0.0000000000e+00 +0.0000000000e+00 +4.9999998884e+02 5.0000000000e+02 1.0566000000e-01 0.0000e+00 -1.0000e+00
      994 -1    0    0    0    0 -0.0000000000e+00 -0.0000000000e+00 +0.0000000000e+00 1.3100000000e+02 1.3100000000e+02 0.0000e+00 0.0000e+00
       13  1    1    2    0    0 -2.4961697554e+01 +3.0357393605e+01 +1.3830522703e+02 1.4378109986e+02 1.0566000000e-01 0.0000e+00 1.0000e+00
      994  1    1    2    0    0 -2.2332475531e+00 +2.4978560792e+01 +1.8133539037e+01 1.3460587332e+02 1.3100000000e+02 0.0000e+00 0.0000e+00
      997  1    1    2    0    0 +2.7194945107e+01 -5.5335954396e+01 +3.4356122277e+02 3.5261302682e+02 5.0000000000e+01 0.0000e+00 0.0000e+00
</event>
<event>
 5      1 +5.6267200e-07 1.97270700e+02 7.95774700e-02 5.09130000e-01
       13 -1    0    0    0    0 +0.0000000000e+00 +0.0000000000e+00 +4.9999998884e+02 5.0000000000e+02 1.0566000000e-01 0.0000e+00 -1.0000e+00
      994 -1    0    0    0    0 -0.0000000000e+00 -0.0000000000e+00 +0.0000000000e+00 1.3100000000e+02 1.3100000000e+02 0.0000e+00 0.0000e+00
       13  1    1    2    0    0 -3.5381777139e+01 +2.3840991041e+01 +7.6122956990e+01 8.7263845619e+01 1.0566000000e-01 0.0000e+00 1.0000e+00
      994  1    1    2    0    0 +4.6968528213e+01 +1.8315658552e+01 +2.9022728630e+01 1.4333466004e+02 1.3100000000e+02 0.0000e+00 0.0000e+00
      997  1    1    2    0    0 -1.1586751074e+01 -4.2156649593e+01 +3.9485430322e+02 4.0040149434e+02 5.0000000000e+01 0.0000e+00 0.0000e+00
</event>
<event>
 5      1 +5.6267200e-07 1.93021600e+02 7.95774700e-02 5.17573700e-01
       13 -1    0    0    0    0 +0.0000000000e+00 +0.0000000000e+00 +4.9999998884e+02 5.0000000000e+02 1.0566000000e-01 0.0000e+00 -1.0000e+00
      994 -1    0    0    0    0 -0.0000000000e+00 -0.0000000000e+00 +0.0000000000e+00 1.3100000000e+02 1.3100000000e+02 0.0000e+00 0.0000e+00
       13  1    1    2    0    0 -5.4667136359e+01 +1.4630005120e+01 +8.6030947150e+01 1.0297508378e+02 1.0566000000e-01 0.0000e+00 1.0000e+00
      994  1    1    2    0    0 +5.1782040988e+01 +2.0535103391e+01 +3.8313831622e+01 1.4741784130e+02 1.3100000000e+02 0.0000e+00 0.0000e+00
      997  1    1    2    0    0 +2.8850953718e+00 -3.5165108511e+01 +3.7565521006e+02 3.8060707492e+02 5.0000000000e+01 0.0000e+00 0.0000e+00
</event>
<event>
 5      1 +5.6267200e-07 2.01175700e+02 7.95774700e-02 5.01780100e-01
       13 -1    0    0    0    0 +0.0000000000e+00 +0.0000000000e+00 +4.9999998884e+02 5.0000000000e+02 1.0566000000e-01 0.0000e+00 -1.0000e+00
      994 -1    0    0    0    0 -0.0000000000e+00 -0.0000000000e+00 +0.0000000000e+00 1.3100000000e+02 1.3100000000e+02 0.0000e+00 0.0000e+00
       13  1    1    2    0    0 -2.7845032402e+01 +3.0572358593e+01 +1.3552736371e+02 1.4169577417e+02 1.0566000000e-01 0.0000e+00 1.0000e+00
      994  1    1    2    0    0 -1.5546268154e+00 -2.0837900873e+01 +1.3390890758e+01 1.3333023263e+02 1.3100000000e+02 0.0000e+00 0.0000e+00
      997  1    1    2    0    0 +2.9399659218e+01 -9.7344577205e+00 +3.5108173437e+02 3.5597399320e+02 5.0000000000e+01 0.0000e+00 0.0000e+00
</event>
<event>
 5      1 +5.6267200e-07 2.05830100e+02 7.95774700e-02 4.93489100e-01
       13 -1    0    0    0    0 +0.0000000000e+00 +0.0000000000e+00 +4.9999998884e+02 5.0000000000e+02 1.0566000000e-01 0.0000e+00 1.0000e+00
      994 -1    0    0    0    0 -0.0000000000e+00 -0.0000000000e+00 +0.0000000000e+00 1.3100000000e+02 1.3100000000e+02 0.0000e+00 0.0000e+00
       13  1    1    2    0    0 -1.1292372230e+01 -5.0832528779e+00 +1.2555286454e+01 1.7635291673e+01 1.0566000000e-01 0.0000e+00 -1.0000e+00
      994  1    1    2    0    0 +3.4466465916e+01 +8.6121131646e+00 +1.3710105097e+01 1.3642240559e+02 1.3100000000e+02 0.0000e+00 0.0000e+00
      997  1    1    2    0    0 -2.3174093686e+01 -3.5288602866e+00 +4.7373459728e+02 4.7694230273e+02 5.0000000000e+01 0.0000e+00 0.0000e+00
</event>
<event>
 5      1 +5.6267200e-07 1.96124500e+02 7.95774700e-02 5.11360100e-01
       13 -1    0    0    0    0 +0.0000000000e+00 +0.0000000000e+00 +4.9999998884e+02 5.0000000000e+02 1.0566000000e-01 0.0000e+00 1.0000e+00
      994 -1    0    0    0    0 -0.0000000000e+00 -0.0000000000e+00 +0.0000000000e+00 1.3100000000e+02 1.3100000000e+02 0.0000e+00 0.0000e+00
       13  1    1    2    0    0 -3.4413391411e+01 -9.3925673019e+00 +5.2338570560e+01 6.3339079258e+01 1.0566000000e-01 0.0000e+00 -1.0000e+00
      994  1    1    2    0    0 +1.2834131083e+01 -1.1109601330e+01 +1.7114129287e+01 1.3319921765e+02 1.3100000000e+02 0.0000e+00 0.0000e+00
      997  1    1    2    0    0 +2.1579260327e+01 +2.0502168632e+01 +4.3054728899e+02 4.3446170309e+02 5.0000000000e+01 0.0000e+00 0.0000e+00
</event>
<event>
 5      1 +5.6267200e-07 2.06746600e+02 7.95774700e-02 4.91912900e-01
       13 -1    0    0    0    0 +0.0000000000e+00 +0.0000000000e+00 +4.9999998884e+02 5.0000000000e+02 1.0566000000e-01 0.0000e+00 -1.0000e+00
      994 -1    0    0    0    0 -0.0000000000e+00 -0.0000000000e+00 +0.0000000000e+00 1.3100000000e+02 1.3100000000e+02 0.0000e+00 0.0000e+00
       13  1    1    2    0    0 -2.2648182873e+01 -5.3676316801e+00 +7.9223367983e+01 8.2571816353e+01 1.0566000000e-01 0.0000e+00 1.0000e+00
      994  1    1    2    0    0 +1.3418503011e+01 +9.1396004792e+00 +7.7102441415e+00 1.3222721499e+02 1.3100000000e+02 0.0000e+00 0.0000e+00
      997  1    1    2    0    0 +9.2296798625e+00 -3.7719687991e+00 +4.1306637671e+02 4.1620096865e+02 5.0000000000e+01 0.0000e+00 0.0000e+00
</event>
<event>
 5      1 +5.6267200e-07 1.95051800e+02 7.95774700e-02 5.13478800e-01
       13 -1    0    0    0    0 +0.0000000000e+00 +0.0000000000e+00 +4.9999998884e+02 5.0000000000e+02 1.0566000000e-01 0.0000e+00 1.0000e+00
      994 -1    0    0    0    0 -0.0000000000e+00 -0.0000000000e+00 +0.0000000000e+00 1.3100000000e+02 1.3100000000e+02 0.0000e+00 0.0000e+00
       13  1    1    2    0    0 +1.3488863163e+01 -4.1592465633e+01 +5.3690805460e+01 6.9243024067e+01 1.0566000000e-01 0.0000e+00 -1.0000e+00
      994  1    1    2    0    0 -4.1797332229e+01 +4.0134483297e+01 +3.6344187786e+01 1.4778258936e+02 1.3100000000e+02 0.0000e+00 0.0000e+00
      997  1    1    2    0    0 +2.8308469065e+01 +1.4579823362e+00 +4.0996499559e+02 4.1397438658e+02 5.0000000000e+01 0.0000e+00 0.0000e+00
</event>
<event>
 5      1 +5.6267200e-07 1.94193600e+02 7.95774700e-02 5.15196000e-01
       13 -1    0    0    0    0 +0.0000000000e+00 +0.0000000000e+00 +4.9999998884e+02 5.0000000000e+02 1.0566000000e-01 0.0000e+00 -1.0000e+00
      994 -1    0    0    0    0 -0.0000000000e+00 -0.0000000000e+00 +0.0000000000e+00 1.3100000000e+02 1.3100000000e+02 0.0000e+00 0.0000e+00
       13  1    1    2    0    0 -1.6312476923e+01 +1.1184033591e+01 +5.0439419253e+00 2.0411565960e+01 1.0566000000e-01 0.0000e+00 1.0000e+00
      994  1    1    2    0    0 +3.0391181558e+01 -3.8555542548e+01 +3.1463113555e+01 1.4339135710e+02 1.3100000000e+02 0.0000e+00 0.0000e+00
      997  1    1    2    0    0 -1.4078704635e+01 +2.7371508957e+01 +4.6349293336e+02 4.6719707694e+02 5.0000000000e+01 0.0000e+00 0.0000e+00
</event>
<event>
 5      1 +5.6267200e-07 1.60858900e+02 7.95774700e-02 6.02444800e-01
       13 -1    0    0    0    0 +0.0000000000e+00 +0.0000000000e+00 +4.9999998884e+02 5.0000000000e+02 1.0566000000e-01 0.0000e+00 -1.0000e+00
      994 -1    0    0    0    0 -0.0000000000e+00 -0.0000000000e+00 +0.0000000000e+00 1.3100000000e+02 1.3100000000e+02 0.0000e+00 0.0000e+00
       13  1    1    2    0    0 +1.2161945297e+01 +4.2733750151e+01 -2.8081036745e+01 5.2560841927e+01 1.0566000000e-01 0.0000e+00 1.0000e+00
      994  1    1    2    0    0 -2.8375723191e+01 -6.5940466075e+01 +2.2575926423e+02 2.7070569281e+02 1.3100000000e+02 0.0000e+00 0.0000e+00
      997  1    1    2    0    0 +1.6213777895e+01 +2.3206715924e+01 +3.0232176135e+02 3.0773346527e+02 5.0000000000e+01 0.0000e+00 0.0000e+00
</event>
<event>
 5      1 +5.6267200e-07 2.05556000e+02 7.95774700e-02 4.93964000e-01
       13 -1    0    0    0    0 +0.0000000000e+00 +0.0000000000e+00 +4.9999998884e+02 5.0000000000e+02 1.0566000000e-01 0.0000e+00 1.0000e+00
      994 -1    0    0    0    0 -0.0000000000e+00 -0.0000000000e+00 +0.0000000000e+00 1.3100000000e+02 1.3100000000e+02 0.0000e+00 0.0000e+00
       13  1    1    2    0    0 +1.1383296904e+01 +4.4915184425e+00 +1.2712551937e+01 1.7645773633e+01 1.0566000000e-01 0.0000e+00 -1.0000e+00
      994  1    1    2    0    0 -5.1857361491e+01 +8.9878689397e+01 +7.0809345065e+01 1.8150021514e+02 1.3100000000e+02 0.0000e+00 0.0000e+00
      997  1    1    2    0    0 +4.0474064586e+01 -9.4370207840e+01 +4.1647809183e+02 4.3185401122e+02 5.0000000000e+01 0.0000e+00 0.0000e+00
</event>
<event>
 5      1 +5.6267200e-07 2.07133000e+02 7.95774700e-02 4.91253700e-01
       13 -1    0    0    0    0 +0.0000000000e+00 +0.0000000000e+00 +4.9999998884e+02 5.0000000000e+02 1.0566000000e-01 0.0000e+00 1.0000e+00
      994 -1    0    0    0    0 -0.0000000000e+00 -0.0000000000e+00 +0.0000000000e+00 1.3100000000e+02 1.3100000000e+02 0.0000e+00 0.0000e+00
       13  1    1    2    0    0 -1.1623410889e+01 -9.4446507982e+00 +3.3269066349e+01 3.6484887956e+01 1.0566000000e-01 0.0000e+00 -1.0000e+00
      994  1    1    2    0    0 +1.7047989166e+01 -7.2784648678e+00 +7.8009155824e+00 1.3253476627e+02 1.3100000000e+02 0.0000e+00 0.0000e+00
      997  1    1    2    0    0 -5.4245782766e+00 +1.6723115666e+01 +4.5893000690e+02 4.6198034578e+02 5.0000000000e+01 0.0000e+00 0.0000e+00
</event>
<event>
 5      1 +5.6267200e-07 2.08355600e+02 7.95774700e-02 4.89188400e-01
       13 -1    0    0    0    0 +0.0000000000e+00 +0.0000000000e+00 +4.9999998884e+02 5.0000000000e+02 1.0566000000e-01 0.0000e+00 -1.0000e+00
      994 -1    0    0    0    0 -0.0000000000e+00 -0.0000000000e+00 +0.0000000000e+00 1.3100000000e+02 1.3100000000e+02 0.0000e+00 0.0000e+00
       13  1    1    2    0    0 -6.0977309526e+00 -9.8779257820e+00 +2.3215203248e+01 2.5955973617e+01 1.0566000000e-01 0.0000e+00 1.0000e+00
      994  1    1    2    0    0 -4.0571914260e+00 +3.1588877966e+01 +1.0227310691e+01 1.3520323923e+02 1.3100000000e+02 0.0000e+00 0.0000e+00
      997  1    1    2    0    0 +1.0154922379e+01 -2.1710952184e+01 +4.6655747490e+02 4.6984078716e+02 5.0000000000e+01 0.0000e+00 0.0000e+00
</event>
<event>
 5      1 +5.6267200e-07 2.06445600e+02 7.95774700e-02 4.92428500e-01
       13 -1    0    0    0    0 +0.0000000000e+00 +0.0000000000e+00 +4.9999998884e+02 5.0000000000e+02 1.0566000000e-01 0.0000e+00 -1.0000e+00
      994 -1    0    0    0    0 -0.0000000000e+00 -0.0000000000e+00 +0.0000000000e+00 1.3100000000e+02 1.3100000000e+02 0.0000e+00 0.0000e+00
       13  1    1    2    0    0 -1.3031236296e+01 +3.6440467790e+00 +2.1518358706e+01 2.5419345423e+01 1.0566000000e-01 0.0000e+00 1.0000e+00
      994  1    1    2    0    0 +1.3104950540e+01 +7.5199473216e+00 +7.7784324268e+00 1.3209766594e+02 1.3100000000e+02 0.0000e+00 0.0000e+00
      997  1    1    2    0    0 -7.3714244132e-02 -1.1163994101e+01 +4.7070319770e+02 4.7348298863e+02 5.0000000000e+01 0.0000e+00 0.0000e+00
</event>
<event>
 5      1 +5.6267200e-07 2.09648600e+02 7.95774700e-02 4.87037600e-01
       13 -1    0    0    0    0 +0.0000000000e+00 +0.0000000000e+00 +4.9999998884e+02 5.0000000000e+02 1.0566000000e-01 0.0000e+00 1.0000e+00
      994 -1    0    0    0    0 -0.0000000000e+00 -0.0000000000e+00 +0.0000000000e+00 1.3100000000e+02 1.3100000000e+02 0.0000e+00 0.0000e+00
       13  1    1    2    0    0 -7.5000987299e+00 -9.1886803482e+00 +5.6959607011e+01 5.8181537642e+01 1.0566000000e-01 0.0000e+00 -1.0000e+00
      994  1    1    2    0    0 +6.8376676951e+00 +8.3642241500e+00 +4.5897514787e+00 1.3152482566e+02 1.3100000000e+02 0.0000e+00 0.0000e+00
      997  1    1    2    0    0 +6.6243103476e-01 +8.2445619814e-01 +4.3845063035e+02 4.4129363670e+02 5.0000000000e+01 0.0000e+00 0.0000e+00
</event>
<event>
 5      1 +5.6267200e-07 2.05079700e+02 7.95774700e-02 4.94793000e-01
       13 -1    0    0    0    0 +0.0000000000e+00 +0.0000000000e+00 +4.9999998884e+02 5.0000000000e+02 1.0566000000e-01 0.0000e+00 -1.0000e+00
      994 -1    0    0    0    0 -0.0000000000e+00 -0.0000000000e+00 +0.0000000000e+00 1.3100000000e+02 1.3100000000e+02 0.0000e+00 0.0000e+00
       13  1    1    2    0    0 -3.4492627553e+01 +1.7437955580e+01 +1.4661344264e+02 1.5162234788e+02 1.0566000000e-01 0.0000e+00 1.0000e+00
      994  1    1    2    0    0 +2.9263663656e+01 -1.5808101653e+01 +1.3544433227e+01 1.3583338971e+02 1.3100000000e+02 0.0000e+00 0.0000e+00
      997  1    1    2    0    0 +5.2289638976e+00 -1.6298539273e+00 +3.3984211297e+02 3.4354426241e+02 5.0000000000e+01 0.0000e+00 0.0000e+00
</event>
<event>
 5      1 +5.6267200e-07 2.09337900e+02 7.95774700e-02 4.87551400e-01
       13 -1    0    0    0    0 +0.0000000000e+00 +0.0000000000e+00 +4.9999998884e+02 5.0000000000e+02 1.0566000000e-01 0.0000e+00 -1.0000e+00
      994 -1    0    0    0    0 -0.0000000000e+00 -0.0000000000e+00 +0.0000000000e+00 1.3100000000e+02 1.3100000000e+02 0.0000e+00 0.0000e+00
       13  1    1    2    0    0 +6.5005790743e+00 +1.0439396768e+01 +3.6131932806e+01 3.8167607543e+01 1.0566000000e-01 0.0000e+00 1.0000e+00
      994  1    1    2    0    0 -2.5444594611e+01 -1.9206700010e+01 +9.4051254407e+00 1.3515095673e+02 1.3100000000e+02 0.0000e+00 0.0000e+00
      997  1    1    2    0    0 +1.8944015536e+01 +8.7673032419e+00 +4.5446293059e+02 4.5768143573e+02 5.0000000000e+01 0.0000e+00 0.0000e+00
</event>
<event>
 5      1 +5.6267200e-07 2.09507000e+02 7.95774700e-02 4.87271500e-01
       13 -1    0    0    0    0 +0.0000000000e+00 +0.0000000000e+00 +4.9999998884e+02 5.0000000000e+02 1.0566000000e-01 0.0000e+00 1.0000e+00
      994 -1    0    0    0    0 -0.0000000000e+00 -0.0000000000e+00 +0.0000000000e+00 1.3100000000e+02 1.3100000000e+02 0.0000e+00 0.0000e+00
       13  1    1    2    0    0 +1.2011289842e+01 +4.7992281541e-01 +6.0713397214e+01 6.1892076834e+01 1.0566000000e-01 0.0000e+00 -1.0000e+00
      994  1    1    2    0    0 -5.9444635827e+00 +3.2895596799e+00 +4.3496250659e+00 1.3124815080e+02 1.3100000000e+02 0.0000e+00 0.0000e+00
      997  1    1    2    0    0 -6.0668262595e+00 -3.7694824953e+00 +4.3493696656e+02 4.3785977237e+02 5.0000000000e+01 0.0000e+00 0.0000e+00
</event>
<event>
 5      1 +5.6267200e-07 1.94542000e+02 7.95774700e-02 5.14496400e-01
       13 -1    0    0    0    0 +0.0000000000e+00 +0.0000000000e+00 +4.9999998884e+02 5.0000000000e+02 1.0566000000e-01 0.0000e+00 1.0000e+00
      994 -1    0    0    0    0 -0.0000000000e+00 -0.0000000000e+00 +0.0000000000e+00 1.3100000000e+02 1.3100000000e+02 0.0000e+00 0.0000e+00
       13  1    1    2    0    0 +1.3977435102e+01 -6.4519415927e+00 +1.0929924095e+00 1.5433795346e+01 1.0566000000e-01 0.0000e+00 -1.0000e+00
      994  1    1    2    0    0 -2.8964333835e+01 +2.3214408171e+01 +2.4919874474e+01 1.3841907934e+02 1.3100000000e+02 0.0000e+00 0.0000e+00
      997  1    1    2    0    0 +1.4986898734e+01 -1.6762466578e+01 +4.7398712195e+02 4.7714712532e+02 5.0000000000e+01 0.0000e+00 0.0000e+00
</event>
<event>
 5      1 +5.6267200e-07 1.21698700e+02 7.95774700e-02 8.16870100e-01
       13 -1    0    0    0    0 +0.0000000000e+00 +0.0000000000e+00 +4.9999998884e+02 5.0000000000e+02 1.0566000000e-01 0.0000e+00 -1.0000e+00
      994 -1    0    0    0    0 -0.0000000000e+00 -0.0000000000e+00 +0.0000000000e+00 1.3100000000e+02 1.3100000000e+02 0.0000e+00 0.0000e+00
       13  1    1    2    0    0 -2.6235134270e+01 +3.0691958726e+01 -1.2645124805e+01 4.2310624505e+01 1.0566000000e-01 0.0000e+00 1.0000e+00
      994  1    1    2    0    0 -2.4057384101e+01 +2.4682106316e+01 +1.0542899925e+02 1.7165150155e+02 1.3100000000e+02 0.0000e+00 0.0000e+00
      997  1    1    2    0    0 +5.0292518372e+01 -5.5374065043e+01 +4.0721611439e+02 4.1703787394e+02 5.0000000000e+01 0.0000e+00 0.0000e+00
</event>
<event>
 5      1 +5.6267200e-07 2.00840900e+02 7.95774700e-02 5.02395700e-01
       13 -1    0    0    0    0 +0.0000000000e+00 +0.0000000000e+00 +4.9999998884e+02 5.0000000000e+02 1.0566000000e-01 0.0000e+00 1.0000e+00
      994 -1    0    0    0    0 -0.0000000000e+00 -0.0000000000e+00 +0.0000000000e+00 1.3100000000e+02 1.3100000000e+02 0.0000e+00 0.0000e+00
       13  1    1    2    0    0 -1.8263131655e+01 -6.0673154269e+00 +1.3652990663e+01 2.3595966020e+01 1.0566000000e-01 0.0000e+00 -1.0000e+00
      994  1    1    2    0    0 +4.1555961040e+01 +2.9505691485e+01 +2.5725068040e+01 1.4289948514e+02 1.3100000000e+02 0.0000e+00 0.0000e+00
      997  1    1    2    0    0 -2.3292829385e+01 -2.3438376058e+01 +4.6062193013e+02 4.6450454884e+02 5.0000000000e+01 0.0000e+00 0.0000e+00
</event>
<event>
 5      1 +5.6267200e-07 2.07277700e+02 7.95774700e-02 4.91007700e-01
       13 -1    0    0    0    0 +0.0000000000e+00 +0.0000000000e+00 +4.9999998884e+02 5.0000000000e+02 1.0566000000e-01 0.0000e+00 -1.0000e+00
      994 -1    0    0    0    0 -0.0000000000e+00 -0.0000000000e+00 +0.0000000000e+00 1.3100000000e+02 1.3100000000e+02 0.0000e+00 0.0000e+00
       13  1    1    2    0    0 -2.5900880046e+01 -2.6922301340e+00 +7.2368814802e+01 7.6911378938e+01 1.0566000000e-01 0.0000e+00 1.0000e+00
      994  1    1    2    0    0 +4.7784900073e+01 -1.1312944016e+01 +1.8527655855e+01 1.4112283093e+02 1.3100000000e+02 0.0000e+00 0.0000e+00
      997  1    1    2    0    0 -2.1884020028e+01 +1.4005174150e+01 +4.0910351818e+02 4.1296579014e+02 5.0000000000e+01 0.0000e+00 0.0000e+00
</event>
<event>
 5      1 +5.6267200e-07 2.07889800e+02 7.95774700e-02 4.89971700e-01
       13 -1    0    0    0    0 +0.0000000000e+00 +0.0000000000e+00 +4.9999998884e+02 5.0000000000e+02 1.0566000000e-01 0.0000e+00 -1.0000e+00
      994 -1    0    0    0    0 -0.0000000000e+00 -0.0000000000e+00 +0.0000000000e+00 1.3100000000e+02 1.3100000000e+02 0.0000e+00 0.0000e+00
       13  1    1    2    0    0 -1.7202239357e+01 -1.0033910640e+00 -8.9795910084e+00 1.9431110396e+01 1.0566000000e-01 0.0000e+00 1.0000e+00
      994  1    1    2    0    0 +2.4254207448e+01 -1.3511648420e+01 +4.0142617068e+01 1.3979721359e+02 1.3100000000e+02 0.0000e+00 0.0000e+00
      997  1    1    2    0    0 -7.0519680916e+00 +1.4515039484e+01 +4.6883696278e+02 4.7177167602e+02 5.0000000000e+01 0.0000e+00 0.0000e+00
</event>
<event>
 5      1 +5.6267200e-07 1.50923000e+02 7.95774700e-02 6.39908000e-01
       13 -1    0    0    0    0 +0.0000000000e+00 +0.0000000000e+00 +4.9999998884e+02 5.0000000000e+02 1.0566000000e-01 0.0000e+00 1.0000e+00
      994 -1    0    0    0    0 -0.0000000000e+00 -0.0000000000e+00 +0.0000000000e+00 1.3100000000e+02 1.3100000000e+02 0.0000e+00 0.0000e+00
       13  1    1    2    0    0 +3.8127614665e+01 -6.8958897647e+01 +7.7353452708e+01 1.1042016290e+02 1.0566000000e-01 0.0000e+00 -1.0000e+00
      994  1    1    2    0    0 -6.1727233267e+01 +2.9601857860e+01 +7.3829674075e+01 1.6522209928e+02 1.3100000000e+02 0.0000e+00 0.0000e+00
      997  1    1    2    0    0 +2.3599618602e+01 +3.9357039786e+01 +3.4881686205e+02 3.5535773782e+02 5.0000000000e+01 0.0000e+00 0.0000e+00
</event>
<event>
 5      1 +5.6267200e-07 2.07983500e+02 7.95774700e-02 4.89813800e-01
       13 -1    0    0    0    0 +0.0000000000e+00 +0.0000000000e+00 +4.9999998884e+02 5.0000000000e+02 1.0566000000e-01 0.0000e+00 -1.0000e+00
      994 -1    0    0    0    0 -0.0000000000e+00 -0.0000000000e+00 +0.0000000000e+00 1.3100000000e+02 1.3100000000e+02 0.0000e+00 0.0000e+00
       13  1    1    2    0    0 -2.2068262625e+01 +2.7522313404e+00 +9.5603073976e+01 9.8155702383e+01 1.0566000000e-01 0.0000e+00 1.0000e+00
      994  1    1    2    0    0 +2.0068044008e+01 -2.2294520308e+01 +9.9523771334e+00 1.3475838318e+02 1.3100000000e+02 0.0000e+00 0.0000e+00
      997  1    1    2    0    0 +2.0002186166e+00 +1.9542288967e+01 +3.9444453773e+02 3.9808591444e+02 5.0000000000e+01 0.0000e+00 0.0000e+00
</event>
<event>
 5      1 +5.6267200e-07 2.01710100e+02 7.95774700e-02 5.00803000e-01
       13 -1    0    0    0    0 +0.0000000000e+00 +0.0000000000e+00 +4.9999998884e+02 5.0000000000e+02 1.0566000000e-01 0.0000e+00 1.0000e+00
      994 -1    0    0    0    0 -0.0000000000e+00 -0.0000000000e+00 +0.0000000000e+00 1.3100000000e+02 1.3100000000e+02 0.0000e+00 0.0000e+00
       13  1    1    2    0    0 +3.0848199867e+01 -4.8180404218e+00 +5.9289186390e+01 6.7007788618e+01 1.0566000000e-01 0.0000e+00 -1.0000e+00
      994  1    1    2    0    0 -2.8892524522e+01 -2.9969224494e+01 +2.0014438229e+01 1.3890468001e+02 1.3100000000e+02 0.0000e+00 0.0000e+00
      997  1    1    2    0    0 -1.9556753448e+00 +3.4787264916e+01 +4.2069636422e+02 4.2508753138e+02 5.0000000000e+01 0.0000e+00 0.0000e+00
</event>
<event>
 5      1 +5.6267200e-07 2.02610900e+02 7.95774700e-02 4.99171100e-01
       13 -1    0    0    0    0 +0.0000000000e+00 +0.0000000000e+00 +4.9999998884e+02 5.0000000000e+02 1.0566000000e-01 0.0000e+00 -1.0000e+00
      994 -1    0    0    0    0 -0.0000000000e+00 -0.0000000000e+00 +0.0000000000e+00 1.3100000000e+02 1.3100000000e+02 0.0000e+00 0.0000e+00
       13  1    1    2    0    0 -1.7511120890e+01 -8.5460289722e-01 -5.8346375651e+00 1.8477658415e+01 1.0566000000e-01 0.0000e+00 1.0000e+00
      994  1    1    2    0    0 +3.1388018710e+01 +5.2060197192e+00 +3.5622264496e+01 1.3943549078e+02 1.3100000000e+02 0.0000e+00 0.0000e+00
      997  1    1    2    0    0 -1.3876897820e+01 -4.3514168220e+00 +4.7021236190e+02 4.7308685081e+02 5.0000000000e+01 0.0000e+00 0.0000e+00
</event>
<event>
 5      1 +5.6267200e-07 2.09467800e+02 7.95774700e-02 4.87336400e-01
       13 -1    0    0    0    0 +0.0000000000e+00 +0.0000000000e+00 +4.9999998884e+02 5.0000000000e+02 1.0566000000e-01 0.0000e+00 1.0000e+00
      994 -1    0    0    0    0 -0.0000000000e+00 -0.0000000000e+00 +0.0000000000e+00 1.3100000000e+02 1.3100000000e+02 0.0000e+00 0.0000e+00
       13  1    1    2    0    0 +1.2392982516e+01 +2.6375989400e+00 +6.6537732923e+01 6.7733477767e+01 1.0566000000e-01 0.0000e+00 -1.0000e+00
      994  1    1    2    0    0 -7.8332441246e+00 +2.4751320482e+00 +4.4882027024e+00 1.3133403959e+02 1.3100000000e+02 0.0000e+00 0.0000e+00
      997  1    1    2    0    0 -4.5597383913e+00 -5.1127309882e+00 +4.2897405321e+02 4.3193248264e+02 5.0000000000e+01 0.0000e+00 0.0000e+00
</event>
<event>
 5      1 +5.6267200e-07 2.08718600e+02 7.95774700e-02 4.88581200e-01
       13 -1    0    0    0    0 +0.0000000000e+00 +0.0000000000e+00 +4.9999998884e+02 5.0000000000e+02 1.0566000000e-01 0.0000e+00 1.0000e+00
      994 -1    0    0    0    0 -0.0000000000e+00 -0.0000000000e+00 +0.0000000000e+00 1.3100000000e+02 1.3100000000e+02 0.0000e+00 0.0000e+00
       13  1    1    2    0    0 +7.7791394248e+00 +8.4817526194e+00 +3.6655207497e+01 3.8419663434e+01 1.0566000000e-01 0.0000e+00 -1.0000e+00
      994  1    1    2    0    0 +1.1524324614e+01 -9.1809049124e+00 +5.8495233972e+00 1.3195573499e+02 1.3100000000e+02 0.0000e+00 0.0000e+00
      997  1    1    2    0    0 -1.9303464039e+01 +6.9915229300e-01 +4.5749525794e+02 4.6062460158e+02 5.0000000000e+01 0.0000e+00 0.0000e+00
</event>
<event>
 5      1 +5.6267200e-07 2.02942500e+02 7.95774700e-02 4.98575000e-01
       13 -1    0    0    0    0 +0.0000000000e+00 +0.0000000000e+00 +4.9999998884e+02 5.0000000000e+02 1.0566000000e-01 0.0000e+00 -1.0000e+00
      994 -1    0    0    0    0 -0.0000000000e+00 -0.0000000000e+00 +0.0000000000e+00 1.3100000000e+02 1.3100000000e+02 0.0000e+00 0.0000e+00
       13  1    1    2    0    0 -3.5781234593e+01 -4.9114179729e+00 +1.1745392471e+02 1.2288146471e+02 1.0566000000e-01 0.0000e+00 1.0000e+00
      994  1    1    2    0    0 +1.7295987776e+01 -1.4258730887e+01 +1.2197679566e+01 1.3346252653e+02 1.3100000000e+02 0.0000e+00 0.0000e+00
      997  1    1    2    0    0 +1.8485246817e+01 +1.9170148860e+01 +3.7034838456e+02 3.7465600876e+02 5.0000000000e+01 0.0000e+00 0.0000e+00
</event>
<event>
 5      1 +5.6267200e-07 2.04403900e+02 7.95774700e-02 4.95978100e-01
       13 -1    0    0    0    0 +0.0000000000e+00 +0.0000000000e+00 +4.9999998884e+02 5.0000000000e+02 1.0566000000e-01 0.0000e+00 1.0000e+00
      994 -1    0    0    0    0 -0.0000000000e+00 -0.0000000000e+00 +0.0000000000e+00 1.3100000000e+02 1.3100000000e+02 0.0000e+00 0.0000e+00
       13  1    1    2    0    0 -2.2028239727e+01 +2.0824022207e+01 +1.2606028875e+02 1.2965373427e+02 1.0566000000e-01 0.0000e+00 -1.0000e+00
      994  1    1    2    0    0 -1.1705856513e+01 -1.8950260500e+01 +1.0901139989e+01 1.3332657013e+02 1.3100000000e+02 0.0000e+00 0.0000e+00
      997  1    1    2    0    0 +3.3734096240e+01 -1.8737617076e+00 +3.6303856009e+02 3.6801969560e+02 5.0000000000e+01 0.0000e+00 0.0000e+00
</event>
<event>
 5      1 +5.6267200e-07 1.97443300e+02 7.95774700e-02 5.08797100e-01
       13 -1    0    0    0    0 +0.0000000000e+00 +0.0000000000e+00 +4.9999998884e+02 5.0000000000e+02 1.0566000000e-01 0.0000e+00 1.0000e+00
      994 -1    0    0    0    0 -0.0000000000e+00 -0.0000000000e+00 +0.0000000000e+00 1.3100000000e+02 1.3100000000e+02 0.0000e+00 0.0000e+00
       13  1    1    2    0    0 +1.4611838068e+01 +5.5522177229e+01 +2.0772820857e+02 2.1551621233e+02 1.0566000000e-01 0.0000e+00 -1.0000e+00
      994  1    1    2    0    0 -3.4662083467e+01 -2.0083833685e+01 +2.3380839327e+01 1.3896936372e+02 1.3100000000e+02 0.0000e+00 0.0000e+00
      997  1    1    2    0    0 +2.0050245399e+01 -3.5438343544e+01 +2.6889094094e+02 2.7651442395e+02 5.0000000000e+01 0.0000e+00 0.0000e+00
</event>
<event>
 5      1 +5.6267200e-07 1.96152500e+02 7.95774700e-02 5.11305300e-01
       13 -1    0    0    0    0 +0.0000000000e+00 +0.0000000000e+00 +4.9999998884e+02 5.0000000000e+02 1.0566000000e-01 0.0000e+00 -1.0000e+00
      994 -1    0    0    0    0 -0.0000000000e+00 -0.0000000000e+00 +0.0000000000e+00 1.3100000000e+02 1.3100000000e+02 0.0000e+00 0.0000e+00
       13  1    1    2    0    0 -5.2740777572e+01 -1.3292087856e+01 +2.1077455551e+02 2.1767910702e+02 1.0566000000e-01 0.0000e+00 1.0000e+00
      994  1    1    2    0    0 -1.5720196496e+01 -7.0555052625e+00 +2.4203273123e+01 1.3432685198e+02 1.3100000000e+02 0.0000e+00 0.0000e+00
      997  1    1    2    0    0 +6.8460974068e+01 +2.0347593119e+01 +2.6502216020e+02 2.7899404100e+02 5.0000000000e+01 0.0000e+00 0.0000e+00
</event>
<event>
 5      1 +5.6267200e-07 2.03074200e+02 7.95774700e-02 4.98339100e-01
       13 -1    0    0    0    0 +0.0000000000e+00 +0.0000000000e+00 +4.9999998884e+02 5.0000000000e+02 1.0566000000e-01 0.0000e+00 -1.0000e+00
      994 -1    0    0    0    0 -0.0000000000e+00 -0.0000000000e+00 +0.0000000000e+00 1.3100000000e+02 1.3100000000e+02 0.0000e+00 0.0000e+00
       13  1    1    2    0    0 +2.6727335224e+01 -1.7173546266e+01 +9.1172924264e+01 9.6549440301e+01 1.0566000000e-01 0.0000e+00 1.0000e+00
      994  1    1    2    0    0 -1.8735565142e+00 +1.3646138112e+01 +1.0419254131e+01 1.3213359965e+02 1.3100000000e+02 0.0000e+00 0.0000e+00
      997  1    1    2    0    0 -2.4853778710e+01 +3.5274081545e+00 +3.9840781044e+02 4.0231696005e+02 5.0000000000e+01 0.0000e+00 0.0000e+00
</event>
<event>
 5      1 +5.6267200e-07 2.10085100e+02 7.95774700e-02 4.86319000e-01
       13 -1    0    0    0    0 +0.0000000000e+00 +0.0000000000e+00 +4.9999998884e+02 5.0000000000e+02 1.0566000000e-01 0.0000e+00 -1.0000e+00
      994 -1    0    0    0    0 -0.0000000000e+00 -0.0000000000e+00 +0.0000000000e+00 1.3100000000e+02 1.3100000000e+02 0.0000e+00 0.0000e+00
       13  1    1    2    0    0 -1.2551526195e+01 -1.3678699775e-01 +6.7190038190e+01 6.8352556035e+01 1.0566000000e-01 0.0000e+00 1.0000e+00
      994  1    1    2    0    0 +2.5587714373e+01 +4.2972668046e+00 +7.0366238897e+00 1.3372999553e+02 1.3100000000e+02 0.0000e+00 0.0000e+00
      997  1    1    2    0    0 -1.3036188179e+01 -4.1604798068e+00 +4.2577332676e+02 4.2891744843e+02 5.0000000000e+01 0.0000e+00 0.0000e+00
</event>
<event>
 5      1 +5.6267200e-07 2.06100300e+02 7.95774700e-02 4.93022600e-01
       13 -1    0    0    0    0 +0.0000000000e+00 +0.0000000000e+00 +4.9999998884e+02 5.0000000000e+02 1.0566000000e-01 0.0000e+00 -1.0000e+00
      994 -1    0    0    0    0 -0.0000000000e+00 -0.0000000000e+00 +0.0000000000e+00 1.3100000000e+02 1.3100000000e+02 0.0000e+00 0.0000e+00
       13  1    1    2    0    0 -1.3740977989e+01 +6.6620009317e+00 +2.8215227918e+01 3.2082814450e+01 1.0566000000e-01 0.0000e+00 1.0000e+00
      994  1    1    2    0    0 -5.2282906220e-01 -7.6263331060e+00 +7.1885804794e+00 1.3141959518e+02 1.3100000000e+02 0.0000e+00 0.0000e+00
      997  1    1    2    0    0 +1.4263807051e+01 +9.6433217423e-01 +4.6459618044e+02 4.6749759037e+02 5.0000000000e+01 0.0000e+00 0.0000e+00
</event>
<event>
 5      1 +5.6267200e-07 2.08244700e+02 7.95774700e-02 4.89374400e-01
       13 -1    0    0    0    0 +0.0000000000e+00 +0.0000000000e+00 +4.9999998884e+02 5.0000000000e+02 1.0566000000e-01 0.0000e+00 1.0000e+00
      994 -1    0    0    0    0 -0.0000000000e+00 -0.0000000000e+00 +0.0000000000e+00 1.3100000000e+02 1.3100000000e+02 0.0000e+00 0.0000e+00
       13  1    1    2    0    0 +2.1148983816e+01 -1.2419265685e+01 +1.4352758200e+02 1.4560802051e+02 1.0566000000e-01 0.0000e+00 -1.0000e+00
      994  1    1    2    0    0 -2.0304173550e+01 +6.8999906626e+01 +3.2767999759e+01 1.5299669404e+02 1.3100000000e+02 0.0000e+00 0.0000e+00
      997  1    1    2    0    0 -8.4481026603e-01 -5.6580640942e+01 +3.2370440707e+02 3.3239528545e+02 5.0000000000e+01 0.0000e+00 0.0000e+00
</event>
<event>
 5      1 +5.6267200e-07 2.09152100e+02 7.95774700e-02 4.87859500e-01
       13 -1    0    0    0    0 +0.0000000000e+00 +0.0000000000e+00 +4.9999998884e+02 5.0000000000e+02 1.0566000000e-01 0.0000e+00 -1.0000e+00
      994 -1    0    0    0    0 -0.0000000000e+00 -0.0000000000e+00 +0.0000000000e+00 1.3100000000e+02 1.3100000000e+02 0.0000e+00 0.0000e+00
       13  1    1    2    0    0 -7.3538861031e+00 -9.6648892272e+00 +3.8475073420e+01 4.0346402111e+01 1.0566000000e-01 0.0000e+00 1.0000e+00
      994  1    1    2    0    0 +2.3890997419e+01 +4.2335197560e+00 +7.3790955316e+00 1.3343220563e+02 1.3100000000e+02 0.0000e+00 0.0000e+00
      997  1    1    2    0    0 -1.6537111316e+01 +5.4313694712e+00 +4.5414581988e+02 4.5722139226e+02 5.0000000000e+01 0.0000e+00 0.0000e+00
</event>
<event>
 5      1 +5.6267200e-07 2.03728000e+02 7.95774700e-02 4.97173100e-01
       13 -1    0    0    0    0 +0.0000000000e+00 +0.0000000000e+00 +4.9999998884e+02 5.0000000000e+02 1.0566000000e-01 0.0000e+00 1.0000e+00
      994 -1    0    0    0    0 -0.0000000000e+00 -0.0000000000e+00 +0.0000000000e+00 1.3100000000e+02 1.3100000000e+02 0.0000e+00 0.0000e+00
       13  1    1    2    0    0 -1.9504561417e+01 -1.0925951414e+01 -2.1271280899e+00 2.2457519193e+01 1.0566000000e-01 0.0000e+00 -1.0000e+00
      994  1    1    2    0    0 +2.0927902375e+01 +1.5366702381e+00 +3.3066195760e+01 1.3672860621e+02 1.3100000000e+02 0.0000e+00 0.0000e+00
      997  1    1    2    0    0 -1.4233409581e+00 +9.3892811755e+00 +4.6906092117e+02 4.7181387460e+02 5.0000000000e+01 0.0000e+00 0.0000e+00
</event>
<event>
 5      1 +5.6267200e-07 2.01228400e+02 7.95774700e-02 5.01683500e-01
       13 -1    0    0    0    0 +0.0000000000e+00 +0.0000000000e+00 +4.9999998884e+02 5.0000000000e+02 1.0566000000e-01 0.0000e+00 -1.0000e+00
      994 -1    0    0    0    0 -0.0000000000e+00 -0.0000000000e+00 +0.0000000000e+00 1.3100000000e+02 1.3100000000e+02 0.0000e+00 0.0000e+00
       13  1    1    2    0    0 +9.3877214641e+00 -2.9472163963e+01 +6.5678896145e+01 7.2597977423e+01 1.0566000000e-01 0.0000e+00 1.0000e+00
      994  1    1    2    0    0 +4.0058650254e+00 +7.9477215164e+00 +1.1415806001e+01 1.3179732114e+02 1.3100000000e+02 0.0000e+00 0.0000e+00
      997  1    1    2    0    0 -1.3393586489e+01 +2.1524442447e+01 +4.2290528669e+02 4.2660470144e+02 5.0000000000e+01 0.0000e+00 0.0000e+00
</event>
<event>
 5      1 +5.6267200e-07 2.05380200e+02 7.95774700e-02 4.94269500e-01
       13 -1    0    0    0    0 +0.0000000000e+00 +0.0000000000e+00 +4.9999998884e+02 5.0000000000e+02 1.0566000000e-01 0.0000e+00 -1.0000e+00
      994 -1    0    0    0    0 -0.0000000000e+00 -0.0000000000e+00 +0.0000000000e+00 1.3100000000e+02 1.3100000000e+02 0.0000e+00 0.0000e+00
       13  1    1    2    0    0 -2.2645399491e+01 +6.8570011129e+00 +5.6218380218e+01 6.0994672069e+01 1.0566000000e-01 0.0000e+00 1.0000e+00
      994  1    1    2    0    0 +1.5257243063e+01 -1.6715673094e+01 +1.0150769829e+01 1.3332754899e+02 1.3100000000e+02 0.0000e+00 0.0000e+00
      997  1    1    2    0    0 +7.3881564282e+00 +9.8586719807e+00 +4.3363083879e+02 4.3667777894e+02 5.0000000000e+01 0.0000e+00 0.0000e+00
</event>
<event>
 5      1 +5.6267200e-07 1.93898400e+02 7.95774700e-02 5.15791200e-01
       13 -1    0    0    0    0 +0.0000000000e+00 +0.0000000000e+00 +4.9999998884e+02 5.0000000000e+02 1.0566000000e-01 0.0000e+00 1.0000e+00
      994 -1    0    0    0    0 -0.0000000000e+00 -0.0000000000e+00 +0.0000000000e+00 1.3100000000e+02 1.3100000000e+02 0.0000e+00 0.0000e+00
       13  1    1    2    0    0 +1.2360385038e+01 +9.2162283273e+00 +8.2765369209e-01 1.5440665709e+01 1.0566000000e-01 0.0000e+00 -1.0000e+00
      994  1    1    2    0    0 -1.1745914625e+01 -3.2702515644e+01 +2.4553749522e+01 1.3773637013e+02 1.3100000000e+02 0.0000e+00 0.0000e+00
      997  1    1    2    0    0 -6.1447041238e-01 +2.3486287317e+01 +4.7461858562e+02 4.7782296417e+02 5.0000000000e+01 0.0000e+00 0.0000e+00
</event>
<event>
 5      1 +5.6267200e-07 2.06177000e+02 7.95774700e-02 4.92890400e-01
       13 -1    0    0    0    0 +0.0000000000e+00 +0.0000000000e+00 +4.9999998884e+02 5.0000000000e+02 1.0566000000e-01 0.0000e+00 1.0000e+00
      994 -1    0    0    0    0 -0.0000000000e+00 -0.0000000000e+00 +0.0000000000e+00 1.3100000000e+02 1.3100000000e+02 0.0000e+00 0.0000e+00
       13  1    1    2    0    0 +1.2448167754e+01 +1.5000388442e+01 +5.2255582787e+01 5.5772982979e+01 1.0566000000e-01 0.0000e+00 -1.0000e+00
      994  1    1    2    0    0 +3.5286072958e+00 -6.7816359750e+00 +7.1252280480e+00 1.3141617302e+02 1.3100000000e+02 0.0000e+00 0.0000e+00
      997  1    1    2    0    0 -1.5976775050e+01 -8.2187524671e+00 +4.4061917800e+02 4.4381084400e+02 5.0000000000e+01 0.0000e+00 0.0000e+00
</event>
<event>
 5      1 +5.6267200e-07 2.01041400e+02 7.95774700e-02 5.02026700e-01
       13 -1    0    0    0    0 +0.0000000000e+00 +0.0000000000e+00 +4.9999998884e+02 5.0000000000e+02 1.0566000000e-01 0.0000e+00 -1.0000e+00
      994 -1    0    0    0    0 -0.0000000000e+00 -0.0000000000e+00 +0.0000000000e+00 1.3100000000e+02 1.3100000000e+02 0.0000e+00 0.0000e+00
       13  1    1    2    0    0 +2.2772945643e+01 -2.8630818061e+01 +7.9259707805e+01 8.7295150160e+01 1.0566000000e-01 0.0000e+00 1.0000e+00
      994  1    1    2    0    0 -2.6019286180e+01 +9.8940627534e+00 +1.5351615161e+01 1.3480195777e+02 1.3100000000e+02 0.0000e+00 0.0000e+00
      997  1    1    2    0    0 +3.2463405371e+00 +1.8736755307e+01 +4.0538866587e+02 4.0890289207e+02 5.0000000000e+01 0.0000e+00 0.0000e+00
</event>
<event>
 5      1 +5.6267200e-07 2.01614500e+02 7.95774700e-02 5.00977300e-01
       13 -1    0    0    0    0 +0.0000000000e+00 +0.0000000000e+00 +4.9999998884e+02 5.0000000000e+02 1.0566000000e-01 0.0000e+00 1.0000e+00
      994 -1    0    0    0    0 -0.0000000000e+00 -0.0000000000e+00 +0.0000000000e+00 1.3100000000e+02 1.3100000000e+02 0.0000e+00 0.0000e+00
       13  1    1    2    0    0 -3.0047623482e+01 -7.0591708098e+01 +2.3029481448e+02 2.4273805155e+02 1.0566000000e-01 0.0000e+00 -1.0000e+00
      994  1    1    2    0    0 +5.2443214473e+00 +9.3243496038e+01 +6.2694481631e+01 1.7266571891e+02 1.3100000000e+02 0.0000e+00 0.0000e+00
      997  1    1    2    0    0 +2.4803302034e+01 -2.2651787940e+01 +2.0701069272e+02 2.1559622954e+02 5.0000000000e+01 0.0000e+00 0.0000e+00
</event>
<event>
 5      1 +5.6267200e-07 2.10477700e+02 7.95774700e-02 4.85676000e-01
       13 -1    0    0    0    0 +0.0000000000e+00 +0.0000000000e+00 +4.9999998884e+02 5.0000000000e+02 1.0566000000e-01 0.0000e+00 1.0000e+00
      994 -1    0    0    0    0 -0.0000000000e+00 -0.0000000000e+00 +0.0000000000e+00 1.3100000000e+02 1.3100000000e+02 0.0000e+00 0.0000e+00
       13  1    1    2    0    0 -4.1281548136e+00 +1.4458612813e+01 +7.7259886393e+01 7.8709556955e+01 1.0566000000e-01 0.0000e+00 -1.0000e+00
      994  1    1    2    0    0 +2.7526379853e+01 -4.9648382511e+01 +1.9883551930e+01 1.4414929452e+02 1.3100000000e+02 0.0000e+00 0.0000e+00
      997  1    1    2    0    0 -2.3398225039e+01 +3.5189769698e+01 +4.0285655051e+02 4.0814114852e+02 5.0000000000e+01 0.0000e+00 0.0000e+00
</event>
<event>
 5      1 +5.6267200e-07 2.00085400e+02 7.95774700e-02 5.03794600e-01
       13 -1    0    0    0    0 +0.0000000000e+00 +0.0000000000e+00 +4.9999998884e+02 5.0000000000e+02 1.0566000000e-01 0.0000e+00 1.0000e+00
      994 -1    0    0    0    0 -0.0000000000e+00 -0.0000000000e+00 +0.0000000000e+00 1.3100000000e+02 1.3100000000e+02 0.0000e+00 0.0000e+00
       13  1    1    2    0    0 +2.1351883811e+01 -5.3643692462e+01 +4.1971512660e+01 7.1380443556e+01 1.0566000000e-01 0.0000e+00 -1.0000e+00
      994  1    1    2    0    0 -1.5917005488e+01 +8.0547391356e+01 +7.4040238353e+01 1.7141817352e+02 1.3100000000e+02 0.0000e+00 0.0000e+00
      997  1    1    2    0    0 -5.4348783234e+00 -2.6903698894e+01 +3.8398823782e+02 3.8820138292e+02 5.0000000000e+01 0.0000e+00 0.0000e+00
</event>
<event>
 5      1 +5.6267200e-07 2.05674500e+02 7.95774700e-02 4.93758500e-01
       13 -1    0    0    0    0 +0.0000000000e+00 +0.0000000000e+00 +4.9999998884e+02 5.0000000000e+02 1.0566000000e-01 0.0000e+00 -1.0000e+00
      994 -1    0    0    0    0 -0.0000000000e+00 -0.0000000000e+00 +0.0000000000e+00 1.3100000000e+02 1.3100000000e+02 0.0000e+00 0.0000e+00
       13  1    1    2    0    0 +4.3257935136e+01 -1.1681282169e+01 +1.2740717586e+02 1.3505665822e+02 1.0566000000e-01 0.0000e+00 1.0000e+00
      994  1    1    2    0    0 -6.3738021891e+01 +1.7169121006e+01 +3.0834785955e+01 1.4989695853e+02 1.3100000000e+02 0.0000e+00 0.0000e+00
      997  1    1    2    0    0 +2.0480086754e+01 -5.4878388376e+00 +3.4175802702e+02 3.4604638325e+02 5.0000000000e+01 0.0000e+00 0.0000e+00
</event>
<event>
 5      1 +5.6267200e-07 2.02223400e+02 7.95774700e-02 4.99870800e-01
       13 -1    0    0    0    0 +0.0000000000e+00 +0.0000000000e+00 +4.9999998884e+02 5.0000000000e+02 1.0566000000e-01 0.0000e+00 -1.0000e+00
      994 -1    0    0    0    0 -0.0000000000e+00 -0.0000000000e+00 +0.0000000000e+00 1.3100000000e+02 1.3100000000e+02 0.0000e+00 0.0000e+00
       13  1    1    2    0    0 -1.4759898194e+00 +1.1046353779e+01 +4.9644123195e+00 1.2200697991e+01 1.0566000000e-01 0.0000e+00 1.0000e+00
      994  1    1    2    0    0 +2.3339980705e+01 -3.9234049642e+00 +1.3135967745e+01 1.3376734076e+02 1.3100000000e+02 0.0000e+00 0.0000e+00
      997  1    1    2    0    0 -2.1863990886e+01 -7.1229488150e+00 +4.8189960877e+02 4.8503196125e+02 5.0000000000e+01 0.0000e+00 0.0000e+00
</event>
<event>
 5      1 +5.6267200e-07 2.06348500e+02 7.95774700e-02 4.92595300e-01
       13 -1    0    0    0    0 +0.0000000000e+00 +0.0000000000e+00 +4.9999998884e+02 5.0000000000e+02 1.0566000000e-01 0.0000e+00 1.0000e+00
      994 -1    0    0    0    0 -0.0000000000e+00 -0.0000000000e+00 +0.0000000000e+00 1.3100000000e+02 1.3100000000e+02 0.0000e+00 0.0000e+00
       13  1    1    2    0    0 +1.9043716532e+00 -1.1381194431e+01 +1.2757163946e+01 1.7202168877e+01 1.0566000000e-01 0.0000e+00 -1.0000e+00
      994  1    1    2    0    0 -1.7083622519e-01 +2.7853153622e+01 +1.0702451647e+01 1.3435538628e+02 1.3100000000e+02 0.0000e+00 0.0000e+00
      997  1    1    2    0    0 -1.7335354280e+00 -1.6471959190e+01 +4.7654037324e+02 4.7944244484e+02 5.0000000000e+01 0.0000e+00 0.0000e+00
</event>
<event>
 5      1 +5.6267200e-07 1.98878500e+02 7.95774700e-02 5.06058100e-01
       13 -1    0    0    0    0 +0.0000000000e+00 +0.0000000000e+00 +4.9999998884e+02 5.0000000000e+02 1.0566000000e-01 0.0000e+00 -1.0000e+00
      994 -1    0    0    0    0 -0.0000000000e+00 -0.0000000000e+00 +0.0000000000e+00 1.3100000000e+02 1.3100000000e+02 0.0000e+00 0.0000e+00
       13  1    1    2    0    0 +3.1824235800e+01 +1.0265743786e+01 +4.3684701550e+01 5.5013923631e+01 1.0566000000e-01 0.0000e+00 1.0000e+00
      994  1    1    2    0    0 -3.6023147838e+01 -1.8856882112e+01 +2.2264459645e+01 1.3896026535e+02 1.3100000000e+02 0.0000e+00 0.0000e+00
      997  1    1    2    0    0 +4.1989120378e+00 +8.5911383263e+00 +4.3405082764e+02 4.3702581102e+02 5.0000000000e+01 0.0000e+00 0.0000e+00
</event>
<event>
 5      1 +5.6267200e-07 2.06142500e+02 7.95774700e-02 4.92949800e-01
       13 -1    0    0    0    0 +0.0000000000e+00 +0.0000000000e+00 +4.9999998884e+02 5.0000000000e+02 1.0566000000e-01 0.0000e+00 1.0000e+00
      994 -1    0    0    0    0 -0.0000000000e+00 -0.0000000000e+00 +0.0000000000e+00 1.3100000000e+02 1.3100000000e+02 0.0000e+00 0.0000e+00
       13  1    1    2    0    0 +2.4273721592e+01 -1.5776945880e+01 +1.0864142218e+02 1.1243262586e+02 1.0566000000e-01 0.0000e+00 -1.0000e+00
      994  1    1    2    0    0 -1.5288099286e+01 +1.4632381591e+01 +9.1690430923e+00 1.3301467559e+02 1.3100000000e+02 0.0000e+00 0.0000e+00
      997  1    1    2    0    0 -8.9856223059e+00 +1.1445642887e+00 +3.8218952356e+02 3.8555269855e+02 5.0000000000e+01 0.0000e+00 0.0000e+00
</event>
<event>
 5      1 +5.6267200e-07 2.07975400e+02 7.95774700e-02 4.89827300e-01
       13 -1    0    0    0    0 +0.0000000000e+00 +0.0000000000e+00 +4.9999998884e+02 5.0000000000e+02 1.0566000000e-01 0.0000e+00 1.0000e+00
      994 -1    0    0    0    0 -0.0000000000e+00 -0.0000000000e+00 +0.0000000000e+00 1.3100000000e+02 1.3100000000e+02 0.0000e+00 0.0000e+00
       13  1    1    2    0    0 -1.5571288875e+01 +9.6718502664e+00 +7.6214349114e+01 7.8387804535e+01 1.0566000000e-01 0.0000e+00 -1.0000e+00
      994  1    1    2    0    0 +2.0005519455e+00 -1.0979211945e+01 +5.9861975712e+00 1.3161071333e+02 1.3100000000e+02 0.0000e+00 0.0000e+00
      997  1    1    2    0    0 +1.3570736929e+01 +1.3073616783e+00 +4.1779944215e+02 4.2100148213e+02 5.0000000000e+01 0.0000e+00 0.0000e+00
</event>
<event>
 5      1 +5.6267200e-07 2.00083300e+02 7.95774700e-02 5.03798600e-01
       13 -1    0    0    0    0 +0.0000000000e+00 +0.0000000000e+00 +4.9999998884e+02 5.0000000000e+02 1.0566000000e-01 0.0000e+00 1.0000e+00
      994 -1    0    0    0    0 -0.0000000000e+00 -0.0000000000e+00 +0.0000000000e+00 1.3100000000e+02 1.3100000000e+02 0.0000e+00 0.0000e+00
       13  1    1    2    0    0 +7.1275611017e+00 -4.6491346813e+01 +3.4780448705e+01 5.8497335255e+01 1.0566000000e-01 0.0000e+00 -1.0000e+00
      994  1    1    2    0    0 -1.6560035743e+00 +4.6857906309e+01 +4.0636865477e+01 1.4495089019e+02 1.3100000000e+02 0.0000e+00 0.0000e+00
      997  1    1    2    0    0 -5.4715575274e+00 -3.6655949567e-01 +4.2458267465e+02 4.2755177455e+02 5.0000000000e+01 0.0000e+00 0.0000e+00
</event>
<event>
 5      1 +5.6267200e-07 2.03570500e+02 7.95774700e-02 4.97453200e-01
       13 -1    0    0    0    0 +0.0000000000e+00 +0.0000000000e+00 +4.9999998884e+02 5.0000000000e+02 1.0566000000e-01 0.0000e+00 -1.0000e+00
      994 -1    0    0    0    0 -0.0000000000e+00 -0.0000000000e+00 +0.0000000000e+00 1.3100000000e+02 1.3100000000e+02 0.0000e+00 0.0000e+00
       13  1    1    2    0    0 +1.3880360675e+01 +1.2093176870e+01 +1.7385141384e+01 2.5321209376e+01 1.0566000000e-01 0.0000e+00 1.0000e+00
      994  1    1    2    0    0 -4.1521697709e+01 -3.6580960779e+01 +2.5646710602e+01 1.4450249768e+02 1.3100000000e+02 0.0000e+00 0.0000e+00
      997  1    1    2    0    0 +2.7641337033e+01 +2.4487783910e+01 +4.5696813685e+02 4.6117629294e+02 5.0000000000e+01 0.0000e+00 0.0000e+00
</event>
<event>
 5      1 +5.6267200e-07 2.08292600e+02 7.95774700e-02 4.89294200e-01
       13 -1    0    0    0    0 +0.0000000000e+00 +0.0000000000e+00 +4.9999998884e+02 5.0000000000e+02 1.0566000000e-01 0.0000e+00 -1.0000e+00
      994 -1    0    0    0    0 -0.0000000000e+00 -0.0000000000e+00 +0.0000000000e+00 1.3100000000e+02 1.3100000000e+02 0.0000e+00 0.0000e+00
       13  1    1    2    0    0 -1.6578246460e+01 -3.1228186386e+00 +6.6128694902e+01 6.8246653437e+01 1.0566000000e-01 0.0000e+00 1.0000e+00
      994  1    1    2    0    0 +1.1312025009e+01 -7.3275449975e+00 +6.0174436264e+00 1.3182892116e+02 1.3100000000e+02 0.0000e+00 0.0000e+00
      997  1    1    2    0    0 +5.2662214512e+00 +1.0450363636e+01 +4.2785385031e+02 4.3092442541e+02 5.0000000000e+01 0.0000e+00 0.0000e+00
</event>
<event>
 5      1 +5.6267200e-07 2.02417500e+02 7.95774700e-02 4.99519900e-01
       13 -1    0    0    0    0 +0.0000000000e+00 +0.0000000000e+00 +4.9999998884e+02 5.0000000000e+02 1.0566000000e-01 0.0000e+00 1.0000e+00
      994 -1    0    0    0    0 -0.0000000000e+00 -0.0000000000e+00 +0.0000000000e+00 1.3100000000e+02 1.3100000000e+02 0.0000e+00 0.0000e+00
       13  1    1    2    0    0 +2.3835274722e+01 +1.1585663457e+01 +5.8228957958e+01 6.3976328652e+01 1.0566000000e-01 0.0000e+00 -1.0000e+00
      994  1    1    2    0    0 -6.1197993911e+00 +1.7214159462e+01 +1.1751728769e+01 1.3278886384e+02 1.3100000000e+02 0.0000e+00 0.0000e+00
      997  1    1    2    0    0 -1.7715475331e+01 -2.8799822918e+01 +4.3001930211e+02 4.3423480751e+02 5.0000000000e+01 0.0000e+00 0.0000e+00
</event>
<event>
 5      1 +5.6267200e-07 2.09258000e+02 7.95774700e-02 4.87683800e-01
       13 -1    0    0    0    0 +0.0000000000e+00 +0.0000000000e+00 +4.9999998884e+02 5.0000000000e+02 1.0566000000e-01 0.0000e+00 1.0000e+00
      994 -1    0    0    0    0 -0.0000000000e+00 -0.0000000000e+00 +0.0000000000e+00 1.3100000000e+02 1.3100000000e+02 0.0000e+00 0.0000e+00
       13  1    1    2    0    0 -2.0997329266e+01 +8.1850913495e+00 +7.8033319340e+01 8.1222494716e+01 1.0566000000e-01 0.0000e+00 -1.0000e+00
      994  1    1    2    0    0 +4.7349111601e+01 -4.9761816647e+01 +2.9171953386e+01 1.5076531309e+02 1.3100000000e+02 0.0000e+00 0.0000e+00
      997  1    1    2    0    0 -2.6351782335e+01 +4.1576725298e+01 +3.9279471611e+02 3.9901219220e+02 5.0000000000e+01 0.0000e+00 0.0000e+00
</event>
<event>
 5      1 +5.6267200e-07 2.03181800e+02 7.95774700e-02 4.98146600e-01
       13 -1    0    0    0    0 +0.0000000000e+00 +0.0000000000e+00 +4.9999998884e+02 5.0000000000e+02 1.0566000000e-01 0.0000e+00 1.0000e+00
      994 -1    0    0    0    0 -0.0000000000e+00 -0.0000000000e+00 +0.0000000000e+00 1.3100000000e+02 1.3100000000e+02 0.0000e+00 0.0000e+00
       13  1    1    2    0    0 +3.2731379588e+01 -9.3896487581e+00 +8.9203957276e+01 9.5482280404e+01 1.0566000000e-01 0.0000e+00 -1.0000e+00
      994  1    1    2    0    0 -3.3888013645e+01 -2.5679498259e+01 +1.9050675907e+01 1.3903870811e+02 1.3100000000e+02 0.0000e+00 0.0000e+00
      997  1    1    2    0    0 +1.1566340569e+00 +3.5069147017e+01 +3.9174535565e+02 3.9647901149e+02 5.0000000000e+01 0.0000e+00 0.0000e+00
</event>
<event>
 5      1 +5.6267200e-07 2.08217600e+02 7.95774700e-02 4.89420100e-01
       13 -1    0    0    0    0 +0.0000000000e+00 +0.0000000000e+00 +4.9999998884e+02 5.0000000000e+02 1.0566000000e-01 0.0000e+00 1.0000e+00
      994 -1    0    0    0    0 -0.0000000000e+00 -0.0000000000e+00 +0.0000000000e+00 1.3100000000e+02 1.3100000000e+02 0.0000e+00 0.0000e+00
       13  1    1    2    0    0 +3.1543594891e-01 -1.4659348833e+01 +4.5079771845e+01 4.7404567308e+01 1.0566000000e-01 0.0000e+00 -1.0000e+00
      994  1    1    2    0    0 +1.1998542725e+01 +9.4260166306e+00 +6.3388746126e+00 1.3203785877e+02 1.3100000000e+02 0.0000e+00 0.0000e+00
      997  1    1    2    0    0 -1.2313978674e+01 +5.2333322025e+00 +4.4858134238e+02 4.5155757392e+02 5.0000000000e+01 0.0000e+00 0.0000e+00
</event>
<event>
 5      1 +5.6267200e-07 1.98081000e+02 7.95774700e-02 5.07573700e-01
       13 -1    0    0    0    0 +0.0000000000e+00 +0.0000000000e+00 +4.9999998884e+02 5.0000000000e+02 1.0566000000e-01 0.0000e+00 1.0000e+00
      994 -1    0    0    0    0 -0.0000000000e+00 -0.0000000000e+00 +0.0000000000e+00 1.3100000000e+02 1.3100000000e+02 0.0000e+00 0.0000e+00
       13  1    1    2    0    0 -3.7464343865e+00 +1.6036712565e+01 +6.1762377315e+00 1.7588888455e+01 1.0566000000e-01 0.0000e+00 -1.0000e+00
      994  1    1    2    0    0 +4.2662387213e+01 -2.1902054277e+01 +2.6775473120e+01 1.4204824964e+02 1.3100000000e+02 0.0000e+00 0.0000e+00
      997  1    1    2    0    0 -3.8915952827e+01 +5.8653417117e+00 +4.6704827798e+02 4.7136286191e+02 5.0000000000e+01 0.0000e+00 0.0000e+00
</event>
<event>
 5      1 +5.6267200e-07 2.02370800e+02 7.95774700e-02 4.99604200e-01
       13 -1    0    0    0    0 +0.0000000000e+00 +0.0000000000e+00 +4.9999998884e+02 5.0000000000e+02 1.0566000000e-01 0.0000e+00 -1.0000e+00
      994 -1    0    0    0    0 -0.0000000000e+00 -0.0000000000e+00 +0.0000000000e+00 1.3100000000e+02 1.3100000000e+02 0.0000e+00 0.0000e+00
       13  1    1    2    0    0 +1.4547925438e+01 -2.2159869653e+01 +5.1679794544e+01 5.8081961793e+01 1.0566000000e-01 0.0000e+00 1.0000e+00
      994  1    1    2    0    0 -1.0330177388e+01 +1.5458637233e+00 +1.0592695420e+01 1.3184197911e+02 1.3100000000e+02 0.0000e+00 0.0000e+00
      997  1    1    2    0    0 -4.2177480497e+00 +2.0614005930e+01 +4.3772749887e+02 4.4107605910e+02 5.0000000000e+01 0.0000e+00 0.0000e+00
</event>
<event>
 5      1 +5.6267200e-07 2.03118300e+02 7.95774700e-02 4.98260200e-01
       13 -1    0    0    0    0 +0.0000000000e+00 +0.0000000000e+00 +4.9999998884e+02 5.0000000000e+02 1.0566000000e-01 0.0000e+00 -1.0000e+00
      994 -1    0    0    0    0 -0.0000000000e+00 -0.0000000000e+00 +0.0000000000e+00 1.3100000000e+02 1.3100000000e+02 0.0000e+00 0.0000e+00
       13  1    1    2    0    0 -1.4547585291e+01 -9.2970068267e+00 +1.8898503604e+01 2.5597483787e+01 1.0566000000e-01 0.0000e+00 1.0000e+00
      994  1    1    2    0    0 +6.9216743135e+00 +2.0088466920e+01 +1.1772861969e+01 1.3323309032e+02 1.3100000000e+02 0.0000e+00 0.0000e+00
      997  1    1    2    0    0 +7.6259109775e+00 -1.0791460093e+01 +4.6932862326e+02 4.7216942589e+02 5.0000000000e+01 0.0000e+00 0.0000e+00
</event>
<event>
 5      1 +5.6267200e-07 2.04973600e+02 7.95774700e-02 4.94978500e-01
       13 -1    0    0    0    0 +0.0000000000e+00 +0.0000000000e+00 +4.9999998884e+02 5.0000000000e+02 1.0566000000e-01 0.0000e+00 1.0000e+00
      994 -1    0    0    0    0 -0.0000000000e+00 -0.0000000000e+00 +0.0000000000e+00 1.3100000000e+02 1.3100000000e+02 0.0000e+00 0.0000e+00
       13  1    1    2    0    0 +3.6214141328e+00 -5.3266116627e+01 +3.6732049430e+01 6.4804694585e+01 1.0566000000e-01 0.0000e+00 -1.0000e+00
      994  1    1    2    0    0 -5.2132737180e+01 +4.0481643015e+01 +6.2892113618e+01 1.5960264303e+02 1.3100000000e+02 0.0000e+00 0.0000e+00
      997  1    1    2    0    0 +4.8511323048e+01 +1.2784473612e+01 +4.0037582579e+02 4.0659266238e+02 5.0000000000e+01 0.0000e+00 0.0000e+00
</event>
<event>
 5      1 +5.6267200e-07 2.08603500e+02 7.95774700e-02 4.88773400e-01
       13 -1    0    0    0    0 +0.0000000000e+00 +0.0000000000e+00 +4.9999998884e+02 5.0000000000e+02 1.0566000000e-01 0.0000e+00 1.0000e+00
      994 -1    0    0    0    0 -0.0000000000e+00 -0.0000000000e+00 +0.0000000000e+00 1.3100000000e+02 1.3100000000e+02 0.0000e+00 0.0000e+00
       13  1    1    2    0    0 +1.7802497106e+01 -6.5254346815e+00 +9.6754541824e+01 9.8594942713e+01 1.0566000000e-01 0.0000e+00 -1.0000e+00
      994  1    1    2    0    0 -1.0819429881e+01 +1.6684679473e+01 +6.8491093178e+00 1.3267761262e+02 1.3100000000e+02 0.0000e+00 0.0000e+00
      997  1    1    2    0    0 -6.9830672245e+00 -1.0159244792e+01 +3.9639633769e+02 3.9972744467e+02 5.0000000000e+01 0.0000e+00 0.0000e+00
</event>
<event>
 5      1 +5.6267200e-07 2.06357200e+02 7.95774700e-02 4.92580400e-01
       13 -1    0    0    0    0 +0.0000000000e+00 +0.0000000000e+00 +4.9999998884e+02 5.0000000000e+02 1.0566000000e-01 0.0000e+00 -1.0000e+00
      994 -1    0    0    0    0 -0.0000000000e+00 -0.0000000000e+00 +0.0000000000e+00 1.3100000000e+02 1.3100000000e+02 0.0000e+00 0.0000e+00
       13  1    1    2    0    0 +1.0617500067e+01 -7.5363601056e+00 +2.1157564287e+01 2.4843142352e+01 1.0566000000e-01 0.0000e+00 1.0000e+00
      994  1    1    2    0    0 -4.4745242885e+00 -6.3551080128e+00 +6.9865436006e+00 1.3141621116e+02 1.3100000000e+02 0.0000e+00 0.0000e+00
      997  1    1    2    0    0 -6.1429757785e+00 +1.3891468118e+01 +4.7185588095e+02 4.7474064648e+02 5.0000000000e+01 0.0000e+00 0.0000e+00
</event>
<event>
 5      1 +5.6267200e-07 1.95331100e+02 7.95774700e-02 5.12924200e-01
       13 -1    0    0    0    0 +0.0000000000e+00 +0.0000000000e+00 +4.9999998884e+02 5.0000000000e+02 1.0566000000e-01 0.0000e+00 1.0000e+00
      994 -1    0    0    0    0 -0.0000000000e+00 -0.0000000000e+00 +0.0000000000e+00 1.3100000000e+02 1.3100000000e+02 0.0000e+00 0.0000e+00
       13  1    1    2    0    0 -8.8391012643e+00 -4.0711703887e+01 +3.7474269718e+01 5.6034851651e+01 1.0566000000e-01 0.0000e+00 -1.0000e+00
      994  1    1    2    0    0 +2.0706257704e+01 +3.2169085610e+01 +3.0537029842e+01 1.3984673528e+02 1.3100000000e+02 0.0000e+00 0.0000e+00
      997  1    1    2    0    0 -1.1867156439e+01 +8.5426182772e+00 +4.3198868928e+02 4.3511841307e+02 5.0000000000e+01 0.0000e+00 0.0000e+00
</event>
<event>
 5      1 +5.6267200e-07 2.05710300e+02 7.95774700e-02 4.93696400e-01
       13 -1    0    0    0    0 +0.0000000000e+00 +0.0000000000e+00 +4.9999998884e+02 5.0000000000e+02 1.0566000000e-01 0.0000e+00 1.0000e+00
      994 -1    0    0    0    0 -0.0000000000e+00 -0.0000000000e+00 +0.0000000000e+00 1.3100000000e+02 1.3100000000e+02 0.0000e+00 0.0000e+00
       13  1    1    2    0    0 -1.1703384019e+01 -2.8367452951e-01 +1.2449572663e+01 1.7089549212e+01 1.0566000000e-01 0.0000e+00 -1.0000e+00
      994  1    1    2    0    0 +1.4494214378e+01 +1.5819522828e+01 +9.5993660530e+00 1.3309202599e+02 1.3100000000e+02 0.0000e+00 0.0000e+00
      997  1    1    2    0    0 -2.7908303583e+00 -1.5535848299e+01 +4.7795105012e+02 4.8081842480e+02 5.0000000000e+01 0.0000e+00 0.0000e+00
</event>
<event>
 5      1 +5.6267200e-07 1.99480500e+02 7.95774700e-02 5.04924600e-01
       13 -1    0    0    0    0 +0.0000000000e+00 +0.0000000000e+00 +4.9999998884e+02 5.0000000000e+02 1.0566000000e-01 0.0000e+00 1.0000e+00
      994 -1    0    0    0    0 -0.0000000000e+00 -0.0000000000e+00 +0.0000000000e+00 1.3100000000e+02 1.3100000000e+02 0.0000e+00 0.0000e+00
       13  1    1    2    0    0 -6.7630953127e+00 +3.6241158923e+01 +6.6256852226e+01 7.5823101290e+01 1.0566000000e-01 0.0000e+00 -1.0000e+00
      994  1    1    2    0    0 -2.4972568996e+01 -3.2138005193e+01 +2.1703708388e+01 1.3888315786e+02 1.3100000000e+02 0.0000e+00 0.0000e+00
      997  1    1    2    0    0 +3.1735664308e+01 -4.1031537296e+00 +4.1203942822e+02 4.1629374085e+02 5.0000000000e+01 0.0000e+00 0.0000e+00
</event>
<event>
 5      1 +5.6267200e-07 2.04982900e+02 7.95774700e-02 4.94962100e-01
       13 -1    0    0    0    0 +0.0000000000e+00 +0.0000000000e+00 +4.9999998884e+02 5.0000000000e+02 1.0566000000e-01 0.0000e+00 1.0000e+00
      994 -1    0    0    0    0 -0.0000000000e+00 -0.0000000000e+00 +0.0000000000e+00 1.3100000000e+02 1.3100000000e+02 0.0000e+00 0.0000e+00
       13  1    1    2    0    0 -2.4353082819e+01 -4.5873276649e+01 +9.0286412452e+01 1.0415890548e+02 1.0566000000e-01 0.0000e+00 -1.0000e+00
      994  1    1    2    0    0 +6.6981900510e+01 +8.8426116301e+01 +8.2612741545e+01 1.9050359079e+02 1.3100000000e+02 0.0000e+00 0.0000e+00
      997  1    1    2    0    0 -4.2628817691e+01 -4.2552839652e+01 +3.2710083484e+02 3.3633750373e+02 5.0000000000e+01 0.0000e+00 0.0000e+00
</event>
<event>
 5      1 +5.6267200e-07 2.09871000e+02 7.95774700e-02 4.86671100e-01
       13 -1    0    0    0    0 +0.0000000000e+00 +0.0000000000e+00 +4.9999998884e+02 5.0000000000e+02 1.0566000000e-01 0.0000e+00 -1.0000e+00
      994 -1    0    0    0    0 -0.0000000000e+00 -0.0000000000e+00 +0.0000000000e+00 1.3100000000e+02 1.3100000000e+02 0.0000e+00 0.0000e+00
       13  1    1    2    0    0 -1.2869471555e+01 -4.2237141540e+00 +7.6201140842e+01 7.7395659368e+01 1.0566000000e-01 0.0000e+00 1.0000e+00
      994  1    1    2    0    0 +2.0049178182e+01 +7.7983583633e+00 +6.1502517775e+00 1.3289698844e+02 1.3100000000e+02 0.0000e+00 0.0000e+00
      997  1    1    2    0    0 -7.1797066271e+00 -3.5746442093e+00 +4.1764859622e+02 4.2070735219e+02 5.0000000000e+01 0.0000e+00 0.0000e+00
</event>
<event>
 5      1 +5.6267200e-07 2.08711500e+02 7.95774700e-02 4.88593100e-01
       13 -1    0    0    0    0 +0.0000000000e+00 +0.0000000000e+00 +4.9999998884e+02 5.0000000000e+02 1.0566000000e-01 0.0000e+00 -1.0000e+00
      994 -1    0    0    0    0 -0.0000000000e+00 -0.0000000000e+00 +0.0000000000e+00 1.3100000000e+02 1.3100000000e+02 0.0000e+00 0.0000e+00
       13  1    1    2    0    0 -2.0308060638e+00 -1.7345282464e+01 +7.9502339064e+01 8.1397887428e+01 1.0566000000e-01 0.0000e+00 1.0000e+00
      994  1    1    2    0    0 +8.9741241707e+00 +1.4295664268e+01 +6.1989975148e+00 1.3222831955e+02 1.3100000000e+02 0.0000e+00 0.0000e+00
      997  1    1    2    0    0 -6.9433181069e+00 +3.0496181961e+00 +4.1429865226e+02 4.1737379302e+02 5.0000000000e+01 0.0000e+00 0.0000e+00
</event>
<event>
 5      1 +5.6267200e-07 1.98649800e+02 7.95774700e-02 5.06491200e-01
       13 -1    0    0    0    0 +0.0000000000e+00 +0.0000000000e+00 +4.9999998884e+02 5.0000000000e+02 1.0566000000e-01 0.0000e+00 -1.0000e+00
      994 -1    0    0    0    0 -0.0000000000e+00 -0.0000000000e+00 +0.0000000000e+00 1.3100000000e+02 1.3100000000e+02 0.0000e+00 0.0000e+00
       13  1    1    2    0    0 +6.1613391924e-01 -2.0789054994e+01 +8.9333822966e-01 2.0817628246e+01 1.0566000000e-01 0.0000e+00 1.0000e+00
      994  1    1    2    0    0 +1.3563160242e+01 +9.7746218464e+00 +2.6620393349e+01 1.3471877334e+02 1.3100000000e+02 0.0000e+00 0.0000e+00
      997  1    1    2    0    0 -1.4179294162e+01 +1.1014433148e+01 +4.7248625726e+02 4.7546359841e+02 5.0000000000e+01 0.0000e+00 0.0000e+00
</event>
<event>
 5      1 +5.6267200e-07 2.07101800e+02 7.95774700e-02 4.91306700e-01
       13 -1    0    0    0    0 +0.0000000000e+00 +0.0000000000e+00 +4.9999998884e+02 5.0000000000e+02 1.0566000000e-01 0.0000e+00 1.0000e+00
      994 -1    0    0    0    0 -0.0000000000e+00 -0.0000000000e+00 +0.0000000000e+00 1.3100000000e+02 1.3100000000e+02 0.0000e+00 0.0000e+00
       13  1    1    2    0    0 +9.5391078381e+00 +1.7513955447e+01 +9.2012199423e+01 9.4148761120e+01 1.0566000000e-01 0.0000e+00 -1.0000e+00
      994  1    1    2    0    0 +8.2276981672e+00 -2.0753719611e-01 +6.4114589840e+00 1.3141478187e+02 1.3100000000e+02 0.0000e+00 0.0000e+00
      997  1    1    2    0    0 -1.7766806005e+01 -1.7306418251e+01 +4.0157633043e+02 4.0543645701e+02 5.0000000000e+01 0.0000e+00 0.0000e+00
</event>
<event>
 5      1 +5.6267200e-07 2.09827600e+02 7.95774700e-02 4.86742400e-01
       13 -1    0    0    0    0 +0.0000000000e+00 +0.0000000000e+00 +4.9999998884e+02 5.0000000000e+02 1.0566000000e-01 0.0000e+00 -1.0000e+00
      994 -1    0    0    0    0 -0.0000000000e+00 -0.0000000000e+00 +0.0000000000e+00 1.3100000000e+02 1.3100000000e+02 0.0000e+00 0.0000e+00
       13  1    1    2    0    0 -4.7945965124e+00 -9.7675427303e+00 +5.7078015883e+01 5.8105973083e+01 1.0566000000e-01 0.0000e+00 1.0000e+00
      994  1    1    2    0    0 +1.2671604271e+01 +3.5930934091e+00 +4.7303232924e+00 1.3174542054e+02 1.3100000000e+02 0.0000e+00 0.0000e+00
      997  1    1    2    0    0 -7.8770077586e+00 +6.1744493212e+00 +4.3819164966e+02 4.4114860638e+02 5.0000000000e+01 0.0000e+00 0.0000e+00
</event>
<event>
 5      1 +5.6267200e-07 2.07697400e+02 7.95774700e-02 4.90296500e-01
       13 -1    0    0    0    0 +0.0000000000e+00 +0.0000000000e+00 +4.9999998884e+02 5.0000000000e+02 1.0566000000e-01 0.0000e+00 1.0000e+00
      994 -1    0    0    0    0 -0.0000000000e+00 -0.0000000000e+00 +0.0000000000e+00 1.3100000000e+02 1.3100000000e+02 0.0000e+00 0.0000e+00
       13  1    1    2    0    0 -2.9272863460e+01 +9.1097055415e+00 +1.5573919667e+02 1.5872805616e+02 1.0566000000e-01 0.0000e+00 -1.0000e+00
      994  1    1    2    0    0 +3.9037943823e+01 +2.8546087620e+00 +1.3489420111e+01 1.3738658706e+02 1.3100000000e+02 0.0000e+00 0.0000e+00
      997  1    1    2    0    0 -9.7650803631e+00 -1.1964314304e+01 +3.3077137206e+02 3.3488535678e+02 5.0000000000e+01 0.0000e+00 0.0000e+00
</event>
<event>
 5      1 +5.6267200e-07 2.02662800e+02 7.95774700e-02 4.99077600e-01
       13 -1    0    0    0    0 +0.0000000000e+00 +0.0000000000e+00 +4.9999998884e+02 5.0000000000e+02 1.0566000000e-01 0.0000e+00 -1.0000e+00
      994 -1    0    0    0    0 -0.0000000000e+00 -0.0000000000e+00 +0.0000000000e+00 1.3100000000e+02 1.3100000000e+02 0.0000e+00 0.0000e+00
       13  1    1    2    0    0 -6.1760860507e+01 -3.5181452854e+00 +1.6665006754e+02 1.7776118084e+02 1.0566000000e-01 0.0000e+00 1.0000e+00
      994  1    1    2    0    0 +8.1432343897e+01 -3.5653859543e+01 +5.5839547445e+01 1.6787340287e+02 1.3100000000e+02 0.0000e+00 0.0000e+00
      997  1    1    2    0    0 -1.9671483390e+01 +3.9172004828e+01 +2.7751037385e+02 2.8536541629e+02 5.0000000000e+01 0.0000e+00 0.0000e+00
</event>
<event>
 5      1 +5.6267200e-07 2.07547100e+02 7.95774700e-02 4.90550600e-01
       13 -1    0    0    0    0 +0.0000000000e+00 +0.0000000000e+00 +4.9999998884e+02 5.0000000000e+02 1.0566000000e-01 0.0000e+00 -1.0000e+00
      994 -1    0    0    0    0 -0.0000000000e+00 -0.0000000000e+00 +0.0000000000e+00 1.3100000000e+02 1.3100000000e+02 0.0000e+00 0.0000e+00
       13  1    1    2    0    0 -5.5924087002e+00 +1.8972411136e+01 +9.3780838804e+01 9.5844062468e+01 1.0566000000e-01 0.0000e+00 1.0000e+00
      994  1    1    2    0    0 +2.2411146075e+01 +2.4831567803e+00 +8.3032745201e+00 1.3318547182e+02 1.3100000000e+02 0.0000e+00 0.0000e+00
      997  1    1    2    0    0 -1.6818737375e+01 -2.1455567917e+01 +3.9791587551e+02 4.0197046571e+02 5.0000000000e+01 0.0000e+00 0.0000e+00
</event>
<event>
 5      1 +5.6267200e-07 2.09844200e+02 7.95774700e-02 4.86715100e-01
       13 -1    0    0    0    0 +0.0000000000e+00 +0.0000000000e+00 +4.9999998884e+02 5.0000000000e+02 1.0566000000e-01 0.0000e+00 1.0000e+00
      994 -1    0    0    0    0 -0.0000000000e+00 -0.0000000000e+00 +0.0000000000e+00 1.3100000000e+02 1.3100000000e+02 0.0000e+00 0.0000e+00
       13  1    1    2    0    0 -1.6342424971e+01 -2.0607912930e+00 +5.7499347781e+01 5.9812271935e+01 1.0566000000e-01 0.0000e+00 -1.0000e+00
      994  1    1    2    0    0 +5.9142320070e+01 -1.6223694225e+01 +2.3361701737e+01 1.4651891136e+02 1.3100000000e+02 0.0000e+00 0.0000e+00
      997  1    1    2    0    0 -4.2799895099e+01 +1.8284485518e+01 +4.1913893932e+02 4.2466881671e+02 5.0000000000e+01 0.0000e+00 0.0000e+00
</event>
<event>
 5      1 +5.6267200e-07 2.07495800e+02 7.95774700e-02 4.90637500e-01
       13 -1    0    0    0    0 +0.0000000000e+00 +0.0000000000e+00 +4.9999998884e+02 5.0000000000e+02 1.0566000000e-01 0.0000e+00 -1.0000e+00
      994 -1    0    0    0    0 -0.0000000000e+00 -0.0000000000e+00 +0.0000000000e+00 1.3100000000e+02 1.3100000000e+02 0.0000e+00 0.0000e+00
       13  1    1    2    0    0 +1.6112015020e+01 -5.2510194092e+00 +5.2025113749e+01 5.4715572348e+01 1.0566000000e-01 0.0000e+00 1.0000e+00
      994  1    1    2    0    0 -4.9213008285e+00 +3.2436839825e+00 +5.9205398406e+00 1.3126611703e+02 1.3100000000e+02 0.0000e+00 0.0000e+00
      997  1    1    2    0    0 -1.1190714192e+01 +2.0073354267e+00 +4.4205433525e+02 4.4501831062e+02 5.0000000000e+01 0.0000e+00 0.0000e+00
</event>
<event>
 5      1 +5.6267200e-07 2.07710900e+02 7.95774700e-02 4.90273600e-01
       13 -1    0    0    0    0 +0.0000000000e+00 +0.0000000000e+00 +4.9999998884e+02 5.0000000000e+02 1.0566000000e-01 0.0000e+00 1.0000e+00
      994 -1    0    0    0    0 -0.0000000000e+00 -0.0000000000e+00 +0.0000000000e+00 1.3100000000e+02 1.3100000000e+02 0.0000e+00 0.0000e+00
       13  1    1    2    0    0 -1.3642425509e+01 -1.8803200702e+01 +1.3990793267e+02 1.4182354148e+02 1.0566000000e-01 0.0000e+00 -1.0000e+00
      994  1    1    2    0    0 +4.6564699601e+01 -3.3486136637e+00 +1.6893722131e+01 1.4009240632e+02 1.3100000000e+02 0.0000e+00 0.0000e+00
      997  1    1    2    0    0 -3.2922274092e+01 +2.2151814366e+01 +3.4319833403e+02 3.4908405219e+02 5.0000000000e+01 0.0000e+00 0.0000e+00
</event>
<event>
 5      1 +5.6267200e-07 2.08900600e+02 7.95774700e-02 4.88277700e-01
       13 -1    0    0    0    0 +0.0000000000e+00 +0.0000000000e+00 +4.9999998884e+02 5.0000000000e+02 1.0566000000e-01 0.0000e+00 1.0000e+00
      994 -1    0    0    0    0 -0.0000000000e+00 -0.0000000000e+00 +0.0000000000e+00 1.3100000000e+02 1.3100000000e+02 0.0000e+00 0.0000e+00
       13  1    1    2    0    0 +7.0010774926e+00 -1.2876565720e+01 +6.0419028859e+01 6.2171466470e+01 1.0566000000e-01 0.0000e+00 -1.0000e+00
      994  1    1    2    0    0 +1.0542250172e+01 +1.9337289593e+01 +7.0600380802e+00 1.3302598974e+02 1.3100000000e+02 0.0000e+00 0.0000e+00
      997  1    1    2    0    0 -1.7543327665e+01 -6.4607238728e+00 +4.3252092190e+02 4.3580254379e+02 5.0000000000e+01 0.0000e+00 0.0000e+00
</event>
<event>
 5      1 +5.6267200e-07 1.96695100e+02 7.95774700e-02 5.10245700e-01
       13 -1    0    0    0    0 +0.0000000000e+00 +0.0000000000e+00 +4.9999998884e+02 5.0000000000e+02 1.0566000000e-01 0.0000e+00 1.0000e+00
      994 -1    0    0    0    0 -0.0000000000e+00 -0.0000000000e+00 +0.0000000000e+00 1.3100000000e+02 1.3100000000e+02 0.0000e+00 0.0000e+00
       13  1    1    2    0    0 -1.3618680162e+00 +1.4675137086e+01 +4.9477346337e+00 1.5546883129e+01 1.0566000000e-01 0.0000e+00 -1.0000e+00
      994  1    1    2    0    0 -4.0336715570e+00 +2.4490264030e+01 +1.8442757682e+01 1.3460007002e+02 1.3100000000e+02 0.0000e+00 0.0000e+00
      997  1    1    2    0    0 +5.3955395732e+00 -3.9165401117e+01 +4.7660949652e+02 4.8085304685e+02 5.0000000000e+01 0.0000e+00 0.0000e+00
</event>
<event>
 5      1 +5.6267200e-07 2.04368700e+02 7.95774700e-02 4.96039900e-01
       13 -1    0    0    0    0 +0.0000000000e+00 +0.0000000000e+00 +4.9999998884e+02 5.0000000000e+02 1.0566000000e-01 0.0000e+00 -1.0000e+00
      994 -1    0    0    0    0 -0.0000000000e+00 -0.0000000000e+00 +0.0000000000e+00 1.3100000000e+02 1.3100000000e+02 0.0000e+00 0.0000e+00
       13  1    1    2    0    0 -6.4047729676e+00 -2.4011963754e+01 +2.7168864019e+01 3.6820562953e+01 1.0566000000e-01 0.0000e+00 1.0000e+00
      994  1    1    2    0    0 +6.9200508114e+01 +7.2233993411e+01 +6.7398040812e+01 1.7807289528e+02 1.3100000000e+02 0.0000e+00 0.0000e+00
      997  1    1    2    0    0 -6.2795735146e+01 -4.8222029657e+01 +4.0543308401e+02 4.1610654177e+02 5.0000000000e+01 0.0000e+00 0.0000e+00
</event>
<event>
 5      1 +5.6267200e-07 2.02156300e+02 7.95774700e-02 4.99992400e-01
       13 -1    0    0    0    0 +0.0000000000e+00 +0.0000000000e+00 +4.9999998884e+02 5.0000000000e+02 1.0566000000e-01 0.0000e+00 -1.0000e+00
      994 -1    0    0    0    0 -0.0000000000e+00 -0.0000000000e+00 +0.0000000000e+00 1.3100000000e+02 1.3100000000e+02 0.0000e+00 0.0000e+00
       13  1    1    2    0    0 -5.5580040568e+00 +1.9597463283e+01 +2.3838688803e+01 3.1356757232e+01 1.0566000000e-01 0.0000e+00 1.0000e+00
      994  1    1    2    0    0 -3.0435798344e+01 -2.8155043004e+01 +1.9518817892e+01 1.3878410759e+02 1.3100000000e+02 0.0000e+00 0.0000e+00
      997  1    1    2    0    0 +3.5993802401e+01 +8.5575797205e+00 +4.5664248214e+02 4.6085913518e+02 5.0000000000e+01 0.0000e+00 0.0000e+00
</event>
<event>
 5      1 +5.6267200e-07 2.03676000e+02 7.95774700e-02 4.97265600e-01
       13 -1    0    0    0    0 +0.0000000000e+00 +0.0000000000e+00 +4.9999998884e+02 5.0000000000e+02 1.0566000000e-01 0.0000e+00 1.0000e+00
      994 -1    0    0    0    0 -0.0000000000e+00 -0.0000000000e+00 +0.0000000000e+00 1.3100000000e+02 1.3100000000e+02 0.0000e+00 0.0000e+00
       13  1    1    2    0    0 +2.0838978261e+00 +1.1095653382e+01 +6.5561271464e+00 1.3055654764e+01 1.0566000000e-01 0.0000e+00 -1.0000e+00
      994  1    1    2    0    0 +2.2812430510e+00 -2.5516557513e+01 +1.2379894970e+01 1.3405431950e+02 1.3100000000e+02 0.0000e+00 0.0000e+00
      997  1    1    2    0    0 -4.3651408771e+00 +1.4420904132e+01 +4.8106396672e+02 4.8389002574e+02 5.0000000000e+01 0.0000e+00 0.0000e+00
</event>
<event>
 5      1 +5.6267200e-07 2.07049900e+02 7.95774700e-02 4.91395200e-01
       13 -1    0    0    0    0 +0.0000000000e+00 +0.0000000000e+00 +4.9999998884e+02 5.0000000000e+02 1.0566000000e-01 0.0000e+00 1.0000e+00
      994 -1    0    0    0    0 -0.0000000000e+00 -0.0000000000e+00 +0.0000000000e+00 1.3100000000e+02 1.3100000000e+02 0.0000e+00 0.0000e+00
       13  1    1    2    0    0 +1.0726227176e+01 +1.4083056914e+01 +4.0974584751e+01 4.4635324588e+01 1.0566000000e-01 0.0000e+00 -1.0000e+00
      994  1    1    2    0    0 -1.2671924290e+01 -1.6836677132e+01 +8.3874933677e+00 1.3294886764e+02 1.3100000000e+02 0.0000e+00 0.0000e+00
      997  1    1    2    0    0 +1.9456971139e+00 +2.7536202183e+00 +4.5063791072e+02 4.5341580777e+02 5.0000000000e+01 0.0000e+00 0.0000e+00
</event>
<event>
 5      1 +5.6267200e-07 1.95909000e+02 7.95774700e-02 5.11783200e-01
       13 -1    0    0    0    0 +0.0000000000e+00 +0.0000000000e+00 +4.9999998884e+02 5.0000000000e+02 1.0566000000e-01 0.0000e+00 1.0000e+00
      994 -1    0    0    0    0 -0.0000000000e+00 -0.0000000000e+00 +0.0000000000e+00 1.3100000000e+02 1.3100000000e+02 0.0000e+00 0.0000e+00
       13  1    1    2    0    0 -8.9413870789e+00 +2.2093871335e+01 +1.8388436142e+01 3.0103709095e+01 1.0566000000e-01 0.0000e+00 -1.0000e+00
      994  1    1    2    0    0 +1.2076431268e+01 -1.4099212989e-01 +1.6507628369e+01 1.3258718590e+02 1.3100000000e+02 0.0000e+00 0.0000e+00
      997  1    1    2    0    0 -3.1350441887e+00 -2.1952879205e+01 +4.6510392432e+02 4.6830910500e+02 5.0000000000e+01 0.0000e+00 0.0000e+00
</event>
<event>
 5      1 +5.6267200e-07 2.07875400e+02 7.95774700e-02 4.89995900e-01
       13 -1    0    0    0    0 +0.0000000000e+00 +0.0000000000e+00 +4.9999998884e+02 5.0000000000e+02 1.0566000000e-01 0.0000e+00 1.0000e+00
      994 -1    0    0    0    0 -0.0000000000e+00 -0.0000000000e+00 +0.0000000000e+00 1.3100000000e+02 1.3100000000e+02 0.0000e+00 0.0000e+00
       13  1    1    2    0    0 +1.6224225017e+01 +6.9258167492e+00 +4.6069377202e+01 4.9331441240e+01 1.0566000000e-01 0.0000e+00 -1.0000e+00
      994  1    1    2    0    0 -2.9484649079e+01 -4.7837122088e+00 +1.0005163197e+01 1.3473430047e+02 1.3100000000e+02 0.0000e+00 0.0000e+00
      997  1    1    2    0    0 +1.3260424062e+01 -2.1421045404e+00 +4.4392544844e+02 4.4693425829e+02 5.0000000000e+01 0.0000e+00 0.0000e+00
</event>
<event>
 5      1 +5.6267200e-07 2.04823800e+02 7.95774700e-02 4.95240500e-01
       13 -1    0    0    0    0 +0.0000000000e+00 +0.0000000000e+00 +4.9999998884e+02 5.0000000000e+02 1.0566000000e-01 0.0000e+00 1.0000e+00
      994 -1    0    0    0    0 -0.0000000000e+00 -0.0000000000e+00 +0.0000000000e+00 1.3100000000e+02 1.3100000000e+02 0.0000e+00 0.0000e+00
       13  1    1    2    0    0 -9.7280359014e+00 +9.2819818856e+00 +1.6954001597e+01 2.1638835560e+01 1.0566000000e-01 0.0000e+00 -1.0000e+00
      994  1    1    2    0    0 -9.8268717104e+00 +3.7133855347e-01 +8.4494224396e+00 1.3164003206e+02 1.3100000000e+02 0.0000e+00 0.0000e+00
      997  1    1    2    0    0 +1.9554907612e+01 -9.6533204390e+00 +4.7459656480e+02 4.7772113238e+02 5.0000000000e+01 0.0000e+00 0.0000e+00
</event>
<event>
 5      1 +5.6267200e-07 2.03310700e+02 7.95774700e-02 4.97916200e-01
       13 -1    0    0    0    0 +0.0000000000e+00 +0.0000000000e+00 +4.9999998884e+02 5.0000000000e+02 1.0566000000e-01 0.0000e+00 1.0000e+00
      994 -1    0    0    0    0 -0.0000000000e+00 -0.0000000000e+00 +0.0000000000e+00 1.3100000000e+02 1.3100000000e+02 0.0000e+00 0.0000e+00
       13  1    1    2    0    0 +2.0871869084e+01 +2.1725426359e+00 +3.2647959882e+01 3.8810505138e+01 1.0566000000e-01 0.0000e+00 -1.0000e+00
      994  1    1    2    0    0 -9.0207120220e+00 -1.4192061579e+01 +1.0710247331e+01 1.3250847994e+02 1.3100000000e+02 0.0000e+00 0.0000e+00
      997  1    1    2    0    0 -1.1851157062e+01 +1.2019518943e+01 +4.5664178162e+02 4.5968101493e+02 5.0000000000e+01 0.0000e+00 0.0000e+00
</event>
<event>
 5      1 +5.6267200e-07 2.09592600e+02 7.95774700e-02 4.87130000e-01
       13 -1    0    0    0    0 +0.0000000000e+00 +0.0000000000e+00 +4.9999998884e+02 5.0000000000e+02 1.0566000000e-01 0.0000e+00 -1.0000e+00
      994 -1    0    0    0    0 -0.0000000000e+00 -0.0000000000e+00 +0.0000000000e+00 1.3100000000e+02 1.3100000000e+02 0.0000e+00 0.0000e+00
       13  1    1    2    0    0 -4.7430625017e+00 -1.1291435342e+01 +6.4967674727e+01 6.6112049412e+01 1.0566000000e-01 0.0000e+00 1.0000e+00
      994  1    1    2    0    0 +8.5045310651e+00 +5.4896384420e+00 +4.5633213100e+00 1.3146971925e+02 1.3100000000e+02 0.0000e+00 0.0000e+00
      997  1    1    2    0    0 -3.7614685634e+00 +5.8017968997e+00 +4.3046899280e+02 4.3341823134e+02 5.0000000000e+01 0.0000e+00 0.0000e+00
</event>
<event>
 5      1 +5.6267200e-07 2.08135600e+02 7.95774700e-02 4.89557800e-01
       13 -1    0    0    0    0 +0.0000000000e+00 +0.0000000000e+00 +4.9999998884e+02 5.0000000000e+02 1.0566000000e-01 0.0000e+00 -1.0000e+00
      994 -1    0    0    0    0 -0.0000000000e+00 -0.0000000000e+00 +0.0000000000e+00 1.3100000000e+02 1.3100000000e+02 0.0000e+00 0.0000e+00
       13  1    1    2    0    0 +6.2993487112e+00 +1.2883678305e+01 +4.4842279605e+01 4.7079848822e+01 1.0566000000e-01 0.0000e+00 1.0000e+00
      994  1    1    2    0    0 +8.4400997219e+00 -8.5952725000e+00 +5.9599804418e+00 1.3168764315e+02 1.3100000000e+02 0.0000e+00 0.0000e+00
      997  1    1    2    0    0 -1.4739448433e+01 -4.2884058050e+00 +4.4919772879e+02 4.5223250802e+02 5.0000000000e+01 0.0000e+00 0.0000e+00
</event>
<event>
 5      1 +5.6267200e-07 2.18208200e+02 7.95774700e-02 4.73603900e-01
       13 -1    0    0    0    0 +0.0000000000e+00 +0.0000000000e+00 +4.9999998884e+02 5.0000000000e+02 1.0566000000e-01 0.0000e+00 1.0000e+00
      994 -1    0    0    0    0 -0.0000000000e+00 -0.0000000000e+00 +0.0000000000e+00 1.3100000000e+02 1.3100000000e+02 0.0000e+00 0.0000e+00
       13  1    1    2    0    0 +4.6418307973e+01 -2.3467020519e+01 +1.2992764418e+01 5.3611411643e+01 1.0566000000e-01 0.0000e+00 -1.0000e+00
      994  1    1    2    0    0 -4.0629713398e+01 +3.0201356863e+01 +6.9305918803e+01 1.5661164053e+02 1.3100000000e+02 0.0000e+00 0.0000e+00
      997  1    1    2    0    0 -5.7885945751e+00 -6.7343363440e+00 +4.1770130562e+02 4.2077694783e+02 5.0000000000e+01 0.0000e+00 0.0000e+00
</event>
<event>
 5      1 +5.6267200e-07 2.00072800e+02 7.95774700e-02 5.03818000e-01
       13 -1    0    0    0    0 +0.0000000000e+00 +0.0000000000e+00 +4.9999998884e+02 5.0000000000e+02 1.0566000000e-01 0.0000e+00 -1.0000e+00
      994 -1    0    0    0    0 -0.0000000000e+00 -0.0000000000e+00 +0.0000000000e+00 1.3100000000e+02 1.3100000000e+02 0.0000e+00 0.0000e+00
       13  1    1    2    0    0 -2.3414567355e+01 -3.9639204359e+01 +1.1221342935e+02 1.2129045048e+02 1.0566000000e-01 0.0000e+00 1.0000e+00
      994  1    1    2    0    0 +3.1708911821e+01 +2.0203924194e+01 +1.9774767722e+01 1.3771599428e+02 1.3100000000e+02 0.0000e+00 0.0000e+00
      997  1    1    2    0    0 -8.2943444662e+00 +1.9435280165e+01 +3.6801179176e+02 3.7199355524e+02 5.0000000000e+01 0.0000e+00 0.0000e+00
</event>
<event>
 5      1 +5.6267200e-07 1.97791500e+02 7.95774700e-02 5.08127700e-01
       13 -1    0    0    0    0 +0.0000000000e+00 +0.0000000000e+00 +4.9999998884e+02 5.0000000000e+02 1.0566000000e-01 0.0000e+00 1.0000e+00
      994 -1    0    0    0    0 -0.0000000000e+00 -0.0000000000e+00 +0.0000000000e+00 1.3100000000e+02 1.3100000000e+02 0.0000e+00 0.0000e+00
       13  1    1    2    0    0 -1.2834104084e+01 +3.2722658809e+00 +3.1905141634e+00 1.3623967715e+01 1.0566000000e-01 0.0000e+00 -1.0000e+00
      994  1    1    2    0    0 -8.4957034577e+00 -1.9419939986e+01 +1.6494352879e+01 1.3372499663e+02 1.3100000000e+02 0.0000e+00 0.0000e+00
      997  1    1    2    0    0 +2.1329807542e+01 +1.6147674105e+01 +4.8031512179e+02 4.8365103566e+02 5.0000000000e+01 0.0000e+00 0.0000e+00
</event>
<event>
 5      1 +5.6267200e-07 2.07930000e+02 7.95774700e-02 4.89903800e-01
       13 -1    0    0    0    0 +0.0000000000e+00 +0.0000000000e+00 +4.9999998884e+02 5.0000000000e+02 1.0566000000e-01 0.0000e+00 1.0000e+00
      994 -1    0    0    0    0 -0.0000000000e+00 -0.0000000000e+00 +0.0000000000e+00 1.3100000000e+02 1.3100000000e+02 0.0000e+00 0.0000e+00
       13  1    1    2    0    0 +2.5414096337e+00 -1.2764293720e+01 +3.1324586662e+01 3.3920891065e+01 1.0566000000e-01 0.0000e+00 -1.0000e+00
      994  1    1    2    0    0 +8.0675670376e+00 +8.7519229964e+00 +6.1105146055e+00 1.3168151041e+02 1.3100000000e+02 0.0000e+00 0.0000e+00
      997  1    1    2    0    0 -1.0608976671e+01 +4.0123707239e+00 +4.6256488757e+02 4.6539759853e+02 5.0000000000e+01 0.0000e+00 0.0000e+00
</event>
<event>
 5      1 +5.6267200e-07 2.09987000e+02 7.95774700e-02 4.86480300e-01
       13 -1    0    0    0    0 +0.0000000000e+00 +0.0000000000e+00 +4.9999998884e+02 5.0000000000e+02 1.0566000000e-01 0.0000e+00 1.0000e+00
      994 -1    0    0    0    0 -0.0000000000e+00 -0.0000000000e+00 +0.0000000000e+00 1.3100000000e+02 1.3100000000e+02 0.0000e+00 0.0000e+00
       13  1    1    2    0    0 -6.3285138679e+00 +8.0058492051e+00 +5.2849567665e+01 5.3825938688e+01 1.0566000000e-01 0.0000e+00 -1.0000e+00
      994  1    1    2    0    0 +1.1583187722e+00 -1.2474111241e+01 +4.5190744956e+00 1.3167523377e+02 1.3100000000e+02 0.0000e+00 0.0000e+00
      997  1    1    2    0    0 +5.1701950958e+00 +4.4682620354e+00 +4.4263134668e+02 4.4549882754e+02 5.0000000000e+01 0.0000e+00 0.0000e+00
</event>
<event>
 5      1 +5.6267200e-07 2.09834900e+02 7.95774700e-02 4.86730400e-01
       13 -1    0    0    0    0 +0.0000000000e+00 +0.0000000000e+00 +4.9999998884e+02 5.0000000000e+02 1.0566000000e-01 0.0000e+00 1.0000e+00
      994 -1    0    0    0    0 -0.0000000000e+00 -0.0000000000e+00 +0.0000000000e+00 1.3100000000e+02 1.3100000000e+02 0.0000e+00 0.0000e+00
       13  1    1    2    0    0 +1.2271793182e+00 +1.3684958323e+01 +7.3442935106e+01 7.4717199723e+01 1.0566000000e-01 0.0000e+00 -1.0000e+00
      994  1    1    2    0    0 -4.0346489968e+00 -2.2364330690e+01 +6.4504824680e+00 1.3311292350e+02 1.3100000000e+02 0.0000e+00 0.0000e+00
      997  1    1    2    0    0 +2.8074696786e+00 +8.6793723672e+00 +4.2010657126e+02 4.2316987677e+02 5.0000000000e+01 0.0000e+00 0.0000e+00
</event>
<event>
 5      1 +5.6267200e-07 2.06425900e+02 7.95774700e-02 4.92462300e-01
       13 -1    0    0    0    0 +0.0000000000e+00 +0.0000000000e+00 +4.9999998884e+02 5.0000000000e+02 1.0566000000e-01 0.0000e+00 1.0000e+00
      994 -1    0    0    0    0 -0.0000000000e+00 -0.0000000000e+00 +0.0000000000e+00 1.3100000000e+02 1.3100000000e+02 0.0000e+00 0.0000e+00
       13  1    1    2    0    0 -4.7560237792e-01 -2.0040217280e+01 +6.0379259638e+01 6.3619986362e+01 1.0566000000e-01 0.0000e+00 -1.0000e+00
      994  1    1    2    0    0 -7.4326979550e+00 +3.0970834170e+00 +6.9526042160e+00 1.3143125819e+02 1.3100000000e+02 0.0000e+00 0.0000e+00
      997  1    1    2    0    0 +7.9083003329e+00 +1.6943133863e+01 +4.3266812498e+02 4.3594875545e+02 5.0000000000e+01 0.0000e+00 0.0000e+00
</event>
<event>
 5      1 +5.6267200e-07 1.99266900e+02 7.95774700e-02 5.05325700e-01
       13 -1    0    0    0    0 +0.0000000000e+00 +0.0000000000e+00 +4.9999998884e+02 5.0000000000e+02 1.0566000000e-01 0.0000e+00 -1.0000e+00
      994 -1    0    0    0    0 -0.0000000000e+00 -0.0000000000e+00 +0.0000000000e+00 1.3100000000e+02 1.3100000000e+02 0.0000e+00 0.0000e+00
       13  1    1    2    0    0 -2.9504354923e+01 -2.4374967792e+01 +1.0373689785e+02 1.1057124922e+02 1.0566000000e-01 0.0000e+00 1.0000e+00
      994  1    1    2    0    0 +1.0052416186e+01 -1.2981949069e+01 +1.4169931311e+01 1.3278316545e+02 1.3100000000e+02 0.0000e+00 0.0000e+00
      997  1    1    2    0    0 +1.9451938737e+01 +3.7356916861e+01 +3.8209315968e+02 3.8764558534e+02 5.0000000000e+01 0.0000e+00 0.0000e+00
</event>
<event>
 5      1 +5.6267200e-07 2.05236000e+02 7.95774700e-02 4.94520500e-01
       13 -1    0    0    0    0 +0.0000000000e+00 +0.0000000000e+00 +4.9999998884e+02 5.0000000000e+02 1.0566000000e-01 0.0000e+00 -1.0000e+00
      994 -1    0    0    0    0 -0.0000000000e+00 -0.0000000000e+00 +0.0000000000e+00 1.3100000000e+02 1.3100000000e+02 0.0000e+00 0.0000e+00
       13  1    1    2    0    0 -3.4038685430e+01 +5.0851182403e+01 +2.0494016150e+02 2.1388070464e+02 1.0566000000e-01 0.0000e+00 1.0000e+00
      994  1    1    2    0    0 +4.1195855970e+01 -6.6061528715e+01 +4.1231746941e+01 1.5786792290e+02 1.3100000000e+02 0.0000e+00 0.0000e+00
      997  1    1    2    0    0 -7.1571705398e+00 +1.5210346312e+01 +2.5382808040e+02 2.5925137246e+02 5.0000000000e+01 0.0000e+00 0.0000e+00
</event>
<event>
 5      1 +5.6267200e-07 2.03088700e+02 7.95774700e-02 4.98313000e-01
       13 -1    0    0    0    0 +0.0000000000e+00 +0.0000000000e+00 +4.9999998884e+02 5.0000000000e+02 1.0566000000e-01 0.0000e+00 -1.0000e+00
      994 -1    0    0    0    0 -0.0000000000e+00 -0.0000000000e+00 +0.0000000000e+00 1.3100000000e+02 1.3100000000e+02 0.0000e+00 0.0000e+00
       13  1    1    2    0    0 +1.1004313990e+01 -1.6761899245e+01 +3.6094526484e+01 4.1290219167e+01 1.0566000000e-01 0.0000e+00 1.0000e+00
      994  1    1    2    0    0 +1.1219785812e+01 -1.1183177465e+01 +1.0731615703e+01 1.3239000955e+02 1.3100000000e+02 0.0000e+00 0.0000e+00
      997  1    1    2    0    0 -2.2224099802e+01 +2.7945076709e+01 +4.5317384665e+02 4.5731977129e+02 5.0000000000e+01 0.0000e+00 0.0000e+00
</event>
<event>
 5      1 +5.6267200e-07 2.04207300e+02 7.95774700e-02 4.96324600e-01
       13 -1    0    0    0    0 +0.0000000000e+00 +0.0000000000e+00 +4.9999998884e+02 5.0000000000e+02 1.0566000000e-01 0.0000e+00 -1.0000e+00
      994 -1    0    0    0    0 -0.0000000000e+00 -0.0000000000e+00 +0.0000000000e+00 1.3100000000e+02 1.3100000000e+02 0.0000e+00 0.0000e+00
       13  1    1    2    0    0 -1.4963840621e+01 -2.4136170545e+00 +1.8575014220e+01 2.3974661431e+01 1.0566000000e-01 0.0000e+00 1.0000e+00
      994  1    1    2    0    0 +1.5120532241e+00 +8.0707395912e+00 +8.8138248173e+00 1.3155267633e+02 1.3100000000e+02 0.0000e+00 0.0000e+00
      997  1    1    2    0    0 +1.3451787397e+01 -5.6571225367e+00 +4.7261114980e+02 4.7547266224e+02 5.0000000000e+01 0.0000e+00 0.0000e+00
</event>
<event>
 5      1 +5.6267200e-07 2.07316700e+02 7.95774700e-02 4.90941300e-01
       13 -1    0    0    0    0 +0.0000000000e+00 +0.0000000000e+00 +4.9999998884e+02 5.0000000000e+02 1.0566000000e-01 0.0000e+00 -1.0000e+00
      994 -1    0    0    0    0 -0.0000000000e+00 -0.0000000000e+00 +0.0000000000e+00 1.3100000000e+02 1.3100000000e+02 0.0000e+00 0.0000e+00
       13  1    1    2    0    0 -1.7048083196e+01 -1.0531192713e+01 +7.3165385819e+01 7.5859923588e+01 1.0566000000e-01 0.0000e+00 1.0000e+00
      994  1    1    2    0    0 +1.0623171787e+01 -1.5733854721e+00 +6.4785187783e+00 1.3159900655e+02 1.3100000000e+02 0.0000e+00 0.0000e+00
      997  1    1    2    0    0 +6.4249114087e+00 +1.2104578186e+01 +4.2035608424e+02 4.2354106986e+02 5.0000000000e+01 0.0000e+00 0.0000e+00
</event>
<event>
 5      1 +5.6267200e-07 2.09754800e+02 7.95774700e-02 4.86862400e-01
       13 -1    0    0    0    0 +0.0000000000e+00 +0.0000000000e+00 +4.9999998884e+02 5.0000000000e+02 1.0566000000e-01 0.0000e+00 1.0000e+00
      994 -1    0    0    0    0 -0.0000000000e+00 -0.0000000000e+00 +0.0000000000e+00 1.3100000000e+02 1.3100000000e+02 0.0000e+00 0.0000e+00
       13  1    1    2    0    0 -7.2696050306e+00 +6.9200281831e+00 +5.4809840280e+01 5.5721303852e+01 1.0566000000e-01 0.0000e+00 -1.0000e+00
      994  1    1    2    0    0 +6.0381077738e+00 +6.5343430315e+00 +4.3160130911e+00 1.3137269257e+02 1.3100000000e+02 0.0000e+00 0.0000e+00
      997  1    1    2    0    0 +1.2314972567e+00 -1.3454371215e+01 +4.4087413546e+02 4.4390600358e+02 5.0000000000e+01 0.0000e+00 0.0000e+00
</event>
<event>
 5      1 +5.6267200e-07 1.92716100e+02 7.95774700e-02 5.18199800e-01
       13 -1    0    0    0    0 +0.0000000000e+00 +0.0000000000e+00 +4.9999998884e+02 5.0000000000e+02 1.0566000000e-01 0.0000e+00 1.0000e+00
      994 -1    0    0    0    0 -0.0000000000e+00 -0.0000000000e+00 +0.0000000000e+00 1.3100000000e+02 1.3100000000e+02 0.0000e+00 0.0000e+00
       13  1    1    2    0    0 +3.8967486346e+01 +5.0213933669e+00 +4.2764100328e+01 5.8072875118e+01 1.0566000000e-01 0.0000e+00 -1.0000e+00
      994  1    1    2    0    0 -2.1648718721e+01 -4.8598551997e+01 +3.5665700482e+01 1.4582019226e+02 1.3100000000e+02 0.0000e+00 0.0000e+00
      997  1    1    2    0    0 -1.7318767625e+01 +4.3577158630e+01 +4.2157018803e+02 4.2710693263e+02 5.0000000000e+01 0.0000e+00 0.0000e+00
</event>
<event>
 5      1 +5.6267200e-07 2.03411900e+02 7.95774700e-02 4.97735600e-01
       13 -1    0    0    0    0 +0.0000000000e+00 +0.0000000000e+00 +4.9999998884e+02 5.0000000000e+02 1.0566000000e-01 0.0000e+00 1.0000e+00
      994 -1    0    0    0    0 -0.0000000000e+00 -0.0000000000e+00 +0.0000000000e+00 1.3100000000e+02 1.3100000000e+02 0.0000e+00 0.0000e+00
       13  1    1    2    0    0 +2.3147487970e+01 -1.6417250732e+01 +5.8087404598e+01 6.4648975691e+01 1.0566000000e-01 0.0000e+00 -1.0000e+00
      994  1    1    2    0    0 -1.4186251386e+01 +2.2786216219e+01 +1.2953152194e+01 1.3434748055e+02 1.3100000000e+02 0.0000e+00 0.0000e+00
      997  1    1    2    0    0 -8.9612365842e+00 -6.3689654871e+00 +4.2895943204e+02 4.3200354376e+02 5.0000000000e+01 0.0000e+00 0.0000e+00
</event>
</LesHouchesEvents>
